<LesHouchesEvents version="3.0">
<header>
<!--
#*********************************************************************
#                                                                    *
#                        MadGraph5_aMC@NLO                           *
#                                                                    *
#                           Going Beyond                             *
#                                                                    *
#                   http://madgraph.hep.uiuc.edu                     *
#                   http://madgraph.phys.ucl.ac.be                   *
#                   http://amcatnlo.cern.ch                          *
#                                                                    *
#                     The MadGraph5_aMC@NLO team                     *
#                                                                    *
#....................................................................*
#                                                                    *
# This file contains all the information necessary to reproduce      *
# the events generated:                                              *
#                                                                    *
# 1. software version                                                *
# 2. proc_card          : code generation info including model       *
# 3. param_card         : model primary parameters in the LH format  *
# 4. run_card           : running parameters (collider and cuts)     *
# 5. pythia_card        : present only if pythia has been run        *
# 6. pgs_card           : present only if pgs has been run           *
# 7. delphes_cards      : present only if delphes has been run       *
#                                                                    *
#                                                                    *
#*********************************************************************
-->
<MGVersion>
2.4.2
</MGVersion>
<MG5ProcCard>
#************************************************************
#*                     MadGraph5_aMC@NLO                    *
#*                                                          *
#*                *                       *                 *
#*                  *        * *        *                   *
#*                    * * * * 5 * * * *                     *
#*                  *        * *        *                   *
#*                *                       *                 *
#*                                                          *
#*                                                          *
#*         VERSION 2.4.2                 2016-06-10         *
#*                                                          *
#*    The MadGraph5_aMC@NLO Development Team - Find us at   *
#*    https://server06.fynu.ucl.ac.be/projects/madgraph     *
#*                                                          *
#************************************************************
#*                                                          *
#*               Command File for MadGraph5_aMC@NLO         *
#*                                                          *
#*     run as ./bin/mg5_aMC  filename                       *
#*                                                          *
#************************************************************
set group_subprocesses Auto
set ignore_six_quark_processes False
set loop_optimized_output True
set loop_color_flows False
set gauge unitary
set complex_mass_scheme False
set max_npoint_for_channel 0
import model sm
define p = g u c d s u~ c~ d~ s~
define j = g u c d s u~ c~ d~ s~
define l+ = e+ mu+
define l- = e- mu-
define vl = ve vm vt
define vl~ = ve~ vm~ vt~
generate p p > w+ w- , w+ > mu+ vm , w- > j j
output ppww
</MG5ProcCard>
<MGProcCard>
#*********************************************************************
#                        MadGraph/MadEvent                           *
#                   http://madgraph.hep.uiuc.edu                     *
#                                                                    *
#                          proc_card.dat                             *
#*********************************************************************
#                                                                    *
#            This Files is generated by MADGRAPH 5                   *
#                                                                    *
# WARNING: This Files is generated for MADEVENT (compatibility issue)*
#          This files is NOT a valid MG4 proc_card.dat               *
#          Running this in MG4 will NEVER reproduce the result of MG5*
#                                                                    *
#*********************************************************************
#*********************************************************************
# Process(es) requested : mg2 input                                  *
#*********************************************************************
# Begin PROCESS # This is TAG. Do not modify this line
p p > w+ w- , w+ > mu+ vm , w- > j j           #Process
# Be carefull the coupling are here in MG5 convention
          
end_coup           # End the couplings input

done               # this tells MG there are no more procs
# End PROCESS  # This is TAG. Do not modify this line
#*********************************************************************
# Model information                                                  *
#*********************************************************************
# Begin MODEL  # This is TAG. Do not modify this line
sm
# End   MODEL  # This is TAG. Do not modify this line
#*********************************************************************
# Start multiparticle definitions                                    *
#*********************************************************************
# Begin MULTIPARTICLES # This is TAG. Do not modify this line

# End  MULTIPARTICLES # This is TAG. Do not modify this line
</MGProcCard>
<MGRunCard>
#*********************************************************************
#                       MadGraph5_aMC@NLO                            *
#                                                                    *
#                     run_card.dat MadEvent                          *
#                                                                    *
#  This file is used to set the parameters of the run.               *
#                                                                    *
#  Some notation/conventions:                                        *
#                                                                    *
#   Lines starting with a '# ' are info or comments                  *
#                                                                    *
#   mind the format:   value    = variable     ! comment             *
#*********************************************************************
#
#*******************                                                 
# Running parameters
#*******************                                                 
#                                                                    
#*********************************************************************
# Tag name for the run (one word)                                    *
#*********************************************************************
  tag_1     = run_tag ! name of the run 
#*********************************************************************
# Run to generate the grid pack                                      *
#*********************************************************************
  False     = gridpack  !True = setting up the grid pack
#*********************************************************************
# Number of events and rnd seed                                      *
# Warning: Do not generate more than 1M events in a single run       *
# If you want to run Pythia, avoid more than 50k events in a run.    *
#*********************************************************************
  2000 = nevents ! Number of unweighted events requested 
 21 = iseed   ! rnd seed (0=assigned automatically=default))
#*********************************************************************
# Collider type and energy                                           *
# lpp: 0=No PDF, 1=proton, -1=antiproton, 2=photon from proton,      *
#                                         3=photon from electron     *
#*********************************************************************
     1        = lpp1    ! beam 1 type 
     1        = lpp2    ! beam 2 type
     6500.0     = ebeam1  ! beam 1 total energy in GeV
     6500.0     = ebeam2  ! beam 2 total energy in GeV
#*********************************************************************
# Beam polarization from -100 (left-handed) to 100 (right-handed)    *
#*********************************************************************
     0.0     = polbeam1 ! beam polarization for beam 1
     0.0     = polbeam2 ! beam polarization for beam 2
#*********************************************************************
# PDF CHOICE: this automatically fixes also alpha_s and its evol.    *
#*********************************************************************
     nn23lo1    = pdlabel     ! PDF set                                     
     230000    = lhaid     ! if pdlabel=lhapdf, this is the lhapdf number
#*********************************************************************
# Renormalization and factorization scales                           *
#*********************************************************************
 False = fixed_ren_scale  ! if .true. use fixed ren scale
 False        = fixed_fac_scale  ! if .true. use fixed fac scale
 91.188  = scale            ! fixed ren scale
 91.188  = dsqrt_q2fact1    ! fixed fact scale for pdf1
 91.188  = dsqrt_q2fact2    ! fixed fact scale for pdf2
 -1 = dynamical_scale_choice ! Choose one of the preselected dynamical choices
 1.0  = scalefact        ! scale factor for event-by-event scales
#*********************************************************************
# Time of flight information. (-1 means not run)
#*********************************************************************
 -1.0 = time_of_flight ! threshold below which info is not written
#*********************************************************************
# Matching - Warning! ickkw > 1 is still beta
#*********************************************************************
 0 = ickkw            ! 0 no matching, 1 MLM, 2 CKKW matching
 1 = highestmult      ! for ickkw=2, highest mult group
 1 = ktscheme         ! for ickkw=1, 1 Durham kT, 2 Pythia pTE
 1.0 = alpsfact         ! scale factor for QCD emission vx
 False = chcluster        ! cluster only according to channel diag
 True = pdfwgt           ! for ickkw=1, perform pdf reweighting
 4 = asrwgtflavor     ! highest quark flavor for a_s reweight
 True = clusinfo         ! include clustering tag in output
 3.0 = lhe_version       ! Change the way clustering information pass to shower.        
#*********************************************************************
#**********************************************************
#
#**********************************************************
# Automatic ptj and mjj cuts if xqcut > 0
# (turn off for VBF and single top processes)
#**********************************************************
   True  = auto_ptj_mjj  ! Automatic setting of ptj and mjj
#**********************************************************
#                                                                    
#**********************************
# BW cutoff (M+/-bwcutoff*Gamma)
#**********************************
  15.0  = bwcutoff      ! (M+/-bwcutoff*Gamma)
#**********************************************************
# Apply pt/E/eta/dr/mij/kt_durham cuts on decay products or not
# (note that etmiss/ptll/ptheavy/ht/sorted cuts always apply)
#*************************************************************
   False  = cut_decays    ! Cut decay products 
#*************************************************************
# Number of helicities to sum per event (0 = all helicities)
# 0 gives more stable result, but longer run time (needed for
# long decay chains e.g.).
# Use >=2 if most helicities contribute, e.g. pure QCD.
#*************************************************************
   0  = nhel          ! Number of helicities used per event
#*******************                                                 
# Standard Cuts
#*******************                                                 
#                                                                    
#*********************************************************************
# Minimum and maximum pt's (for max, -1 means no cut)                *
#*********************************************************************
 20.0  = ptj       ! minimum pt for the jets 
 0.0  = ptb       ! minimum pt for the b 
 10.0  = pta       ! minimum pt for the photons 
 10.0  = ptl       ! minimum pt for the charged leptons 
 0.0  = misset    ! minimum missing Et (sum of neutrino's momenta)
 0.0  = ptheavy   ! minimum pt for one heavy final state
 -1.0  = ptjmax    ! maximum pt for the jets
 -1.0  = ptbmax    ! maximum pt for the b
 -1.0  = ptamax    ! maximum pt for the photons
 -1.0  = ptlmax    ! maximum pt for the charged leptons
 -1.0  = missetmax ! maximum missing Et (sum of neutrino's momenta)
#*********************************************************************
# Minimum and maximum E's (in the center of mass frame)              *
#*********************************************************************
  0.0  = ej     ! minimum E for the jets 
  0.0  = eb     ! minimum E for the b 
  0.0  = ea     ! minimum E for the photons 
  0.0  = el     ! minimum E for the charged leptons 
  -1.0   = ejmax ! maximum E for the jets
 -1.0   = ebmax ! maximum E for the b
 -1.0   = eamax ! maximum E for the photons
 -1.0   = elmax ! maximum E for the charged leptons
#*********************************************************************
# Maximum and minimum absolute rapidity (for max, -1 means no cut)   *
#*********************************************************************
  5.0 = etaj    ! max rap for the jets 
  -1.0  = etab    ! max rap for the b
 2.5  = etaa    ! max rap for the photons 
 2.5  = etal    ! max rap for the charged leptons 
 0.0  = etajmin ! min rap for the jets
 0.0  = etabmin ! min rap for the b
 0.0  = etaamin ! min rap for the photons
 0.0  = etalmin ! main rap for the charged leptons
#*********************************************************************
# Minimum and maximum DeltaR distance                                *
#*********************************************************************
 0.4 = drjj    ! min distance between jets 
 0.0   = drbb    ! min distance between b's 
 0.4 = drll    ! min distance between leptons 
 0.4 = draa    ! min distance between gammas 
 0.0   = drbj    ! min distance between b and jet 
 0.4 = draj    ! min distance between gamma and jet 
 0.4 = drjl    ! min distance between jet and lepton 
 0.0   = drab    ! min distance between gamma and b 
 0.0   = drbl    ! min distance between b and lepton 
 0.4 = dral    ! min distance between gamma and lepton 
 -1.0  = drjjmax ! max distance between jets
 -1.0  = drbbmax ! max distance between b's
 -1.0  = drllmax ! max distance between leptons
 -1.0  = draamax ! max distance between gammas
 -1.0  = drbjmax ! max distance between b and jet
 -1.0  = drajmax ! max distance between gamma and jet
 -1.0  = drjlmax ! max distance between jet and lepton
 -1.0  = drabmax ! max distance between gamma and b
 -1.0  = drblmax ! max distance between b and lepton
 -1.0  = dralmax ! maxdistance between gamma and lepton
#*********************************************************************
# Minimum and maximum invariant mass for pairs                       *
# WARNING: for four lepton final state mmll cut require to have      *
#          different lepton masses for each flavor!                  *           
#*********************************************************************
 0.0   = mmjj    ! min invariant mass of a jet pair 
 0.0   = mmbb    ! min invariant mass of a b pair 
 0.0   = mmaa    ! min invariant mass of gamma gamma pair
 0.0   = mmll    ! min invariant mass of l+l- (same flavour) lepton pair
 -1.0  = mmjjmax ! max invariant mass of a jet pair
 -1.0  = mmbbmax ! max invariant mass of a b pair
 -1.0  = mmaamax ! max invariant mass of gamma gamma pair
 -1.0  = mmllmax ! max invariant mass of l+l- (same flavour) lepton pair
#*********************************************************************
# Minimum and maximum invariant mass for all letpons                 *
#*********************************************************************
 0.0   = mmnl    ! min invariant mass for all letpons (l+- and vl) 
 -1.0  = mmnlmax ! max invariant mass for all letpons (l+- and vl) 
#*********************************************************************
# Minimum and maximum pt for 4-momenta sum of leptons                *
#*********************************************************************
 0.0   = ptllmin  ! Minimum pt for 4-momenta sum of leptons(l and vl)
 -1.0  = ptllmax  ! Maximum pt for 4-momenta sum of leptons(l and vl)
#*********************************************************************
# Inclusive cuts                                                     *
#*********************************************************************
 0.0  = xptj ! minimum pt for at least one jet  
 0.0  = xptb ! minimum pt for at least one b 
 0.0  = xpta ! minimum pt for at least one photon 
 0.0  = xptl ! minimum pt for at least one charged lepton 
#*********************************************************************
# Control the pt's of the jets sorted by pt                          *
#*********************************************************************
 0.0   = ptj1min ! minimum pt for the leading jet in pt
 0.0   = ptj2min ! minimum pt for the second jet in pt
 0.0   = ptj3min ! minimum pt for the third jet in pt
 0.0   = ptj4min ! minimum pt for the fourth jet in pt
 -1.0  = ptj1max ! maximum pt for the leading jet in pt 
 -1.0  = ptj2max ! maximum pt for the second jet in pt
 -1.0  = ptj3max ! maximum pt for the third jet in pt
 -1.0  = ptj4max ! maximum pt for the fourth jet in pt
 0   = cutuse  ! reject event if fails any (0) / all (1) jet pt cuts
#*********************************************************************
# Control the pt's of leptons sorted by pt                           *
#*********************************************************************
 0.0   = ptl1min ! minimum pt for the leading lepton in pt
 0.0   = ptl2min ! minimum pt for the second lepton in pt
 0.0   = ptl3min ! minimum pt for the third lepton in pt
 0.0   = ptl4min ! minimum pt for the fourth lepton in pt
 -1.0  = ptl1max ! maximum pt for the leading lepton in pt 
 -1.0  = ptl2max ! maximum pt for the second lepton in pt
 -1.0  = ptl3max ! maximum pt for the third lepton in pt
 -1.0  = ptl4max ! maximum pt for the fourth lepton in pt
#*********************************************************************
# Control the Ht(k)=Sum of k leading jets                            *
#*********************************************************************
 0.0   = htjmin ! minimum jet HT=Sum(jet pt)
 -1.0  = htjmax ! maximum jet HT=Sum(jet pt)
 0.0   = ihtmin  !inclusive Ht for all partons (including b)
 -1.0  = ihtmax  !inclusive Ht for all partons (including b)
 0.0   = ht2min ! minimum Ht for the two leading jets
 0.0   = ht3min ! minimum Ht for the three leading jets
 0.0   = ht4min ! minimum Ht for the four leading jets
 -1.0  = ht2max ! maximum Ht for the two leading jets
 -1.0  = ht3max ! maximum Ht for the three leading jets
 -1.0  = ht4max ! maximum Ht for the four leading jets
#***********************************************************************
# Photon-isolation cuts, according to hep-ph/9801442                   *
# When ptgmin=0, all the other parameters are ignored                  *
# When ptgmin>0, pta and draj are not going to be used                 *
#***********************************************************************
 0.0 = ptgmin ! Min photon transverse momentum
 0.4 = R0gamma ! Radius of isolation code
 1.0 = xn ! n parameter of eq.(3.4) in hep-ph/9801442
 1.0 = epsgamma ! epsilon_gamma parameter of eq.(3.4) in hep-ph/9801442
 True = isoEM ! isolate photons from EM energy (photons and leptons)
#*********************************************************************
# WBF cuts                                                           *
#*********************************************************************
 0.0   = xetamin ! minimum rapidity for two jets in the WBF case  
 0.0   = deltaeta ! minimum rapidity for two jets in the WBF case 
#*********************************************************************
# KT DURHAM CUT                                                      *
#*********************************************************************
 -1.0    =  ktdurham        
 0.4  =  dparameter 
#*********************************************************************
# maximal pdg code for quark to be considered as a light jet         *
# (otherwise b cuts are applied)                                     *
#*********************************************************************
 4 = maxjetflavor    ! Maximum jet pdg code
#*********************************************************************
# Jet measure cuts                                                   *
#*********************************************************************
 0.0   = xqcut   ! minimum kt jet measure between partons
#*********************************************************************
#
#*********************************************************************
# Store info for systematics studies                                 *
# WARNING: If use_syst is T, matched Pythia output is                *
#          meaningful ONLY if plotted taking matchscale              *
#          reweighting into account!                                 *
#*********************************************************************
   False  = use_syst      ! Enable systematics studies
#
#**************************************
# Parameter of the systematics study
#  will be used by SysCalc (if installed)
#**************************************                                  
#
0.5 1 2 = sys_scalefact  # factorization/renormalization scale factor
None = sys_alpsfact  # \alpha_s emission scale factors
30 50 = sys_matchscale # variation of merging scale
# PDF sets and number of members (0 or none for all members).
NNPDF23_lo_as_0130_qed = sys_pdf # matching scales
# MSTW2008nlo68cl.LHgrid 1  = sys_pdf
</MGRunCard>
<slha>
######################################################################
## PARAM_CARD AUTOMATICALY GENERATED BY MG5 FOLLOWING UFO MODEL   ####
######################################################################
##                                                                  ##
##  Width set on Auto will be computed following the information    ##
##        present in the decay.py files of the model.               ##
##        See  arXiv:1402.1178 for more details.                    ##
##                                                                  ##
######################################################################

###################################
## INFORMATION FOR MASS
###################################
Block mass 
    5 4.700000e+00 # MB 
    6 1.730000e+02 # MT 
   15 1.777000e+00 # MTA 
   23 9.118800e+01 # MZ 
   25 1.250000e+02 # MH 
## Dependent parameters, given by model restrictions.
## Those values should be edited following the 
## analytical expression. MG5 ignores those values 
## but they are important for interfacing the output of MG5
## to external program such as Pythia.
  1 0.000000 # d : 0.0 
  2 0.000000 # u : 0.0 
  3 0.000000 # s : 0.0 
  4 0.000000 # c : 0.0 
  11 0.000000 # e- : 0.0 
  12 0.000000 # ve : 0.0 
  13 0.000000 # mu- : 0.0 
  14 0.000000 # vm : 0.0 
  16 0.000000 # vt : 0.0 
  21 0.000000 # g : 0.0 
  22 0.000000 # a : 0.0 
  24 80.419002 # w+ : cmath.sqrt(MZ__exp__2/2. + cmath.sqrt(MZ__exp__4/4. - (aEW*cmath.pi*MZ__exp__2)/(Gf*sqrt__2))) 

###################################
## INFORMATION FOR SMINPUTS
###################################
Block sminputs 
    1 1.325070e+02 # aEWM1 
    2 1.166390e-05 # Gf 
    3 1.180000e-01 # aS 

###################################
## INFORMATION FOR YUKAWA
###################################
Block yukawa 
    5 4.700000e+00 # ymb 
    6 1.730000e+02 # ymt 
   15 1.777000e+00 # ymtau 

###################################
## INFORMATION FOR DECAY
###################################
DECAY   6 1.491500e+00 # WT 
DECAY  23 2.441404e+00 # WZ 
DECAY  24 2.047600e+00 # WW 
DECAY  25 6.382339e-03 # WH 
## Dependent parameters, given by model restrictions.
## Those values should be edited following the 
## analytical expression. MG5 ignores those values 
## but they are important for interfacing the output of MG5
## to external program such as Pythia.
DECAY  1 0.000000 # d : 0.0 
DECAY  2 0.000000 # u : 0.0 
DECAY  3 0.000000 # s : 0.0 
DECAY  4 0.000000 # c : 0.0 
DECAY  5 0.000000 # b : 0.0 
DECAY  11 0.000000 # e- : 0.0 
DECAY  12 0.000000 # ve : 0.0 
DECAY  13 0.000000 # mu- : 0.0 
DECAY  14 0.000000 # vm : 0.0 
DECAY  15 0.000000 # ta- : 0.0 
DECAY  16 0.000000 # vt : 0.0 
DECAY  21 0.000000 # g : 0.0 
DECAY  22 0.000000 # a : 0.0
</slha>
## END BANNER##
<MGGenerationInfo>
#  Number of Events        :         2000
#  Integrated weight (pb)  :  0.45592E+01
#  Truncated wgt (pb)      :  0.20112E-03
#  Unit wgt                :  0.22796E-02
</MGGenerationInfo>
</header>
<init>
     2212     2212  0.65000000000E+04  0.65000000000E+04 0 0  247000  247000  3   1
  0.45592481918E+01  0.26440279477E-01  0.22796000000E-02   1
<generator name='MadGraph5_aMC@NLO' version='2.4.2'>please cite 1405.0301 </generator>
</init>
<event>
 8   1  0.2279600E-02  0.8391327E+02  0.7546771E-02  0.1322485E+00
       -2   -1    0    0    0  501 -0.00000000000E+00  0.00000000000E+00  0.54946552359E+01  0.54946552359E+01  0.00000000000E+00 0.  1.
        2   -1    0    0  501    0  0.00000000000E+00 -0.00000000000E+00 -0.18205594536E+04  0.18205594536E+04  0.00000000000E+00 0. -1.
       24    2    1    2    0    0 -0.16770466611E+02 -0.73613410107E+01 -0.14220740219E+04  0.14242044019E+04  0.75684983902E+02 0.  0.
      -24    2    1    2    0    0  0.16770466611E+02  0.73613410107E+01 -0.39299077641E+03  0.40184970686E+03  0.81890162237E+02 0.  0.
      -13    1    3    3    0    0  0.47678031704E-01  0.26535386230E+02 -0.22929417752E+03  0.23082449792E+03  0.00000000000E+00 0.  1.
       14    1    3    3    0    0 -0.16818144643E+02 -0.33896727240E+02 -0.11927798444E+04  0.11933799040E+04  0.00000000000E+00 0. -1.
        3    1    4    4  502    0  0.28304974383E+02 -0.23609791379E+02 -0.31494820329E+03  0.31709772087E+03  0.00000000000E+00 0. -1.
       -4    1    4    4    0  502 -0.11534507772E+02  0.30971132390E+02 -0.78042573119E+02  0.84751985995E+02  0.00000000000E+00 0.  1.
</event>
<event>
 8   1  0.2279600E-02  0.1035129E+03  0.7546771E-02  0.1274024E+00
        1   -1    0    0  501    0  0.00000000000E+00  0.00000000000E+00  0.64834995846E+03  0.64834995846E+03  0.00000000000E+00 0. -1.
       -1   -1    0    0    0  501 -0.00000000000E+00 -0.00000000000E+00 -0.19127898535E+02  0.19127898535E+02  0.00000000000E+00 0.  1.
       24    2    1    2    0    0 -0.10604225237E+02 -0.61469175220E+02  0.18227697116E+03  0.20870250272E+03  0.80255413095E+02 0.  0.
      -24    2    1    2    0    0  0.10604225237E+02  0.61469175220E+02  0.44694508876E+03  0.45877535427E+03  0.82607531289E+02 0.  0.
      -13    1    3    3    0    0 -0.15448721186E+02 -0.42311378042E+02  0.27724799973E+02  0.52892156618E+02  0.00000000000E+00 0.  1.
       14    1    3    3    0    0  0.48444959483E+01 -0.19157797178E+02  0.15455217119E+03  0.15581034611E+03  0.00000000000E+00 0. -1.
        1    1    4    4  502    0  0.17435354607E+02  0.80287119405E+02  0.32652522290E+03  0.33670273881E+03  0.00000000000E+00 0. -1.
       -2    1    4    4    0  502 -0.68311293698E+01 -0.18817944185E+02  0.12041986586E+03  0.12207261546E+03  0.00000000000E+00 0.  1.
</event>
<event>
 8   1  0.2279600E-02  0.1163052E+03  0.7546771E-02  0.1250365E+00
       -2   -1    0    0    0  501 -0.00000000000E+00  0.00000000000E+00  0.41535296608E+02  0.41535296608E+02  0.00000000000E+00 0.  1.
        2   -1    0    0  501    0  0.00000000000E+00 -0.00000000000E+00 -0.67877572850E+03  0.67877572850E+03  0.00000000000E+00 0. -1.
      -24    2    1    2    0    0 -0.19980194154E+02 -0.81098570980E+02 -0.54849390904E+02  0.12642026799E+03  0.77443154006E+02 0.  0.
       24    2    1    2    0    0  0.19980194154E+02  0.81098570980E+02 -0.58239104099E+03  0.59389075712E+03  0.80936520774E+02 0.  0.
      -13    1    4    4    0    0  0.40084803272E+02  0.24278992451E+02 -0.14547862166E+03  0.15284073504E+03  0.00000000000E+00 0.  1.
       14    1    4    4    0    0 -0.20104609118E+02  0.56819578528E+02 -0.43691241933E+03  0.44105002208E+03  0.00000000000E+00 0. -1.
        3    1    3    3  502    0 -0.24656741957E+02 -0.29754534368E+02 -0.63312348022E+02  0.74173719412E+02  0.00000000000E+00 0. -1.
       -4    1    3    3    0  502  0.46765478031E+01 -0.51344036612E+02  0.84629571182E+01  0.52246548576E+02  0.00000000000E+00 0.  1.
</event>
<event>
 8   1  0.2279600E-02  0.8074398E+02  0.7546771E-02  0.1327333E+00
       -4   -1    0    0    0  501 -0.00000000000E+00  0.00000000000E+00  0.35102596140E+02  0.35102596140E+02  0.00000000000E+00 0.  1.
        4   -1    0    0  501    0  0.00000000000E+00 -0.00000000000E+00 -0.36327010360E+03  0.36327010360E+03  0.00000000000E+00 0. -1.
      -24    2    1    2    0    0 -0.68189521110E+01  0.15103240417E+01 -0.24628858149E+02  0.84416651338E+02  0.80441352442E+02 0.  0.
       24    2    1    2    0    0  0.68189521110E+01 -0.15103240417E+01 -0.30353864931E+03  0.31395604840E+03  0.79899371190E+02 0.  0.
      -13    1    4    4    0    0  0.21567694914E+02 -0.27625720758E+02 -0.67855642099E+02  0.76372338421E+02  0.00000000000E+00 0.  1.
       14    1    4    4    0    0 -0.14748742803E+02  0.26115396717E+02 -0.23568300721E+03  0.23758370998E+03  0.00000000000E+00 0. -1.
        3    1    3    3  502    0  0.32116656349E+02  0.19745167608E+02 -0.10039269588E+02  0.39014589486E+02  0.00000000000E+00 0. -1.
       -4    1    3    3    0  502 -0.38935608460E+02 -0.18234843567E+02 -0.14589588562E+02  0.45402061852E+02  0.00000000000E+00 0.  1.
</event>
<event>
 8   1  0.2279600E-02  0.2020269E+03  0.7546771E-02  0.1148179E+00
        2   -1    0    0  501    0  0.00000000000E+00  0.00000000000E+00  0.15965798804E+04  0.15965798804E+04  0.00000000000E+00 0. -1.
       -2   -1    0    0    0  501 -0.00000000000E+00 -0.00000000000E+00 -0.25651623818E+02  0.25651623818E+02  0.00000000000E+00 0.  1.
      -24    2    1    2    0    0  0.13401756464E+03 -0.12853142658E+03  0.85317499062E+03  0.87676818043E+03  0.79585440479E+02 0.  0.
       24    2    1    2    0    0 -0.13401756464E+03  0.12853142658E+03  0.71775326592E+03  0.74546332375E+03  0.77876704263E+02 0.  0.
      -13    1    4    4    0    0 -0.26239570854E+02  0.34189782291E+01  0.40572704226E+02  0.48439124878E+02  0.00000000000E+00 0.  1.
       14    1    4    4    0    0 -0.10777799379E+03  0.12511244835E+03  0.67718056170E+03  0.69702419887E+03  0.00000000000E+00 0. -1.
        1    1    3    3  502    0  0.92109244500E+00 -0.17667299685E+02  0.20777131024E+03  0.20852313840E+03  0.00000000000E+00 0. -1.
       -2    1    3    3    0  502  0.13309647220E+03 -0.11086412689E+03  0.64540368038E+03  0.66824504203E+03  0.00000000000E+00 0.  1.
</event>
<event>
 8   1  0.2279600E-02  0.1090490E+03  0.7546771E-02  0.1262557E+00
        2   -1    0    0  501    0  0.00000000000E+00  0.00000000000E+00  0.95222169333E+02  0.95222169333E+02  0.00000000000E+00 0. -1.
       -2   -1    0    0    0  501 -0.00000000000E+00 -0.00000000000E+00 -0.12960259509E+03  0.12960259509E+03  0.00000000000E+00 0.  1.
       24    2    1    2    0    0  0.13150744561E+02  0.70714632613E+02  0.53888149007E+01  0.10918202672E+03  0.81964469650E+02 0.  0.
      -24    2    1    2    0    0 -0.13150744561E+02 -0.70714632613E+02 -0.39769240662E+02  0.11564273771E+03  0.81352006325E+02 0.  0.
      -13    1    3    3    0    0 -0.14497651393E+02 -0.77811256035E+00 -0.23202596598E+02  0.27370565284E+02  0.00000000000E+00 0.  1.
       14    1    3    3    0    0  0.27648395954E+02  0.71492745174E+02  0.28591411498E+02  0.81811461439E+02  0.00000000000E+00 0. -1.
        1    1    4    4  502    0  0.20423990985E+02 -0.69539722442E+02 -0.38396230959E+02  0.82019405977E+02  0.00000000000E+00 0. -1.
       -2    1    4    4    0  502 -0.33574735546E+02 -0.11749101714E+01 -0.13730097033E+01  0.33623331728E+02  0.00000000000E+00 0.  1.
</event>
<event>
 8   1  0.2279600E-02  0.8442810E+02  0.7546771E-02  0.1319700E+00
       -2   -1    0    0    0  501 -0.00000000000E+00  0.00000000000E+00  0.13026749241E+02  0.13026749241E+02  0.00000000000E+00 0.  1.
        2   -1    0    0  501    0  0.00000000000E+00 -0.00000000000E+00 -0.89547917259E+03  0.89547917259E+03  0.00000000000E+00 0. -1.
      -24    2    1    2    0    0  0.88137908280E+00  0.11986836302E+02 -0.15390784376E+03  0.17554409390E+03  0.83568196454E+02 0.  0.
       24    2    1    2    0    0 -0.88137908280E+00 -0.11986836302E+02 -0.72854457958E+03  0.73296182793E+03  0.79444167075E+02 0.  0.
      -13    1    4    4    0    0 -0.18666969257E+01  0.33974479627E+02 -0.27652901535E+03  0.27861451175E+03  0.00000000000E+00 0.  1.
       14    1    4    4    0    0  0.98531784288E+00 -0.45961315929E+02 -0.45201556423E+03  0.45434731618E+03  0.00000000000E+00 0. -1.
        1    1    3    3  502    0 -0.76830107109E+01 -0.24207593260E+01 -0.15806921361E+03  0.15827433469E+03  0.00000000000E+00 0. -1.
       -2    1    3    3    0  502  0.85643897937E+01  0.14407595628E+02  0.41613698479E+01  0.17269759215E+02  0.00000000000E+00 0.  1.
</event>
<event>
 8   1  0.2279600E-02  0.1239913E+03  0.7546771E-02  0.1237248E+00
       -2   -1    0    0    0  501 -0.00000000000E+00  0.00000000000E+00  0.42537820176E+01  0.42537820176E+01  0.00000000000E+00 0.  1.
        2   -1    0    0  501    0  0.00000000000E+00 -0.00000000000E+00 -0.35975507949E+04  0.35975507949E+04  0.00000000000E+00 0. -1.
      -24    2    1    2    0    0 -0.51571234099E+02  0.74084282207E+02 -0.19628221084E+04  0.19667344718E+04  0.85004590210E+02 0.  0.
       24    2    1    2    0    0  0.51571234099E+02 -0.74084282207E+02 -0.16304749045E+04  0.16350701051E+04  0.82811601766E+02 0.  0.
      -13    1    4    4    0    0  0.16893759856E+01 -0.32775147945E+02 -0.16878480768E+03  0.17194585083E+03  0.00000000000E+00 0.  1.
       14    1    4    4    0    0  0.49881858114E+02 -0.41309134262E+02 -0.14616900968E+04  0.14631242543E+04  0.00000000000E+00 0. -1.
        1    1    3    3  502    0  0.74819129833E+01 -0.13373628026E+02 -0.43636557123E+03  0.43663456654E+03  0.00000000000E+00 0. -1.
       -2    1    3    3    0  502 -0.59053147082E+02  0.87457910232E+02 -0.15264565372E+04  0.15300999053E+04  0.00000000000E+00 0.  1.
</event>
<event>
 8   1  0.2279600E-02  0.1015213E+03  0.7546771E-02  0.1278501E+00
        1   -1    0    0  501    0  0.00000000000E+00  0.00000000000E+00  0.65513221595E+02  0.65513221595E+02  0.00000000000E+00 0. -1.
       -1   -1    0    0    0  501 -0.00000000000E+00 -0.00000000000E+00 -0.21695462564E+03  0.21695462564E+03  0.00000000000E+00 0.  1.
       24    2    1    2    0    0  0.44981538807E+02  0.37879153363E+02 -0.15293076044E+03  0.18356031606E+03  0.82755078693E+02 0.  0.
      -24    2    1    2    0    0 -0.44981538807E+02 -0.37879153363E+02  0.14893563967E+01  0.98907531175E+02  0.79512970311E+02 0.  0.
      -13    1    3    3    0    0  0.51850234687E+02 -0.13678194671E+01 -0.12373029414E+03  0.13416222812E+03  0.00000000000E+00 0.  1.
       14    1    3    3    0    0 -0.68686958794E+01  0.39246972831E+02 -0.29200466302E+02  0.49398087936E+02  0.00000000000E+00 0. -1.
        1    1    4    4  502    0 -0.67311803760E+02 -0.24974171735E+02 -0.60147003715E+01  0.72046962461E+02  0.00000000000E+00 0. -1.
       -2    1    4    4    0  502  0.22330264953E+02 -0.12904981628E+02  0.75040567682E+01  0.26860568714E+02  0.00000000000E+00 0.  1.
</event>
<event>
 8   1  0.2279600E-02  0.8457990E+02  0.7546771E-02  0.1316658E+00
        1   -1    0    0  501    0  0.00000000000E+00  0.00000000000E+00  0.13919078433E+04  0.13919078433E+04  0.00000000000E+00 0. -1.
       -1   -1    0    0    0  501 -0.00000000000E+00 -0.00000000000E+00 -0.52438455407E+01  0.52438455407E+01  0.00000000000E+00 0.  1.
       24    2    1    2    0    0 -0.22290392912E+02 -0.16941972801E+02  0.59034625024E+03  0.59637442429E+03  0.79811444767E+02 0.  0.
      -24    2    1    2    0    0  0.22290392912E+02  0.16941972801E+02  0.79631774755E+03  0.80077726458E+03  0.79613945697E+02 0.  0.
      -13    1    3    3    0    0 -0.41491464412E+02 -0.17542159943E+02  0.17905125209E+03  0.18463103712E+03  0.00000000000E+00 0.  1.
       14    1    3    3    0    0  0.19201071500E+02  0.60018714225E+00  0.41129499815E+03  0.41174338717E+03  0.00000000000E+00 0. -1.
        3    1    4    4  502    0  0.45643745812E+02  0.44127218142E+01  0.67702055566E+03  0.67857177692E+03  0.00000000000E+00 0. -1.
       -4    1    4    4    0  502 -0.23353352900E+02  0.12529250987E+02  0.11929719189E+03  0.12220548767E+03  0.00000000000E+00 0.  1.
</event>
<event>
 8   1  0.2279600E-02  0.8570574E+02  0.7546771E-02  0.1316574E+00
        1   -1    0    0  501    0  0.00000000000E+00  0.00000000000E+00  0.39006842123E+03  0.39006842123E+03  0.00000000000E+00 0. -1.
       -1   -1    0    0    0  501 -0.00000000000E+00 -0.00000000000E+00 -0.38917524251E+02  0.38917524251E+02  0.00000000000E+00 0.  1.
       24    2    1    2    0    0 -0.11849622864E+02 -0.14241428103E+02  0.33116260252E+03  0.34098023556E+03  0.79092476869E+02 0.  0.
      -24    2    1    2    0    0  0.11849622864E+02  0.14241428103E+02  0.19988294464E+02  0.88005709928E+02  0.83679395480E+02 0.  0.
      -13    1    3    3    0    0 -0.29287729152E+02  0.11703452463E+02  0.27416287988E+03  0.27597106113E+03  0.00000000000E+00 0.  1.
       14    1    3    3    0    0  0.17438106288E+02 -0.25944880567E+02  0.56999722640E+02  0.65009174426E+02  0.00000000000E+00 0. -1.
        1    1    4    4  502    0  0.11597819294E+02 -0.34773111900E+02  0.73213219145E+01  0.37380215063E+02  0.00000000000E+00 0. -1.
       -2    1    4    4    0  502  0.25180357053E+00  0.49014540003E+02  0.12666972550E+02  0.50625494865E+02  0.00000000000E+00 0.  1.
</event>
<event>
 8   1  0.2279600E-02  0.1347195E+03  0.7546771E-02  0.1222110E+00
       -2   -1    0    0    0  501 -0.00000000000E+00  0.00000000000E+00  0.73387740356E+02  0.73387740356E+02  0.00000000000E+00 0.  1.
        2   -1    0    0  501    0  0.00000000000E+00 -0.00000000000E+00 -0.25955851023E+03  0.25955851023E+03  0.00000000000E+00 0. -1.
      -24    2    1    2    0    0  0.94787462977E+02 -0.41369310385E+02 -0.14041879514E+03  0.19459389360E+03  0.86332279141E+02 0.  0.
       24    2    1    2    0    0 -0.94787462977E+02  0.41369310385E+02 -0.45751974740E+02  0.13835235698E+03  0.79699739715E+02 0.  0.
      -13    1    4    4    0    0 -0.21609975015E+02  0.38323746436E+02 -0.47953145578E+02  0.65078450595E+02  0.00000000000E+00 0.  1.
       14    1    4    4    0    0 -0.73177487961E+02  0.30455639490E+01  0.22011708387E+01  0.73273906387E+02  0.00000000000E+00 0. -1.
        3    1    3    3  502    0  0.37873533519E+02 -0.31684740118E+01 -0.11561008816E+03  0.12169690321E+03  0.00000000000E+00 0. -1.
       -4    1    3    3    0  502  0.56913929457E+02 -0.38200836373E+02 -0.24808706980E+02  0.72896990390E+02  0.00000000000E+00 0.  1.
</event>
<event>
 8   1  0.2279600E-02  0.8085827E+02  0.7546771E-02  0.1336832E+00
       -4   -1    0    0    0  501 -0.00000000000E+00  0.00000000000E+00  0.50979164174E+03  0.50979164174E+03  0.00000000000E+00 0.  1.
        4   -1    0    0  501    0  0.00000000000E+00 -0.00000000000E+00 -0.25689363876E+02  0.25689363876E+02  0.00000000000E+00 0. -1.
      -24    2    1    2    0    0 -0.86447068424E+01  0.72303047983E+01  0.45456663858E+03  0.46170216387E+03  0.80069038662E+02 0.  0.
       24    2    1    2    0    0  0.86447068424E+01 -0.72303047983E+01  0.29535639284E+02  0.73778841741E+02  0.66662997509E+02 0.  0.
      -13    1    4    4    0    0  0.17220908592E+01  0.27057322843E+02  0.27686425643E+02  0.38750515883E+02  0.00000000000E+00 0.  1.
       14    1    4    4    0    0  0.69226159831E+01 -0.34287627641E+02  0.18492136411E+01  0.35028325858E+02  0.00000000000E+00 0. -1.
        3    1    3    3  502    0  0.17011382439E+02 -0.70494222192E+01  0.24571582587E+02  0.30705767487E+02  0.00000000000E+00 0. -1.
       -4    1    3    3    0  502 -0.25656089281E+02  0.14279727018E+02  0.42999505599E+03  0.43099639639E+03  0.00000000000E+00 0.  1.
</event>
<event>
 8   1  0.2279600E-02  0.8739549E+02  0.7546771E-02  0.1312179E+00
       -4   -1    0    0    0  501 -0.00000000000E+00  0.00000000000E+00  0.68124921106E+02  0.68124921106E+02  0.00000000000E+00 0.  1.
        4   -1    0    0  501    0  0.00000000000E+00 -0.00000000000E+00 -0.19030934835E+03  0.19030934835E+03  0.00000000000E+00 0. -1.
      -24    2    1    2    0    0  0.23660026107E+02  0.13862469317E+01  0.23766413395E+02  0.90569392473E+02  0.84120472724E+02 0.  0.
       24    2    1    2    0    0 -0.23660026107E+02 -0.13862469317E+01 -0.14595084063E+03  0.16786487698E+03  0.79468550542E+02 0.  0.
      -13    1    4    4    0    0  0.24924639261E+01 -0.22460700290E+02 -0.52360991598E+01  0.23197244844E+02  0.00000000000E+00 0.  1.
       14    1    4    4    0    0 -0.26152490033E+02  0.21074453358E+02 -0.14071474147E+03  0.14466763213E+03  0.00000000000E+00 0. -1.
        3    1    3    3  502    0 -0.31784744115E+02  0.29544691238E+01  0.92255824572E+01  0.33228153995E+02  0.00000000000E+00 0. -1.
       -4    1    3    3    0  502  0.55444770222E+02 -0.15682221921E+01  0.14540830938E+02  0.57341238478E+02  0.00000000000E+00 0.  1.
</event>
<event>
 8   1  0.2279600E-02  0.8521857E+02  0.7546771E-02  0.1319329E+00
        2   -1    0    0  501    0  0.00000000000E+00  0.00000000000E+00  0.24076066649E+04  0.24076066649E+04  0.00000000000E+00 0. -1.
       -2   -1    0    0    0  501 -0.00000000000E+00 -0.00000000000E+00 -0.42611814426E+01  0.42611814426E+01  0.00000000000E+00 0.  1.
      -24    2    1    2    0    0 -0.27789378477E+02  0.85787874156E+01  0.46158036467E+03  0.46823362637E+03  0.73078387079E+02 0.  0.
       24    2    1    2    0    0  0.27789378477E+02 -0.85787874156E+01  0.19417651188E+04  0.19436342200E+04  0.80102180924E+02 0.  0.
      -13    1    4    4    0    0  0.32208594441E+02  0.30697509356E+02  0.11889628991E+04  0.11897951530E+04  0.00000000000E+00 0.  1.
       14    1    4    4    0    0 -0.44192159634E+01 -0.39276296772E+02  0.75280221965E+03  0.75383906696E+03  0.00000000000E+00 0. -1.
        3    1    3    3  502    0 -0.22512970846E+02 -0.94870506391E+01  0.43488599666E+03  0.43557165665E+03  0.00000000000E+00 0. -1.
       -4    1    3    3    0  502 -0.52764076315E+01  0.18065838055E+02  0.26694368018E+02  0.32661969720E+02  0.00000000000E+00 0.  1.
</event>
<event>
 8   1  0.2279600E-02  0.1024810E+03  0.7546771E-02  0.1277053E+00
        1   -1    0    0  501    0  0.00000000000E+00  0.00000000000E+00  0.69514704713E+03  0.69514704713E+03  0.00000000000E+00 0. -1.
       -1   -1    0    0    0  501 -0.00000000000E+00 -0.00000000000E+00 -0.18176947190E+02  0.18176947190E+02  0.00000000000E+00 0.  1.
       24    2    1    2    0    0 -0.21812980071E+02 -0.58881219054E+02  0.50211710881E+03  0.51246847379E+03  0.80990997089E+02 0.  0.
      -24    2    1    2    0    0  0.21812980071E+02  0.58881219054E+02  0.17485299112E+03  0.20085552053E+03  0.76331956374E+02 0.  0.
      -13    1    3    3    0    0  0.23359838096E+02  0.36485136670E+01  0.16179394447E+03  0.16351230582E+03  0.00000000000E+00 0.  1.
       14    1    3    3    0    0 -0.45172818167E+02 -0.62529732721E+02  0.34032316434E+03  0.34895616797E+03  0.00000000000E+00 0. -1.
        3    1    4    4  502    0  0.14097817969E+02  0.19522516879E+02  0.15357805899E+03  0.15545448639E+03  0.00000000000E+00 0. -1.
       -4    1    4    4    0  502  0.77151621022E+01  0.39358702175E+02  0.21274932137E+02  0.45401034135E+02  0.00000000000E+00 0.  1.
</event>
<event>
 8   1  0.2279600E-02  0.8479971E+02  0.7546771E-02  0.1316597E+00
       -2   -1    0    0    0  501 -0.00000000000E+00  0.00000000000E+00  0.20893840819E+02  0.20893840819E+02  0.00000000000E+00 0.  1.
        2   -1    0    0  501    0  0.00000000000E+00 -0.00000000000E+00 -0.88104507553E+03  0.88104507553E+03  0.00000000000E+00 0. -1.
      -24    2    1    2    0    0  0.44074849281E+01 -0.23644168051E+02 -0.75804440731E+02  0.11302137685E+03  0.80305951113E+02 0.  0.
       24    2    1    2    0    0 -0.44074849281E+01  0.23644168051E+02 -0.78434679398E+03  0.78891753950E+03  0.81317392353E+02 0.  0.
      -13    1    4    4    0    0 -0.18051241149E+02 -0.25315069148E+02 -0.20483353597E+03  0.20717981922E+03  0.00000000000E+00 0.  1.
       14    1    4    4    0    0  0.13643756221E+02  0.48959237200E+02 -0.57951325802E+03  0.58173772029E+03  0.00000000000E+00 0. -1.
        1    1    3    3  502    0 -0.21271708155E+02 -0.43789957613E+02 -0.58406888007E+02  0.76035587209E+02  0.00000000000E+00 0. -1.
       -2    1    3    3    0  502  0.25679193083E+02  0.20145789562E+02 -0.17397552723E+02  0.36985789639E+02  0.00000000000E+00 0.  1.
</event>
<event>
 8   1  0.2279600E-02  0.8298158E+02  0.7546771E-02  0.1321009E+00
        2   -1    0    0  501    0  0.00000000000E+00  0.00000000000E+00  0.22655398011E+04  0.22655398011E+04  0.00000000000E+00 0. -1.
       -2   -1    0    0    0  501 -0.00000000000E+00 -0.00000000000E+00 -0.10355075536E+02  0.10355075536E+02  0.00000000000E+00 0.  1.
      -24    2    1    2    0    0  0.12149307628E+02 -0.19833428758E+02  0.16975076329E+03  0.18881060571E+03  0.79329393155E+02 0.  0.
       24    2    1    2    0    0 -0.12149307628E+02  0.19833428758E+02  0.20854339622E+04  0.20870842709E+04  0.79655334872E+02 0.  0.
      -13    1    4    4    0    0 -0.21958874273E+02  0.14029888931E+02  0.20932874673E+03  0.21094443380E+03  0.00000000000E+00 0.  1.
       14    1    4    4    0    0  0.98095666449E+01  0.58035398267E+01  0.18761052155E+04  0.18761398371E+04  0.00000000000E+00 0. -1.
        1    1    3    3  502    0  0.13884125146E+02 -0.87901444882E+01  0.17548103398E+03  0.17624876980E+03  0.00000000000E+00 0. -1.
       -2    1    3    3    0  502 -0.17348175187E+01 -0.11043284270E+02 -0.57302706839E+01  0.12561835909E+02  0.00000000000E+00 0.  1.
</event>
<event>
 8   1  0.2279600E-02  0.1058027E+03  0.7546771E-02  0.1269343E+00
        1   -1    0    0  501    0  0.00000000000E+00  0.00000000000E+00  0.49370741598E+03  0.49370741598E+03  0.00000000000E+00 0. -1.
       -1   -1    0    0    0  501 -0.00000000000E+00 -0.00000000000E+00 -0.32186081489E+02  0.32186081489E+02  0.00000000000E+00 0.  1.
       24    2    1    2    0    0  0.65175652007E+02 -0.18802843415E+02  0.86475376300E+02  0.13664627088E+03  0.81196059667E+02 0.  0.
      -24    2    1    2    0    0 -0.65175652007E+02  0.18802843415E+02  0.37504595819E+03  0.38924722659E+03  0.79072878491E+02 0.  0.
      -13    1    3    3    0    0  0.71814257781E+02 -0.26952773872E+02  0.35363829806E+02  0.84465022930E+02  0.00000000000E+00 0.  1.
       14    1    3    3    0    0 -0.66386057741E+01  0.81499304570E+01  0.51111546494E+02  0.52181247955E+02  0.00000000000E+00 0. -1.
        3    1    4    4  502    0 -0.67562743141E+02 -0.15185026067E+02  0.22679189678E+03  0.23712839079E+03  0.00000000000E+00 0. -1.
       -4    1    4    4    0  502  0.23870911339E+01  0.33987869481E+02  0.14825406142E+03  0.15211883579E+03  0.00000000000E+00 0.  1.
</event>
<event>
 8   1  0.2279600E-02  0.8987683E+02  0.7546771E-02  0.1303223E+00
        2   -1    0    0  501    0  0.00000000000E+00  0.00000000000E+00  0.19637611506E+04  0.19637611506E+04  0.00000000000E+00 0. -1.
       -2   -1    0    0    0  501 -0.00000000000E+00 -0.00000000000E+00 -0.42942739737E+01  0.42942739737E+01  0.00000000000E+00 0.  1.
      -24    2    1    2    0    0  0.37404108617E+02  0.17581393212E+02  0.11840810348E+04  0.11874780436E+04  0.79674552968E+02 0.  0.
       24    2    1    2    0    0 -0.37404108617E+02 -0.17581393212E+02  0.77538584182E+03  0.78057738094E+03  0.79810219987E+02 0.  0.
      -13    1    4    4    0    0  0.61602094034E+01  0.22899157730E+02  0.38055758743E+03  0.38129568180E+03  0.00000000000E+00 0.  1.
       14    1    4    4    0    0 -0.43564318020E+02 -0.40480550943E+02  0.39482825438E+03  0.39928169914E+03  0.00000000000E+00 0. -1.
        1    1    3    3  502    0  0.60184389498E+01 -0.30748706581E+02  0.34463984241E+03  0.34606115867E+03  0.00000000000E+00 0. -1.
       -2    1    3    3    0  502  0.31385669667E+02  0.48330099793E+02  0.83944119235E+03  0.84141688492E+03  0.00000000000E+00 0.  1.
</event>
<event>
 8   1  0.2279600E-02  0.1194170E+03  0.7546771E-02  0.1244198E+00
        1   -1    0    0  501    0  0.00000000000E+00  0.00000000000E+00  0.17594495274E+02  0.17594495274E+02  0.00000000000E+00 0. -1.
       -1   -1    0    0    0  501 -0.00000000000E+00 -0.00000000000E+00 -0.87683701416E+03  0.87683701416E+03  0.00000000000E+00 0.  1.
       24    2    1    2    0    0  0.83135976474E+02  0.28805217088E+02 -0.55412168236E+03  0.56677447245E+03  0.80256667239E+02 0.  0.
      -24    2    1    2    0    0 -0.83135976474E+02 -0.28805217088E+02 -0.30512083652E+03  0.32765703698E+03  0.80740806849E+02 0.  0.
      -13    1    3    3    0    0  0.61049833126E+02 -0.20818176189E+02 -0.31977155896E+03  0.32621209129E+03  0.00000000000E+00 0.  1.
       14    1    3    3    0    0  0.22086143348E+02  0.49623393277E+02 -0.23435012340E+03  0.24056238116E+03  0.00000000000E+00 0. -1.
        3    1    4    4  502    0 -0.68053005393E+02  0.14098821491E+02 -0.13874909442E+03  0.15518150506E+03  0.00000000000E+00 0. -1.
       -4    1    4    4    0  502 -0.15082971081E+02 -0.42904038579E+02 -0.16637174210E+03  0.17247553192E+03  0.00000000000E+00 0.  1.
</event>
<event>
 8   1  0.2279600E-02  0.8012874E+02  0.7546771E-02  0.1332623E+00
       -1   -1    0    0    0  501 -0.00000000000E+00  0.00000000000E+00  0.33562431149E+02  0.33562431149E+02  0.00000000000E+00 0.  1.
        1   -1    0    0  501    0  0.00000000000E+00 -0.00000000000E+00 -0.40524372055E+03  0.40524372055E+03  0.00000000000E+00 0. -1.
       24    2    1    2    0    0  0.62354140091E+01  0.56028865838E+01 -0.24684541925E+02  0.83844745951E+02  0.79689033672E+02 0.  0.
      -24    2    1    2    0    0 -0.62354140091E+01 -0.56028865838E+01 -0.34699674747E+03  0.35496140574E+03  0.74300633144E+02 0.  0.
      -13    1    3    3    0    0 -0.21897627843E+02  0.33208136478E+02 -0.18786787539E+02  0.43991247078E+02  0.00000000000E+00 0.  1.
       14    1    3    3    0    0  0.28133041852E+02 -0.27605249894E+02 -0.58977543863E+01  0.39853498872E+02  0.00000000000E+00 0. -1.
        3    1    4    4  502    0  0.25169378821E+02 -0.26195182767E+02 -0.19799302157E+03  0.20129809195E+03  0.00000000000E+00 0. -1.
       -4    1    4    4    0  502 -0.31404792830E+02  0.20592296183E+02 -0.14900372590E+03  0.15366331380E+03  0.00000000000E+00 0.  1.
</event>
<event>
 8   1  0.2279600E-02  0.8355282E+02  0.7546771E-02  0.1320492E+00
       -1   -1    0    0    0  501 -0.00000000000E+00  0.00000000000E+00  0.92595709803E+01  0.92595709803E+01  0.00000000000E+00 0.  1.
        1   -1    0    0  501    0  0.00000000000E+00 -0.00000000000E+00 -0.10099035180E+04  0.10099035180E+04  0.00000000000E+00 0. -1.
       24    2    1    2    0    0  0.10326487912E+02 -0.95301174768E+01 -0.23171393221E+03  0.24570692221E+03  0.80517611411E+02 0.  0.
      -24    2    1    2    0    0 -0.10326487912E+02  0.95301174768E+01 -0.76893001481E+03  0.77345616677E+03  0.82362702458E+02 0.  0.
      -13    1    3    3    0    0  0.38080912084E+02 -0.24766378439E+02 -0.17450956968E+03  0.18032503785E+03  0.00000000000E+00 0.  1.
       14    1    3    3    0    0 -0.27754424172E+02  0.15236260962E+02 -0.57204362534E+02  0.65381884358E+02  0.00000000000E+00 0. -1.
        3    1    4    4  502    0 -0.14814804672E+02 -0.30272166014E+02 -0.53983015147E+03  0.54088120221E+03  0.00000000000E+00 0. -1.
       -4    1    4    4    0  502  0.44883167604E+01  0.39802283491E+02 -0.22909986334E+03  0.23257496456E+03  0.00000000000E+00 0.  1.
</event>
<event>
 8   1  0.2279600E-02  0.1086204E+03  0.7546771E-02  0.1263251E+00
        2   -1    0    0  501    0  0.00000000000E+00  0.00000000000E+00  0.47344737512E+03  0.47344737512E+03  0.00000000000E+00 0. -1.
       -2   -1    0    0    0  501 -0.00000000000E+00 -0.00000000000E+00 -0.26062010850E+02  0.26062010850E+02  0.00000000000E+00 0.  1.
       24    2    1    2    0    0  0.71358723112E+02 -0.16339218592E+02  0.27690258998E+03  0.29736398016E+03  0.79945324632E+02 0.  0.
      -24    2    1    2    0    0 -0.71358723112E+02  0.16339218592E+02  0.17048277429E+03  0.20214540581E+03  0.80245568927E+02 0.  0.
      -13    1    3    3    0    0 -0.97710102732E+01 -0.23080017294E+02  0.91602000844E+02  0.94968870683E+02  0.00000000000E+00 0.  1.
       14    1    3    3    0    0  0.81129733385E+02  0.67407987025E+01  0.18530058914E+03  0.20239510948E+03  0.00000000000E+00 0. -1.
        1    1    4    4  502    0 -0.26244686295E+02 -0.30611574080E+02  0.90015518274E+02  0.98633896590E+02  0.00000000000E+00 0. -1.
       -2    1    4    4    0  502 -0.45114036816E+02  0.46950792671E+02  0.80467256013E+02  0.10351150922E+03  0.00000000000E+00 0.  1.
</event>
<event>
 8   1  0.2279600E-02  0.9840735E+02  0.7546771E-02  0.1283773E+00
       -2   -1    0    0    0  501 -0.00000000000E+00  0.00000000000E+00  0.27309102551E+03  0.27309102551E+03  0.00000000000E+00 0.  1.
        2   -1    0    0  501    0  0.00000000000E+00 -0.00000000000E+00 -0.37064678934E+02  0.37064678934E+02  0.00000000000E+00 0. -1.
      -24    2    1    2    0    0  0.55227637586E+02 -0.10001284420E+02  0.15079027071E+03  0.17996663214E+03  0.80623602610E+02 0.  0.
       24    2    1    2    0    0 -0.55227637586E+02  0.10001284420E+02  0.85236075866E+02  0.13018907231E+03  0.80832470434E+02 0.  0.
      -13    1    4    4    0    0 -0.17110832789E+02  0.25518335180E+02  0.83528028267E+02  0.88999424353E+02  0.00000000000E+00 0.  1.
       14    1    4    4    0    0 -0.38116804797E+02 -0.15517050760E+02  0.17080475996E+01  0.41189647957E+02  0.00000000000E+00 0. -1.
        3    1    3    3  502    0 -0.73860659475E+01 -0.31252799241E+02  0.49104133960E+02  0.58672884729E+02  0.00000000000E+00 0. -1.
       -4    1    3    3    0  502  0.62613703534E+02  0.21251514821E+02  0.10168613675E+03  0.12129374741E+03  0.00000000000E+00 0.  1.
</event>
<event>
 8   1  0.2279600E-02  0.1705896E+03  0.7546771E-02  0.1177711E+00
        1   -1    0    0  501    0  0.00000000000E+00  0.00000000000E+00  0.39542937525E+03  0.39542937525E+03  0.00000000000E+00 0. -1.
       -1   -1    0    0    0  501 -0.00000000000E+00 -0.00000000000E+00 -0.10139075041E+03  0.10139075041E+03  0.00000000000E+00 0.  1.
       24    2    1    2    0    0  0.11088247079E+03 -0.99728378710E+02  0.14559191071E+02  0.16939140441E+03  0.78998772116E+02 0.  0.
      -24    2    1    2    0    0 -0.11088247079E+03  0.99728378710E+02  0.27947943377E+03  0.32742872125E+03  0.82825972666E+02 0.  0.
      -13    1    3    3    0    0  0.84354270683E+02 -0.10887436844E+03 -0.10751025311E+00  0.13772901889E+03  0.00000000000E+00 0.  1.
       14    1    3    3    0    0  0.26528200107E+02  0.91459897344E+01  0.14666701324E+02  0.31662385521E+02  0.00000000000E+00 0. -1.
        3    1    4    4  502    0 -0.94077089973E+02  0.10034840177E+03  0.27846059253E+03  0.31058107185E+03  0.00000000000E+00 0. -1.
       -4    1    4    4    0  502 -0.16805380817E+02 -0.62002305474E+00  0.10188412405E+01  0.16847649404E+02  0.00000000000E+00 0.  1.
</event>
<event>
 8   1  0.2279600E-02  0.8548685E+02  0.7546771E-02  0.1318713E+00
       -2   -1    0    0    0  501 -0.00000000000E+00  0.00000000000E+00  0.12181078500E+03  0.12181078500E+03  0.00000000000E+00 0.  1.
        2   -1    0    0  501    0  0.00000000000E+00 -0.00000000000E+00 -0.19160541785E+03  0.19160541785E+03  0.00000000000E+00 0. -1.
      -24    2    1    2    0    0  0.25336278534E+01 -0.29376580711E+02  0.96793958226E+02  0.12913974083E+03  0.80240884523E+02 0.  0.
       24    2    1    2    0    0 -0.25336278534E+01  0.29376580711E+02 -0.16658859108E+03  0.18427646202E+03  0.73052399094E+02 0.  0.
      -13    1    4    4    0    0  0.23864944646E+02 -0.75402720829E+01 -0.24139002161E+02  0.34771866665E+02  0.00000000000E+00 0.  1.
       14    1    4    4    0    0 -0.26398572499E+02  0.36916852793E+02 -0.14244958891E+03  0.14950459535E+03  0.00000000000E+00 0. -1.
        3    1    3    3  502    0  0.48675117987E+01  0.27713052774E+02  0.27742077806E+02  0.39513653921E+02  0.00000000000E+00 0. -1.
       -4    1    3    3    0  502 -0.23338839452E+01 -0.57089633485E+02  0.69051880420E+02  0.89626086912E+02  0.00000000000E+00 0.  1.
</event>
<event>
 8   1  0.2279600E-02  0.1073027E+03  0.7546771E-02  0.1265706E+00
        3   -1    0    0  501    0  0.00000000000E+00  0.00000000000E+00  0.15084528841E+03  0.15084528841E+03  0.00000000000E+00 0. -1.
       -3   -1    0    0    0  501 -0.00000000000E+00 -0.00000000000E+00 -0.10713856100E+03  0.10713856100E+03  0.00000000000E+00 0.  1.
       24    2    1    2    0    0 -0.46846231196E+02 -0.52563702897E+02 -0.47424007592E+02  0.11720498472E+03  0.80811259777E+02 0.  0.
      -24    2    1    2    0    0  0.46846231196E+02  0.52563702897E+02  0.91130735000E+02  0.14077886469E+03  0.80971387800E+02 0.  0.
      -13    1    3    3    0    0 -0.54895073452E+02 -0.53276192702E+02 -0.63365348611E+02  0.99332719699E+02  0.00000000000E+00 0.  1.
       14    1    3    3    0    0  0.80488422560E+01  0.71248980505E+00  0.15941341019E+02  0.17872265018E+02  0.00000000000E+00 0. -1.
        1    1    4    4  502    0 -0.50950888194E+01  0.31325650682E+02  0.76448173006E+02  0.82774268203E+02  0.00000000000E+00 0. -1.
       -2    1    4    4    0  502  0.51941320016E+02  0.21238052216E+02  0.14682561994E+02  0.58004596487E+02  0.00000000000E+00 0.  1.
</event>
<event>
 8   1  0.2279600E-02  0.9060101E+02  0.7546771E-02  0.1301592E+00
        3   -1    0    0  501    0  0.00000000000E+00  0.00000000000E+00  0.15217240517E+03  0.15217240517E+03  0.00000000000E+00 0. -1.
       -3   -1    0    0    0  501 -0.00000000000E+00 -0.00000000000E+00 -0.92361891276E+02  0.92361891276E+02  0.00000000000E+00 0.  1.
       24    2    1    2    0    0 -0.37357554685E+02 -0.15880772297E+02 -0.49174125594E+02  0.10280852434E+03  0.80645596455E+02 0.  0.
      -24    2    1    2    0    0  0.37357554685E+02  0.15880772297E+02  0.10898463949E+03  0.14172577211E+03  0.80998500076E+02 0.  0.
      -13    1    3    3    0    0 -0.33192301141E+02  0.28083029499E+02 -0.12052543601E+02  0.45118169379E+02  0.00000000000E+00 0.  1.
       14    1    3    3    0    0 -0.41652535438E+01 -0.43963801796E+02 -0.37121581993E+02  0.57690354957E+02  0.00000000000E+00 0. -1.
        3    1    4    4  502    0  0.50667509995E+02 -0.11531712323E+01  0.10889195181E+03  0.12010821596E+03  0.00000000000E+00 0. -1.
       -4    1    4    4    0  502 -0.13309955310E+02  0.17033943529E+02  0.92687674308E-01  0.21617556141E+02  0.00000000000E+00 0.  1.
</event>
<event>
 8   1  0.2279600E-02  0.8376059E+02  0.7546771E-02  0.1319100E+00
       -3   -1    0    0    0  501 -0.00000000000E+00  0.00000000000E+00  0.10114538943E+04  0.10114538943E+04  0.00000000000E+00 0.  1.
        3   -1    0    0  501    0  0.00000000000E+00 -0.00000000000E+00 -0.23626048533E+02  0.23626048533E+02  0.00000000000E+00 0. -1.
       24    2    1    2    0    0 -0.98626852431E+01 -0.15841021298E+02  0.92902189008E+03  0.93273749787E+03  0.81051571018E+02 0.  0.
      -24    2    1    2    0    0  0.98626852431E+01  0.15841021298E+02  0.58805955640E+02  0.10234244492E+03  0.81655527047E+02 0.  0.
      -13    1    3    3    0    0 -0.15436002892E+02  0.21961292339E+02  0.70270615989E+03  0.70321868270E+03  0.00000000000E+00 0.  1.
       14    1    3    3    0    0  0.55733176488E+01 -0.37802313637E+02  0.22631573019E+03  0.22951881517E+03  0.00000000000E+00 0. -1.
        1    1    4    4  502    0  0.23136024542E+02  0.17104149040E+02 -0.11350707979E+02  0.30930019683E+02  0.00000000000E+00 0. -1.
       -2    1    4    4    0  502 -0.13273339299E+02 -0.12631277423E+01  0.70156663620E+02  0.71412425236E+02  0.00000000000E+00 0.  1.
</event>
<event>
 8   1  0.2279600E-02  0.9932335E+02  0.7546771E-02  0.1285213E+00
        2   -1    0    0  501    0  0.00000000000E+00  0.00000000000E+00  0.93223487350E+03  0.93223487350E+03  0.00000000000E+00 0. -1.
       -2   -1    0    0    0  501 -0.00000000000E+00 -0.00000000000E+00 -0.11490242659E+02  0.11490242659E+02  0.00000000000E+00 0.  1.
      -24    2    1    2    0    0 -0.80695770386E+01  0.53436927501E+02  0.27275074351E+03  0.28816336757E+03  0.75660657081E+02 0.  0.
       24    2    1    2    0    0  0.80695770386E+01 -0.53436927501E+02  0.64799388734E+03  0.65556174859E+03  0.83333696059E+02 0.  0.
      -13    1    4    4    0    0  0.11247508099E+02 -0.26578895236E+02  0.56449706283E+02  0.63399632884E+02  0.00000000000E+00 0.  1.
       14    1    4    4    0    0 -0.31779310604E+01 -0.26858032265E+02  0.59154418105E+03  0.59216211571E+03  0.00000000000E+00 0. -1.
        1    1    3    3  502    0 -0.65129503854E+01 -0.17916641714E+02  0.34075478502E+02  0.39045650310E+02  0.00000000000E+00 0. -1.
       -2    1    3    3    0  502 -0.15566266531E+01  0.71353569215E+02  0.23867526501E+03  0.24911771726E+03  0.00000000000E+00 0.  1.
</event>
<event>
 8   1  0.2279600E-02  0.8366303E+02  0.7546771E-02  0.1319572E+00
       -2   -1    0    0    0  501 -0.00000000000E+00  0.00000000000E+00  0.52291663823E+02  0.52291663823E+02  0.00000000000E+00 0.  1.
        2   -1    0    0  501    0  0.00000000000E+00 -0.00000000000E+00 -0.34480720717E+03  0.34480720717E+03  0.00000000000E+00 0. -1.
      -24    2    1    2    0    0  0.23108745199E+02  0.66897180964E+01  0.92660997090E+01  0.84174597046E+02  0.80129493641E+02 0.  0.
       24    2    1    2    0    0 -0.23108745199E+02 -0.66897180964E+01 -0.30178164306E+03  0.31292427395E+03  0.79187591873E+02 0.  0.
      -13    1    4    4    0    0  0.13023430852E+02  0.22936240880E+02 -0.47013848047E+02  0.53907168401E+02  0.00000000000E+00 0.  1.
       14    1    4    4    0    0 -0.36132176051E+02 -0.29625958976E+02 -0.25476779501E+03  0.25901710555E+03  0.00000000000E+00 0. -1.
        3    1    3    3  502    0 -0.18323465928E+02  0.21249377546E+02 -0.17189702381E+02  0.32905490691E+02  0.00000000000E+00 0. -1.
       -4    1    3    3    0  502  0.41432211127E+02 -0.14559659450E+02  0.26455802090E+02  0.51269106354E+02  0.00000000000E+00 0.  1.
</event>
<event>
 8   1  0.2279600E-02  0.9007169E+02  0.7546771E-02  0.1309676E+00
        2   -1    0    0  501    0  0.00000000000E+00  0.00000000000E+00  0.13089685415E+04  0.13089685415E+04  0.00000000000E+00 0. -1.
       -2   -1    0    0    0  501 -0.00000000000E+00 -0.00000000000E+00 -0.69670350165E+01  0.69670350165E+01  0.00000000000E+00 0.  1.
      -24    2    1    2    0    0  0.12519283518E+02 -0.29491648098E+02  0.31454252757E+03  0.32437713406E+03  0.72505404554E+02 0.  0.
       24    2    1    2    0    0 -0.12519283518E+02  0.29491648098E+02  0.98745897890E+03  0.99155844244E+03  0.84180876592E+02 0.  0.
      -13    1    4    4    0    0 -0.15299873435E+02  0.45096521869E+02  0.28729281450E+03  0.29121288377E+03  0.00000000000E+00 0.  1.
       14    1    4    4    0    0  0.27805899176E+01 -0.15604873770E+02  0.70016616440E+03  0.70034555866E+03  0.00000000000E+00 0. -1.
        3    1    3    3  502    0  0.34145823335E+02  0.53352454774E+00  0.80747991997E+02  0.87672459252E+02  0.00000000000E+00 0. -1.
       -4    1    3    3    0  502 -0.21626539817E+02 -0.30025172646E+02  0.23379453557E+03  0.23670467481E+03  0.00000000000E+00 0.  1.
</event>
<event>
 8   1  0.2279600E-02  0.9445874E+02  0.7546771E-02  0.1293303E+00
        2   -1    0    0  501    0  0.00000000000E+00  0.00000000000E+00  0.21540935606E+04  0.21540935606E+04  0.00000000000E+00 0. -1.
       -2   -1    0    0    0  501 -0.00000000000E+00 -0.00000000000E+00 -0.41317872893E+01  0.41317872893E+01  0.00000000000E+00 0.  1.
      -24    2    1    2    0    0 -0.77321265969E+01  0.46240004144E+02  0.11945080189E+04  0.11981137239E+04  0.80182070773E+02 0.  0.
       24    2    1    2    0    0  0.77321265969E+01 -0.46240004144E+02  0.95545375441E+03  0.96011162396E+03  0.82003230977E+02 0.  0.
      -13    1    4    4    0    0  0.29056267094E+02 -0.83464692993E+01  0.72265139278E+03  0.72328346151E+03  0.00000000000E+00 0.  1.
       14    1    4    4    0    0 -0.21324140497E+02 -0.37893534845E+02  0.23280236162E+03  0.23682816245E+03  0.00000000000E+00 0. -1.
        1    1    3    3  502    0  0.17774862184E+02 -0.16790039941E+01  0.76242518846E+03  0.76263420641E+03  0.00000000000E+00 0. -1.
       -2    1    3    3    0  502 -0.25506988781E+02  0.47919008138E+02  0.43208283041E+03  0.43547951749E+03  0.00000000000E+00 0.  1.
</event>
<event>
 8   1  0.2279600E-02  0.1117430E+03  0.7546771E-02  0.1257774E+00
        2   -1    0    0  501    0  0.00000000000E+00  0.00000000000E+00  0.16692767141E+04  0.16692767141E+04  0.00000000000E+00 0. -1.
       -2   -1    0    0    0  501 -0.00000000000E+00 -0.00000000000E+00 -0.87299904410E+01  0.87299904410E+01  0.00000000000E+00 0.  1.
      -24    2    1    2    0    0 -0.75871549605E+02 -0.72980629475E+01  0.50272268072E+03  0.51480293763E+03  0.80512217197E+02 0.  0.
       24    2    1    2    0    0  0.75871549605E+02  0.72980629475E+01  0.11578240430E+04  0.11632037669E+04  0.81711291697E+02 0.  0.
      -13    1    4    4    0    0  0.23891688117E+01 -0.26371967878E+02  0.16678576803E+03  0.16887475014E+03  0.00000000000E+00 0.  1.
       14    1    4    4    0    0  0.73482380793E+02  0.33670030826E+02  0.99103827492E+03  0.99432901679E+03  0.00000000000E+00 0. -1.
        1    1    3    3  502    0  0.24191581531E+01  0.98552445324E+01  0.23793246158E+03  0.23814876536E+03  0.00000000000E+00 0. -1.
       -2    1    3    3    0  502 -0.78290707758E+02 -0.17153307480E+02  0.26479021914E+03  0.27665417226E+03  0.00000000000E+00 0.  1.
</event>
<event>
 8   1  0.2279600E-02  0.9726749E+02  0.7546771E-02  0.1287049E+00
        1   -1    0    0  501    0  0.00000000000E+00  0.00000000000E+00  0.29553709254E+03  0.29553709254E+03  0.00000000000E+00 0. -1.
       -1   -1    0    0    0  501 -0.00000000000E+00 -0.00000000000E+00 -0.43134832497E+02  0.43134832497E+02  0.00000000000E+00 0.  1.
       24    2    1    2    0    0  0.51421993837E+02 -0.88338258617E+01  0.37390878430E+02  0.10268281814E+03  0.80146275154E+02 0.  0.
      -24    2    1    2    0    0 -0.51421993837E+02  0.88338258617E+01  0.21501138161E+03  0.23598910690E+03  0.82089624336E+02 0.  0.
      -13    1    3    3    0    0  0.63596703813E+02  0.35140766201E+01  0.25260857912E+01  0.63743788558E+02  0.00000000000E+00 0.  1.
       14    1    3    3    0    0 -0.12174709976E+02 -0.12347902482E+02  0.34864792639E+02  0.38939029578E+02  0.00000000000E+00 0. -1.
        3    1    4    4  502    0 -0.26600211735E+02 -0.20423775245E+02  0.18292108654E+03  0.18596995930E+03  0.00000000000E+00 0. -1.
       -4    1    4    4    0  502 -0.24821782102E+02  0.29257601106E+02  0.32090295070E+02  0.50019147602E+02  0.00000000000E+00 0.  1.
</event>
<event>
 8   1  0.2279600E-02  0.8542576E+02  0.7546771E-02  0.1315593E+00
       -2   -1    0    0    0  501 -0.00000000000E+00  0.00000000000E+00  0.97961152970E+01  0.97961152970E+01  0.00000000000E+00 0.  1.
        2   -1    0    0  501    0  0.00000000000E+00 -0.00000000000E+00 -0.73015309537E+03  0.73015309537E+03  0.00000000000E+00 0. -1.
       24    2    1    2    0    0  0.15180248435E+02 -0.19390787378E+02 -0.33690168206E+03  0.34709360638E+03  0.79779606624E+02 0.  0.
      -24    2    1    2    0    0 -0.15180248435E+02  0.19390787378E+02 -0.38345529801E+03  0.39285560429E+03  0.81799252275E+02 0.  0.
      -13    1    3    3    0    0 -0.27074948023E+02 -0.15518142609E+02 -0.22952722139E+03  0.23163896676E+03  0.00000000000E+00 0.  1.
       14    1    3    3    0    0  0.42255196459E+02 -0.38726447687E+01 -0.10737446067E+03  0.11545463962E+03  0.00000000000E+00 0. -1.
        3    1    4    4  502    0 -0.34198533642E+02  0.41270163036E+02 -0.19704283099E+03  0.20420245666E+03  0.00000000000E+00 0. -1.
       -4    1    4    4    0  502  0.19018285207E+02 -0.21879375658E+02 -0.18641246702E+03  0.18865314763E+03  0.00000000000E+00 0.  1.
</event>
<event>
 8   1  0.2279600E-02  0.9392886E+02  0.7546771E-02  0.1293762E+00
       -2   -1    0    0    0  501 -0.00000000000E+00  0.00000000000E+00  0.21074323364E+02  0.21074323364E+02  0.00000000000E+00 0.  1.
        2   -1    0    0  501    0  0.00000000000E+00 -0.00000000000E+00 -0.74710561871E+03  0.74710561871E+03  0.00000000000E+00 0. -1.
      -24    2    1    2    0    0 -0.24516950018E+02  0.41235782021E+02 -0.10758296388E+03  0.14263939991E+03  0.80439006298E+02 0.  0.
       24    2    1    2    0    0  0.24516950018E+02 -0.41235782021E+02 -0.61844833147E+03  0.62554054217E+03  0.80753703524E+02 0.  0.
      -13    1    4    4    0    0 -0.22132490499E+02  0.62931732723E+01 -0.89257952149E+02  0.92176098785E+02  0.00000000000E+00 0.  1.
       14    1    4    4    0    0  0.46649440517E+02 -0.47528955293E+02 -0.52919037933E+03  0.53336444338E+03  0.00000000000E+00 0. -1.
        1    1    3    3  502    0  0.19544007534E+02 -0.12856033276E+02 -0.33688828228E+02  0.41014423920E+02  0.00000000000E+00 0. -1.
       -2    1    3    3    0  502 -0.44060957552E+02  0.54091815297E+02 -0.73894135647E+02  0.10162497599E+03  0.00000000000E+00 0.  1.
</event>
<event>
 8   1  0.2279600E-02  0.1083952E+03  0.7546771E-02  0.1264822E+00
        2   -1    0    0  501    0  0.00000000000E+00  0.00000000000E+00  0.81300685132E+03  0.81300685132E+03  0.00000000000E+00 0. -1.
       -2   -1    0    0    0  501 -0.00000000000E+00 -0.00000000000E+00 -0.38965368917E+02  0.38965368917E+02  0.00000000000E+00 0.  1.
      -24    2    1    2    0    0 -0.55550815630E+02 -0.42833168806E+02  0.48483748875E+02  0.11874425775E+03  0.82637469563E+02 0.  0.
       24    2    1    2    0    0  0.55550815630E+02  0.42833168806E+02  0.72555773353E+03  0.73322796250E+03  0.79174786568E+02 0.  0.
      -13    1    4    4    0    0  0.18585407329E+02 -0.20523632876E+02  0.11531475895E+03  0.11859228686E+03  0.00000000000E+00 0.  1.
       14    1    4    4    0    0  0.36965408301E+02  0.63356801682E+02  0.61024297458E+03  0.61463567563E+03  0.00000000000E+00 0. -1.
        3    1    3    3  502    0 -0.64245918272E+01 -0.50279958795E+02  0.46859705855E+02  0.69030295301E+02  0.00000000000E+00 0. -1.
       -4    1    3    3    0  502 -0.49126223803E+02  0.74467899893E+01  0.16240430195E+01  0.49713962445E+02  0.00000000000E+00 0.  1.
</event>
<event>
 8   1  0.2279600E-02  0.1444205E+03  0.7546771E-02  0.1208220E+00
       -1   -1    0    0    0  501 -0.00000000000E+00  0.00000000000E+00  0.91366240732E+03  0.91366240732E+03  0.00000000000E+00 0.  1.
        1   -1    0    0  501    0  0.00000000000E+00 -0.00000000000E+00 -0.40061878374E+02  0.40061878374E+02  0.00000000000E+00 0. -1.
       24    2    1    2    0    0 -0.82071627838E+02  0.88020803057E+02  0.75458194472E+03  0.76827806558E+03  0.79836463440E+02 0.  0.
      -24    2    1    2    0    0  0.82071627838E+02 -0.88020803057E+02  0.11901858423E+03  0.18544622011E+03  0.75772444166E+02 0.  0.
      -13    1    3    3    0    0 -0.44034010401E+02  0.78977743678E+02  0.33871043071E+03  0.35057272276E+03  0.00000000000E+00 0.  1.
       14    1    3    3    0    0 -0.38037617437E+02  0.90430593786E+01  0.41587151401E+03  0.41770534283E+03  0.00000000000E+00 0. -1.
        1    1    4    4  502    0  0.64552528019E+02 -0.66508045149E+02  0.38643332849E+02  0.10041740943E+03  0.00000000000E+00 0. -1.
       -2    1    4    4    0  502  0.17519099819E+02 -0.21512757907E+02  0.80375251379E+02  0.85028810679E+02  0.00000000000E+00 0.  1.
</event>
<event>
 8   1  0.2279600E-02  0.9925953E+02  0.7546771E-02  0.1282051E+00
       -2   -1    0    0    0  501 -0.00000000000E+00  0.00000000000E+00  0.29466032042E+02  0.29466032042E+02  0.00000000000E+00 0.  1.
        2   -1    0    0  501    0  0.00000000000E+00 -0.00000000000E+00 -0.88120555667E+03  0.88120555667E+03  0.00000000000E+00 0. -1.
       24    2    1    2    0    0  0.40680760800E+02 -0.38848264820E+02 -0.78524770489E+03  0.79149631274E+03  0.81782290640E+02 0.  0.
      -24    2    1    2    0    0 -0.40680760800E+02  0.38848264820E+02 -0.66491819739E+02  0.11917527598E+03  0.81347847746E+02 0.  0.
      -13    1    3    3    0    0 -0.11245225376E+02 -0.43992716144E+02 -0.43845035264E+03  0.44079533334E+03  0.00000000000E+00 0.  1.
       14    1    3    3    0    0  0.51925986176E+02  0.51444513236E+01 -0.34679735226E+03  0.35070097940E+03  0.00000000000E+00 0. -1.
        1    1    4    4  502    0 -0.33574040710E+02  0.28977471752E+02 -0.85667921564E+02  0.96467107679E+02  0.00000000000E+00 0. -1.
       -2    1    4    4    0  502 -0.71067200903E+01  0.98707930680E+01  0.19176101825E+02  0.22708168298E+02  0.00000000000E+00 0.  1.
</event>
<event>
 8   1  0.2279600E-02  0.1033468E+03  0.7546771E-02  0.1274192E+00
       -2   -1    0    0    0  501 -0.00000000000E+00  0.00000000000E+00  0.41324792326E+02  0.41324792326E+02  0.00000000000E+00 0.  1.
        2   -1    0    0  501    0  0.00000000000E+00 -0.00000000000E+00 -0.56623715354E+03  0.56623715354E+03  0.00000000000E+00 0. -1.
      -24    2    1    2    0    0 -0.63523979959E+02  0.31096258956E+01 -0.37986960921E+02  0.11010710507E+03  0.81459189688E+02 0.  0.
       24    2    1    2    0    0  0.63523979959E+02 -0.31096258956E+01 -0.48692540029E+03  0.49745484079E+03  0.79498474037E+02 0.  0.
      -13    1    4    4    0    0  0.10274192955E+02 -0.46899209147E+01 -0.45976138602E+01  0.12193951462E+02  0.00000000000E+00 0.  1.
       14    1    4    4    0    0  0.53249787004E+02  0.15802950191E+01 -0.48232778643E+03  0.48526088933E+03  0.00000000000E+00 0. -1.
        3    1    3    3  502    0 -0.34984413053E+02 -0.38695417169E+02 -0.25016484297E+02  0.57853858585E+02  0.00000000000E+00 0. -1.
       -4    1    3    3    0  502 -0.28539566906E+02  0.41805043065E+02 -0.12970476624E+02  0.52253246489E+02  0.00000000000E+00 0.  1.
</event>
<event>
 8   1  0.2279600E-02  0.8662381E+02  0.7546771E-02  0.1312991E+00
        1   -1    0    0  501    0  0.00000000000E+00  0.00000000000E+00  0.42846360478E+03  0.42846360478E+03  0.00000000000E+00 0. -1.
       -1   -1    0    0    0  501 -0.00000000000E+00 -0.00000000000E+00 -0.16338246119E+03  0.16338246119E+03  0.00000000000E+00 0.  1.
       24    2    1    2    0    0  0.10887111338E+02 -0.23270852769E+02 -0.14780621439E+03  0.16996971576E+03  0.79893463304E+02 0.  0.
      -24    2    1    2    0    0 -0.10887111338E+02  0.23270852769E+02  0.41288735798E+03  0.42187635022E+03  0.82726191192E+02 0.  0.
      -13    1    3    3    0    0  0.19268644229E+02 -0.17614189739E+01 -0.14548782923E+03  0.14676883763E+03  0.00000000000E+00 0.  1.
       14    1    3    3    0    0 -0.83815328914E+01 -0.21509433796E+02 -0.23183851662E+01  0.23200878121E+02  0.00000000000E+00 0. -1.
        1    1    4    4  502    0 -0.32992121591E+02  0.44429765579E+01  0.67420547296E+02  0.75191424547E+02  0.00000000000E+00 0. -1.
       -2    1    4    4    0  502  0.22105010253E+02  0.18827876212E+02  0.34546681069E+03  0.34668492567E+03  0.00000000000E+00 0.  1.
</event>
<event>
 8   1  0.2279600E-02  0.1008989E+03  0.7546771E-02  0.1280800E+00
        2   -1    0    0  501    0  0.00000000000E+00  0.00000000000E+00  0.12751367039E+04  0.12751367039E+04  0.00000000000E+00 0. -1.
       -2   -1    0    0    0  501 -0.00000000000E+00 -0.00000000000E+00 -0.11996769144E+02  0.11996769144E+02  0.00000000000E+00 0.  1.
       24    2    1    2    0    0  0.75932289541E+01 -0.51814314157E+02  0.10287421886E+04  0.10336784251E+04  0.86245091163E+02 0.  0.
      -24    2    1    2    0    0 -0.75932289541E+01  0.51814314157E+02  0.23439774616E+03  0.25345504789E+03  0.80961581132E+02 0.  0.
      -13    1    3    3    0    0 -0.32255056230E+02 -0.13954027766E+02  0.19612573426E+03  0.19924961024E+03  0.00000000000E+00 0.  1.
       14    1    3    3    0    0  0.39848285184E+02 -0.37860286391E+02  0.83261645433E+03  0.83442881490E+03  0.00000000000E+00 0. -1.
        1    1    4    4  502    0  0.20425418439E+02 -0.12903569175E+02  0.82871588248E+02  0.86321491847E+02  0.00000000000E+00 0. -1.
       -2    1    4    4    0  502 -0.28018647393E+02  0.64717883332E+02  0.15152615791E+03  0.16713355605E+03  0.00000000000E+00 0.  1.
</event>
<event>
 8   1  0.2279600E-02  0.1102137E+03  0.7546771E-02  0.1262128E+00
        2   -1    0    0  501    0  0.00000000000E+00  0.00000000000E+00  0.21890796959E+03  0.21890796959E+03  0.00000000000E+00 0. -1.
       -2   -1    0    0    0  501 -0.00000000000E+00 -0.00000000000E+00 -0.11592955162E+03  0.11592955162E+03  0.00000000000E+00 0.  1.
      -24    2    1    2    0    0 -0.57613951755E+02  0.42841113214E+02 -0.71888506871E+02  0.12813602108E+03  0.78077871764E+02 0.  0.
       24    2    1    2    0    0  0.57613951755E+02 -0.42841113214E+02  0.17486692484E+03  0.20670150014E+03  0.83620214898E+02 0.  0.
      -13    1    4    4    0    0 -0.18134551950E+02 -0.80021359112E+01  0.10579856764E+02  0.22468411664E+02  0.00000000000E+00 0.  1.
       14    1    4    4    0    0  0.75748503704E+02 -0.34838977303E+02  0.16428706808E+03  0.18423308848E+03  0.00000000000E+00 0. -1.
        3    1    3    3  502    0 -0.28159745043E+02 -0.18296686563E+02 -0.42542760687E+02  0.54199875156E+02  0.00000000000E+00 0. -1.
       -4    1    3    3    0  502 -0.29454206711E+02  0.61137799777E+02 -0.29345746184E+02  0.73936145921E+02  0.00000000000E+00 0.  1.
</event>
<event>
 8   1  0.2279600E-02  0.8378182E+02  0.7546771E-02  0.1319928E+00
        1   -1    0    0  501    0  0.00000000000E+00  0.00000000000E+00  0.70101730052E+03  0.70101730052E+03  0.00000000000E+00 0. -1.
       -1   -1    0    0    0  501 -0.00000000000E+00 -0.00000000000E+00 -0.13024455993E+02  0.13024455993E+02  0.00000000000E+00 0.  1.
       24    2    1    2    0    0  0.15071933429E+02 -0.13601527228E+02  0.16899185759E+03  0.18862036161E+03  0.81284858142E+02 0.  0.
      -24    2    1    2    0    0 -0.15071933429E+02  0.13601527228E+02  0.51900098694E+03  0.52542139491E+03  0.79331286737E+02 0.  0.
      -13    1    3    3    0    0 -0.14031622133E+02 -0.22870541381E+01 -0.23907155556E+01  0.14416398898E+02  0.00000000000E+00 0.  1.
       14    1    3    3    0    0  0.29103555563E+02 -0.11314473090E+02  0.17138257314E+03  0.17420396271E+03  0.00000000000E+00 0. -1.
        3    1    4    4  502    0  0.70834452121E+01  0.42140325921E+02  0.35018792311E+03  0.35278543586E+03  0.00000000000E+00 0. -1.
       -4    1    4    4    0  502 -0.22155378641E+02 -0.28538798692E+02  0.16881306383E+03  0.17263595904E+03  0.00000000000E+00 0.  1.
</event>
<event>
 8   1  0.2279600E-02  0.8608031E+02  0.7546771E-02  0.1315398E+00
       -1   -1    0    0    0  501 -0.00000000000E+00  0.00000000000E+00  0.10104672452E+03  0.10104672452E+03  0.00000000000E+00 0.  1.
        1   -1    0    0  501    0  0.00000000000E+00 -0.00000000000E+00 -0.26364429242E+03  0.26364429242E+03  0.00000000000E+00 0. -1.
       24    2    1    2    0    0 -0.12962088315E+02 -0.11307980161E+02  0.74504591068E+02  0.11384530833E+03  0.84344140222E+02 0.  0.
      -24    2    1    2    0    0  0.12962088315E+02  0.11307980161E+02 -0.23710215897E+03  0.25084570861E+03  0.80064034320E+02 0.  0.
      -13    1    3    3    0    0  0.28078728302E+02  0.61755011651E+01  0.60674101543E+02  0.67140884681E+02  0.00000000000E+00 0.  1.
       14    1    3    3    0    0 -0.41040816617E+02 -0.17483481326E+02  0.13830489525E+02  0.46704423649E+02  0.00000000000E+00 0. -1.
        1    1    4    4  502    0  0.41557625320E+02  0.22908396638E+02 -0.10561363272E+03  0.11578458565E+03  0.00000000000E+00 0. -1.
       -2    1    4    4    0  502 -0.28595537004E+02 -0.11600416477E+02 -0.13148852625E+03  0.13506112296E+03  0.00000000000E+00 0.  1.
</event>
<event>
 8   1  0.2279600E-02  0.1005263E+03  0.7546771E-02  0.1279345E+00
       -2   -1    0    0    0  501 -0.00000000000E+00  0.00000000000E+00  0.15373480971E+02  0.15373480971E+02  0.00000000000E+00 0.  1.
        2   -1    0    0  501    0  0.00000000000E+00 -0.00000000000E+00 -0.65907531961E+03  0.65907531961E+03  0.00000000000E+00 0. -1.
      -24    2    1    2    0    0 -0.50202825598E+02  0.33017167992E+02 -0.34736657609E+03  0.36162007203E+03  0.80592066798E+02 0.  0.
       24    2    1    2    0    0  0.50202825598E+02 -0.33017167992E+02 -0.29633526255E+03  0.31282872855E+03  0.80229473988E+02 0.  0.
      -13    1    4    4    0    0  0.51779203736E+02 -0.56051060411E+02 -0.20904489683E+03  0.22253668508E+03  0.00000000000E+00 0.  1.
       14    1    4    4    0    0 -0.15763781379E+01  0.23033892419E+02 -0.87290365712E+02  0.90292043471E+02  0.00000000000E+00 0. -1.
        3    1    3    3  502    0 -0.16405620631E+02  0.39982740398E+02 -0.71083196701E+02  0.83190052117E+02  0.00000000000E+00 0. -1.
       -4    1    3    3    0  502 -0.33797204968E+02 -0.69655724052E+01 -0.27628337939E+03  0.27843001991E+03  0.00000000000E+00 0.  1.
</event>
<event>
 8   1  0.2279600E-02  0.8820511E+02  0.7546771E-02  0.1308456E+00
        1   -1    0    0  501    0  0.00000000000E+00  0.00000000000E+00  0.10067558128E+04  0.10067558128E+04  0.00000000000E+00 0. -1.
       -1   -1    0    0    0  501 -0.00000000000E+00 -0.00000000000E+00 -0.42465421244E+02  0.42465421244E+02  0.00000000000E+00 0.  1.
       24    2    1    2    0    0  0.22265306488E+02  0.25411591059E+02  0.56007199113E+01  0.86482417994E+02  0.79412516176E+02 0.  0.
      -24    2    1    2    0    0 -0.22265306488E+02 -0.25411591059E+02  0.95868967160E+03  0.96273881601E+03  0.81477902390E+02 0.  0.
      -13    1    3    3    0    0  0.28139280430E+02  0.32156206915E+02 -0.28411900197E+02  0.51313514975E+02  0.00000000000E+00 0.  1.
       14    1    3    3    0    0 -0.58739739412E+01 -0.67446158563E+01  0.34012620108E+02  0.35168903019E+02  0.00000000000E+00 0. -1.
        1    1    4    4  502    0 -0.24782440854E+02 -0.48719832985E+02  0.83876310213E+03  0.84054228507E+03  0.00000000000E+00 0. -1.
       -2    1    4    4    0  502  0.25171343655E+01  0.23308241927E+02  0.11992656947E+03  0.12219653094E+03  0.00000000000E+00 0.  1.
</event>
<event>
 8   1  0.2279600E-02  0.1312651E+03  0.7546771E-02  0.1226043E+00
        1   -1    0    0  501    0  0.00000000000E+00  0.00000000000E+00  0.84365254622E+03  0.84365254622E+03  0.00000000000E+00 0. -1.
       -1   -1    0    0    0  501 -0.00000000000E+00 -0.00000000000E+00 -0.22745284516E+02  0.22745284516E+02  0.00000000000E+00 0.  1.
       24    2    1    2    0    0  0.37622366976E+02 -0.96713121115E+02  0.26819666916E+03  0.29859667281E+03  0.80384385146E+02 0.  0.
      -24    2    1    2    0    0 -0.37622366976E+02  0.96713121115E+02  0.55271059254E+03  0.56780115792E+03  0.78359974048E+02 0.  0.
      -13    1    3    3    0    0  0.43435597480E+02 -0.10426617152E+02  0.97302939886E+02  0.10706646340E+03  0.00000000000E+00 0.  1.
       14    1    3    3    0    0 -0.58132305038E+01 -0.86286503964E+02  0.17089372927E+03  0.19153020942E+03  0.00000000000E+00 0. -1.
        3    1    4    4  502    0 -0.18589779395E+02  0.24227805702E+02  0.35585442112E+03  0.35716233774E+03  0.00000000000E+00 0. -1.
       -4    1    4    4    0  502 -0.19032587581E+02  0.72485315413E+02  0.19685617142E+03  0.21063882018E+03  0.00000000000E+00 0.  1.
</event>
<event>
 8   1  0.2279600E-02  0.9566946E+02  0.7546771E-02  0.1293488E+00
       -2   -1    0    0    0  501 -0.00000000000E+00  0.00000000000E+00  0.49217368876E+02  0.49217368876E+02  0.00000000000E+00 0.  1.
        2   -1    0    0  501    0  0.00000000000E+00 -0.00000000000E+00 -0.49869801165E+03  0.49869801165E+03  0.00000000000E+00 0. -1.
      -24    2    1    2    0    0 -0.33110963165E+02 -0.24351130357E+02 -0.63089365534E+01  0.95877258265E+02  0.86390581319E+02 0.  0.
       24    2    1    2    0    0  0.33110963165E+02  0.24351130357E+02 -0.44317170622E+03  0.45203812226E+03  0.79044224018E+02 0.  0.
      -13    1    4    4    0    0  0.11888348509E+02 -0.10736796969E+02 -0.15123719054E+02  0.22030399848E+02  0.00000000000E+00 0.  1.
       14    1    4    4    0    0  0.21222614656E+02  0.35087927326E+02 -0.42804798716E+03  0.43000772241E+03  0.00000000000E+00 0. -1.
        3    1    3    3  502    0 -0.48604242027E+02  0.66801398467E+01  0.19344370835E+02  0.52737095999E+02  0.00000000000E+00 0. -1.
       -4    1    3    3    0  502  0.15493278862E+02 -0.31031270204E+02 -0.25653307389E+02  0.43140162266E+02  0.00000000000E+00 0.  1.
</event>
<event>
 8   1  0.2279600E-02  0.8433787E+02  0.7546771E-02  0.1319331E+00
       -2   -1    0    0    0  501 -0.00000000000E+00  0.00000000000E+00  0.34637957442E+01  0.34637957442E+01  0.00000000000E+00 0.  1.
        2   -1    0    0  501    0  0.00000000000E+00 -0.00000000000E+00 -0.19817400494E+04  0.19817400494E+04  0.00000000000E+00 0. -1.
      -24    2    1    2    0    0  0.16840259353E+01  0.26813336275E+02 -0.10218486396E+04  0.10250649714E+04  0.76562146921E+02 0.  0.
       24    2    1    2    0    0 -0.16840259353E+01 -0.26813336275E+02 -0.95642761407E+03  0.96013887378E+03  0.79944262144E+02 0.  0.
      -13    1    4    4    0    0 -0.94109476794E+01 -0.54505281606E+02 -0.59147864311E+03  0.59405923687E+03  0.00000000000E+00 0.  1.
       14    1    4    4    0    0  0.77269217441E+01  0.27691945331E+02 -0.36494897096E+03  0.36607963691E+03  0.00000000000E+00 0. -1.
        3    1    3    3  502    0 -0.90036717229E+00  0.50066055805E+02 -0.86845325898E+03  0.86989567400E+03  0.00000000000E+00 0. -1.
       -4    1    3    3    0  502  0.25843931076E+01 -0.23252719530E+02 -0.15339538063E+03  0.15516929739E+03  0.00000000000E+00 0.  1.
</event>
<event>
 8   1  0.2279600E-02  0.1450315E+03  0.7546771E-02  0.1207156E+00
       -2   -1    0    0    0  501 -0.00000000000E+00  0.00000000000E+00  0.60634834335E+02  0.60634834335E+02  0.00000000000E+00 0.  1.
        2   -1    0    0  501    0  0.00000000000E+00 -0.00000000000E+00 -0.40757815978E+03  0.40757815978E+03  0.00000000000E+00 0. -1.
      -24    2    1    2    0    0 -0.21278466445E+02  0.11850175247E+03 -0.80052956291E+02  0.16446209692E+03  0.78382823626E+02 0.  0.
       24    2    1    2    0    0  0.21278466445E+02 -0.11850175247E+03 -0.26689036915E+03  0.30375089720E+03  0.80862228081E+02 0.  0.
      -13    1    4    4    0    0  0.18508970374E+02 -0.32904363629E+02 -0.20626267664E+02  0.43020019152E+02  0.00000000000E+00 0.  1.
       14    1    4    4    0    0  0.27694960715E+01 -0.85597388837E+02 -0.24626410149E+03  0.26073087804E+03  0.00000000000E+00 0. -1.
        1    1    3    3  502    0 -0.49638460259E+02  0.55282600223E+02 -0.44116923773E+02  0.86408596722E+02  0.00000000000E+00 0. -1.
       -2    1    3    3    0  502  0.28359993814E+02  0.63219152243E+02 -0.35936032519E+02  0.78053500195E+02  0.00000000000E+00 0.  1.
</event>
<event>
 8   1  0.2279600E-02  0.8102482E+02  0.7546771E-02  0.1328251E+00
        4   -1    0    0  501    0  0.00000000000E+00  0.00000000000E+00  0.37025283130E+02  0.37025283130E+02  0.00000000000E+00 0. -1.
       -4   -1    0    0    0  501 -0.00000000000E+00 -0.00000000000E+00 -0.53126414107E+03  0.53126414107E+03  0.00000000000E+00 0.  1.
      -24    2    1    2    0    0 -0.52923262337E+01 -0.10468045776E+02 -0.47964434939E+03  0.48596068340E+03  0.77210719526E+02 0.  0.
       24    2    1    2    0    0  0.52923262337E+01  0.10468045776E+02 -0.14594508546E+02  0.82328740795E+02  0.80171274044E+02 0.  0.
      -13    1    4    4    0    0 -0.81007867008E+01  0.17896899935E+02 -0.44547806121E+02  0.48687049640E+02  0.00000000000E+00 0.  1.
       14    1    4    4    0    0  0.13393112934E+02 -0.74288541593E+01  0.29953297575E+02  0.33641691155E+02  0.00000000000E+00 0. -1.
        1    1    3    3  502    0  0.15987370127E+02 -0.20540691177E+01 -0.19729020951E+02  0.25476449345E+02  0.00000000000E+00 0. -1.
       -2    1    3    3    0  502 -0.21279696361E+02 -0.84139766580E+01 -0.45991532844E+03  0.46048423406E+03  0.00000000000E+00 0.  1.
</event>
<event>
 8   1  0.2279600E-02  0.1062169E+03  0.7546771E-02  0.1268350E+00
        2   -1    0    0  501    0  0.00000000000E+00  0.00000000000E+00  0.85033722508E+03  0.85033722508E+03  0.00000000000E+00 0. -1.
       -2   -1    0    0    0  501 -0.00000000000E+00 -0.00000000000E+00 -0.14030933234E+02  0.14030933234E+02  0.00000000000E+00 0.  1.
      -24    2    1    2    0    0  0.66083112392E+02 -0.20802134356E+02  0.30525358821E+03  0.32279728434E+03  0.78858272395E+02 0.  0.
       24    2    1    2    0    0 -0.66083112392E+02  0.20802134356E+02  0.53105270364E+03  0.54157087398E+03  0.80512924189E+02 0.  0.
      -13    1    4    4    0    0 -0.50864015111E+01 -0.24275412541E+02  0.68735253998E+02  0.73073266498E+02  0.00000000000E+00 0.  1.
       14    1    4    4    0    0 -0.60996710880E+02  0.45077546897E+02  0.46231744964E+03  0.46849760748E+03  0.00000000000E+00 0. -1.
        3    1    3    3  502    0  0.50815991305E+02  0.50390481779E+01  0.27669361199E+03  0.28136633042E+03  0.00000000000E+00 0. -1.
       -4    1    3    3    0  502  0.15267121087E+02 -0.25841182533E+02  0.28559976224E+02  0.41430953923E+02  0.00000000000E+00 0.  1.
</event>
<event>
 8   1  0.2279600E-02  0.1097359E+03  0.7546771E-02  0.1261634E+00
       -2   -1    0    0    0  501 -0.00000000000E+00  0.00000000000E+00  0.16932003377E+02  0.16932003377E+02  0.00000000000E+00 0.  1.
        2   -1    0    0  501    0  0.00000000000E+00 -0.00000000000E+00 -0.81989224045E+03  0.81989224045E+03  0.00000000000E+00 0. -1.
       24    2    1    2    0    0  0.63745554253E+02 -0.35811761466E+02 -0.55735573903E+03  0.56781950846E+03  0.80172292110E+02 0.  0.
      -24    2    1    2    0    0 -0.63745554253E+02  0.35811761466E+02 -0.24560449805E+03  0.26900473536E+03  0.81829091650E+02 0.  0.
      -13    1    3    3    0    0  0.44295472771E+02 -0.56490814209E+02 -0.48156957753E+03  0.48689070539E+03  0.00000000000E+00 0.  1.
       14    1    3    3    0    0  0.19450081482E+02  0.20679052744E+02 -0.75786161497E+02  0.80928803071E+02  0.00000000000E+00 0. -1.
        1    1    4    4  502    0 -0.41514665300E+02  0.21731067956E+02 -0.23659437799E+03  0.24118997998E+03  0.00000000000E+00 0. -1.
       -2    1    4    4    0  502 -0.22230888953E+02  0.14080693509E+02 -0.90101200618E+01  0.27814755381E+02  0.00000000000E+00 0.  1.
</event>
<event>
 8   1  0.2279600E-02  0.1023595E+03  0.7546771E-02  0.1278331E+00
       -1   -1    0    0    0  501 -0.00000000000E+00  0.00000000000E+00  0.35262578172E+02  0.35262578172E+02  0.00000000000E+00 0.  1.
        1   -1    0    0  501    0  0.00000000000E+00 -0.00000000000E+00 -0.76150071246E+03  0.76150071246E+03  0.00000000000E+00 0. -1.
       24    2    1    2    0    0  0.38190087280E+02 -0.53408827314E+02 -0.43034673838E+02  0.10593448836E+03  0.71127681456E+02 0.  0.
      -24    2    1    2    0    0 -0.38190087280E+02  0.53408827314E+02 -0.68320346045E+03  0.69082880228E+03  0.78526938584E+02 0.  0.
      -13    1    3    3    0    0  0.74178130626E+01 -0.52232628068E+02 -0.51780193018E+02  0.73921984378E+02  0.00000000000E+00 0.  1.
       14    1    3    3    0    0  0.30772274217E+02 -0.11761992464E+01  0.87455191792E+01  0.32012503977E+02  0.00000000000E+00 0. -1.
        3    1    4    4  502    0 -0.23219204944E+02  0.45660304075E+02 -0.66084617804E+03  0.66282853429E+03  0.00000000000E+00 0. -1.
       -4    1    4    4    0  502 -0.14970882336E+02  0.77485232395E+01 -0.22357282412E+02  0.28000267984E+02  0.00000000000E+00 0.  1.
</event>
<event>
 8   1  0.2279600E-02  0.8221784E+02  0.7546771E-02  0.1323743E+00
        2   -1    0    0  501    0  0.00000000000E+00  0.00000000000E+00  0.24401356274E+04  0.24401356274E+04  0.00000000000E+00 0. -1.
       -2   -1    0    0    0  501 -0.00000000000E+00 -0.00000000000E+00 -0.38625526429E+01  0.38625526429E+01  0.00000000000E+00 0.  1.
      -24    2    1    2    0    0  0.59708358691E+01  0.17451276134E+01  0.54917021245E+03  0.55510512144E+03  0.80716028456E+02 0.  0.
       24    2    1    2    0    0 -0.59708358691E+01 -0.17451276134E+01  0.18871028623E+04  0.18888930586E+04  0.81982178413E+02 0.  0.
      -13    1    4    4    0    0  0.30696542142E+02 -0.24198773015E+02  0.84494652746E+03  0.84585015965E+03  0.00000000000E+00 0.  1.
       14    1    4    4    0    0 -0.36667378011E+02  0.22453645402E+02  0.10421563348E+04  0.10430428989E+04  0.00000000000E+00 0. -1.
        1    1    3    3  502    0 -0.15806817966E+02 -0.31544606634E+02  0.36422807263E+03  0.36593306300E+03  0.00000000000E+00 0. -1.
       -2    1    3    3    0  502  0.21777653835E+02  0.33289734248E+02  0.18494213982E+03  0.18917205843E+03  0.00000000000E+00 0.  1.
</event>
<event>
 8   1  0.2279600E-02  0.1150203E+03  0.7546771E-02  0.1251899E+00
       -2   -1    0    0    0  501 -0.00000000000E+00  0.00000000000E+00  0.12794078435E+03  0.12794078435E+03  0.00000000000E+00 0.  1.
        2   -1    0    0  501    0  0.00000000000E+00 -0.00000000000E+00 -0.25788874119E+03  0.25788874119E+03  0.00000000000E+00 0. -1.
      -24    2    1    2    0    0  0.22478663977E+02 -0.75677609200E+02  0.84594878347E+02  0.14277940460E+03  0.83649710500E+02 0.  0.
       24    2    1    2    0    0 -0.22478663977E+02  0.75677609200E+02 -0.21454283519E+03  0.24305012094E+03  0.82536914714E+02 0.  0.
      -13    1    4    4    0    0 -0.12083482178E+02 -0.70548890030E+01 -0.12618217470E+01  0.14048992652E+02  0.00000000000E+00 0.  1.
       14    1    4    4    0    0 -0.10395181798E+02  0.82732498203E+02 -0.21328101344E+03  0.22900112829E+03  0.00000000000E+00 0. -1.
        1    1    3    3  502    0  0.31698248823E+02 -0.10747753095E+02 -0.27173509599E+01  0.33580904861E+02  0.00000000000E+00 0. -1.
       -2    1    3    3    0  502 -0.92195848467E+01 -0.64929856105E+02  0.87312229307E+02  0.10919849974E+03  0.00000000000E+00 0.  1.
</event>
<event>
 8   1  0.2279600E-02  0.6686477E+02  0.7546771E-02  0.1387902E+00
       -2   -1    0    0    0  501 -0.00000000000E+00  0.00000000000E+00  0.19726501360E+03  0.19726501360E+03  0.00000000000E+00 0.  1.
        2   -1    0    0  501    0  0.00000000000E+00 -0.00000000000E+00 -0.20276241158E+02  0.20276241158E+02  0.00000000000E+00 0. -1.
      -24    2    1    2    0    0 -0.23753688999E+01  0.86046221697E+00  0.11759818685E+03  0.12810893737E+03  0.50756117989E+02 0.  0.
       24    2    1    2    0    0  0.23753688999E+01 -0.86046221697E+00  0.59390585596E+02  0.89432317383E+02  0.66817025992E+02 0.  0.
      -13    1    4    4    0    0 -0.90631523297E+01 -0.31782624948E+02  0.36817496989E+02  0.49475287399E+02  0.00000000000E+00 0.  1.
       14    1    4    4    0    0  0.11438521230E+02  0.30922162731E+02  0.22573088608E+02  0.39957029984E+02  0.00000000000E+00 0. -1.
        3    1    3    3  502    0  0.60768286006E+01  0.11898980490E+02  0.44096697947E+01  0.14069782167E+02  0.00000000000E+00 0. -1.
       -4    1    3    3    0  502 -0.84521975005E+01 -0.11038518273E+02  0.11318851705E+03  0.11403915521E+03  0.00000000000E+00 0.  1.
</event>
<event>
 8   1  0.2279600E-02  0.8585093E+02  0.7546771E-02  0.1313346E+00
       -2   -1    0    0    0  501 -0.00000000000E+00  0.00000000000E+00  0.69684524298E+01  0.69684524298E+01  0.00000000000E+00 0.  1.
        2   -1    0    0  501    0  0.00000000000E+00 -0.00000000000E+00 -0.13207745268E+04  0.13207745268E+04  0.00000000000E+00 0. -1.
      -24    2    1    2    0    0  0.64852163975E+01  0.27231858280E+02 -0.35870025276E+03  0.36878650879E+03  0.80956689618E+02 0.  0.
       24    2    1    2    0    0 -0.64852163975E+01 -0.27231858280E+02 -0.95510582162E+03  0.95895647046E+03  0.81158792497E+02 0.  0.
      -13    1    4    4    0    0  0.29904426619E+02 -0.31753870675E+02 -0.68293350124E+03  0.68432503254E+03  0.00000000000E+00 0.  1.
       14    1    4    4    0    0 -0.36389643016E+02  0.45220123955E+01 -0.27217232038E+03  0.27463143792E+03  0.00000000000E+00 0. -1.
        1    1    3    3  502    0  0.11535383572E+02 -0.35642646328E+01 -0.31421260772E+03  0.31444448144E+03  0.00000000000E+00 0. -1.
       -2    1    3    3    0  502 -0.50501671743E+01  0.30796122912E+02 -0.44487645043E+02  0.54342027349E+02  0.00000000000E+00 0.  1.
</event>
<event>
 8   1  0.2279600E-02  0.1009095E+03  0.7546771E-02  0.1278622E+00
       -1   -1    0    0    0  501 -0.00000000000E+00  0.00000000000E+00  0.12300075323E+02  0.12300075323E+02  0.00000000000E+00 0.  1.
        1   -1    0    0  501    0  0.00000000000E+00 -0.00000000000E+00 -0.10161924603E+04  0.10161924603E+04  0.00000000000E+00 0. -1.
       24    2    1    2    0    0 -0.11319062264E+02 -0.59674218314E+02 -0.27935329367E+03  0.29702018756E+03  0.80582849484E+02 0.  0.
      -24    2    1    2    0    0  0.11319062264E+02  0.59674218314E+02 -0.72453909134E+03  0.73147234810E+03  0.80036039686E+02 0.  0.
      -13    1    3    3    0    0 -0.10148411832E+02  0.18894490146E+02 -0.45117600689E+02  0.49955879659E+02  0.00000000000E+00 0.  1.
       14    1    3    3    0    0 -0.11706504317E+01 -0.78568708460E+02 -0.23423569298E+03  0.24706430790E+03  0.00000000000E+00 0. -1.
        3    1    4    4  502    0  0.29083473887E+02  0.33426641150E+02 -0.63399578243E+03  0.63554216299E+03  0.00000000000E+00 0. -1.
       -4    1    4    4    0  502 -0.17764411623E+02  0.26247577165E+02 -0.90543308910E+02  0.95930185112E+02  0.00000000000E+00 0.  1.
</event>
<event>
 8   1  0.2279600E-02  0.1123360E+03  0.7546771E-02  0.1257741E+00
        2   -1    0    0  501    0  0.00000000000E+00  0.00000000000E+00  0.36017086478E+03  0.36017086478E+03  0.00000000000E+00 0. -1.
       -2   -1    0    0    0  501 -0.00000000000E+00 -0.00000000000E+00 -0.53580620072E+02  0.53580620072E+02  0.00000000000E+00 0.  1.
      -24    2    1    2    0    0 -0.76696002444E+02 -0.98614443376E+01  0.29829502821E+02  0.11622902330E+03  0.81485346804E+02 0.  0.
       24    2    1    2    0    0  0.76696002444E+02  0.98614443376E+01  0.27676074189E+03  0.29752246155E+03  0.77094630177E+02 0.  0.
      -13    1    4    4    0    0  0.47938278649E+02  0.43211002428E+02  0.14869597397E+03  0.16209800112E+03  0.00000000000E+00 0.  1.
       14    1    4    4    0    0  0.28757723795E+02 -0.33349558090E+02  0.12806476792E+03  0.13542446044E+03  0.00000000000E+00 0. -1.
        3    1    3    3  502    0 -0.12801704163E+02  0.11535960904E+02  0.44104506247E+02  0.47351552190E+02  0.00000000000E+00 0. -1.
       -4    1    3    3    0  502 -0.63894298281E+02 -0.21397405242E+02 -0.14275003427E+02  0.68877471111E+02  0.00000000000E+00 0.  1.
</event>
<event>
 8   1  0.2279600E-02  0.9350581E+02  0.7546771E-02  0.1294642E+00
       -1   -1    0    0    0  501 -0.00000000000E+00  0.00000000000E+00  0.21400430371E+01  0.21400430371E+01  0.00000000000E+00 0.  1.
        1   -1    0    0  501    0  0.00000000000E+00 -0.00000000000E+00 -0.41735905125E+04  0.41735905125E+04  0.00000000000E+00 0. -1.
       24    2    1    2    0    0 -0.39368123692E+02 -0.29305044058E+02 -0.23960156847E+04  0.23978351675E+04  0.79458759396E+02 0.  0.
      -24    2    1    2    0    0  0.39368123692E+02  0.29305044058E+02 -0.17754347848E+04  0.17778953881E+04  0.79590835247E+02 0.  0.
      -13    1    3    3    0    0  0.24280589610E+02 -0.54052147032E+01 -0.53491837839E+03  0.53549643782E+03  0.00000000000E+00 0.  1.
       14    1    3    3    0    0 -0.63648713302E+02 -0.23899829354E+02 -0.18610973063E+04  0.18623387297E+04  0.00000000000E+00 0. -1.
        3    1    4    4  502    0 -0.12652980568E+02  0.38232603236E+02 -0.68298812936E+03  0.68417440372E+03  0.00000000000E+00 0. -1.
       -4    1    4    4    0  502  0.52021104260E+02 -0.89275591779E+01 -0.10924466554E+04  0.10937209843E+04  0.00000000000E+00 0.  1.
</event>
<event>
 8   1  0.2279600E-02  0.9006958E+02  0.7546771E-02  0.1305114E+00
        1   -1    0    0  501    0  0.00000000000E+00  0.00000000000E+00  0.53547210396E+03  0.53547210396E+03  0.00000000000E+00 0. -1.
       -1   -1    0    0    0  501 -0.00000000000E+00 -0.00000000000E+00 -0.20458466279E+02  0.20458466279E+02  0.00000000000E+00 0.  1.
       24    2    1    2    0    0  0.60621044850E+01  0.30677327332E+02  0.11155408342E+03  0.14337657433E+03  0.84467041016E+02 0.  0.
      -24    2    1    2    0    0 -0.60621044850E+01 -0.30677327332E+02  0.40345955426E+03  0.41255399590E+03  0.80270418497E+02 0.  0.
      -13    1    3    3    0    0 -0.14981930420E+02  0.31402989980E+02  0.54678009694E+01  0.35220773220E+02  0.00000000000E+00 0.  1.
       14    1    3    3    0    0  0.21044034905E+02 -0.72566264779E+00  0.10608628245E+03  0.10815580111E+03  0.00000000000E+00 0. -1.
        3    1    4    4  502    0  0.33053309742E+02 -0.94484103828E+01  0.26234512416E+03  0.26458790206E+03  0.00000000000E+00 0. -1.
       -4    1    4    4    0  502 -0.39115414227E+02 -0.21228916949E+02  0.14111443010E+03  0.14796609385E+03  0.00000000000E+00 0.  1.
</event>
<event>
 8   1  0.2279600E-02  0.8914132E+02  0.7546771E-02  0.1306070E+00
        3   -1    0    0  501    0  0.00000000000E+00  0.00000000000E+00  0.18127942109E+02  0.18127942109E+02  0.00000000000E+00 0. -1.
       -3   -1    0    0    0  501 -0.00000000000E+00 -0.00000000000E+00 -0.47295681290E+03  0.47295681290E+03  0.00000000000E+00 0.  1.
       24    2    1    2    0    0 -0.39713704020E+02 -0.67342614704E+01 -0.30399889412E+03  0.31679883472E+03  0.79521352427E+02 0.  0.
      -24    2    1    2    0    0  0.39713704020E+02  0.67342614704E+01 -0.15082997667E+03  0.17428592028E+03  0.77481427337E+02 0.  0.
      -13    1    3    3    0    0 -0.33013693021E+02  0.33553967104E+02 -0.18861215033E+03  0.19439731451E+03  0.00000000000E+00 0.  1.
       14    1    3    3    0    0 -0.67000109995E+01 -0.40288228575E+02 -0.11538674378E+03  0.12240152021E+03  0.00000000000E+00 0. -1.
        3    1    4    4  502    0  0.36273895557E+01 -0.50910441674E-01  0.93091629761E+01  0.99910491029E+01  0.00000000000E+00 0. -1.
       -4    1    4    4    0  502  0.36086314465E+02  0.67851719121E+01 -0.16013913965E+03  0.16429487118E+03  0.00000000000E+00 0.  1.
</event>
<event>
 8   1  0.2279600E-02  0.8637885E+02  0.7546771E-02  0.1312518E+00
       -2   -1    0    0    0  501 -0.00000000000E+00  0.00000000000E+00  0.98242148113E+02  0.98242148113E+02  0.00000000000E+00 0.  1.
        2   -1    0    0  501    0  0.00000000000E+00 -0.00000000000E+00 -0.10848372351E+03  0.10848372351E+03  0.00000000000E+00 0. -1.
      -24    2    1    2    0    0  0.33241914683E+02 -0.10798032697E+01  0.52231294352E+02  0.10094262281E+03  0.79718969654E+02 0.  0.
       24    2    1    2    0    0 -0.33241914683E+02  0.10798032697E+01 -0.62472869753E+02  0.10578324882E+03  0.78619624833E+02 0.  0.
      -13    1    4    4    0    0  0.12498080415E+02  0.15944964664E+02 -0.53032617395E+02  0.56770612292E+02  0.00000000000E+00 0.  1.
       14    1    4    4    0    0 -0.45739995098E+02 -0.14865161394E+02 -0.94402523580E+01  0.49012636528E+02  0.00000000000E+00 0. -1.
        3    1    3    3  502    0 -0.16508312305E+01  0.29501213336E+02  0.45221585424E+02  0.54018872816E+02  0.00000000000E+00 0. -1.
       -4    1    3    3    0  502  0.34892745913E+02 -0.30581016606E+02  0.70097089279E+01  0.46923749991E+02  0.00000000000E+00 0.  1.
</event>
<event>
 8   1  0.2279600E-02  0.8805443E+02  0.7546771E-02  0.1307920E+00
        2   -1    0    0  501    0  0.00000000000E+00  0.00000000000E+00  0.27209146561E+03  0.27209146561E+03  0.00000000000E+00 0. -1.
       -2   -1    0    0    0  501 -0.00000000000E+00 -0.00000000000E+00 -0.41111030643E+03  0.41111030643E+03  0.00000000000E+00 0.  1.
       24    2    1    2    0    0  0.25894720884E+02  0.26622272136E+02  0.26009106853E+03  0.27459232935E+03  0.79839222609E+02 0.  0.
      -24    2    1    2    0    0 -0.25894720884E+02 -0.26622272136E+02 -0.39910990935E+03  0.40860944270E+03  0.79332685428E+02 0.  0.
      -13    1    3    3    0    0 -0.25118016787E+02  0.26922697673E+02  0.99556425530E+02  0.10614720101E+03  0.00000000000E+00 0.  1.
       14    1    3    3    0    0  0.51012737671E+02 -0.30042553724E+00  0.16053464300E+03  0.16844512834E+03  0.00000000000E+00 0. -1.
        1    1    4    4  502    0 -0.38347892098E+02 -0.47070910062E+02 -0.23288731632E+03  0.24067142228E+03  0.00000000000E+00 0. -1.
       -2    1    4    4    0  502  0.12453171214E+02  0.20448637926E+02 -0.16622259303E+03  0.16793802041E+03  0.00000000000E+00 0.  1.
</event>
<event>
 8   1  0.2279600E-02  0.2824998E+03  0.7546771E-02  0.1094559E+00
       -1   -1    0    0    0  501 -0.00000000000E+00  0.00000000000E+00  0.32638049662E+03  0.32638049662E+03  0.00000000000E+00 0.  1.
        1   -1    0    0  501    0  0.00000000000E+00 -0.00000000000E+00 -0.26879536607E+03  0.26879536607E+03  0.00000000000E+00 0. -1.
       24    2    1    2    0    0  0.19662299896E+03  0.18426171322E+03  0.12094017307E+03  0.30729894849E+03  0.84812355244E+02 0.  0.
      -24    2    1    2    0    0 -0.19662299896E+03 -0.18426171322E+03 -0.63355042520E+02  0.28787691420E+03  0.79033370431E+02 0.  0.
      -13    1    3    3    0    0  0.20522737921E+03  0.17944998962E+03  0.11743576685E+03  0.29683620953E+03  0.00000000000E+00 0.  1.
       14    1    3    3    0    0 -0.86043802538E+01  0.48117236025E+01  0.35044062152E+01  0.10462738958E+02  0.00000000000E+00 0. -1.
        1    1    4    4  502    0 -0.17731759137E+03 -0.13552576879E+03 -0.28651980541E+02  0.22501044021E+03  0.00000000000E+00 0. -1.
       -2    1    4    4    0  502 -0.19305407587E+02 -0.48735944430E+02 -0.34703061978E+02  0.62866473993E+02  0.00000000000E+00 0.  1.
</event>
<event>
 8   1  0.2279600E-02  0.8304972E+02  0.7546771E-02  0.1321259E+00
        1   -1    0    0  501    0  0.00000000000E+00  0.00000000000E+00  0.10843889950E+04  0.10843889950E+04  0.00000000000E+00 0. -1.
       -1   -1    0    0    0  501 -0.00000000000E+00 -0.00000000000E+00 -0.42433745493E+02  0.42433745493E+02  0.00000000000E+00 0.  1.
       24    2    1    2    0    0  0.12959116523E+02 -0.15849950312E+02  0.14282504200E+01  0.83061995408E+02  0.80486617248E+02 0.  0.
      -24    2    1    2    0    0 -0.12959116523E+02  0.15849950312E+02  0.10405269991E+04  0.10437607451E+04  0.79504072381E+02 0.  0.
      -13    1    3    3    0    0  0.27968397119E+02 -0.41567876646E+02 -0.10139256505E+02  0.51116769546E+02  0.00000000000E+00 0.  1.
       14    1    3    3    0    0 -0.15009280596E+02  0.25717926334E+02  0.11567506926E+02  0.31945225863E+02  0.00000000000E+00 0. -1.
        1    1    4    4  502    0 -0.21756968071E+02  0.39730727388E+02  0.88556812209E+03  0.88672588506E+03  0.00000000000E+00 0. -1.
       -2    1    4    4    0  502  0.87978515481E+01 -0.23880777076E+02  0.15495887703E+03  0.15703486007E+03  0.00000000000E+00 0.  1.
</event>
<event>
 8   1  0.2279600E-02  0.9909350E+02  0.7546771E-02  0.1288601E+00
       -3   -1    0    0    0  501 -0.00000000000E+00  0.00000000000E+00  0.19353646939E+03  0.19353646939E+03  0.00000000000E+00 0.  1.
        3   -1    0    0  501    0  0.00000000000E+00 -0.00000000000E+00 -0.60892710347E+02  0.60892710347E+02  0.00000000000E+00 0. -1.
       24    2    1    2    0    0 -0.56537221625E+02  0.97778775149E+01  0.12797862598E+03  0.15522592508E+03  0.66516875969E+02 0.  0.
      -24    2    1    2    0    0  0.56537221625E+02 -0.97778775149E+01  0.46651330557E+01  0.99203254658E+02  0.80792685007E+02 0.  0.
      -13    1    3    3    0    0 -0.23126361950E+02 -0.68081755086E+01  0.11213873766E+03  0.11470081235E+03  0.00000000000E+00 0.  1.
       14    1    3    3    0    0 -0.33410859675E+02  0.16586053023E+02  0.15839888330E+02  0.40525112725E+02  0.00000000000E+00 0. -1.
        3    1    4    4  502    0  0.34062641617E+02  0.29196722481E+02 -0.18585021488E+02  0.48560428141E+02  0.00000000000E+00 0. -1.
       -4    1    4    4    0  502  0.22474580009E+02 -0.38974599996E+02  0.23250154544E+02  0.50642826518E+02  0.00000000000E+00 0.  1.
</event>
<event>
 8   1  0.2279600E-02  0.8444900E+02  0.7546771E-02  0.1322853E+00
        1   -1    0    0  501    0  0.00000000000E+00  0.00000000000E+00  0.50035698352E+01  0.50035698352E+01  0.00000000000E+00 0. -1.
       -1   -1    0    0    0  501 -0.00000000000E+00 -0.00000000000E+00 -0.13001281455E+04  0.13001281455E+04  0.00000000000E+00 0.  1.
       24    2    1    2    0    0  0.14819865513E+02 -0.16804284263E+01 -0.54231519831E+03  0.54760046693E+03  0.74418040860E+02 0.  0.
      -24    2    1    2    0    0 -0.14819865513E+02  0.16804284263E+01 -0.75280937734E+03  0.75753124840E+03  0.83121485972E+02 0.  0.
      -13    1    3    3    0    0 -0.15676778976E+02 -0.12990281593E+01 -0.26021364150E+02  0.30406582600E+02  0.00000000000E+00 0.  1.
       14    1    3    3    0    0  0.30496644489E+02 -0.38140026691E+00 -0.51629383416E+03  0.51719388432E+03  0.00000000000E+00 0. -1.
        3    1    4    4  502    0  0.11634050485E+02 -0.17370321025E+02 -0.53166445670E+02  0.57129240572E+02  0.00000000000E+00 0. -1.
       -4    1    4    4    0  502 -0.26453915998E+02  0.19050749451E+02 -0.69964293167E+03  0.70040200782E+03  0.00000000000E+00 0.  1.
</event>
<event>
 8   1  0.2279600E-02  0.1112267E+03  0.7546771E-02  0.1258707E+00
        2   -1    0    0  501    0  0.00000000000E+00  0.00000000000E+00  0.30484852682E+04  0.30484852682E+04  0.00000000000E+00 0. -1.
       -2   -1    0    0    0  501 -0.00000000000E+00 -0.00000000000E+00 -0.11777138449E+02  0.11777138449E+02  0.00000000000E+00 0.  1.
      -24    2    1    2    0    0 -0.30767517935E+02  0.70488989029E+02  0.27910356960E+03  0.30044995963E+03  0.80349473817E+02 0.  0.
       24    2    1    2    0    0  0.30767517935E+02 -0.70488989029E+02  0.27576045602E+04  0.27598124471E+04  0.79161195222E+02 0.  0.
      -13    1    4    4    0    0  0.20323624319E+02 -0.13937442209E+02  0.19348324492E+03  0.19504632287E+03  0.00000000000E+00 0.  1.
       14    1    4    4    0    0  0.10443893616E+02 -0.56551546820E+02  0.25641213153E+04  0.25647661242E+04  0.00000000000E+00 0. -1.
        3    1    3    3  502    0  0.23508957472E+02  0.37319229208E+02  0.15271878883E+03  0.15896044920E+03  0.00000000000E+00 0. -1.
       -4    1    3    3    0  502 -0.54276475407E+02  0.33169759821E+02  0.12638478078E+03  0.14148951043E+03  0.00000000000E+00 0.  1.
</event>
<event>
 8   1  0.2279600E-02  0.8564819E+02  0.7546771E-02  0.1314055E+00
        2   -1    0    0  501    0  0.00000000000E+00  0.00000000000E+00  0.16788229344E+04  0.16788229344E+04  0.00000000000E+00 0. -1.
       -2   -1    0    0    0  501 -0.00000000000E+00 -0.00000000000E+00 -0.85405407542E+01  0.85405407542E+01  0.00000000000E+00 0.  1.
       24    2    1    2    0    0 -0.28250647027E+02  0.12160905330E+02  0.14252680291E+04  0.14278106858E+04  0.79425518002E+02 0.  0.
      -24    2    1    2    0    0  0.28250647027E+02 -0.12160905330E+02  0.24501436454E+03  0.25955278939E+03  0.79935129789E+02 0.  0.
      -13    1    3    3    0    0 -0.37524584880E+02  0.32857863115E+02  0.12608114485E+04  0.12617976234E+04  0.00000000000E+00 0.  1.
       14    1    3    3    0    0  0.92739378534E+01 -0.20696957785E+02  0.16445658061E+03  0.16601306241E+03  0.00000000000E+00 0. -1.
        1    1    4    4  502    0 -0.61441599064E+01  0.22488476351E+02  0.15856833876E+03  0.16027289330E+03  0.00000000000E+00 0. -1.
       -2    1    4    4    0  502  0.34394806933E+02 -0.34649381681E+02  0.86446025777E+02  0.99279896089E+02  0.00000000000E+00 0.  1.
</event>
<event>
 8   1  0.2279600E-02  0.9253205E+02  0.7546771E-02  0.1297106E+00
       -1   -1    0    0    0  501 -0.00000000000E+00  0.00000000000E+00  0.37815106390E+03  0.37815106390E+03  0.00000000000E+00 0.  1.
        1   -1    0    0  501    0  0.00000000000E+00 -0.00000000000E+00 -0.56696918318E+02  0.56696918318E+02  0.00000000000E+00 0. -1.
       24    2    1    2    0    0  0.47064121668E+00 -0.46491282857E+02  0.32935369596E+03  0.34197934715E+03  0.79462921888E+02 0.  0.
      -24    2    1    2    0    0 -0.47064121668E+00  0.46491282857E+02 -0.78995503687E+01  0.92868635069E+02  0.80003247427E+02 0.  0.
      -13    1    3    3    0    0 -0.11880202065E+02 -0.15983488855E+02  0.28997175633E+03  0.29065483066E+03  0.00000000000E+00 0.  1.
       14    1    3    3    0    0  0.12350843282E+02 -0.30507794002E+02  0.39381939628E+02  0.51324516495E+02  0.00000000000E+00 0. -1.
        3    1    4    4  502    0 -0.16884340519E+02  0.19332442744E+02 -0.40130904449E+02  0.47637315091E+02  0.00000000000E+00 0. -1.
       -4    1    4    4    0  502  0.16413699302E+02  0.27158840113E+02  0.32231354081E+02  0.45231319978E+02  0.00000000000E+00 0.  1.
</event>
<event>
 8   1  0.2279600E-02  0.9408997E+02  0.7546771E-02  0.1295730E+00
        2   -1    0    0  501    0  0.00000000000E+00  0.00000000000E+00  0.32459244595E+04  0.32459244595E+04  0.00000000000E+00 0. -1.
       -2   -1    0    0    0  501 -0.00000000000E+00 -0.00000000000E+00 -0.52209368914E+01  0.52209368914E+01  0.00000000000E+00 0.  1.
       24    2    1    2    0    0 -0.30999819045E+01 -0.42964874023E+02  0.27895103879E+04  0.27910967606E+04  0.83650062524E+02 0.  0.
      -24    2    1    2    0    0  0.30999819045E+01  0.42964874023E+02  0.45119313474E+03  0.46004863575E+03  0.78828371348E+02 0.  0.
      -13    1    3    3    0    0 -0.23776464272E+02 -0.51636943964E+02  0.11250212096E+04  0.11264565754E+04  0.00000000000E+00 0.  1.
       14    1    3    3    0    0  0.20676482368E+02  0.86720699407E+01  0.16644891782E+04  0.16646401852E+04  0.00000000000E+00 0. -1.
        1    1    4    4  502    0  0.15836730276E+02 -0.14408221745E+01  0.32947903782E+03  0.32986256890E+03  0.00000000000E+00 0. -1.
       -2    1    4    4    0  502 -0.12736748371E+02  0.44405696198E+02  0.12171409692E+03  0.13018606685E+03  0.00000000000E+00 0.  1.
</event>
<event>
 8   1  0.2279600E-02  0.8618150E+02  0.7546771E-02  0.1314021E+00
        2   -1    0    0  501    0  0.00000000000E+00  0.00000000000E+00  0.18028743958E+03  0.18028743958E+03  0.00000000000E+00 0. -1.
       -2   -1    0    0    0  501 -0.00000000000E+00 -0.00000000000E+00 -0.44986516106E+02  0.44986516106E+02  0.00000000000E+00 0.  1.
       24    2    1    2    0    0  0.15565234577E+02  0.48307237491E+01  0.10605525711E+03  0.13665638896E+03  0.84626465510E+02 0.  0.
      -24    2    1    2    0    0 -0.15565234577E+02 -0.48307237491E+01  0.29245666360E+02  0.88617566717E+02  0.82049690496E+02 0.  0.
      -13    1    3    3    0    0 -0.74454409270E+01  0.22674483852E+02  0.10482973187E+03  0.10751204348E+03  0.00000000000E+00 0.  1.
       14    1    3    3    0    0  0.23010675504E+02 -0.17843760102E+02  0.12255252386E+01  0.29144345487E+02  0.00000000000E+00 0. -1.
        1    1    4    4  502    0  0.57591938902E+01 -0.35505570310E+02  0.35730755529E+02  0.50700105798E+02  0.00000000000E+00 0. -1.
       -2    1    4    4    0  502 -0.21324428467E+02  0.30674846561E+02 -0.64850891687E+01  0.37917460918E+02  0.00000000000E+00 0.  1.
</event>
<event>
 8   1  0.2279600E-02  0.8121751E+02  0.7546771E-02  0.1326859E+00
        2   -1    0    0  501    0  0.00000000000E+00  0.00000000000E+00  0.72479028688E+03  0.72479028688E+03  0.00000000000E+00 0. -1.
       -2   -1    0    0    0  501 -0.00000000000E+00 -0.00000000000E+00 -0.12373326485E+02  0.12373326485E+02  0.00000000000E+00 0.  1.
      -24    2    1    2    0    0  0.77348218024E+01 -0.50945469241E+01  0.16389928195E+03  0.18291872094E+03  0.80687681645E+02 0.  0.
       24    2    1    2    0    0 -0.77348218024E+01  0.50945469241E+01  0.54851767845E+03  0.55424489243E+03  0.78930192815E+02 0.  0.
      -13    1    4    4    0    0  0.24606648349E+02 -0.21368141932E+02  0.34151294586E+03  0.34306439166E+03  0.00000000000E+00 0.  1.
       14    1    4    4    0    0 -0.32341470151E+02  0.26462688856E+02  0.20700473258E+03  0.21118050077E+03  0.00000000000E+00 0. -1.
        1    1    3    3  502    0 -0.30225741494E+02  0.16082836070E+02  0.99467524815E+02  0.10519525444E+03  0.00000000000E+00 0. -1.
       -2    1    3    3    0  502  0.37960563296E+02 -0.21177382994E+02  0.64431757140E+02  0.77723466497E+02  0.00000000000E+00 0.  1.
</event>
<event>
 8   1  0.2279600E-02  0.9794411E+02  0.7546771E-02  0.1285012E+00
       -1   -1    0    0    0  501 -0.00000000000E+00  0.00000000000E+00  0.13394711719E+03  0.13394711719E+03  0.00000000000E+00 0.  1.
        1   -1    0    0  501    0  0.00000000000E+00 -0.00000000000E+00 -0.99245679156E+02  0.99245679156E+02  0.00000000000E+00 0. -1.
       24    2    1    2    0    0  0.44088094864E+02 -0.31373196644E+02  0.79325280481E+02  0.12556224251E+03  0.80903269680E+02 0.  0.
      -24    2    1    2    0    0 -0.44088094864E+02  0.31373196644E+02 -0.44623842448E+02  0.10763055383E+03  0.81639520008E+02 0.  0.
      -13    1    3    3    0    0  0.45635306377E+02 -0.49317241839E+02  0.31016683509E+02  0.74005447007E+02  0.00000000000E+00 0.  1.
       14    1    3    3    0    0 -0.15472115132E+01  0.17944045195E+02  0.48308596972E+02  0.51556795506E+02  0.00000000000E+00 0. -1.
        3    1    4    4  502    0 -0.61065605618E+02  0.45260489849E+02 -0.34738443437E+02  0.83572002389E+02  0.00000000000E+00 0. -1.
       -4    1    4    4    0  502  0.16977510754E+02 -0.13887293205E+02 -0.98853990114E+01  0.24058551444E+02  0.00000000000E+00 0.  1.
</event>
<event>
 8   1  0.2279600E-02  0.9545538E+02  0.7546771E-02  0.1292216E+00
        2   -1    0    0  501    0  0.00000000000E+00  0.00000000000E+00  0.30384110472E+02  0.30384110472E+02  0.00000000000E+00 0. -1.
       -2   -1    0    0    0  501 -0.00000000000E+00 -0.00000000000E+00 -0.36546364378E+03  0.36546364378E+03  0.00000000000E+00 0.  1.
      -24    2    1    2    0    0  0.43914062469E+02 -0.57753115471E+01 -0.26081470900E+03  0.27773376038E+03  0.84557259420E+02 0.  0.
       24    2    1    2    0    0 -0.43914062469E+02  0.57753115471E+01 -0.74264824307E+02  0.11811399387E+03  0.80460252994E+02 0.  0.
      -13    1    4    4    0    0  0.19670875312E+02  0.18490836435E+02 -0.22371788800E+02  0.35062106351E+02  0.00000000000E+00 0.  1.
       14    1    4    4    0    0 -0.63584937781E+02 -0.12715524888E+02 -0.51893035507E+02  0.83051887516E+02  0.00000000000E+00 0. -1.
        3    1    3    3  502    0  0.20530798082E+02  0.56985765200E+00 -0.54869483794E+01  0.21258998334E+02  0.00000000000E+00 0. -1.
       -4    1    3    3    0  502  0.23383264386E+02 -0.63451691991E+01 -0.25532776062E+03  0.25647476205E+03  0.00000000000E+00 0.  1.
</event>
<event>
 8   1  0.2279600E-02  0.8928097E+02  0.7546771E-02  0.1305323E+00
        1   -1    0    0  501    0  0.00000000000E+00  0.00000000000E+00  0.12988334111E+03  0.12988334111E+03  0.00000000000E+00 0. -1.
       -1   -1    0    0    0  501 -0.00000000000E+00 -0.00000000000E+00 -0.64375478822E+02  0.64375478822E+02  0.00000000000E+00 0.  1.
       24    2    1    2    0    0 -0.33737602688E+02 -0.16968696372E+02  0.89373624170E+01  0.88564383793E+02  0.79609114666E+02 0.  0.
      -24    2    1    2    0    0  0.33737602688E+02  0.16968696372E+02  0.56570499869E+02  0.10569443614E+03  0.80900740932E+02 0.  0.
      -13    1    3    3    0    0 -0.21699117576E+02  0.26903350418E+02 -0.14388943025E+02  0.37439065809E+02  0.00000000000E+00 0.  1.
       14    1    3    3    0    0 -0.12038485111E+02 -0.43872046790E+02  0.23326305442E+02  0.51125317984E+02  0.00000000000E+00 0. -1.
        3    1    4    4  502    0  0.55971768051E+02  0.25140074265E+02  0.54233977683E+02  0.81891308990E+02  0.00000000000E+00 0. -1.
       -4    1    4    4    0  502 -0.22234165364E+02 -0.81713778930E+01  0.23365221862E+01  0.23803127148E+02  0.00000000000E+00 0.  1.
</event>
<event>
 8   1  0.2279600E-02  0.9519110E+02  0.7546771E-02  0.1292719E+00
        2   -1    0    0  501    0  0.00000000000E+00  0.00000000000E+00  0.75473635378E+03  0.75473635378E+03  0.00000000000E+00 0. -1.
       -2   -1    0    0    0  501 -0.00000000000E+00 -0.00000000000E+00 -0.12158533040E+02  0.12158533040E+02  0.00000000000E+00 0.  1.
       24    2    1    2    0    0 -0.47122205298E+02  0.34575387800E+00  0.44872179738E+03  0.45800541090E+03  0.78721554782E+02 0.  0.
      -24    2    1    2    0    0  0.47122205298E+02 -0.34575387800E+00  0.29385602336E+03  0.30888947593E+03  0.82708670006E+02 0.  0.
      -13    1    3    3    0    0 -0.54209926153E+02  0.22784053378E+02  0.39504184327E+03  0.39939440046E+03  0.00000000000E+00 0.  1.
       14    1    3    3    0    0  0.70877208551E+01 -0.22438299500E+02  0.53679954110E+02  0.58611010439E+02  0.00000000000E+00 0. -1.
        1    1    4    4  502    0  0.41045935168E+02 -0.37378362332E+02  0.20610402789E+03  0.21344971557E+03  0.00000000000E+00 0. -1.
       -2    1    4    4    0  502  0.60762701297E+01  0.37032608454E+02  0.87751995469E+02  0.95439760354E+02  0.00000000000E+00 0.  1.
</event>
<event>
 8   1  0.2279600E-02  0.8837490E+02  0.7546771E-02  0.1308905E+00
       -2   -1    0    0    0  501 -0.00000000000E+00  0.00000000000E+00  0.91232919116E+01  0.91232919116E+01  0.00000000000E+00 0.  1.
        2   -1    0    0  501    0  0.00000000000E+00 -0.00000000000E+00 -0.17330068420E+04  0.17330068420E+04  0.00000000000E+00 0. -1.
      -24    2    1    2    0    0  0.25763041771E+02  0.37571817280E+02 -0.23910291909E+03  0.25491239556E+03  0.75728117065E+02 0.  0.
       24    2    1    2    0    0 -0.25763041771E+02 -0.37571817280E+02 -0.14847806310E+04  0.14872177383E+04  0.71886739568E+02 0.  0.
      -13    1    4    4    0    0 -0.17768602693E+02 -0.29104620007E+02 -0.24283704772E+03  0.24521956263E+03  0.00000000000E+00 0.  1.
       14    1    4    4    0    0 -0.79944390779E+01 -0.84671972735E+01 -0.12419435832E+04  0.12419981757E+04  0.00000000000E+00 0. -1.
        1    1    3    3  502    0 -0.42750815208E+01  0.19256132690E+02 -0.20489306387E+03  0.20584033275E+03  0.00000000000E+00 0. -1.
       -2    1    3    3    0  502  0.30038123292E+02  0.18315684590E+02 -0.34209855228E+02  0.49072062802E+02  0.00000000000E+00 0.  1.
</event>
<event>
 8   1  0.2279600E-02  0.1210267E+03  0.7546771E-02  0.1241904E+00
       -4   -1    0    0    0  501 -0.00000000000E+00  0.00000000000E+00  0.48220706578E+02  0.48220706578E+02  0.00000000000E+00 0.  1.
        4   -1    0    0  501    0  0.00000000000E+00 -0.00000000000E+00 -0.53256305114E+03  0.53256305114E+03  0.00000000000E+00 0. -1.
      -24    2    1    2    0    0 -0.14936903733E+02  0.86915025574E+02 -0.49909128678E+02  0.12980740073E+03  0.81127722729E+02 0.  0.
       24    2    1    2    0    0  0.14936903733E+02 -0.86915025574E+02 -0.43443321589E+03  0.45097635699E+03  0.82886203525E+02 0.  0.
      -13    1    4    4    0    0 -0.64632437264E+01  0.15291900433E+02 -0.58773139331E+02  0.61072887971E+02  0.00000000000E+00 0.  1.
       14    1    4    4    0    0  0.21400147460E+02 -0.10220692601E+03 -0.37566007655E+03  0.38990346902E+03  0.00000000000E+00 0. -1.
        1    1    3    3  502    0 -0.68727481057E+01 -0.30641489803E+01 -0.37938951500E+02  0.38678000419E+02  0.00000000000E+00 0. -1.
       -2    1    3    3    0  502 -0.80641556276E+01  0.89979174554E+02 -0.11970177179E+02  0.91129400311E+02  0.00000000000E+00 0.  1.
</event>
<event>
 8   1  0.2279600E-02  0.1225957E+03  0.7546771E-02  0.1239367E+00
        2   -1    0    0  501    0  0.00000000000E+00  0.00000000000E+00  0.75171519374E+03  0.75171519374E+03  0.00000000000E+00 0. -1.
       -2   -1    0    0    0  501 -0.00000000000E+00 -0.00000000000E+00 -0.32936837565E+02  0.32936837565E+02  0.00000000000E+00 0.  1.
       24    2    1    2    0    0 -0.66286678712E+02 -0.62900075485E+02  0.60828324212E+03  0.62051447572E+03  0.81727404571E+02 0.  0.
      -24    2    1    2    0    0  0.66286678712E+02  0.62900075485E+02  0.11049511405E+03  0.16413755559E+03  0.79885065276E+02 0.  0.
      -13    1    3    3    0    0  0.77207211529E+01 -0.45199292129E+02  0.26036408375E+03  0.26437103028E+03  0.00000000000E+00 0.  1.
       14    1    3    3    0    0 -0.74007399865E+02 -0.17700783356E+02  0.34791915837E+03  0.35614344544E+03  0.00000000000E+00 0. -1.
        1    1    4    4  502    0  0.70857823011E+02  0.55031936848E+02  0.12074683785E+03  0.15042986408E+03  0.00000000000E+00 0. -1.
       -2    1    4    4    0  502 -0.45711442989E+01  0.78681386365E+01 -0.10251723796E+02  0.13707691512E+02  0.00000000000E+00 0.  1.
</event>
<event>
 8   1  0.2279600E-02  0.9045525E+02  0.7546771E-02  0.1304818E+00
        4   -1    0    0  501    0  0.00000000000E+00  0.00000000000E+00  0.50463930110E+02  0.50463930110E+02  0.00000000000E+00 0. -1.
       -4   -1    0    0    0  501 -0.00000000000E+00 -0.00000000000E+00 -0.17582590973E+03  0.17582590973E+03  0.00000000000E+00 0.  1.
      -24    2    1    2    0    0  0.90983812791E+01 -0.27057163402E+02 -0.10461612599E+03  0.13829926565E+03  0.85832874991E+02 0.  0.
       24    2    1    2    0    0 -0.90983812791E+01  0.27057163402E+02 -0.20745853629E+02  0.87990574188E+02  0.80604466812E+02 0.  0.
      -13    1    4    4    0    0 -0.32492624013E+02  0.20731108225E+02 -0.41098172954E+02  0.56343671194E+02  0.00000000000E+00 0.  1.
       14    1    4    4    0    0  0.23394242734E+02  0.63260551774E+01  0.20352319325E+02  0.31646902994E+02  0.00000000000E+00 0. -1.
        1    1    3    3  502    0 -0.10580802363E+01  0.72519854251E+01  0.13239080634E+02  0.15132220010E+02  0.00000000000E+00 0. -1.
       -2    1    3    3    0  502  0.10156461515E+02 -0.34309148827E+02 -0.11785520662E+03  0.12316704564E+03  0.00000000000E+00 0.  1.
</event>
<event>
 8   1  0.2279600E-02  0.9937871E+02  0.7546771E-02  0.1282738E+00
        1   -1    0    0  501    0  0.00000000000E+00  0.00000000000E+00  0.15272401692E+04  0.15272401692E+04  0.00000000000E+00 0. -1.
       -1   -1    0    0    0  501 -0.00000000000E+00 -0.00000000000E+00 -0.72522960055E+01  0.72522960055E+01  0.00000000000E+00 0.  1.
       24    2    1    2    0    0  0.94330832573E+00  0.52478966800E+02  0.49354699886E+03  0.50345284687E+03  0.84387185966E+02 0.  0.
      -24    2    1    2    0    0 -0.94330832573E+00 -0.52478966800E+02  0.10264408744E+04  0.10310396184E+04  0.81895630389E+02 0.  0.
      -13    1    3    3    0    0 -0.27879443710E+02 -0.67833487696E+01  0.87266651171E+02  0.91862645339E+02  0.00000000000E+00 0.  1.
       14    1    3    3    0    0  0.28822752036E+02  0.59262315570E+02  0.40628034769E+03  0.41159020153E+03  0.00000000000E+00 0. -1.
        1    1    4    4  502    0 -0.24840183700E+01 -0.62618568639E+02  0.10079392432E+04  0.10098855250E+04  0.00000000000E+00 0. -1.
       -2    1    4    4    0  502  0.15407100442E+01  0.10139601839E+02  0.18501631139E+02  0.21154093403E+02  0.00000000000E+00 0.  1.
</event>
<event>
 8   1  0.2279600E-02  0.8258112E+02  0.7546771E-02  0.1322198E+00
        4   -1    0    0  501    0  0.00000000000E+00  0.00000000000E+00  0.15247266941E+03  0.15247266941E+03  0.00000000000E+00 0. -1.
       -4   -1    0    0    0  501 -0.00000000000E+00 -0.00000000000E+00 -0.61806933488E+02  0.61806933488E+02  0.00000000000E+00 0.  1.
      -24    2    1    2    0    0 -0.13439371911E+02 -0.11207807612E+02 -0.11492433413E+02  0.82917760896E+02  0.80231211991E+02 0.  0.
       24    2    1    2    0    0  0.13439371911E+02  0.11207807612E+02  0.10215816934E+03  0.13136184200E+03  0.80705701801E+02 0.  0.
      -13    1    4    4    0    0 -0.29059610109E+02 -0.12135219113E+02  0.24891074692E+02  0.40140877941E+02  0.00000000000E+00 0.  1.
       14    1    4    4    0    0  0.42498982020E+02  0.23343026724E+02  0.77267094643E+02  0.91220964060E+02  0.00000000000E+00 0. -1.
        1    1    3    3  502    0  0.42025207721E+01  0.23063690844E+02  0.21778894265E+02  0.31998675778E+02  0.00000000000E+00 0. -1.
       -2    1    3    3    0  502 -0.17641892683E+02 -0.34271498455E+02 -0.33271327678E+02  0.50919085118E+02  0.00000000000E+00 0.  1.
</event>
<event>
 8   1  0.2279600E-02  0.8458787E+02  0.7546771E-02  0.1332357E+00
       -1   -1    0    0    0  501 -0.00000000000E+00  0.00000000000E+00  0.10936233885E+04  0.10936233885E+04  0.00000000000E+00 0.  1.
        1   -1    0    0  501    0  0.00000000000E+00 -0.00000000000E+00 -0.40880738717E+02  0.40880738717E+02  0.00000000000E+00 0. -1.
       24    2    1    2    0    0 -0.20885243317E+02 -0.55642940109E+01  0.10659462532E+04  0.10692972093E+04  0.81779901866E+02 0.  0.
      -24    2    1    2    0    0  0.20885243317E+02  0.55642940109E+01 -0.13203603402E+02  0.65206917932E+02  0.60087038928E+02 0.  0.
      -13    1    3    3    0    0 -0.48708401520E+02  0.13166984696E+02  0.70059344431E+03  0.70240803816E+03  0.00000000000E+00 0.  1.
       14    1    3    3    0    0  0.27823158203E+02 -0.18731278707E+02  0.36535280892E+03  0.36688917117E+03  0.00000000000E+00 0. -1.
        3    1    4    4  502    0  0.55474103423E+01 -0.13121202867E+02 -0.31709465841E+02  0.34762479055E+02  0.00000000000E+00 0. -1.
       -4    1    4    4    0  502  0.15337832974E+02  0.18685496878E+02  0.18505862438E+02  0.30444438877E+02  0.00000000000E+00 0.  1.
</event>
<event>
 8   1  0.2279600E-02  0.8270429E+02  0.7546771E-02  0.1326230E+00
        2   -1    0    0  501    0  0.00000000000E+00  0.00000000000E+00  0.63459408072E+03  0.63459408072E+03  0.00000000000E+00 0. -1.
       -2   -1    0    0    0  501 -0.00000000000E+00 -0.00000000000E+00 -0.26362741584E+02  0.26362741584E+02  0.00000000000E+00 0.  1.
      -24    2    1    2    0    0  0.63769744401E+01  0.19360306337E+02  0.48090983722E+02  0.95669967283E+02  0.80153057710E+02 0.  0.
       24    2    1    2    0    0 -0.63769744401E+01 -0.19360306337E+02  0.56014035541E+03  0.56528685502E+03  0.73324780478E+02 0.  0.
      -13    1    4    4    0    0 -0.79412898209E+01  0.20513711950E+02  0.66659226972E+02  0.70194935733E+02  0.00000000000E+00 0.  1.
       14    1    4    4    0    0  0.15643153808E+01 -0.39874018286E+02  0.49348112844E+03  0.49509191928E+03  0.00000000000E+00 0. -1.
        1    1    3    3  502    0 -0.15762659361E+02 -0.70814977013E+01  0.57403485595E+02  0.59948054166E+02  0.00000000000E+00 0. -1.
       -2    1    3    3    0  502  0.22139633801E+02  0.26441804038E+02 -0.93125018733E+01  0.35721913117E+02  0.00000000000E+00 0.  1.
</event>
<event>
 8   1  0.2279600E-02  0.9799699E+02  0.7546771E-02  0.1290819E+00
        1   -1    0    0  501    0  0.00000000000E+00  0.00000000000E+00  0.40195677858E+02  0.40195677858E+02  0.00000000000E+00 0. -1.
       -1   -1    0    0    0  501 -0.00000000000E+00 -0.00000000000E+00 -0.91839145935E+03  0.91839145935E+03  0.00000000000E+00 0.  1.
       24    2    1    2    0    0 -0.31783053569E+02 -0.93432364062E+01 -0.85295281845E+03  0.85739120531E+03  0.80583558349E+02 0.  0.
      -24    2    1    2    0    0  0.31783053569E+02  0.93432364062E+01 -0.25242963041E+02  0.10119593190E+03  0.92227712154E+02 0.  0.
      -13    1    3    3    0    0 -0.41983079169E+02 -0.22562913262E+01 -0.83179713013E+03  0.83285901296E+03  0.00000000000E+00 0.  1.
       14    1    3    3    0    0  0.10200025600E+02 -0.70869450799E+01 -0.21155688326E+02  0.24532192347E+02  0.00000000000E+00 0. -1.
        3    1    4    4  502    0  0.25155240639E+02  0.49424762346E+02 -0.46599783343E+01  0.55653469457E+02  0.00000000000E+00 0. -1.
       -4    1    4    4    0  502  0.66278129299E+01 -0.40081525940E+02 -0.20582984706E+02  0.45542462442E+02  0.00000000000E+00 0.  1.
</event>
<event>
 8   1  0.2279600E-02  0.9847831E+02  0.7546771E-02  0.1289146E+00
       -1   -1    0    0    0  501 -0.00000000000E+00  0.00000000000E+00  0.87520691865E+01  0.87520691865E+01  0.00000000000E+00 0.  1.
        1   -1    0    0  501    0  0.00000000000E+00 -0.00000000000E+00 -0.13187840123E+04  0.13187840123E+04  0.00000000000E+00 0. -1.
       24    2    1    2    0    0  0.51172173532E+02 -0.29684795741E+02 -0.35505590906E+03  0.36845987005E+03  0.78728640538E+02 0.  0.
      -24    2    1    2    0    0 -0.51172173532E+02  0.29684795741E+02 -0.95497603403E+03  0.95907621141E+03  0.65940695119E+02 0.  0.
      -13    1    3    3    0    0  0.23577091246E+02  0.24808711348E+02 -0.86053886536E+02  0.92610057652E+02  0.00000000000E+00 0.  1.
       14    1    3    3    0    0  0.27595082286E+02 -0.54493507089E+02 -0.26900202252E+03  0.27584981240E+03  0.00000000000E+00 0. -1.
        1    1    4    4  502    0  0.11436518684E+02 -0.63171770319E+01 -0.73978548267E+02  0.75123407064E+02  0.00000000000E+00 0. -1.
       -2    1    4    4    0  502 -0.62608692216E+02  0.36001972773E+02 -0.88099748576E+03  0.88395280434E+03  0.00000000000E+00 0.  1.
</event>
<event>
 8   1  0.2279600E-02  0.9366811E+02  0.7546771E-02  0.1297974E+00
        3   -1    0    0  501    0  0.00000000000E+00  0.00000000000E+00  0.26971858856E+03  0.26971858856E+03  0.00000000000E+00 0. -1.
       -3   -1    0    0    0  501 -0.00000000000E+00 -0.00000000000E+00 -0.90902544141E+02  0.90902544141E+02  0.00000000000E+00 0.  1.
       24    2    1    2    0    0 -0.33465895498E+02  0.37952270210E+01 -0.56657742699E+02  0.10947060699E+03  0.87403341334E+02 0.  0.
      -24    2    1    2    0    0  0.33465895498E+02 -0.37952270210E+01  0.23547378712E+03  0.25115052572E+03  0.80587295761E+02 0.  0.
      -13    1    3    3    0    0 -0.36358150418E+02  0.41199067108E+02 -0.42130614567E+02  0.69240644972E+02  0.00000000000E+00 0.  1.
       14    1    3    3    0    0  0.28922549208E+01 -0.37403840087E+02 -0.14527128133E+02  0.40229962013E+02  0.00000000000E+00 0. -1.
        3    1    4    4  502    0  0.27635481908E+02  0.25028640614E+02  0.20660072427E+03  0.20993811465E+03  0.00000000000E+00 0. -1.
       -4    1    4    4    0  502  0.58304135893E+01 -0.28823867635E+02  0.28873062844E+02  0.41212411068E+02  0.00000000000E+00 0.  1.
</event>
<event>
 8   1  0.2279600E-02  0.9175705E+02  0.7546771E-02  0.1301892E+00
       -2   -1    0    0    0  501 -0.00000000000E+00  0.00000000000E+00  0.32446457534E+02  0.32446457534E+02  0.00000000000E+00 0.  1.
        2   -1    0    0  501    0  0.00000000000E+00 -0.00000000000E+00 -0.64301644155E+03  0.64301644155E+03  0.00000000000E+00 0. -1.
      -24    2    1    2    0    0 -0.47375003801E+01  0.29840099119E+02 -0.36038718824E+02  0.93650617217E+02  0.80986254546E+02 0.  0.
       24    2    1    2    0    0  0.47375003801E+01 -0.29840099119E+02 -0.57453126519E+03  0.58181228187E+03  0.86639951657E+02 0.  0.
      -13    1    4    4    0    0  0.61045929918E+01 -0.36579156759E+02 -0.91467341757E+02  0.98699419314E+02  0.00000000000E+00 0.  1.
       14    1    4    4    0    0 -0.13670926117E+01  0.67390576404E+01 -0.48306392343E+03  0.48311286255E+03  0.00000000000E+00 0. -1.
        1    1    3    3  502    0 -0.22821941325E+02 -0.21828715461E+02 -0.10862454886E+02  0.33396508061E+02  0.00000000000E+00 0. -1.
       -2    1    3    3    0  502  0.18084440945E+02  0.51668814579E+02 -0.25176263938E+02  0.60254109156E+02  0.00000000000E+00 0.  1.
</event>
<event>
 8   1  0.2279600E-02  0.8157253E+02  0.7546771E-02  0.1325851E+00
        2   -1    0    0  501    0  0.00000000000E+00  0.00000000000E+00  0.83856159048E+03  0.83856159048E+03  0.00000000000E+00 0. -1.
       -2   -1    0    0    0  501 -0.00000000000E+00 -0.00000000000E+00 -0.14125447420E+02  0.14125447420E+02  0.00000000000E+00 0.  1.
      -24    2    1    2    0    0  0.98095814873E+01  0.90781574095E+01  0.12863414653E+03  0.15231815744E+03  0.80470097570E+02 0.  0.
       24    2    1    2    0    0 -0.98095814873E+01 -0.90781574095E+01  0.69580199653E+03  0.70036888046E+03  0.78724262489E+02 0.  0.
      -13    1    4    4    0    0 -0.40769473418E+02 -0.15701513536E+02  0.28275439770E+03  0.28610965889E+03  0.00000000000E+00 0.  1.
       14    1    4    4    0    0  0.30959891931E+02  0.66233561264E+01  0.41304759884E+03  0.41425922157E+03  0.00000000000E+00 0. -1.
        3    1    3    3  502    0  0.38518044793E+01 -0.29063221578E+02  0.16317498137E+02  0.33552466253E+02  0.00000000000E+00 0. -1.
       -4    1    3    3    0  502  0.59577770080E+01  0.38141378987E+02  0.11231664839E+03  0.11876569119E+03  0.00000000000E+00 0.  1.
</event>
<event>
 8   1  0.2279600E-02  0.8726994E+02  0.7546771E-02  0.1317074E+00
       -1   -1    0    0    0  501 -0.00000000000E+00  0.00000000000E+00  0.50262238324E+02  0.50262238324E+02  0.00000000000E+00 0.  1.
        1   -1    0    0  501    0  0.00000000000E+00 -0.00000000000E+00 -0.30119265169E+03  0.30119265169E+03  0.00000000000E+00 0. -1.
       24    2    1    2    0    0  0.33001418827E+02  0.75147851941E+01  0.19864217036E+01  0.87292543356E+02  0.80439272829E+02 0.  0.
      -24    2    1    2    0    0 -0.33001418827E+02 -0.75147851941E+01 -0.25291683507E+03  0.26416234666E+03  0.68331941943E+02 0.  0.
      -13    1    3    3    0    0  0.18713390825E+02 -0.35434168063E+02 -0.81875803745E+01  0.40899972309E+02  0.00000000000E+00 0.  1.
       14    1    3    3    0    0  0.14288028002E+02  0.42948953257E+02  0.10174002078E+02  0.46392571047E+02  0.00000000000E+00 0. -1.
        1    1    4    4  502    0 -0.17036675125E+02  0.62512236717E+01 -0.23713671280E+03  0.23783007937E+03  0.00000000000E+00 0. -1.
       -2    1    4    4    0  502 -0.15964743702E+02 -0.13766008866E+02 -0.15780122267E+02  0.26332267284E+02  0.00000000000E+00 0.  1.
</event>
<event>
 8   1  0.2279600E-02  0.1112841E+03  0.7546771E-02  0.1258878E+00
       -2   -1    0    0    0  501 -0.00000000000E+00  0.00000000000E+00  0.14405048191E+02  0.14405048191E+02  0.00000000000E+00 0.  1.
        2   -1    0    0  501    0  0.00000000000E+00 -0.00000000000E+00 -0.16294679070E+04  0.16294679070E+04  0.00000000000E+00 0. -1.
       24    2    1    2    0    0 -0.39099612584E+02 -0.64943885981E+02 -0.13737810621E+04  0.13781643585E+04  0.79473923732E+02 0.  0.
      -24    2    1    2    0    0  0.39099612584E+02  0.64943885981E+02 -0.24128179673E+03  0.26570859667E+03  0.81471865564E+02 0.  0.
      -13    1    3    3    0    0 -0.17711824276E+02  0.65622860091E+01 -0.70127383858E+03  0.70152816692E+03  0.00000000000E+00 0.  1.
       14    1    3    3    0    0 -0.21387788308E+02 -0.71506171990E+02 -0.67250722349E+03  0.67663619158E+03  0.00000000000E+00 0. -1.
        1    1    4    4  502    0  0.21986836931E+02  0.37110271051E+01 -0.16457228206E+03  0.16607597281E+03  0.00000000000E+00 0. -1.
       -2    1    4    4    0  502  0.17112775653E+02  0.61232858876E+02 -0.76709514671E+02  0.99632623863E+02  0.00000000000E+00 0.  1.
</event>
<event>
 8   1  0.2279600E-02  0.8089259E+02  0.7546771E-02  0.1338185E+00
        2   -1    0    0  501    0  0.00000000000E+00  0.00000000000E+00  0.26117150866E+03  0.26117150866E+03  0.00000000000E+00 0. -1.
       -2   -1    0    0    0  501 -0.00000000000E+00 -0.00000000000E+00 -0.58928784476E+02  0.58928784476E+02  0.00000000000E+00 0.  1.
       24    2    1    2    0    0  0.42242531923E+01  0.19972937579E+01  0.22629294755E+03  0.23570820791E+03  0.65787747099E+02 0.  0.
      -24    2    1    2    0    0 -0.42242531923E+01 -0.19972937579E+01 -0.24050223362E+02  0.84392085229E+02  0.80757521682E+02 0.  0.
      -13    1    3    3    0    0  0.18115214193E+02 -0.12719934423E+02  0.24961371612E+02  0.33362071125E+02  0.00000000000E+00 0.  1.
       14    1    3    3    0    0 -0.13890961000E+02  0.14717228181E+02  0.20133157593E+03  0.20234613678E+03  0.00000000000E+00 0. -1.
        3    1    4    4  502    0 -0.41442894506E+02 -0.10393842514E+02 -0.13435312797E+02  0.44788984106E+02  0.00000000000E+00 0. -1.
       -4    1    4    4    0  502  0.37218641314E+02  0.83965487560E+01 -0.10614910565E+02  0.39603101123E+02  0.00000000000E+00 0.  1.
</event>
<event>
 8   1  0.2279600E-02  0.9769637E+02  0.7546771E-02  0.1285517E+00
       -2   -1    0    0    0  501 -0.00000000000E+00  0.00000000000E+00  0.42801863616E+01  0.42801863616E+01  0.00000000000E+00 0.  1.
        2   -1    0    0  501    0  0.00000000000E+00 -0.00000000000E+00 -0.24317438808E+04  0.24317438808E+04  0.00000000000E+00 0. -1.
      -24    2    1    2    0    0 -0.15872084197E+02  0.52746766896E+02 -0.85520278150E+03  0.86076499648E+03  0.80687280273E+02 0.  0.
       24    2    1    2    0    0  0.15872084197E+02 -0.52746766896E+02 -0.15722609129E+04  0.15752590706E+04  0.80016354260E+02 0.  0.
      -13    1    4    4    0    0 -0.13661384061E+02 -0.17717227053E+01 -0.97550242173E+03  0.97559968595E+03  0.00000000000E+00 0.  1.
       14    1    4    4    0    0  0.29533468258E+02 -0.50975044191E+02 -0.59675849116E+03  0.59965938469E+03  0.00000000000E+00 0. -1.
        1    1    3    3  502    0  0.25018799857E+02  0.30811320346E+02 -0.60466723815E+03  0.60596843705E+03  0.00000000000E+00 0. -1.
       -2    1    3    3    0  502 -0.40890884054E+02  0.21935446550E+02 -0.25053554336E+03  0.25479655943E+03  0.00000000000E+00 0.  1.
</event>
<event>
 8   1  0.2279600E-02  0.8784662E+02  0.7546771E-02  0.1310218E+00
        2   -1    0    0  501    0  0.00000000000E+00  0.00000000000E+00  0.17037285744E+03  0.17037285744E+03  0.00000000000E+00 0. -1.
       -2   -1    0    0    0  501 -0.00000000000E+00 -0.00000000000E+00 -0.45076233545E+02  0.45076233545E+02  0.00000000000E+00 0.  1.
      -24    2    1    2    0    0  0.73036246545E+01 -0.29171266880E+02  0.44568107934E+02  0.98505554634E+02  0.82539216767E+02 0.  0.
       24    2    1    2    0    0 -0.73036246545E+01  0.29171266880E+02  0.80728515960E+02  0.11694353635E+03  0.79084711927E+02 0.  0.
      -13    1    4    4    0    0 -0.41903892750E+02  0.47876264273E+01  0.37398597852E+02  0.56369430684E+02  0.00000000000E+00 0.  1.
       14    1    4    4    0    0  0.34600268095E+02  0.24383640453E+02  0.43329918108E+02  0.60574105666E+02  0.00000000000E+00 0. -1.
        1    1    3    3  502    0  0.60210344367E+00 -0.12747313456E+02  0.67960388162E+02  0.69148180656E+02  0.00000000000E+00 0. -1.
       -2    1    3    3    0  502  0.67015212109E+01 -0.16423953424E+02 -0.23392280228E+02  0.29357373978E+02  0.00000000000E+00 0.  1.
</event>
<event>
 8   1  0.2279600E-02  0.9528904E+02  0.7546771E-02  0.1293707E+00
        1   -1    0    0  501    0  0.00000000000E+00  0.00000000000E+00  0.61403690953E+02  0.61403690953E+02  0.00000000000E+00 0. -1.
       -1   -1    0    0    0  501 -0.00000000000E+00 -0.00000000000E+00 -0.36516150770E+03  0.36516150770E+03  0.00000000000E+00 0.  1.
       24    2    1    2    0    0  0.38181676870E+02 -0.64070905863E+01 -0.31780391665E+03  0.33024649228E+03  0.81021756129E+02 0.  0.
      -24    2    1    2    0    0 -0.38181676870E+02  0.64070905863E+01  0.14046099908E+02  0.96318706369E+02  0.87069564232E+02 0.  0.
      -13    1    3    3    0    0  0.28218505231E+02  0.35635168818E+02 -0.18899190506E+03  0.19438129918E+03  0.00000000000E+00 0.  1.
       14    1    3    3    0    0  0.99631716384E+01 -0.42042259405E+02 -0.12881201159E+03  0.13586519310E+03  0.00000000000E+00 0. -1.
        1    1    4    4  502    0 -0.21638826996E+02 -0.38233687832E+02 -0.66033795473E+01  0.44425874672E+02  0.00000000000E+00 0. -1.
       -2    1    4    4    0  502 -0.16542849874E+02  0.44640778418E+02  0.20649479455E+02  0.51892831696E+02  0.00000000000E+00 0.  1.
</event>
<event>
 8   1  0.2279600E-02  0.1488915E+03  0.7546771E-02  0.1201870E+00
       -2   -1    0    0    0  501 -0.00000000000E+00  0.00000000000E+00  0.34922016163E+03  0.34922016163E+03  0.00000000000E+00 0.  1.
        2   -1    0    0  501    0  0.00000000000E+00 -0.00000000000E+00 -0.67662768229E+02  0.67662768229E+02  0.00000000000E+00 0. -1.
      -24    2    1    2    0    0  0.12522932134E+03 -0.44243239208E+01  0.19288298891E+03  0.24366475613E+03  0.80415846725E+02 0.  0.
       24    2    1    2    0    0 -0.12522932134E+03  0.44243239208E+01  0.88674404492E+02  0.17321817373E+03  0.80246047448E+02 0.  0.
      -13    1    4    4    0    0 -0.45990703841E+02  0.21887917575E+02  0.75412222908E+02  0.91001258999E+02  0.00000000000E+00 0.  1.
       14    1    4    4    0    0 -0.79238617502E+02 -0.17463593654E+02  0.13262181585E+02  0.82216914727E+02  0.00000000000E+00 0. -1.
        1    1    3    3  502    0  0.10511182515E+03 -0.36267593615E+02  0.14182816670E+03  0.18021948563E+03  0.00000000000E+00 0. -1.
       -2    1    3    3    0  502  0.20117496196E+02  0.31843269694E+02  0.51054822204E+02  0.63445270496E+02  0.00000000000E+00 0.  1.
</event>
<event>
 8   1  0.2279600E-02  0.1244808E+03  0.7546771E-02  0.1235973E+00
       -2   -1    0    0    0  501 -0.00000000000E+00  0.00000000000E+00  0.16079536925E+03  0.16079536925E+03  0.00000000000E+00 0.  1.
        2   -1    0    0  501    0  0.00000000000E+00 -0.00000000000E+00 -0.99265312528E+02  0.99265312528E+02  0.00000000000E+00 0. -1.
      -24    2    1    2    0    0  0.59153452880E+02 -0.74536064770E+02  0.53678133499E+02  0.13556112583E+03  0.80254101961E+02 0.  0.
       24    2    1    2    0    0 -0.59153452880E+02  0.74536064770E+02  0.78519232209E+01  0.12449955595E+03  0.79898252755E+02 0.  0.
      -13    1    4    4    0    0  0.73688706599E+01 -0.93262080075E+01 -0.10542802822E+02  0.15888017559E+02  0.00000000000E+00 0.  1.
       14    1    4    4    0    0 -0.66522323540E+02  0.83862272777E+02  0.18394726043E+02  0.10861153839E+03  0.00000000000E+00 0. -1.
        3    1    3    3  502    0  0.45343778114E+02 -0.41325840020E+02 -0.10258534179E+02  0.62202257118E+02  0.00000000000E+00 0. -1.
       -4    1    3    3    0  502  0.13809674766E+02 -0.33210224749E+02  0.63936667679E+02  0.73358868713E+02  0.00000000000E+00 0.  1.
</event>
<event>
 8   1  0.2279600E-02  0.2072716E+03  0.7546771E-02  0.1144192E+00
       -4   -1    0    0    0  501 -0.00000000000E+00  0.00000000000E+00  0.12018925127E+03  0.12018925127E+03  0.00000000000E+00 0.  1.
        4   -1    0    0  501    0  0.00000000000E+00 -0.00000000000E+00 -0.73488781280E+03  0.73488781280E+03  0.00000000000E+00 0. -1.
      -24    2    1    2    0    0 -0.19555387830E+02  0.18968704247E+03 -0.20682222566E+00  0.20727170492E+03  0.81227640662E+02 0.  0.
       24    2    1    2    0    0  0.19555387830E+02 -0.18968704247E+03 -0.61449173931E+03  0.64780535916E+03  0.75419482856E+02 0.  0.
      -13    1    4    4    0    0 -0.82079802439E+01  0.37427179681E+01 -0.18245423241E+02  0.20353730535E+02  0.00000000000E+00 0.  1.
       14    1    4    4    0    0  0.27763368074E+02 -0.19342976044E+03 -0.59624631607E+03  0.62745162862E+03  0.00000000000E+00 0. -1.
        3    1    3    3  502    0 -0.51139292861E+02  0.10715134192E+03 -0.42688382760E+01  0.11880597767E+03  0.00000000000E+00 0. -1.
       -4    1    3    3    0  502  0.31583905031E+02  0.82535700556E+02  0.40620160503E+01  0.88465727249E+02  0.00000000000E+00 0.  1.
</event>
<event>
 8   1  0.2279600E-02  0.8438772E+02  0.7546771E-02  0.1317293E+00
        3   -1    0    0  501    0  0.00000000000E+00  0.00000000000E+00  0.56678528373E+03  0.56678528373E+03  0.00000000000E+00 0. -1.
       -3   -1    0    0    0  501 -0.00000000000E+00 -0.00000000000E+00 -0.12645809296E+02  0.12645809296E+02  0.00000000000E+00 0.  1.
       24    2    1    2    0    0 -0.14267123260E+02 -0.18716843559E+02  0.24741921469E+03  0.26141452698E+03  0.81039595722E+02 0.  0.
      -24    2    1    2    0    0  0.14267123260E+02  0.18716843559E+02  0.30672025974E+03  0.31801656605E+03  0.80643335183E+02 0.  0.
      -13    1    3    3    0    0 -0.32390427419E+02 -0.42906229163E+02  0.17029336961E+03  0.17857747904E+03  0.00000000000E+00 0.  1.
       14    1    3    3    0    0  0.18123304160E+02  0.24189385605E+02  0.77125845088E+02  0.82837047932E+02  0.00000000000E+00 0. -1.
        1    1    4    4  502    0 -0.10130952933E+02  0.45816209417E+02  0.15317828305E+03  0.16020408126E+03  0.00000000000E+00 0. -1.
       -2    1    4    4    0  502  0.24398076193E+02 -0.27099365858E+02  0.15354197669E+03  0.15781248479E+03  0.00000000000E+00 0.  1.
</event>
<event>
 8   1  0.2279600E-02  0.8217376E+02  0.7546771E-02  0.1324024E+00
        2   -1    0    0  501    0  0.00000000000E+00  0.00000000000E+00  0.25271755232E+03  0.25271755232E+03  0.00000000000E+00 0. -1.
       -2   -1    0    0    0  501 -0.00000000000E+00 -0.00000000000E+00 -0.32056741822E+03  0.32056741822E+03  0.00000000000E+00 0.  1.
      -24    2    1    2    0    0  0.63047800712E+01 -0.95327365560E+01 -0.30861131420E+03  0.31936416442E+03  0.81375075699E+02 0.  0.
       24    2    1    2    0    0 -0.63047800712E+01  0.95327365560E+01  0.24076144830E+03  0.25392080612E+03  0.79869127156E+02 0.  0.
      -13    1    4    4    0    0  0.12870374908E+02 -0.11777475128E+02  0.76433767190E+01  0.19046697307E+02  0.00000000000E+00 0.  1.
       14    1    4    4    0    0 -0.19175154979E+02  0.21310211684E+02  0.23311807158E+03  0.23487410881E+03  0.00000000000E+00 0. -1.
        1    1    3    3  502    0  0.39801366036E+01 -0.18140914387E+02 -0.10931182814E+02  0.21550522497E+02  0.00000000000E+00 0. -1.
       -2    1    3    3    0  502  0.23246434676E+01  0.86081778314E+01 -0.29768013139E+03  0.29781364192E+03  0.00000000000E+00 0.  1.
</event>
<event>
 8   1  0.2279600E-02  0.9736107E+02  0.7546771E-02  0.1293757E+00
       -2   -1    0    0    0  501 -0.00000000000E+00  0.00000000000E+00  0.81736782442E+02  0.81736782442E+02  0.00000000000E+00 0.  1.
        2   -1    0    0  501    0  0.00000000000E+00 -0.00000000000E+00 -0.13997444570E+03  0.13997444570E+03  0.00000000000E+00 0. -1.
      -24    2    1    2    0    0  0.25594106181E+02  0.76023306985E+00  0.27942823833E+02  0.10129155830E+03  0.93933711481E+02 0.  0.
       24    2    1    2    0    0 -0.25594106181E+02 -0.76023306985E+00 -0.86180487090E+02  0.12041966985E+03  0.80113571291E+02 0.  0.
      -13    1    4    4    0    0 -0.44702831011E+02  0.22255488589E+02 -0.34463955099E+02  0.60674657591E+02  0.00000000000E+00 0.  1.
       14    1    4    4    0    0  0.19108724830E+02 -0.23015721658E+02 -0.51716531992E+02  0.59745012255E+02  0.00000000000E+00 0. -1.
        3    1    3    3  502    0 -0.15795320447E+02 -0.21775246764E+02 -0.20413449892E+02  0.33769253118E+02  0.00000000000E+00 0. -1.
       -4    1    3    3    0  502  0.41389426628E+02  0.22535479834E+02  0.48356273725E+02  0.67522305177E+02  0.00000000000E+00 0.  1.
</event>
<event>
 8   1  0.2279600E-02  0.1425937E+03  0.7546771E-02  0.1210417E+00
       -2   -1    0    0    0  501 -0.00000000000E+00  0.00000000000E+00  0.40612243501E+02  0.40612243501E+02  0.00000000000E+00 0.  1.
        2   -1    0    0  501    0  0.00000000000E+00 -0.00000000000E+00 -0.79900580222E+03  0.79900580222E+03  0.00000000000E+00 0. -1.
       24    2    1    2    0    0 -0.10548044151E+03 -0.48463908314E+02 -0.63949842654E+03  0.65520317809E+03  0.82813604425E+02 0.  0.
      -24    2    1    2    0    0  0.10548044151E+03  0.48463908314E+02 -0.11889513218E+03  0.18441486763E+03  0.79986980182E+02 0.  0.
      -13    1    3    3    0    0 -0.73309640026E+02  0.10360221826E+02 -0.28778284983E+03  0.29715417912E+03  0.00000000000E+00 0.  1.
       14    1    3    3    0    0 -0.32170801484E+02 -0.58824130141E+02 -0.35171557672E+03  0.35804899897E+03  0.00000000000E+00 0. -1.
        3    1    4    4  502    0  0.69169740965E+02  0.30638873681E+02 -0.12231579202E+03  0.14382053617E+03  0.00000000000E+00 0. -1.
       -4    1    4    4    0  502  0.36310700544E+02  0.17825034633E+02  0.34206598403E+01  0.40594331469E+02  0.00000000000E+00 0.  1.
</event>
<event>
 8   1  0.2279600E-02  0.9090270E+02  0.7546771E-02  0.1301129E+00
       -2   -1    0    0    0  501 -0.00000000000E+00  0.00000000000E+00  0.34185571757E+02  0.34185571757E+02  0.00000000000E+00 0.  1.
        2   -1    0    0  501    0  0.00000000000E+00 -0.00000000000E+00 -0.31804052216E+03  0.31804052216E+03  0.00000000000E+00 0. -1.
      -24    2    1    2    0    0  0.20821935662E+01 -0.40784419622E+02 -0.54099313713E+02  0.10514118244E+03  0.80375544088E+02 0.  0.
       24    2    1    2    0    0 -0.20821935662E+01  0.40784419622E+02 -0.22975563669E+03  0.24708491147E+03  0.81213277689E+02 0.  0.
      -13    1    4    4    0    0  0.91816133154E+01  0.63733717001E+02 -0.17951263541E+03  0.19071202107E+03  0.00000000000E+00 0.  1.
       14    1    4    4    0    0 -0.11263806882E+02 -0.22949297379E+02 -0.50243001277E+02  0.56372890408E+02  0.00000000000E+00 0. -1.
        3    1    3    3  502    0 -0.22370216307E+02 -0.55476209771E+02 -0.46083414274E+02  0.75509717913E+02  0.00000000000E+00 0. -1.
       -4    1    3    3    0  502  0.24452409873E+02  0.14691790149E+02 -0.80158994391E+01  0.29631464530E+02  0.00000000000E+00 0.  1.
</event>
<event>
 8   1  0.2279600E-02  0.8149862E+02  0.7546771E-02  0.1325925E+00
        2   -1    0    0  501    0  0.00000000000E+00  0.00000000000E+00  0.19030806142E+03  0.19030806142E+03  0.00000000000E+00 0. -1.
       -2   -1    0    0    0  501 -0.00000000000E+00 -0.00000000000E+00 -0.34638013910E+02  0.34638013910E+02  0.00000000000E+00 0.  1.
      -24    2    1    2    0    0  0.29913984467E+01 -0.11049648016E+02  0.90513845341E+02  0.12179811360E+03  0.80690650581E+02 0.  0.
       24    2    1    2    0    0 -0.29913984467E+01  0.11049648016E+02  0.65156202173E+02  0.10314796174E+03  0.79139927616E+02 0.  0.
      -13    1    4    4    0    0  0.25142171776E+02 -0.82835038824E+01 -0.32766634877E+01  0.26673615462E+02  0.00000000000E+00 0.  1.
       14    1    4    4    0    0 -0.28133570223E+02  0.19333151899E+02  0.68432865661E+02  0.76474346276E+02  0.00000000000E+00 0. -1.
        3    1    3    3  502    0  0.38619647487E+01 -0.44382557885E+02  0.33464783570E+02  0.55719098660E+02  0.00000000000E+00 0. -1.
       -4    1    3    3    0  502 -0.87056630198E+00  0.33332909869E+02  0.57049061771E+02  0.66079014936E+02  0.00000000000E+00 0.  1.
</event>
<event>
 8   1  0.2279600E-02  0.8242368E+02  0.7546771E-02  0.1323010E+00
       -1   -1    0    0    0  501 -0.00000000000E+00  0.00000000000E+00  0.65435239252E+02  0.65435239252E+02  0.00000000000E+00 0.  1.
        1   -1    0    0  501    0  0.00000000000E+00 -0.00000000000E+00 -0.28197324671E+04  0.28197324671E+04  0.00000000000E+00 0. -1.
       24    2    1    2    0    0  0.91890096092E+01 -0.41684109070E+01  0.39272692133E+02  0.90382104357E+02  0.80776029201E+02 0.  0.
      -24    2    1    2    0    0 -0.91890096092E+01  0.41684109070E+01 -0.27935699200E+04  0.27947856020E+04  0.81803726957E+02 0.  0.
      -13    1    3    3    0    0  0.34446936541E+02 -0.29566802440E+02  0.24992094676E+02  0.51820768422E+02  0.00000000000E+00 0.  1.
       14    1    3    3    0    0 -0.25257926931E+02  0.25398391533E+02  0.14280597457E+02  0.38561335935E+02  0.00000000000E+00 0. -1.
        3    1    4    4  502    0  0.33507389092E+02 -0.13394878923E+02 -0.11371305386E+04  0.11377029619E+04  0.00000000000E+00 0. -1.
       -4    1    4    4    0  502 -0.42696398701E+02  0.17563289830E+02 -0.16564393815E+04  0.16570826401E+04  0.00000000000E+00 0.  1.
</event>
<event>
 8   1  0.2279600E-02  0.1063391E+03  0.7546771E-02  0.1267858E+00
       -1   -1    0    0    0  501 -0.00000000000E+00  0.00000000000E+00  0.35274127703E+03  0.35274127703E+03  0.00000000000E+00 0.  1.
        1   -1    0    0  501    0  0.00000000000E+00 -0.00000000000E+00 -0.32327534596E+02  0.32327534596E+02  0.00000000000E+00 0. -1.
       24    2    1    2    0    0 -0.68274371565E+02 -0.75559361957E+01  0.13597459705E+03  0.17217025509E+03  0.80218599528E+02 0.  0.
      -24    2    1    2    0    0  0.68274371565E+02  0.75559361957E+01  0.18443914539E+03  0.21289855654E+03  0.81175827935E+02 0.  0.
      -13    1    3    3    0    0 -0.70336508280E+02 -0.32349012081E+02  0.11930600051E+03  0.14222378401E+03  0.00000000000E+00 0.  1.
       14    1    3    3    0    0  0.20621367154E+01  0.24793075885E+02  0.16668596542E+02  0.29946471083E+02  0.00000000000E+00 0. -1.
        1    1    4    4  502    0  0.43362141295E+02  0.44259129661E+02  0.10549853783E+03  0.12234822165E+03  0.00000000000E+00 0. -1.
       -2    1    4    4    0  502  0.24912230270E+02 -0.36703193465E+02  0.78940607552E+02  0.90550334888E+02  0.00000000000E+00 0.  1.
</event>
<event>
 8   1  0.2279600E-02  0.9346348E+02  0.7546771E-02  0.1295146E+00
        2   -1    0    0  501    0  0.00000000000E+00  0.00000000000E+00  0.36515619532E+03  0.36515619532E+03  0.00000000000E+00 0. -1.
       -2   -1    0    0    0  501 -0.00000000000E+00 -0.00000000000E+00 -0.88378752585E+02  0.88378752585E+02  0.00000000000E+00 0.  1.
      -24    2    1    2    0    0  0.36114689331E+02 -0.31025236484E+02 -0.55420527706E+02  0.10865936496E+03  0.80427524002E+02 0.  0.
       24    2    1    2    0    0 -0.36114689331E+02  0.31025236484E+02  0.33219797044E+03  0.34487558295E+03  0.79478550972E+02 0.  0.
      -13    1    4    4    0    0 -0.48907035427E+02  0.39598108826E+02  0.15908094037E+03  0.17107499504E+03  0.00000000000E+00 0.  1.
       14    1    4    4    0    0  0.12792346096E+02 -0.85728723419E+01  0.17311703007E+03  0.17380058791E+03  0.00000000000E+00 0. -1.
        1    1    3    3  502    0 -0.10518627638E+01  0.13778962891E+02  0.12898035165E+02  0.18903056492E+02  0.00000000000E+00 0. -1.
       -2    1    3    3    0  502  0.37166552095E+02 -0.44804199376E+02 -0.68318562871E+02  0.89756308464E+02  0.00000000000E+00 0.  1.
</event>
<event>
 8   1  0.2279600E-02  0.8706713E+02  0.7546771E-02  0.1310432E+00
        2   -1    0    0  501    0  0.00000000000E+00  0.00000000000E+00  0.54759115264E+03  0.54759115264E+03  0.00000000000E+00 0. -1.
       -2   -1    0    0    0  501 -0.00000000000E+00 -0.00000000000E+00 -0.16711887141E+02  0.16711887141E+02  0.00000000000E+00 0.  1.
      -24    2    1    2    0    0  0.17992971251E+02  0.26028062553E+02  0.14631047185E+03  0.17000132446E+03  0.80575983328E+02 0.  0.
       24    2    1    2    0    0 -0.17992971251E+02 -0.26028062553E+02  0.38456879365E+03  0.39430171533E+03  0.81113985262E+02 0.  0.
      -13    1    4    4    0    0  0.13479795158E+02  0.11012144808E+02  0.20027781228E+02  0.26534585576E+02  0.00000000000E+00 0.  1.
       14    1    4    4    0    0 -0.31472766410E+02 -0.37040207361E+02  0.36454101242E+03  0.36776712975E+03  0.00000000000E+00 0. -1.
        1    1    3    3  502    0 -0.15198267927E+02  0.32451411789E+02  0.12500757436E+03  0.13004220516E+03  0.00000000000E+00 0. -1.
       -2    1    3    3    0  502  0.33191239178E+02 -0.64233492363E+01  0.21302897489E+02  0.39959119297E+02  0.00000000000E+00 0.  1.
</event>
<event>
 8   1  0.2279600E-02  0.1115702E+03  0.7546771E-02  0.1257739E+00
       -1   -1    0    0    0  501 -0.00000000000E+00  0.00000000000E+00  0.65668088616E+02  0.65668088616E+02  0.00000000000E+00 0.  1.
        1   -1    0    0  501    0  0.00000000000E+00 -0.00000000000E+00 -0.37828774300E+03  0.37828774300E+03  0.00000000000E+00 0. -1.
       24    2    1    2    0    0  0.75547233293E+02 -0.21411091706E+02  0.59620202412E+00  0.11146211225E+03  0.79105168627E+02 0.  0.
      -24    2    1    2    0    0 -0.75547233293E+02  0.21411091706E+02 -0.31321585641E+03  0.33249371937E+03  0.79259582435E+02 0.  0.
      -13    1    3    3    0    0  0.91894261949E+02 -0.12828230672E+02  0.30565887865E+01  0.92835669957E+02  0.00000000000E+00 0.  1.
       14    1    3    3    0    0 -0.16347028656E+02 -0.85828610335E+01 -0.24603867623E+01  0.18626442291E+02  0.00000000000E+00 0. -1.
        1    1    4    4  502    0 -0.43532605324E+02  0.11675417859E+02 -0.28552328637E+03  0.28905873135E+03  0.00000000000E+00 0. -1.
       -2    1    4    4    0  502 -0.32014627969E+02  0.97356738469E+01 -0.27692570043E+02  0.43434988026E+02  0.00000000000E+00 0.  1.
</event>
<event>
 8   1  0.2279600E-02  0.8105594E+02  0.7546771E-02  0.1326603E+00
       -2   -1    0    0    0  501 -0.00000000000E+00  0.00000000000E+00  0.14520177552E+02  0.14520177552E+02  0.00000000000E+00 0.  1.
        2   -1    0    0  501    0  0.00000000000E+00 -0.00000000000E+00 -0.46303983747E+03  0.46303983747E+03  0.00000000000E+00 0. -1.
      -24    2    1    2    0    0 -0.16220559762E+01  0.15270999841E+02 -0.26581569568E+03  0.27768304426E+03  0.78829274367E+02 0.  0.
       24    2    1    2    0    0  0.16220559762E+01 -0.15270999841E+02 -0.18270396424E+03  0.19987697076E+03  0.79587878419E+02 0.  0.
      -13    1    4    4    0    0 -0.28028670700E+01 -0.47584058724E+02 -0.12169882020E+03  0.13070080928E+03  0.00000000000E+00 0.  1.
       14    1    4    4    0    0  0.44249230462E+01  0.32313058883E+02 -0.61005144042E+02  0.69176161486E+02  0.00000000000E+00 0. -1.
        1    1    3    3  502    0 -0.46890078956E+00  0.47729018325E+02 -0.15127082137E+03  0.15862263538E+03  0.00000000000E+00 0. -1.
       -2    1    3    3    0  502 -0.11531551866E+01 -0.32458018484E+02 -0.11454487431E+03  0.11906040888E+03  0.00000000000E+00 0.  1.
</event>
<event>
 8   1  0.2279600E-02  0.8393391E+02  0.7546771E-02  0.1318724E+00
       -2   -1    0    0    0  501 -0.00000000000E+00  0.00000000000E+00  0.29990852309E+01  0.29990852309E+01  0.00000000000E+00 0.  1.
        2   -1    0    0  501    0  0.00000000000E+00 -0.00000000000E+00 -0.40148943189E+04  0.40148943189E+04  0.00000000000E+00 0. -1.
      -24    2    1    2    0    0  0.19239286535E+01  0.17857629482E+02 -0.70913299518E+03  0.71408298266E+03  0.81989663007E+02 0.  0.
       24    2    1    2    0    0 -0.19239286535E+01 -0.17857629482E+02 -0.33027622385E+04  0.33038104215E+04  0.81254542002E+02 0.  0.
      -13    1    4    4    0    0 -0.22857496219E+02  0.24708595780E+01 -0.29098474107E+03  0.29189157202E+03  0.00000000000E+00 0.  1.
       14    1    4    4    0    0  0.20933567566E+02 -0.20328489060E+02 -0.30117774974E+04  0.30119188495E+04  0.00000000000E+00 0. -1.
        1    1    3    3  502    0 -0.27149565465E+02  0.22348185591E+01 -0.58509813071E+03  0.58573194883E+03  0.00000000000E+00 0. -1.
       -2    1    3    3    0  502  0.29073494119E+02  0.15622810922E+02 -0.12403486447E+03  0.12835103383E+03  0.00000000000E+00 0.  1.
</event>
<event>
 8   1  0.2279600E-02  0.9848754E+02  0.7546771E-02  0.1288506E+00
       -4   -1    0    0    0  501 -0.00000000000E+00  0.00000000000E+00  0.15755971271E+03  0.15755971271E+03  0.00000000000E+00 0.  1.
        4   -1    0    0  501    0  0.00000000000E+00 -0.00000000000E+00 -0.59024949648E+02  0.59024949648E+02  0.00000000000E+00 0. -1.
      -24    2    1    2    0    0 -0.21089681689E+02  0.46678164075E+02  0.70924437201E+02  0.11430013402E+03  0.73556911094E+02 0.  0.
       24    2    1    2    0    0  0.21089681689E+02 -0.46678164075E+02  0.27610325856E+02  0.10228452833E+03  0.84119967708E+02 0.  0.
      -13    1    4    4    0    0  0.35285938804E+02 -0.72122127748E+01  0.44344809291E+02  0.57127713078E+02  0.00000000000E+00 0.  1.
       14    1    4    4    0    0 -0.14196257115E+02 -0.39465951301E+02 -0.16734483435E+02  0.45156815255E+02  0.00000000000E+00 0. -1.
        1    1    3    3  502    0 -0.16315790532E+02  0.16942336848E+02 -0.11763203119E+02  0.26298683354E+02  0.00000000000E+00 0. -1.
       -2    1    3    3    0  502 -0.47738911575E+01  0.29735827227E+02  0.82687640321E+02  0.88001450667E+02  0.00000000000E+00 0.  1.
</event>
<event>
 8   1  0.2279600E-02  0.8163292E+02  0.7546771E-02  0.1325805E+00
        2   -1    0    0  501    0  0.00000000000E+00  0.00000000000E+00  0.49951540165E+03  0.49951540165E+03  0.00000000000E+00 0. -1.
       -2   -1    0    0    0  501 -0.00000000000E+00 -0.00000000000E+00 -0.19240007454E+02  0.19240007454E+02  0.00000000000E+00 0.  1.
      -24    2    1    2    0    0  0.70134801052E+01  0.40845523282E+01  0.94731036082E+02  0.12505160146E+03  0.81228451661E+02 0.  0.
       24    2    1    2    0    0 -0.70134801052E+01 -0.40845523282E+01  0.38554435811E+03  0.39370380765E+03  0.79324420015E+02 0.  0.
      -13    1    4    4    0    0  0.25314364776E+02 -0.10880959751E+01  0.45224015541E+02  0.51838331363E+02  0.00000000000E+00 0.  1.
       14    1    4    4    0    0 -0.32327844881E+02 -0.29964563531E+01  0.34032034257E+03  0.34186547628E+03  0.00000000000E+00 0. -1.
        1    1    3    3  502    0 -0.20675924653E+02 -0.24520265021E+02  0.13916039527E+02  0.34962743214E+02  0.00000000000E+00 0. -1.
       -2    1    3    3    0  502  0.27689404758E+02  0.28604817349E+02  0.80814996555E+02  0.90088858244E+02  0.00000000000E+00 0.  1.
</event>
<event>
 8   1  0.2279600E-02  0.8372786E+02  0.7546771E-02  0.1318894E+00
       -2   -1    0    0    0  501 -0.00000000000E+00  0.00000000000E+00  0.19266450602E+02  0.19266450602E+02  0.00000000000E+00 0.  1.
        2   -1    0    0  501    0  0.00000000000E+00 -0.00000000000E+00 -0.36321132341E+03  0.36321132341E+03  0.00000000000E+00 0. -1.
       24    2    1    2    0    0  0.21837641627E+02  0.13335246342E+01 -0.17156868939E+03  0.19090879979E+03  0.80818894938E+02 0.  0.
      -24    2    1    2    0    0 -0.21837641627E+02 -0.13335246342E+01 -0.17237618342E+03  0.19156897422E+03  0.80662645594E+02 0.  0.
      -13    1    3    3    0    0  0.19989755120E+01 -0.10340138234E+02  0.58200977749E+01  0.12032784379E+02  0.00000000000E+00 0.  1.
       14    1    3    3    0    0  0.19838666115E+02  0.11673662869E+02 -0.17738878716E+03  0.17887601541E+03  0.00000000000E+00 0. -1.
        3    1    4    4  502    0 -0.29338795746E+02 -0.28058407941E+02 -0.15147895600E+03  0.15682446653E+03  0.00000000000E+00 0. -1.
       -4    1    4    4    0  502  0.75011541190E+01  0.26724883307E+02 -0.20897227423E+02  0.34744507693E+02  0.00000000000E+00 0.  1.
</event>
<event>
 8   1  0.2279600E-02  0.8332051E+02  0.7546771E-02  0.1321480E+00
       -2   -1    0    0    0  501 -0.00000000000E+00  0.00000000000E+00  0.40356512877E+03  0.40356512877E+03  0.00000000000E+00 0.  1.
        2   -1    0    0  501    0  0.00000000000E+00 -0.00000000000E+00 -0.18842095645E+02  0.18842095645E+02  0.00000000000E+00 0. -1.
       24    2    1    2    0    0 -0.12928999379E+02  0.17172699934E+02  0.26075822542E+03  0.27304330127E+03  0.78075166323E+02 0.  0.
      -24    2    1    2    0    0  0.12928999379E+02 -0.17172699934E+02  0.12396480771E+03  0.14936392315E+03  0.80499983479E+02 0.  0.
      -13    1    3    3    0    0  0.28396825273E+01  0.46873558129E+02  0.16499777796E+03  0.17155017045E+03  0.00000000000E+00 0.  1.
       14    1    3    3    0    0 -0.15768681906E+02 -0.29700858195E+02  0.95760447463E+02  0.10149313083E+03  0.00000000000E+00 0. -1.
        3    1    4    4  502    0  0.32854188354E+02 -0.35736371400E+02  0.10642000310E+03  0.11696881205E+03  0.00000000000E+00 0. -1.
       -4    1    4    4    0  502 -0.19925188976E+02  0.18563671467E+02  0.17544804603E+02  0.32395111091E+02  0.00000000000E+00 0.  1.
</event>
<event>
 8   1  0.2279600E-02  0.1064209E+03  0.7546771E-02  0.1270760E+00
        1   -1    0    0  501    0  0.00000000000E+00  0.00000000000E+00  0.81688394773E+03  0.81688394773E+03  0.00000000000E+00 0. -1.
       -1   -1    0    0    0  501 -0.00000000000E+00 -0.00000000000E+00 -0.18303790331E+02  0.18303790331E+02  0.00000000000E+00 0.  1.
       24    2    1    2    0    0 -0.38171885623E+02 -0.33403698753E+02  0.16502742597E+03  0.19275916878E+03  0.85727159553E+02 0.  0.
      -24    2    1    2    0    0  0.38171885623E+02  0.33403698753E+02  0.63355273143E+03  0.64242856928E+03  0.93554813784E+02 0.  0.
      -13    1    3    3    0    0 -0.53750015472E+02 -0.44247271691E+02  0.15775315777E+03  0.17243243315E+03  0.00000000000E+00 0.  1.
       14    1    3    3    0    0  0.15578129849E+02  0.10843572938E+02  0.72742682007E+01  0.20326735634E+02  0.00000000000E+00 0. -1.
        1    1    4    4  502    0  0.50410303181E+02  0.44222726130E+02  0.25966549391E+03  0.26818466940E+03  0.00000000000E+00 0. -1.
       -2    1    4    4    0  502 -0.12238417558E+02 -0.10819027377E+02  0.37388723751E+03  0.37424389987E+03  0.00000000000E+00 0.  1.
</event>
<event>
 8   1  0.2279600E-02  0.8470209E+02  0.7546771E-02  0.1317114E+00
       -1   -1    0    0    0  501 -0.00000000000E+00  0.00000000000E+00  0.33631338703E+02  0.33631338703E+02  0.00000000000E+00 0.  1.
        1   -1    0    0  501    0  0.00000000000E+00 -0.00000000000E+00 -0.29248969468E+03  0.29248969468E+03  0.00000000000E+00 0. -1.
       24    2    1    2    0    0 -0.24368632648E+02 -0.83791765083E+00 -0.43543986279E+02  0.95239289796E+02  0.81116651907E+02 0.  0.
      -24    2    1    2    0    0  0.24368632648E+02  0.83791765083E+00 -0.21531436969E+03  0.23088174358E+03  0.79696733687E+02 0.  0.
      -13    1    3    3    0    0 -0.44787973451E+02 -0.60991333225E+01  0.17947656125E+01  0.45236966927E+02  0.00000000000E+00 0.  1.
       14    1    3    3    0    0  0.20419340803E+02  0.52612156716E+01 -0.45338751891E+02  0.50002322869E+02  0.00000000000E+00 0. -1.
        1    1    4    4  502    0  0.30586243229E+02  0.12889419338E+02 -0.21475981380E+03  0.21730953277E+03  0.00000000000E+00 0. -1.
       -2    1    4    4    0  502 -0.62176105812E+01 -0.12051501687E+02 -0.55455589036E+00  0.13572210818E+02  0.00000000000E+00 0.  1.
</event>
<event>
 8   1  0.2279600E-02  0.8578091E+02  0.7546771E-02  0.1313855E+00
       -2   -1    0    0    0  501 -0.00000000000E+00  0.00000000000E+00  0.26016049037E+02  0.26016049037E+02  0.00000000000E+00 0.  1.
        2   -1    0    0  501    0  0.00000000000E+00 -0.00000000000E+00 -0.46561613283E+03  0.46561613283E+03  0.00000000000E+00 0. -1.
      -24    2    1    2    0    0 -0.99895871063E+01  0.15109253550E+02 -0.64284978108E+02  0.10663894479E+03  0.83133776187E+02 0.  0.
       24    2    1    2    0    0  0.99895871063E+01 -0.15109253550E+02 -0.37531510569E+03  0.38499323707E+03  0.83846780757E+02 0.  0.
      -13    1    4    4    0    0  0.20254218154E+02  0.19784668505E+02 -0.30023174100E+03  0.30156386515E+03  0.00000000000E+00 0.  1.
       14    1    4    4    0    0 -0.10264631047E+02 -0.34893922055E+02 -0.75083364686E+02  0.83429371923E+02  0.00000000000E+00 0. -1.
        1    1    3    3  502    0 -0.27812118741E+01  0.29992173667E+02 -0.78972306091E+02  0.84521540155E+02  0.00000000000E+00 0. -1.
       -2    1    3    3    0  502 -0.72083752322E+01 -0.14882920118E+02  0.14687327983E+02  0.22117404640E+02  0.00000000000E+00 0.  1.
</event>
<event>
 8   1  0.2279600E-02  0.1241289E+03  0.7546771E-02  0.1236468E+00
        1   -1    0    0  501    0  0.00000000000E+00  0.00000000000E+00  0.10972266622E+04  0.10972266622E+04  0.00000000000E+00 0. -1.
       -1   -1    0    0    0  501 -0.00000000000E+00 -0.00000000000E+00 -0.19163532852E+02  0.19163532852E+02  0.00000000000E+00 0.  1.
       24    2    1    2    0    0 -0.63860407345E+02  0.70100007396E+02  0.25035859304E+03  0.27944123283E+03  0.80098781718E+02 0.  0.
      -24    2    1    2    0    0  0.63860407345E+02 -0.70100007396E+02  0.82770453634E+03  0.83694896225E+03  0.79978767686E+02 0.  0.
      -13    1    3    3    0    0 -0.59348713327E+02  0.87652390243E+02  0.20866766900E+03  0.23398163897E+03  0.00000000000E+00 0.  1.
       14    1    3    3    0    0 -0.45116940170E+01 -0.17552382848E+02  0.41690924036E+02  0.45459593855E+02  0.00000000000E+00 0. -1.
        3    1    4    4  502    0  0.43328288233E+02 -0.61931822550E+02  0.78710298129E+03  0.79072371557E+03  0.00000000000E+00 0. -1.
       -4    1    4    4    0  502  0.20532119112E+02 -0.81681848456E+01  0.40601555046E+02  0.46225246685E+02  0.00000000000E+00 0.  1.
</event>
<event>
 8   1  0.2279600E-02  0.9832670E+02  0.7546771E-02  0.1284776E+00
        2   -1    0    0  501    0  0.00000000000E+00  0.00000000000E+00  0.11151053306E+04  0.11151053306E+04  0.00000000000E+00 0. -1.
       -2   -1    0    0    0  501 -0.00000000000E+00 -0.00000000000E+00 -0.10915511009E+02  0.10915511009E+02  0.00000000000E+00 0.  1.
       24    2    1    2    0    0 -0.53071369374E+02  0.25121677655E+01  0.81202130664E+03  0.81775053692E+03  0.80712185968E+02 0.  0.
      -24    2    1    2    0    0  0.53071369374E+02 -0.25121677655E+01  0.29216851298E+03  0.30827030471E+03  0.82736083780E+02 0.  0.
      -13    1    3    3    0    0 -0.27030353610E+01 -0.34149551865E+02  0.27281894910E+03  0.27496122869E+03  0.00000000000E+00 0.  1.
       14    1    3    3    0    0 -0.50368334013E+02  0.36661719630E+02  0.53920235754E+03  0.54278930823E+03  0.00000000000E+00 0. -1.
        1    1    4    4  502    0 -0.17183993700E+02  0.16444957747E+02  0.99892916405E+02  0.10268554437E+03  0.00000000000E+00 0. -1.
       -2    1    4    4    0  502  0.70255363075E+02 -0.18957125512E+02  0.19227559657E+03  0.20558476034E+03  0.00000000000E+00 0.  1.
</event>
<event>
 8   1  0.2279600E-02  0.1254914E+03  0.7546771E-02  0.1235189E+00
        1   -1    0    0  501    0  0.00000000000E+00  0.00000000000E+00  0.23266598970E+03  0.23266598970E+03  0.00000000000E+00 0. -1.
       -1   -1    0    0    0  501 -0.00000000000E+00 -0.00000000000E+00 -0.85099775137E+02  0.85099775137E+02  0.00000000000E+00 0.  1.
       24    2    1    2    0    0  0.17909194822E+02  0.93874702227E+02 -0.10675263122E+01  0.12324049431E+03  0.77806688963E+02 0.  0.
      -24    2    1    2    0    0 -0.17909194822E+02 -0.93874702227E+02  0.14863374088E+03  0.19452527053E+03  0.81331992295E+02 0.  0.
      -13    1    3    3    0    0  0.25203231078E+02  0.79476403639E+02  0.29689888917E+02  0.88505316768E+02  0.00000000000E+00 0.  1.
       14    1    3    3    0    0 -0.72940362556E+01  0.14398298587E+02 -0.30757415230E+02  0.34735177540E+02  0.00000000000E+00 0. -1.
        3    1    4    4  502    0 -0.49356949841E+02 -0.42001238898E+02  0.75000476521E+02  0.99122570814E+02  0.00000000000E+00 0. -1.
       -4    1    4    4    0  502  0.31447755018E+02 -0.51873463329E+02  0.73633264354E+02  0.95402699715E+02  0.00000000000E+00 0.  1.
</event>
<event>
 8   1  0.2279600E-02  0.1383476E+03  0.7546771E-02  0.1218838E+00
        1   -1    0    0  501    0  0.00000000000E+00  0.00000000000E+00  0.97650660197E+03  0.97650660197E+03  0.00000000000E+00 0. -1.
       -1   -1    0    0    0  501 -0.00000000000E+00 -0.00000000000E+00 -0.66162627558E+02  0.66162627558E+02  0.00000000000E+00 0.  1.
       24    2    1    2    0    0  0.16238863488E+02 -0.99550211423E+02  0.16250394748E+02  0.13929867632E+03  0.94689495799E+02 0.  0.
      -24    2    1    2    0    0 -0.16238863488E+02  0.99550211423E+02  0.89409357966E+03  0.90337055320E+03  0.80629286974E+02 0.  0.
      -13    1    3    3    0    0  0.25829842738E+02 -0.34014324946E+02 -0.35266477456E+02  0.55388442021E+02  0.00000000000E+00 0.  1.
       14    1    3    3    0    0 -0.95909792498E+01 -0.65535886477E+02  0.51516872204E+02  0.83910234304E+02  0.00000000000E+00 0. -1.
        1    1    4    4  502    0 -0.42159701179E+01  0.11109501512E+03  0.72758445256E+03  0.73602921980E+03  0.00000000000E+00 0. -1.
       -2    1    4    4    0  502 -0.12022893370E+02 -0.11544803697E+02  0.16650912710E+03  0.16734133340E+03  0.00000000000E+00 0.  1.
</event>
<event>
 8   1  0.2279600E-02  0.8735876E+02  0.7546771E-02  0.1309807E+00
       -1   -1    0    0    0  501 -0.00000000000E+00  0.00000000000E+00  0.83076282112E+02  0.83076282112E+02  0.00000000000E+00 0.  1.
        1   -1    0    0  501    0  0.00000000000E+00 -0.00000000000E+00 -0.91652431666E+02  0.91652431666E+02  0.00000000000E+00 0. -1.
       24    2    1    2    0    0 -0.98392440657E+01  0.31453640819E+02  0.21701831793E+01  0.87385712468E+02  0.80903713165E+02 0.  0.
      -24    2    1    2    0    0  0.98392440657E+01 -0.31453640819E+02 -0.10746332732E+02  0.87343001310E+02  0.80169657391E+02 0.  0.
      -13    1    3    3    0    0  0.16863468814E+02  0.37866529517E+02  0.27728104514E+02  0.49870817299E+02  0.00000000000E+00 0.  1.
       14    1    3    3    0    0 -0.26702712879E+02 -0.64128886980E+01 -0.25557921335E+02  0.37514895169E+02  0.00000000000E+00 0. -1.
        1    1    4    4  502    0 -0.67078234245E+01  0.19643830960E+02 -0.24290573393E+02  0.31951634476E+02  0.00000000000E+00 0. -1.
       -2    1    4    4    0  502  0.16547067490E+02 -0.51097471779E+02  0.13544240661E+02  0.55391366835E+02  0.00000000000E+00 0.  1.
</event>
<event>
 8   1  0.2279600E-02  0.1170091E+03  0.7546771E-02  0.1248166E+00
       -2   -1    0    0    0  501 -0.00000000000E+00  0.00000000000E+00  0.55260499991E+03  0.55260499991E+03  0.00000000000E+00 0.  1.
        2   -1    0    0  501    0  0.00000000000E+00 -0.00000000000E+00 -0.33173460754E+02  0.33173460754E+02  0.00000000000E+00 0. -1.
       24    2    1    2    0    0  0.84904738313E+02  0.19213283089E+01  0.11222717372E+03  0.16212976873E+03  0.80489858356E+02 0.  0.
      -24    2    1    2    0    0 -0.84904738313E+02 -0.19213283089E+01  0.40720436544E+03  0.42364869193E+03  0.80313839735E+02 0.  0.
      -13    1    3    3    0    0  0.25406195399E+02  0.19305766832E+02  0.91285201643E+02  0.96701475876E+02  0.00000000000E+00 0.  1.
       14    1    3    3    0    0  0.59498542914E+02 -0.17384438523E+02  0.20941972074E+02  0.65428292856E+02  0.00000000000E+00 0. -1.
        1    1    4    4  502    0 -0.39493679673E+02  0.26794131938E+02  0.89463222817E+02  0.10139696483E+03  0.00000000000E+00 0. -1.
       -2    1    4    4    0  502 -0.45411058640E+02 -0.28715460247E+02  0.31774114262E+03  0.32225172710E+03  0.00000000000E+00 0.  1.
</event>
<event>
 8   1  0.2279600E-02  0.8876063E+02  0.7546771E-02  0.1308776E+00
       -2   -1    0    0    0  501 -0.00000000000E+00  0.00000000000E+00  0.14528007816E+02  0.14528007816E+02  0.00000000000E+00 0.  1.
        2   -1    0    0  501    0  0.00000000000E+00 -0.00000000000E+00 -0.77623618466E+03  0.77623618466E+03  0.00000000000E+00 0. -1.
      -24    2    1    2    0    0  0.21328767704E+02 -0.10441013831E+02 -0.15810236745E+03  0.18131411314E+03  0.85524955010E+02 0.  0.
       24    2    1    2    0    0 -0.21328767704E+02  0.10441013831E+02 -0.60360580940E+03  0.60945007934E+03  0.80780535793E+02 0.  0.
      -13    1    4    4    0    0 -0.17831455183E+02  0.19470199469E+02 -0.57645245177E+02  0.63403657251E+02  0.00000000000E+00 0.  1.
       14    1    4    4    0    0 -0.34973125213E+01 -0.90291856381E+01 -0.54596056422E+03  0.54604642209E+03  0.00000000000E+00 0. -1.
        3    1    3    3  502    0  0.25336996129E+01  0.19676679131E+02 -0.58718571890E+00  0.19847824123E+02  0.00000000000E+00 0. -1.
       -4    1    3    3    0  502  0.18795068091E+02 -0.30117692961E+02 -0.15751518173E+03  0.16146628901E+03  0.00000000000E+00 0.  1.
</event>
<event>
 8   1  0.2279600E-02  0.8028746E+02  0.7546771E-02  0.1342662E+00
       -2   -1    0    0    0  501 -0.00000000000E+00  0.00000000000E+00  0.18385418783E+02  0.18385418783E+02  0.00000000000E+00 0.  1.
        2   -1    0    0  501    0  0.00000000000E+00 -0.00000000000E+00 -0.27763988525E+03  0.27763988525E+03  0.00000000000E+00 0. -1.
      -24    2    1    2    0    0 -0.12070712985E+02  0.74293356488E+01 -0.10606145391E+03  0.12306815480E+03  0.60793433698E+02 0.  0.
       24    2    1    2    0    0  0.12070712985E+02 -0.74293356488E+01 -0.15319301256E+03  0.17295714924E+03  0.79026446418E+02 0.  0.
      -13    1    4    4    0    0 -0.22430713886E+02  0.17438071304E+02 -0.24831671132E+02  0.37733740173E+02  0.00000000000E+00 0.  1.
       14    1    4    4    0    0  0.34501426871E+02 -0.24867406952E+02 -0.12836134143E+03  0.13522340906E+03  0.00000000000E+00 0. -1.
        1    1    3    3  502    0  0.28809385244E+01 -0.23398853445E+02 -0.21811534302E+02  0.32117739303E+02  0.00000000000E+00 0. -1.
       -2    1    3    3    0  502 -0.14951651509E+02  0.30828189094E+02 -0.84249919604E+02  0.90950415496E+02  0.00000000000E+00 0.  1.
</event>
<event>
 8   1  0.2279600E-02  0.1219344E+03  0.7546771E-02  0.1240088E+00
        1   -1    0    0  501    0  0.00000000000E+00  0.00000000000E+00  0.10842696373E+04  0.10842696373E+04  0.00000000000E+00 0. -1.
       -1   -1    0    0    0  501 -0.00000000000E+00 -0.00000000000E+00 -0.13684449727E+02  0.13684449727E+02  0.00000000000E+00 0.  1.
       24    2    1    2    0    0 -0.90968585801E+02  0.28876383974E+00  0.51749228256E+03  0.53157987052E+03  0.80644461928E+02 0.  0.
      -24    2    1    2    0    0  0.90968585801E+02 -0.28876383974E+00  0.55309290500E+03  0.56637421650E+03  0.81194978708E+02 0.  0.
      -13    1    3    3    0    0 -0.14514961694E+02  0.34763297193E+02  0.15501117095E+03  0.15952314586E+03  0.00000000000E+00 0.  1.
       14    1    3    3    0    0 -0.76453624107E+02 -0.34474533353E+02  0.36248111161E+03  0.37205672466E+03  0.00000000000E+00 0. -1.
        3    1    4    4  502    0  0.35865603780E+02 -0.22067467772E+02  0.40007995289E+03  0.40229004881E+03  0.00000000000E+00 0. -1.
       -4    1    4    4    0  502  0.55102982021E+02  0.21778703932E+02  0.15301295211E+03  0.16408416769E+03  0.00000000000E+00 0.  1.
</event>
<event>
 8   1  0.2279600E-02  0.8841643E+02  0.7546771E-02  0.1307374E+00
       -2   -1    0    0    0  501 -0.00000000000E+00  0.00000000000E+00  0.28114309319E+01  0.28114309319E+01  0.00000000000E+00 0.  1.
        2   -1    0    0  501    0  0.00000000000E+00 -0.00000000000E+00 -0.39809414208E+04  0.39809414208E+04  0.00000000000E+00 0. -1.
      -24    2    1    2    0    0  0.16025991808E+02 -0.31223529967E+02 -0.88875921648E+03  0.89314635396E+03  0.81152470576E+02 0.  0.
       24    2    1    2    0    0 -0.16025991808E+02  0.31223529967E+02 -0.30893707734E+04  0.30906064977E+04  0.80031289852E+02 0.  0.
      -13    1    4    4    0    0 -0.43662948830E+02  0.41897978953E+01 -0.11240496897E+04  0.11249052015E+04  0.00000000000E+00 0.  1.
       14    1    4    4    0    0  0.27636957023E+02  0.27033732072E+02 -0.19653210837E+04  0.19657012962E+04  0.00000000000E+00 0. -1.
        1    1    3    3  502    0  0.44646054788E+02 -0.28998171512E+02 -0.71978410741E+03  0.72175018216E+03  0.00000000000E+00 0. -1.
       -2    1    3    3    0  502 -0.28620062981E+02 -0.22253584551E+01 -0.16897510907E+03  0.17139617181E+03  0.00000000000E+00 0.  1.
</event>
<event>
 8   1  0.2279600E-02  0.9670243E+02  0.7546771E-02  0.1288189E+00
       -2   -1    0    0    0  501 -0.00000000000E+00  0.00000000000E+00  0.66653426805E+01  0.66653426805E+01  0.00000000000E+00 0.  1.
        2   -1    0    0  501    0  0.00000000000E+00 -0.00000000000E+00 -0.13837285496E+04  0.13837285496E+04  0.00000000000E+00 0. -1.
       24    2    1    2    0    0 -0.14569182608E+02 -0.52812205552E+02 -0.70744993070E+03  0.71383399152E+03  0.77924148162E+02 0.  0.
      -24    2    1    2    0    0  0.14569182608E+02  0.52812205552E+02 -0.66961327621E+03  0.67655990075E+03  0.79686695808E+02 0.  0.
      -13    1    3    3    0    0 -0.44496271663E+02 -0.20686480404E+02 -0.44995093221E+03  0.45261870273E+03  0.00000000000E+00 0.  1.
       14    1    3    3    0    0  0.29927089055E+02 -0.32125725148E+02 -0.25749899850E+03  0.26121528880E+03  0.00000000000E+00 0. -1.
        1    1    4    4  502    0  0.26261059611E+02  0.43021648116E+02 -0.64881529969E+03  0.65077015802E+03  0.00000000000E+00 0. -1.
       -2    1    4    4    0  502 -0.11691877002E+02  0.97905574358E+01 -0.20797976524E+02  0.25789742733E+02  0.00000000000E+00 0.  1.
</event>
<event>
 8   1  0.2279600E-02  0.8071974E+02  0.7546771E-02  0.1337128E+00
        4   -1    0    0  501    0  0.00000000000E+00  0.00000000000E+00  0.15788761291E+02  0.15788761291E+02  0.00000000000E+00 0. -1.
       -4   -1    0    0    0  501 -0.00000000000E+00 -0.00000000000E+00 -0.34839689751E+03  0.34839689751E+03  0.00000000000E+00 0.  1.
      -24    2    1    2    0    0  0.36710200001E+01  0.19409289798E+02 -0.17935872723E+03  0.19668561144E+03  0.78265444445E+02 0.  0.
       24    2    1    2    0    0 -0.36710200001E+01 -0.19409289798E+02 -0.15324940898E+03  0.16750004736E+03  0.64658236857E+02 0.  0.
      -13    1    4    4    0    0 -0.27758780911E+02 -0.28533819811E+02 -0.11204824373E+03  0.11890978813E+03  0.00000000000E+00 0.  1.
       14    1    4    4    0    0  0.24087760911E+02  0.91245300121E+01 -0.41201165257E+02  0.48590259231E+02  0.00000000000E+00 0. -1.
        3    1    3    3  502    0  0.26964699105E+02  0.40837779997E+02 -0.10336107130E+03  0.11436052787E+03  0.00000000000E+00 0. -1.
       -4    1    3    3    0  502 -0.23293679105E+02 -0.21428490198E+02 -0.75997655928E+02  0.82325083571E+02  0.00000000000E+00 0.  1.
</event>
<event>
 8   1  0.2279600E-02  0.1011813E+03  0.7546771E-02  0.1278119E+00
        1   -1    0    0  501    0  0.00000000000E+00  0.00000000000E+00  0.57896500283E+01  0.57896500283E+01  0.00000000000E+00 0. -1.
       -1   -1    0    0    0  501 -0.00000000000E+00 -0.00000000000E+00 -0.17606716477E+04  0.17606716477E+04  0.00000000000E+00 0.  1.
       24    2    1    2    0    0 -0.58680178403E+02  0.15924013364E+02 -0.91020367491E+03  0.91581023414E+03  0.80874703063E+02 0.  0.
      -24    2    1    2    0    0  0.58680178403E+02 -0.15924013364E+02 -0.84467832273E+03  0.85065106356E+03  0.80179956986E+02 0.  0.
      -13    1    3    3    0    0 -0.53235901403E+02 -0.19769175973E+02 -0.71817134627E+03  0.72041305105E+03  0.00000000000E+00 0.  1.
       14    1    3    3    0    0 -0.54442770000E+01  0.35693189338E+02 -0.19203232864E+03  0.19539718309E+03  0.00000000000E+00 0. -1.
        3    1    4    4  502    0  0.68612467760E+02  0.10932420346E+02 -0.50312289774E+03  0.50789746876E+03  0.00000000000E+00 0. -1.
       -4    1    4    4    0  502 -0.99322893575E+01 -0.26856433710E+02 -0.34155542499E+03  0.34275359480E+03  0.00000000000E+00 0.  1.
</event>
<event>
 8   1  0.2279600E-02  0.1084422E+03  0.7546771E-02  0.1265236E+00
       -1   -1    0    0    0  501 -0.00000000000E+00  0.00000000000E+00  0.39621003020E+01  0.39621003020E+01  0.00000000000E+00 0.  1.
        1   -1    0    0  501    0  0.00000000000E+00 -0.00000000000E+00 -0.37144088260E+04  0.37144088260E+04  0.00000000000E+00 0. -1.
       24    2    1    2    0    0  0.26465614631E+02 -0.67613160286E+02 -0.99288220823E+03  0.99878665533E+03  0.80546478751E+02 0.  0.
      -24    2    1    2    0    0 -0.26465614631E+02  0.67613160286E+02 -0.27175645175E+04  0.27195842710E+04  0.75562769465E+02 0.  0.
      -13    1    3    3    0    0  0.37745903812E+02 -0.45417042613E+02 -0.31748147368E+03  0.32292715455E+03  0.00000000000E+00 0.  1.
       14    1    3    3    0    0 -0.11280289181E+02 -0.22196117673E+02 -0.67540073455E+03  0.67585950078E+03  0.00000000000E+00 0. -1.
        1    1    4    4  502    0  0.18679317411E+02  0.44949762648E+02 -0.89762132827E+03  0.89894017989E+03  0.00000000000E+00 0. -1.
       -2    1    4    4    0  502 -0.45144932041E+02  0.22663397638E+02 -0.18199431892E+04  0.18206440911E+04  0.00000000000E+00 0.  1.
</event>
<event>
 8   1  0.2279600E-02  0.2222454E+03  0.7546771E-02  0.1132554E+00
       -2   -1    0    0    0  501 -0.00000000000E+00  0.00000000000E+00  0.10728184724E+03  0.10728184724E+03  0.00000000000E+00 0.  1.
        2   -1    0    0  501    0  0.00000000000E+00 -0.00000000000E+00 -0.45667065186E+03  0.45667065186E+03  0.00000000000E+00 0. -1.
       24    2    1    2    0    0 -0.62241960304E+02  0.19594439240E+03 -0.17649665891E+03  0.28380293385E+03  0.84408341527E+02 0.  0.
      -24    2    1    2    0    0  0.62241960304E+02 -0.19594439240E+03 -0.17289214571E+03  0.28014956525E+03  0.79522439161E+02 0.  0.
      -13    1    3    3    0    0 -0.33529866154E+02  0.84824710624E+02 -0.26592217384E+02  0.95008575835E+02  0.00000000000E+00 0.  1.
       14    1    3    3    0    0 -0.28712094150E+02  0.11111968178E+03 -0.14990444153E+03  0.18879435802E+03  0.00000000000E+00 0. -1.
        1    1    4    4  502    0  0.38260560456E+02 -0.81730119989E+02 -0.12460227221E+03  0.15384865693E+03  0.00000000000E+00 0. -1.
       -2    1    4    4    0  502  0.23981399848E+02 -0.11421427241E+03 -0.48289873497E+02  0.12630090832E+03  0.00000000000E+00 0.  1.
</event>
<event>
 8   1  0.2279600E-02  0.8282869E+02  0.7546771E-02  0.1322651E+00
       -2   -1    0    0    0  501 -0.00000000000E+00  0.00000000000E+00  0.47379823495E+02  0.47379823495E+02  0.00000000000E+00 0.  1.
        2   -1    0    0  501    0  0.00000000000E+00 -0.00000000000E+00 -0.25402552149E+03  0.25402552149E+03  0.00000000000E+00 0. -1.
      -24    2    1    2    0    0 -0.14512656088E+02 -0.10518554140E+02 -0.21356399637E+01  0.80758667848E+02  0.78715591255E+02 0.  0.
       24    2    1    2    0    0  0.14512656088E+02  0.10518554140E+02 -0.20451005803E+03  0.22064667714E+03  0.80866155639E+02 0.  0.
      -13    1    4    4    0    0  0.11172953046E+01  0.44237365102E+02 -0.86149915971E+02  0.96850404448E+02  0.00000000000E+00 0.  1.
       14    1    4    4    0    0  0.13395360784E+02 -0.33718810961E+02 -0.11836014206E+03  0.12379627269E+03  0.00000000000E+00 0. -1.
        1    1    3    3  502    0 -0.26055105926E+02  0.23508748127E+02 -0.20252761132E+02  0.40517948082E+02  0.00000000000E+00 0. -1.
       -2    1    3    3    0  502  0.11542449838E+02 -0.34027302267E+02  0.18117121168E+02  0.40240719766E+02  0.00000000000E+00 0.  1.
</event>
<event>
 8   1  0.2279600E-02  0.8761480E+02  0.7546771E-02  0.1311210E+00
       -2   -1    0    0    0  501 -0.00000000000E+00  0.00000000000E+00  0.40100360877E+01  0.40100360877E+01  0.00000000000E+00 0.  1.
        2   -1    0    0  501    0  0.00000000000E+00 -0.00000000000E+00 -0.18781380356E+04  0.18781380356E+04  0.00000000000E+00 0. -1.
      -24    2    1    2    0    0  0.22161014640E+02 -0.13846952669E+02 -0.80862962662E+03  0.81336229686E+03  0.83627174002E+02 0.  0.
       24    2    1    2    0    0 -0.22161014640E+02  0.13846952669E+02 -0.10654983729E+04  0.10687857748E+04  0.79582668828E+02 0.  0.
      -13    1    4    4    0    0 -0.14657595205E+02 -0.41470550531E+01 -0.35840520308E+02  0.38943369895E+02  0.00000000000E+00 0.  1.
       14    1    4    4    0    0 -0.75034194344E+01  0.17994007722E+02 -0.10296578526E+04  0.10298424049E+04  0.00000000000E+00 0. -1.
        1    1    3    3  502    0 -0.28249430753E+02 -0.73003543436E+01 -0.15248010390E+03  0.15524660253E+03  0.00000000000E+00 0. -1.
       -2    1    3    3    0  502  0.50410445393E+02 -0.65465983252E+01 -0.65614952272E+03  0.65811569433E+03  0.00000000000E+00 0.  1.
</event>
<event>
 8   1  0.2279600E-02  0.9103388E+02  0.7546771E-02  0.1300812E+00
        2   -1    0    0  501    0  0.00000000000E+00  0.00000000000E+00  0.14559152530E+04  0.14559152530E+04  0.00000000000E+00 0. -1.
       -2   -1    0    0    0  501 -0.00000000000E+00 -0.00000000000E+00 -0.16784689002E+02  0.16784689002E+02  0.00000000000E+00 0.  1.
      -24    2    1    2    0    0 -0.41256626773E+02  0.13934776347E+02  0.12069812334E+03  0.15117938049E+03  0.79942985082E+02 0.  0.
       24    2    1    2    0    0  0.41256626773E+02 -0.13934776347E+02  0.13184324407E+04  0.13215205615E+04  0.79096186182E+02 0.  0.
      -13    1    4    4    0    0 -0.17546312027E+02  0.85108169666E+01  0.13341280691E+03  0.13483057561E+03  0.00000000000E+00 0.  1.
       14    1    4    4    0    0  0.58802938800E+02 -0.22445593314E+02  0.11850196338E+04  0.11866899859E+04  0.00000000000E+00 0. -1.
        3    1    3    3  502    0 -0.27308265127E+02  0.16988521222E+01  0.12825783668E+03  0.13114381462E+03  0.00000000000E+00 0. -1.
       -4    1    3    3    0  502 -0.13948361646E+02  0.12235924225E+02 -0.75597133378E+01  0.20035565876E+02  0.00000000000E+00 0.  1.
</event>
<event>
 8   1  0.2279600E-02  0.9783006E+02  0.7546771E-02  0.1286524E+00
        2   -1    0    0  501    0  0.00000000000E+00  0.00000000000E+00  0.95594638418E+02  0.95594638418E+02  0.00000000000E+00 0. -1.
       -2   -1    0    0    0  501 -0.00000000000E+00 -0.00000000000E+00 -0.14732462315E+03  0.14732462315E+03  0.00000000000E+00 0.  1.
      -24    2    1    2    0    0  0.55573627382E+02  0.77694632477E+01 -0.96471511722E+02  0.13534358760E+03  0.76565929171E+02 0.  0.
       24    2    1    2    0    0 -0.55573627382E+02 -0.77694632477E+01  0.44741526987E+02  0.10757567397E+03  0.80136937640E+02 0.  0.
      -13    1    4    4    0    0 -0.16264216958E+02  0.31504861528E+02 -0.12009158678E+01  0.35475671270E+02  0.00000000000E+00 0.  1.
       14    1    4    4    0    0 -0.39309410424E+02 -0.39274324776E+02  0.45942442855E+02  0.72100002704E+02  0.00000000000E+00 0. -1.
        3    1    3    3  502    0  0.17372234094E+02  0.40730471271E+02 -0.40825024242E+02  0.60228302414E+02  0.00000000000E+00 0. -1.
       -4    1    3    3    0  502  0.38201393288E+02 -0.32961008023E+02 -0.55646487480E+02  0.75115285181E+02  0.00000000000E+00 0.  1.
</event>
<event>
 8   1  0.2279600E-02  0.8709645E+02  0.7546771E-02  0.1310090E+00
       -3   -1    0    0    0  501 -0.00000000000E+00  0.00000000000E+00  0.74504961031E+02  0.74504961031E+02  0.00000000000E+00 0.  1.
        3   -1    0    0  501    0  0.00000000000E+00 -0.00000000000E+00 -0.10522486592E+03  0.10522486592E+03  0.00000000000E+00 0. -1.
       24    2    1    2    0    0  0.30091637009E+02  0.13416423395E+02  0.10427056182E+01  0.87022462181E+02  0.80537659852E+02 0.  0.
      -24    2    1    2    0    0 -0.30091637009E+02 -0.13416423395E+02 -0.31762610506E+02  0.92707364770E+02  0.80624345094E+02 0.  0.
      -13    1    3    3    0    0 -0.21106476279E+02 -0.41337328749E+01  0.20301283717E+02  0.29575550865E+02  0.00000000000E+00 0.  1.
       14    1    3    3    0    0  0.51198113288E+02  0.17550156270E+02 -0.19258578099E+02  0.57446911316E+02  0.00000000000E+00 0. -1.
        3    1    4    4  502    0  0.26882825225E+02 -0.59733082709E+01 -0.10566463635E+01  0.27558722854E+02  0.00000000000E+00 0. -1.
       -4    1    4    4    0  502 -0.56974462234E+02 -0.74431151244E+01 -0.30705964143E+02  0.65148641916E+02  0.00000000000E+00 0.  1.
</event>
<event>
 8   1  0.2279600E-02  0.9935515E+02  0.7546771E-02  0.1281975E+00
       -1   -1    0    0    0  501 -0.00000000000E+00  0.00000000000E+00  0.24596125963E+02  0.24596125963E+02  0.00000000000E+00 0.  1.
        1   -1    0    0  501    0  0.00000000000E+00 -0.00000000000E+00 -0.15998716450E+04  0.15998716450E+04  0.00000000000E+00 0. -1.
       24    2    1    2    0    0  0.27150798097E+02  0.51080652094E+02 -0.83332131248E+02  0.12921979203E+03  0.80044435771E+02 0.  0.
      -24    2    1    2    0    0 -0.27150798097E+02 -0.51080652094E+02 -0.14919433878E+04  0.14952479790E+04  0.80777764776E+02 0.  0.
      -13    1    3    3    0    0  0.95671392423E+01  0.70099680677E+02 -0.72014112241E+02  0.10095309676E+03  0.00000000000E+00 0.  1.
       14    1    3    3    0    0  0.17583658854E+02 -0.19019028583E+02 -0.11318019006E+02  0.28266695265E+02  0.00000000000E+00 0. -1.
        1    1    4    4  502    0 -0.11846607900E+02 -0.21760824763E+02 -0.13153978649E+04  0.13156311864E+04  0.00000000000E+00 0. -1.
       -2    1    4    4    0  502 -0.15304190196E+02 -0.29319827331E+02 -0.17654552290E+03  0.17961679256E+03  0.00000000000E+00 0.  1.
</event>
<event>
 8   1  0.2279600E-02  0.9974706E+02  0.7546771E-02  0.1281459E+00
       -2   -1    0    0    0  501 -0.00000000000E+00  0.00000000000E+00  0.40193586161E+02  0.40193586161E+02  0.00000000000E+00 0.  1.
        2   -1    0    0  501    0  0.00000000000E+00 -0.00000000000E+00 -0.27162769695E+03  0.27162769695E+03  0.00000000000E+00 0. -1.
      -24    2    1    2    0    0 -0.62023533214E+02 -0.43523745774E+00 -0.65914195722E+02  0.11856932817E+03  0.76595667501E+02 0.  0.
       24    2    1    2    0    0  0.62023533214E+02  0.43523745774E+00 -0.16551991506E+03  0.19325195494E+03  0.78117652950E+02 0.  0.
      -13    1    4    4    0    0 -0.11717515813E+02  0.52203773636E-02  0.35612474205E+00  0.11722927489E+02  0.00000000000E+00 0.  1.
       14    1    4    4    0    0  0.73741049028E+02  0.43001708038E+00 -0.16587603981E+03  0.18152902745E+03  0.00000000000E+00 0. -1.
        1    1    3    3  502    0 -0.17463345292E+02  0.32864919310E+02 -0.46701060507E+02  0.59716500254E+02  0.00000000000E+00 0. -1.
       -2    1    3    3    0  502 -0.44560187922E+02 -0.33300156768E+02 -0.19213135216E+02  0.58852827912E+02  0.00000000000E+00 0.  1.
</event>
<event>
 8   1  0.2279600E-02  0.8126893E+02  0.7546771E-02  0.1329835E+00
       -2   -1    0    0    0  501 -0.00000000000E+00  0.00000000000E+00  0.36135532739E+02  0.36135532739E+02  0.00000000000E+00 0.  1.
        2   -1    0    0  501    0  0.00000000000E+00 -0.00000000000E+00 -0.47392558067E+03  0.47392558067E+03  0.00000000000E+00 0. -1.
      -24    2    1    2    0    0  0.19200304138E+00 -0.70870949051E+01 -0.11553825520E+02  0.76146426080E+02  0.74930124391E+02 0.  0.
       24    2    1    2    0    0 -0.19200304138E+00  0.70870949051E+01 -0.42623622241E+03  0.43391468733E+03  0.80959093410E+02 0.  0.
      -13    1    4    4    0    0  0.35706893477E+02 -0.97410746596E+01 -0.27859129415E+03  0.28103910752E+03  0.00000000000E+00 0.  1.
       14    1    4    4    0    0 -0.35898896518E+02  0.16828169565E+02 -0.14764492826E+03  0.15287557981E+03  0.00000000000E+00 0. -1.
        1    1    3    3  502    0  0.10259191462E+02 -0.39687367549E+02 -0.87240402925E+01  0.41909987252E+02  0.00000000000E+00 0. -1.
       -2    1    3    3    0  502 -0.10067188420E+02  0.32600272644E+02 -0.28297852274E+01  0.34236438828E+02  0.00000000000E+00 0.  1.
</event>
<event>
 8   1  0.2279600E-02  0.9050614E+02  0.7546771E-02  0.1302034E+00
       -4   -1    0    0    0  501 -0.00000000000E+00  0.00000000000E+00  0.74861277024E+02  0.74861277024E+02  0.00000000000E+00 0.  1.
        4   -1    0    0  501    0  0.00000000000E+00 -0.00000000000E+00 -0.12564101480E+03  0.12564101480E+03  0.00000000000E+00 0. -1.
      -24    2    1    2    0    0 -0.48768870137E+01  0.41545492131E+02  0.11435420636E+02  0.91225712272E+02  0.80259266076E+02 0.  0.
       24    2    1    2    0    0  0.48768870137E+01 -0.41545492131E+02 -0.62215158408E+02  0.10927657955E+03  0.79503666323E+02 0.  0.
      -13    1    4    4    0    0  0.20224260908E+02  0.14500879362E+02 -0.10484731017E+01  0.24907740311E+02  0.00000000000E+00 0.  1.
       14    1    4    4    0    0 -0.15347373894E+02 -0.56046371493E+02 -0.61166685306E+02  0.84368839237E+02  0.00000000000E+00 0. -1.
        1    1    3    3  502    0 -0.24909177288E+02  0.15591143301E+01 -0.23649022224E+02  0.34382760255E+02  0.00000000000E+00 0. -1.
       -2    1    3    3    0  502  0.20032290274E+02  0.39986377801E+02  0.35084442859E+02  0.56842952017E+02  0.00000000000E+00 0.  1.
</event>
<event>
 8   1  0.2279600E-02  0.1340974E+03  0.7546771E-02  0.1223902E+00
       -2   -1    0    0    0  501 -0.00000000000E+00  0.00000000000E+00  0.10461583331E+02  0.10461583331E+02  0.00000000000E+00 0.  1.
        2   -1    0    0  501    0  0.00000000000E+00 -0.00000000000E+00 -0.36249524498E+04  0.36249524498E+04  0.00000000000E+00 0. -1.
      -24    2    1    2    0    0  0.57652973675E+02 -0.89782185330E+02 -0.48137864921E+03  0.49970742656E+03  0.81224393325E+02 0.  0.
       24    2    1    2    0    0 -0.57652973675E+02  0.89782185330E+02 -0.31331122173E+04  0.31357066066E+04  0.69850199406E+02 0.  0.
      -13    1    4    4    0    0 -0.61683750770E+01  0.31773528870E+01 -0.24540372445E+02  0.25502437182E+02  0.00000000000E+00 0.  1.
       14    1    4    4    0    0 -0.51484598598E+02  0.86604832443E+02 -0.31085718449E+04  0.31102041694E+04  0.00000000000E+00 0. -1.
        3    1    3    3  502    0  0.75452542942E+01  0.10455561978E+01 -0.19452112033E+03  0.19467020909E+03  0.00000000000E+00 0. -1.
       -4    1    3    3    0  502  0.50107719381E+02 -0.90827741528E+02 -0.28685752887E+03  0.30503721747E+03  0.00000000000E+00 0.  1.
</event>
<event>
 8   1  0.2279600E-02  0.2606051E+03  0.7546771E-02  0.1107242E+00
       -1   -1    0    0    0  501 -0.00000000000E+00  0.00000000000E+00  0.91997697114E+02  0.91997697114E+02  0.00000000000E+00 0.  1.
        1   -1    0    0  501    0  0.00000000000E+00 -0.00000000000E+00 -0.16779981875E+04  0.16779981875E+04  0.00000000000E+00 0. -1.
       24    2    1    2    0    0  0.10927553947E+03 -0.22210015299E+03 -0.12969709175E+03  0.29109512302E+03  0.81519405988E+02 0.  0.
      -24    2    1    2    0    0 -0.10927553947E+03  0.22210015299E+03 -0.14563033987E+04  0.14789007616E+04  0.71121391016E+02 0.  0.
      -13    1    3    3    0    0  0.15905988719E+02 -0.11576631246E+03 -0.39799571959E+02  0.12344571886E+03  0.00000000000E+00 0.  1.
       14    1    3    3    0    0  0.93369550756E+02 -0.10633384053E+03 -0.89897519786E+02  0.16764940416E+03  0.00000000000E+00 0. -1.
        3    1    4    4  502    0 -0.95871665093E+02  0.19244716317E+03 -0.13679830374E+04  0.13847761109E+04  0.00000000000E+00 0. -1.
       -4    1    4    4    0  502 -0.13403874382E+02  0.29652989826E+02 -0.88320361319E+02  0.94124650743E+02  0.00000000000E+00 0.  1.
</event>
<event>
 8   1  0.2279600E-02  0.1075891E+03  0.7546771E-02  0.1265435E+00
        1   -1    0    0  501    0  0.00000000000E+00  0.00000000000E+00  0.10017607242E+04  0.10017607242E+04  0.00000000000E+00 0. -1.
       -1   -1    0    0    0  501 -0.00000000000E+00 -0.00000000000E+00 -0.12540033514E+02  0.12540033514E+02  0.00000000000E+00 0.  1.
       24    2    1    2    0    0  0.24515691358E+01 -0.68655900760E+02  0.64352458033E+03  0.65245635925E+03  0.82799591451E+02 0.  0.
      -24    2    1    2    0    0 -0.24515691358E+01  0.68655900760E+02  0.34569611039E+03  0.36184439849E+03  0.81889712916E+02 0.  0.
      -13    1    3    3    0    0  0.81154203369E+01  0.17716523122E+02  0.80990394720E+02  0.83301736331E+02  0.00000000000E+00 0.  1.
       14    1    3    3    0    0 -0.56638512010E+01 -0.86372423882E+02  0.56253418561E+03  0.56915462292E+03  0.00000000000E+00 0. -1.
        1    1    4    4  502    0 -0.21838780519E+02 -0.12314949189E+01  0.25774933535E+02  0.33805267534E+02  0.00000000000E+00 0. -1.
       -2    1    4    4    0  502  0.19387211384E+02  0.69887395679E+02  0.31992117686E+03  0.32803913096E+03  0.00000000000E+00 0.  1.
</event>
<event>
 8   1  0.2279600E-02  0.9364346E+02  0.7546771E-02  0.1295141E+00
       -2   -1    0    0    0  501 -0.00000000000E+00  0.00000000000E+00  0.70707130739E+03  0.70707130739E+03  0.00000000000E+00 0.  1.
        2   -1    0    0  501    0  0.00000000000E+00 -0.00000000000E+00 -0.15929589323E+02  0.15929589323E+02  0.00000000000E+00 0. -1.
       24    2    1    2    0    0  0.25070910088E+01 -0.44497804173E+02  0.16852825162E+03  0.19206405158E+03  0.80625605324E+02 0.  0.
      -24    2    1    2    0    0 -0.25070910088E+01  0.44497804173E+02  0.52261346644E+03  0.53093684513E+03  0.82357501946E+02 0.  0.
      -13    1    3    3    0    0  0.19158682895E+01 -0.40541884851E+02  0.17758463029E+03  0.18216370631E+03  0.00000000000E+00 0.  1.
       14    1    3    3    0    0  0.59122271932E+00 -0.39559193218E+01 -0.90563786705E+01  0.99003452772E+01  0.00000000000E+00 0. -1.
        3    1    4    4  502    0  0.20995234772E+02 -0.10684314945E+02  0.60123613833E+02  0.64574014970E+02  0.00000000000E+00 0. -1.
       -4    1    4    4    0  502 -0.23502325780E+02  0.55182119118E+02  0.46248985261E+03  0.46636283016E+03  0.00000000000E+00 0.  1.
</event>
<event>
 8   1  0.2279600E-02  0.1253485E+03  0.7546771E-02  0.1236943E+00
        1   -1    0    0  501    0  0.00000000000E+00  0.00000000000E+00  0.83276798041E+03  0.83276798041E+03  0.00000000000E+00 0. -1.
       -1   -1    0    0    0  501 -0.00000000000E+00 -0.00000000000E+00 -0.27693165720E+02  0.27693165720E+02  0.00000000000E+00 0.  1.
       24    2    1    2    0    0  0.59512699151E+02  0.64515683754E+02  0.14117880245E+03  0.18483539688E+03  0.80799968246E+02 0.  0.
      -24    2    1    2    0    0 -0.59512699151E+02 -0.64515683754E+02  0.66389601224E+03  0.67562574925E+03  0.89488564473E+02 0.  0.
      -13    1    3    3    0    0  0.73497277992E+02  0.71132219844E+02  0.13146668421E+03  0.16656869943E+03  0.00000000000E+00 0.  1.
       14    1    3    3    0    0 -0.13984578841E+02 -0.66165360896E+01  0.97121182472E+01  0.18266697458E+02  0.00000000000E+00 0. -1.
        1    1    4    4  502    0  0.48756949137E+01 -0.56111448785E+02  0.39528489061E+03  0.39927736203E+03  0.00000000000E+00 0. -1.
       -2    1    4    4    0  502 -0.64388394065E+02 -0.84042349692E+01  0.26861112163E+03  0.27634838722E+03  0.00000000000E+00 0.  1.
</event>
<event>
 8   1  0.2279600E-02  0.9081138E+02  0.7546771E-02  0.1301595E+00
        3   -1    0    0  501    0  0.00000000000E+00  0.00000000000E+00  0.12341613596E+02  0.12341613596E+02  0.00000000000E+00 0. -1.
       -3   -1    0    0    0  501 -0.00000000000E+00 -0.00000000000E+00 -0.66510097554E+03  0.66510097554E+03  0.00000000000E+00 0.  1.
       24    2    1    2    0    0  0.36056088630E+02  0.10743064949E+02 -0.29799696900E+03  0.31152672553E+03  0.82651389644E+02 0.  0.
      -24    2    1    2    0    0 -0.36056088630E+02 -0.10743064949E+02 -0.35476239294E+03  0.36591586361E+03  0.81379412782E+02 0.  0.
      -13    1    3    3    0    0  0.30053972027E+02  0.42030605142E+02 -0.23854558916E+03  0.24407746948E+03  0.00000000000E+00 0.  1.
       14    1    3    3    0    0  0.60021166030E+01 -0.31287540194E+02 -0.59451379847E+02  0.67449256043E+02  0.00000000000E+00 0. -1.
        1    1    4    4  502    0 -0.99987888900E+01 -0.10750300057E+02 -0.54923396486E+01  0.15675156312E+02  0.00000000000E+00 0. -1.
       -2    1    4    4    0  502 -0.26057299740E+02  0.72351086155E-02 -0.34927005329E+03  0.35024070730E+03  0.00000000000E+00 0.  1.
</event>
<event>
 8   1  0.2279600E-02  0.9585452E+02  0.7546771E-02  0.1290541E+00
        2   -1    0    0  501    0  0.00000000000E+00  0.00000000000E+00  0.61018043790E+03  0.61018043790E+03  0.00000000000E+00 0. -1.
       -2   -1    0    0    0  501 -0.00000000000E+00 -0.00000000000E+00 -0.23996964038E+02  0.23996964038E+02  0.00000000000E+00 0.  1.
      -24    2    1    2    0    0  0.46977736374E+02  0.14750359062E+02  0.97924348954E+02  0.13703017104E+03  0.82241162741E+02 0.  0.
       24    2    1    2    0    0 -0.46977736374E+02 -0.14750359062E+02  0.48825912490E+03  0.49714723090E+03  0.79585899064E+02 0.  0.
      -13    1    4    4    0    0 -0.31027276103E+02  0.86595417985E+01  0.61292760442E+02  0.69242198182E+02  0.00000000000E+00 0.  1.
       14    1    4    4    0    0 -0.15950460271E+02 -0.23409900861E+02  0.42696636446E+03  0.42790503272E+03  0.00000000000E+00 0. -1.
        3    1    3    3  502    0 -0.19895164917E+02  0.14491379529E+01  0.49594140281E+02  0.53455554792E+02  0.00000000000E+00 0. -1.
       -4    1    3    3    0  502  0.66872901291E+02  0.13301221109E+02  0.48330208673E+02  0.83574616245E+02  0.00000000000E+00 0.  1.
</event>
<event>
 8   1  0.2279600E-02  0.1064987E+03  0.7546771E-02  0.1272938E+00
       -2   -1    0    0    0  501 -0.00000000000E+00  0.00000000000E+00  0.51648119980E+02  0.51648119980E+02  0.00000000000E+00 0.  1.
        2   -1    0    0  501    0  0.00000000000E+00 -0.00000000000E+00 -0.50636727540E+03  0.50636727540E+03  0.00000000000E+00 0. -1.
      -24    2    1    2    0    0 -0.60400309287E+02 -0.32069692177E+02 -0.45410953312E+01  0.95411615736E+02  0.66378402754E+02 0.  0.
       24    2    1    2    0    0  0.60400309287E+02  0.32069692177E+02 -0.45017806009E+03  0.46260377964E+03  0.81641341470E+02 0.  0.
      -13    1    4    4    0    0  0.13881223164E+02 -0.90465037390E+01 -0.13056007217E+02  0.21094712865E+02  0.00000000000E+00 0.  1.
       14    1    4    4    0    0  0.46519086123E+02  0.41116195916E+02 -0.43712205287E+03  0.44150906677E+03  0.00000000000E+00 0. -1.
        3    1    3    3  502    0  0.11755997660E+02 -0.13597155316E+02 -0.10281548706E+02  0.20707398617E+02  0.00000000000E+00 0. -1.
       -4    1    3    3    0  502 -0.72156306947E+02 -0.18472536861E+02  0.57404533752E+01  0.74704217119E+02  0.00000000000E+00 0.  1.
</event>
<event>
 8   1  0.2279600E-02  0.8918125E+02  0.7546771E-02  0.1304880E+00
       -2   -1    0    0    0  501 -0.00000000000E+00  0.00000000000E+00  0.50021472338E+02  0.50021472338E+02  0.00000000000E+00 0.  1.
        2   -1    0    0  501    0  0.00000000000E+00 -0.00000000000E+00 -0.17184690210E+03  0.17184690210E+03  0.00000000000E+00 0. -1.
       24    2    1    2    0    0 -0.27311814189E+02  0.29700083439E+02 -0.91377732282E+02  0.12768393074E+03  0.79531541306E+02 0.  0.
      -24    2    1    2    0    0  0.27311814189E+02 -0.29700083439E+02 -0.30447697477E+02  0.94184443693E+02  0.79470856302E+02 0.  0.
      -13    1    3    3    0    0 -0.53735705256E+02  0.18009022009E+02 -0.76437255072E+02  0.95155162004E+02  0.00000000000E+00 0.  1.
       14    1    3    3    0    0  0.26423891066E+02  0.11691061430E+02 -0.14940477209E+02  0.32528768739E+02  0.00000000000E+00 0. -1.
        3    1    4    4  502    0  0.33636244015E+01 -0.52954745816E+02 -0.29672161486E+02  0.60794376720E+02  0.00000000000E+00 0. -1.
       -4    1    4    4    0  502  0.23948189788E+02  0.23254662376E+02 -0.77553599101E+00  0.33390066973E+02  0.00000000000E+00 0.  1.
</event>
<event>
 8   1  0.2279600E-02  0.8879280E+02  0.7546771E-02  0.1309476E+00
        1   -1    0    0  501    0  0.00000000000E+00  0.00000000000E+00  0.72343260352E+02  0.72343260352E+02  0.00000000000E+00 0. -1.
       -1   -1    0    0    0  501 -0.00000000000E+00 -0.00000000000E+00 -0.12578983411E+03  0.12578983411E+03  0.00000000000E+00 0.  1.
       24    2    1    2    0    0  0.11716843763E+02  0.18861085622E+02 -0.69022944794E+02  0.10798441846E+03  0.80021514261E+02 0.  0.
      -24    2    1    2    0    0 -0.11716843763E+02 -0.18861085622E+02  0.15576371039E+02  0.90148675995E+02  0.85971713199E+02 0.  0.
      -13    1    3    3    0    0  0.17765571283E+02 -0.27009351293E+02 -0.46217000405E+02  0.56401522202E+02  0.00000000000E+00 0.  1.
       14    1    3    3    0    0 -0.60487275195E+01  0.45870436915E+02 -0.22805944389E+02  0.51582896263E+02  0.00000000000E+00 0. -1.
        3    1    4    4  502    0 -0.16387591040E+02  0.30437060967E+02 -0.77256719304E+01  0.35421092970E+02  0.00000000000E+00 0. -1.
       -4    1    4    4    0  502  0.46707472772E+01 -0.49298146589E+02  0.23302042969E+02  0.54727583025E+02  0.00000000000E+00 0.  1.
</event>
<event>
 8   1  0.2279600E-02  0.8884835E+02  0.7546771E-02  0.1306719E+00
       -2   -1    0    0    0  501 -0.00000000000E+00  0.00000000000E+00  0.69781451392E+01  0.69781451392E+01  0.00000000000E+00 0.  1.
        2   -1    0    0  501    0  0.00000000000E+00 -0.00000000000E+00 -0.13805867589E+04  0.13805867589E+04  0.00000000000E+00 0. -1.
      -24    2    1    2    0    0  0.93317956977E+00 -0.28768210691E+02 -0.98874663648E+03  0.99258038378E+03  0.82264368627E+02 0.  0.
       24    2    1    2    0    0 -0.93317956977E+00  0.28768210691E+02 -0.38486197731E+03  0.39498452029E+03  0.84056819577E+02 0.  0.
      -13    1    4    4    0    0 -0.26841935579E+02  0.40806295434E+01 -0.40442415801E+02  0.48710676848E+02  0.00000000000E+00 0.  1.
       14    1    4    4    0    0  0.25908756009E+02  0.24687581148E+02 -0.34441956151E+03  0.34627384344E+03  0.00000000000E+00 0. -1.
        1    1    3    3  502    0  0.20931666018E+02 -0.52103728645E+02 -0.67551683084E+03  0.67784653273E+03  0.00000000000E+00 0. -1.
       -2    1    3    3    0  502 -0.19998486448E+02  0.23335517954E+02 -0.31322980564E+03  0.31473385105E+03  0.00000000000E+00 0.  1.
</event>
<event>
 8   1  0.2279600E-02  0.9700689E+02  0.7546771E-02  0.1287946E+00
       -3   -1    0    0    0  501 -0.00000000000E+00  0.00000000000E+00  0.25272455919E+02  0.25272455919E+02  0.00000000000E+00 0.  1.
        3   -1    0    0  501    0  0.00000000000E+00 -0.00000000000E+00 -0.46588245840E+03  0.46588245840E+03  0.00000000000E+00 0. -1.
       24    2    1    2    0    0 -0.19789171791E+02  0.43843239958E+02 -0.10343260276E+03  0.14030033564E+03  0.81682555394E+02 0.  0.
      -24    2    1    2    0    0  0.19789171791E+02 -0.43843239958E+02 -0.33717739972E+03  0.35085457868E+03  0.84240699718E+02 0.  0.
      -13    1    3    3    0    0  0.14995731448E+01  0.23226876878E+02  0.82950433756E+01  0.24709194114E+02  0.00000000000E+00 0.  1.
       14    1    3    3    0    0 -0.21288744936E+02  0.20616363080E+02 -0.11172764613E+03  0.11559114152E+03  0.00000000000E+00 0. -1.
        3    1    4    4  502    0  0.23647657185E+02 -0.28812346678E+02 -0.33259043418E+03  0.33467261603E+03  0.00000000000E+00 0. -1.
       -4    1    4    4    0  502 -0.38584853934E+01 -0.15030893281E+02 -0.45869655374E+01  0.16181962649E+02  0.00000000000E+00 0.  1.
</event>
<event>
 8   1  0.2279600E-02  0.1057688E+03  0.7546771E-02  0.1270685E+00
       -2   -1    0    0    0  501 -0.00000000000E+00  0.00000000000E+00  0.40218705098E+02  0.40218705098E+02  0.00000000000E+00 0.  1.
        2   -1    0    0  501    0  0.00000000000E+00 -0.00000000000E+00 -0.34914464026E+03  0.34914464026E+03  0.00000000000E+00 0. -1.
      -24    2    1    2    0    0  0.27901867707E+02  0.63068752588E+02 -0.57865267583E+02  0.11693261455E+03  0.74623490793E+02 0.  0.
       24    2    1    2    0    0 -0.27901867707E+02 -0.63068752588E+02 -0.25106066758E+03  0.27243073081E+03  0.80192658702E+02 0.  0.
      -13    1    4    4    0    0  0.11209229544E+02 -0.38871128375E+02 -0.41781443491E+02  0.58157548679E+02  0.00000000000E+00 0.  1.
       14    1    4    4    0    0 -0.39111097251E+02 -0.24197624214E+02 -0.20927922409E+03  0.21427318214E+03  0.00000000000E+00 0. -1.
        3    1    3    3  502    0 -0.21787227505E+02  0.17536488405E+02  0.20679806085E+00  0.27968812512E+02  0.00000000000E+00 0. -1.
       -4    1    3    3    0  502  0.49689095211E+02  0.45532264184E+02 -0.58072065644E+02  0.88963802036E+02  0.00000000000E+00 0.  1.
</event>
<event>
 8   1  0.2279600E-02  0.9331481E+02  0.7546771E-02  0.1297528E+00
       -1   -1    0    0    0  501 -0.00000000000E+00  0.00000000000E+00  0.57316027169E+02  0.57316027169E+02  0.00000000000E+00 0.  1.
        1   -1    0    0  501    0  0.00000000000E+00 -0.00000000000E+00 -0.72092284077E+03  0.72092284077E+03  0.00000000000E+00 0. -1.
       24    2    1    2    0    0 -0.34661163942E+02 -0.11145570348E+02  0.14388827377E+02  0.94417650329E+02  0.85918765798E+02 0.  0.
      -24    2    1    2    0    0  0.34661163942E+02  0.11145570348E+02 -0.67799564098E+03  0.68382121761E+03  0.81288058424E+02 0.  0.
      -13    1    3    3    0    0 -0.22171895350E+02 -0.33993358822E+02  0.40645792170E+02  0.57438852779E+02  0.00000000000E+00 0.  1.
       14    1    3    3    0    0 -0.12489268592E+02  0.22847788474E+02 -0.26256964793E+02  0.36978797550E+02  0.00000000000E+00 0. -1.
        1    1    4    4  502    0  0.11787425666E+01  0.38103518644E+01 -0.57982564660E+03  0.57983936454E+03  0.00000000000E+00 0. -1.
       -2    1    4    4    0  502  0.33482421376E+02  0.73352184836E+01 -0.98169994380E+02  0.10398185307E+03  0.00000000000E+00 0.  1.
</event>
<event>
 8   1  0.2279600E-02  0.1935113E+03  0.7546771E-02  0.1156882E+00
       -1   -1    0    0    0  501 -0.00000000000E+00  0.00000000000E+00  0.53773339571E+02  0.53773339571E+02  0.00000000000E+00 0.  1.
        1   -1    0    0  501    0  0.00000000000E+00 -0.00000000000E+00 -0.90176196549E+03  0.90176196549E+03  0.00000000000E+00 0. -1.
       24    2    1    2    0    0  0.16450968906E+03 -0.32339493234E+02 -0.18846947562E+03  0.27012470910E+03  0.96629884663E+02 0.  0.
      -24    2    1    2    0    0 -0.16450968906E+03  0.32339493234E+02 -0.65951915029E+03  0.68541059595E+03  0.81932257562E+02 0.  0.
      -13    1    3    3    0    0  0.66186747445E+02  0.32475586893E+02 -0.91977063471E+02  0.11787760384E+03  0.00000000000E+00 0.  1.
       14    1    3    3    0    0  0.98322941613E+02 -0.64815080127E+02 -0.96492412153E+02  0.15224710527E+03  0.00000000000E+00 0. -1.
        3    1    4    4  502    0 -0.54116988654E+02  0.34435674284E+02 -0.37064937445E+03  0.37615877353E+03  0.00000000000E+00 0. -1.
       -4    1    4    4    0  502 -0.11039270040E+03 -0.20961810494E+01 -0.28886977584E+03  0.30925182242E+03  0.00000000000E+00 0.  1.
</event>
<event>
 8   1  0.2279600E-02  0.1009076E+03  0.7546771E-02  0.1280458E+00
        2   -1    0    0  501    0  0.00000000000E+00  0.00000000000E+00  0.21399647051E+02  0.21399647051E+02  0.00000000000E+00 0. -1.
       -2   -1    0    0    0  501 -0.00000000000E+00 -0.00000000000E+00 -0.64821462471E+03  0.64821462471E+03  0.00000000000E+00 0.  1.
      -24    2    1    2    0    0 -0.52861990198E+02  0.84005029767E+01 -0.49923589209E+03  0.50933173158E+03  0.85541676331E+02 0.  0.
       24    2    1    2    0    0  0.52861990198E+02 -0.84005029767E+01 -0.12757908557E+03  0.16028254017E+03  0.80926578777E+02 0.  0.
      -13    1    4    4    0    0  0.29217666630E+02 -0.44318060016E+02 -0.59272598825E+02  0.79567603070E+02  0.00000000000E+00 0.  1.
       14    1    4    4    0    0  0.23644323568E+02  0.35917557039E+02 -0.68306486742E+02  0.80714937104E+02  0.00000000000E+00 0. -1.
        3    1    3    3  502    0 -0.14947381950E+02  0.16407230738E+01 -0.88751409219E+01  0.17460937138E+02  0.00000000000E+00 0. -1.
       -4    1    3    3    0  502 -0.37914608249E+02  0.67597799029E+01 -0.49036075117E+03  0.49187079444E+03  0.00000000000E+00 0.  1.
</event>
<event>
 8   1  0.2279600E-02  0.8845005E+02  0.7546771E-02  0.1307388E+00
       -3   -1    0    0    0  501 -0.00000000000E+00  0.00000000000E+00  0.46121616990E+03  0.46121616990E+03  0.00000000000E+00 0.  1.
        3   -1    0    0  501    0  0.00000000000E+00 -0.00000000000E+00 -0.18438158589E+02  0.18438158589E+02  0.00000000000E+00 0. -1.
       24    2    1    2    0    0 -0.13243365520E+02  0.34961128213E+02  0.29560037054E+03  0.30854981709E+03  0.80160734456E+02 0.  0.
      -24    2    1    2    0    0  0.13243365520E+02 -0.34961128213E+02  0.14717764077E+03  0.17110451140E+03  0.78853209582E+02 0.  0.
      -13    1    3    3    0    0 -0.42349989392E+02  0.36549213697E+02  0.23100323370E+03  0.23768016451E+03  0.00000000000E+00 0.  1.
       14    1    3    3    0    0  0.29106623873E+02 -0.15880854844E+01  0.64597136840E+02  0.70869652580E+02  0.00000000000E+00 0. -1.
        3    1    4    4  502    0 -0.43499373910E+01 -0.58020149278E+02  0.10161557670E+03  0.11709391575E+03  0.00000000000E+00 0. -1.
       -4    1    4    4    0  502  0.17593302910E+02  0.23059021065E+02  0.45562064072E+02  0.54010595649E+02  0.00000000000E+00 0.  1.
</event>
<event>
 8   1  0.2279600E-02  0.9172716E+02  0.7546771E-02  0.1300902E+00
        2   -1    0    0  501    0  0.00000000000E+00  0.00000000000E+00  0.45964170510E+02  0.45964170510E+02  0.00000000000E+00 0. -1.
       -2   -1    0    0    0  501 -0.00000000000E+00 -0.00000000000E+00 -0.23607722002E+03  0.23607722002E+03  0.00000000000E+00 0.  1.
       24    2    1    2    0    0  0.39607497966E+02  0.84742506959E+01 -0.22452017915E+02  0.90928615227E+02  0.78251857094E+02 0.  0.
      -24    2    1    2    0    0 -0.39607497966E+02 -0.84742506959E+01 -0.16766103159E+03  0.19111277530E+03  0.82300088387E+02 0.  0.
      -13    1    3    3    0    0  0.16728976514E+02 -0.13095259561E+02  0.25746885767E+02  0.33380332606E+02  0.00000000000E+00 0.  1.
       14    1    3    3    0    0  0.22878521452E+02  0.21569510256E+02 -0.48198903682E+02  0.57548282622E+02  0.00000000000E+00 0. -1.
        1    1    4    4  502    0 -0.36140481402E+02  0.13751701789E+02 -0.23589683078E+02  0.45295881113E+02  0.00000000000E+00 0. -1.
       -2    1    4    4    0  502 -0.34670165639E+01 -0.22225952485E+02 -0.14407134852E+03  0.14581689419E+03  0.00000000000E+00 0.  1.
</event>
<event>
 8   1  0.2279600E-02  0.2100952E+03  0.7546771E-02  0.1141615E+00
       -2   -1    0    0    0  501 -0.00000000000E+00  0.00000000000E+00  0.26374570981E+02  0.26374570981E+02  0.00000000000E+00 0.  1.
        2   -1    0    0  501    0  0.00000000000E+00 -0.00000000000E+00 -0.16694114517E+04  0.16694114517E+04  0.00000000000E+00 0. -1.
      -24    2    1    2    0    0 -0.90472087956E+02  0.17125603538E+03 -0.83915479464E+03  0.86490310703E+03  0.79767078596E+02 0.  0.
       24    2    1    2    0    0  0.90472087956E+02 -0.17125603538E+03 -0.80388208611E+03  0.83088291568E+03  0.81401368864E+02 0.  0.
      -13    1    4    4    0    0  0.45057477632E+02 -0.11580495099E+03 -0.64092226733E+03  0.65285704081E+03  0.00000000000E+00 0.  1.
       14    1    4    4    0    0  0.45414610324E+02 -0.55451084384E+02 -0.16295981877E+03  0.17802587487E+03  0.00000000000E+00 0. -1.
        1    1    3    3  502    0 -0.53365692020E+02  0.12613640142E+03 -0.71086539565E+03  0.72393915461E+03  0.00000000000E+00 0. -1.
       -2    1    3    3    0  502 -0.37106395936E+02  0.45119633957E+02 -0.12828939900E+03  0.14096395243E+03  0.00000000000E+00 0.  1.
</event>
<event>
 8   1  0.2279600E-02  0.8204725E+02  0.7546771E-02  0.1332132E+00
       -2   -1    0    0    0  501 -0.00000000000E+00  0.00000000000E+00  0.14468732056E+02  0.14468732056E+02  0.00000000000E+00 0.  1.
        2   -1    0    0  501    0  0.00000000000E+00 -0.00000000000E+00 -0.16859397273E+04  0.16859397273E+04  0.00000000000E+00 0. -1.
      -24    2    1    2    0    0 -0.13066903886E+02  0.41408851706E+01 -0.10934870607E+03  0.13670731724E+03  0.80894129337E+02 0.  0.
       24    2    1    2    0    0  0.13066903886E+02 -0.41408851706E+01 -0.15621222892E+04  0.15637011421E+04  0.68900831680E+02 0.  0.
      -13    1    4    4    0    0  0.18143812661E+02 -0.98787421553E+01 -0.13616349016E+03  0.13772176130E+03  0.00000000000E+00 0.  1.
       14    1    4    4    0    0 -0.50769087746E+01  0.57378569847E+01 -0.14259587990E+04  0.14259793808E+04  0.00000000000E+00 0. -1.
        3    1    3    3  502    0  0.22877667110E+02  0.28259022675E+02 -0.66553813743E+02  0.75837788329E+02  0.00000000000E+00 0. -1.
       -4    1    3    3    0  502 -0.35944570996E+02 -0.24118137504E+02 -0.42794892326E+02  0.60869528912E+02  0.00000000000E+00 0.  1.
</event>
<event>
 8   1  0.2279600E-02  0.1122249E+03  0.7546771E-02  0.1257090E+00
        2   -1    0    0  501    0  0.00000000000E+00  0.00000000000E+00  0.23119987954E+04  0.23119987954E+04  0.00000000000E+00 0. -1.
       -2   -1    0    0    0  501 -0.00000000000E+00 -0.00000000000E+00 -0.53867008193E+01  0.53867008193E+01  0.00000000000E+00 0.  1.
       24    2    1    2    0    0 -0.40913135618E+02 -0.62882426186E+02  0.11677432850E+04  0.11730006872E+04  0.81719937193E+02 0.  0.
      -24    2    1    2    0    0  0.40913135618E+02  0.62882426186E+02  0.11388688096E+04  0.11443848091E+04  0.83464613283E+02 0.  0.
      -13    1    3    3    0    0  0.13261519690E+02 -0.49633908120E+01  0.55067126867E+03  0.55085329199E+03  0.00000000000E+00 0.  1.
       14    1    3    3    0    0 -0.54174655308E+02 -0.57919035374E+02  0.61707201636E+03  0.62214739517E+03  0.00000000000E+00 0. -1.
        3    1    4    4  502    0  0.14606310904E+02  0.32109899568E+02  0.97327140326E+03  0.97391047554E+03  0.00000000000E+00 0. -1.
       -4    1    4    4    0  502  0.26306824715E+02  0.30772526618E+02  0.16559740631E+03  0.17047433355E+03  0.00000000000E+00 0.  1.
</event>
<event>
 8   1  0.2279600E-02  0.8285090E+02  0.7546771E-02  0.1321240E+00
       -1   -1    0    0    0  501 -0.00000000000E+00  0.00000000000E+00  0.22922407481E+02  0.22922407481E+02  0.00000000000E+00 0.  1.
        1   -1    0    0  501    0  0.00000000000E+00 -0.00000000000E+00 -0.25208380936E+04  0.25208380936E+04  0.00000000000E+00 0. -1.
       24    2    1    2    0    0 -0.16771557422E+02  0.13262846531E+02 -0.54762810011E+02  0.99203230888E+02  0.79906992321E+02 0.  0.
      -24    2    1    2    0    0  0.16771557422E+02 -0.13262846531E+02 -0.24431528761E+04  0.24445572702E+04  0.80044256449E+02 0.  0.
      -13    1    3    3    0    0 -0.20097705436E+02 -0.56643392072E+01  0.15727021714E+02  0.26140805543E+02  0.00000000000E+00 0.  1.
       14    1    3    3    0    0  0.33261480139E+01  0.18927185738E+02 -0.70489831725E+02  0.73062425345E+02  0.00000000000E+00 0. -1.
        1    1    4    4  502    0 -0.50028281399E+01 -0.29434897259E+02 -0.21361358359E+04  0.21363444832E+04  0.00000000000E+00 0. -1.
       -2    1    4    4    0  502  0.21774385562E+02  0.16172050728E+02 -0.30701704019E+03  0.30821278699E+03  0.00000000000E+00 0.  1.
</event>
<event>
 8   1  0.2279600E-02  0.8167846E+02  0.7546771E-02  0.1326752E+00
       -2   -1    0    0    0  501 -0.00000000000E+00  0.00000000000E+00  0.67053967413E+02  0.67053967413E+02  0.00000000000E+00 0.  1.
        2   -1    0    0  501    0  0.00000000000E+00 -0.00000000000E+00 -0.18709504113E+03  0.18709504113E+03  0.00000000000E+00 0. -1.
      -24    2    1    2    0    0  0.11796978872E+02  0.49470960462E+00  0.28281421743E+02  0.86436156299E+02  0.80820522467E+02 0.  0.
       24    2    1    2    0    0 -0.11796978872E+02 -0.49470960462E+00 -0.14832249546E+03  0.16771285224E+03  0.77386204846E+02 0.  0.
      -13    1    4    4    0    0  0.95303150819E+01  0.10093532271E+02  0.32699293914E+01  0.14261792927E+02  0.00000000000E+00 0.  1.
       14    1    4    4    0    0 -0.21327293954E+02 -0.10588241876E+02 -0.15159242485E+03  0.15345105932E+03  0.00000000000E+00 0. -1.
        3    1    3    3  502    0 -0.28864125656E+02 -0.20923117434E+02  0.10563889481E+02  0.37182124119E+02  0.00000000000E+00 0. -1.
       -4    1    3    3    0  502  0.40661104528E+02  0.21417827039E+02  0.17717532261E+02  0.49254032179E+02  0.00000000000E+00 0.  1.
</event>
<event>
 8   1  0.2279600E-02  0.1197787E+03  0.7546771E-02  0.1244463E+00
        2   -1    0    0  501    0  0.00000000000E+00  0.00000000000E+00  0.69290425513E+03  0.69290425513E+03  0.00000000000E+00 0. -1.
       -2   -1    0    0    0  501 -0.00000000000E+00 -0.00000000000E+00 -0.21280768298E+02  0.21280768298E+02  0.00000000000E+00 0.  1.
      -24    2    1    2    0    0  0.76461826254E+02  0.41968813232E+02  0.25568632884E+03  0.28134479406E+03  0.78559545776E+02 0.  0.
       24    2    1    2    0    0 -0.76461826254E+02 -0.41968813232E+02  0.41593715800E+03  0.43284022937E+03  0.82092341905E+02 0.  0.
      -13    1    4    4    0    0 -0.15820935492E+02 -0.50358338802E+02  0.12780607850E+03  0.13827746739E+03  0.00000000000E+00 0.  1.
       14    1    4    4    0    0 -0.60640890761E+02  0.83895255698E+01  0.28813107950E+03  0.29456276198E+03  0.00000000000E+00 0. -1.
        1    1    3    3  502    0  0.32997594477E+02  0.47629529887E+02  0.21075578330E+03  0.21857587596E+03  0.00000000000E+00 0. -1.
       -2    1    3    3    0  502  0.43464231777E+02 -0.56607166550E+01  0.44930545541E+02  0.62768918101E+02  0.00000000000E+00 0.  1.
</event>
<event>
 8   1  0.2279600E-02  0.1063054E+03  0.7546771E-02  0.1267997E+00
       -2   -1    0    0    0  501 -0.00000000000E+00  0.00000000000E+00  0.92922650343E+01  0.92922650343E+01  0.00000000000E+00 0.  1.
        2   -1    0    0  501    0  0.00000000000E+00 -0.00000000000E+00 -0.21002956530E+04  0.21002956530E+04  0.00000000000E+00 0. -1.
      -24    2    1    2    0    0 -0.62588514093E+02 -0.33035143113E+02 -0.35975823761E+03  0.37513575831E+03  0.79323419366E+02 0.  0.
       24    2    1    2    0    0  0.62588514093E+02  0.33035143113E+02 -0.17312451504E+04  0.17344521597E+04  0.78140136644E+02 0.  0.
      -13    1    4    4    0    0 -0.20189947707E+01 -0.57062138583E+01 -0.10976024221E+02  0.12534365727E+02  0.00000000000E+00 0.  1.
       14    1    4    4    0    0  0.64607508864E+02  0.38741356971E+02 -0.17202691261E+04  0.17219177940E+04  0.00000000000E+00 0. -1.
        1    1    3    3  502    0  0.71440800944E+01  0.49847409367E+01 -0.15898749209E+03  0.15922596573E+03  0.00000000000E+00 0. -1.
       -2    1    3    3    0  502 -0.69732594188E+02 -0.38019884049E+02 -0.20077074552E+03  0.21590979258E+03  0.00000000000E+00 0.  1.
</event>
<event>
 8   1  0.2279600E-02  0.8724116E+02  0.7546771E-02  0.1310519E+00
       -2   -1    0    0    0  501 -0.00000000000E+00  0.00000000000E+00  0.77736631915E+01  0.77736631915E+01  0.00000000000E+00 0.  1.
        2   -1    0    0  501    0  0.00000000000E+00 -0.00000000000E+00 -0.97641444896E+03  0.97641444896E+03  0.00000000000E+00 0. -1.
      -24    2    1    2    0    0  0.26285944378E+02  0.15292473721E+02 -0.54295103964E+03  0.54991531244E+03  0.81769241126E+02 0.  0.
       24    2    1    2    0    0 -0.26285944378E+02 -0.15292473721E+02 -0.42568974613E+03  0.43427279971E+03  0.80351067068E+02 0.  0.
      -13    1    4    4    0    0 -0.25783001660E+02 -0.26058964443E+02 -0.42087431010E+03  0.42246777120E+03  0.00000000000E+00 0.  1.
       14    1    4    4    0    0 -0.50294271790E+00  0.10766490721E+02 -0.48154360327E+01  0.11805028505E+02  0.00000000000E+00 0. -1.
        3    1    3    3  502    0 -0.13826629498E+02  0.56189781155E+01 -0.41921608744E+03  0.41948167608E+03  0.00000000000E+00 0. -1.
       -4    1    3    3    0  502  0.40112573876E+02  0.96734956058E+01 -0.12373495219E+03  0.13043363636E+03  0.00000000000E+00 0.  1.
</event>
<event>
 8   1  0.2279600E-02  0.9436119E+02  0.7546771E-02  0.1298295E+00
        2   -1    0    0  501    0  0.00000000000E+00  0.00000000000E+00  0.35915998928E+02  0.35915998928E+02  0.00000000000E+00 0. -1.
       -2   -1    0    0    0  501 -0.00000000000E+00 -0.00000000000E+00 -0.36057305033E+03  0.36057305033E+03  0.00000000000E+00 0.  1.
      -24    2    1    2    0    0  0.16048545104E+02 -0.47296490528E+02 -0.27904481551E+03  0.29168203106E+03  0.68686857316E+02 0.  0.
       24    2    1    2    0    0 -0.16048545104E+02  0.47296490528E+02 -0.45612235901E+02  0.10480701820E+03  0.80059485283E+02 0.  0.
      -13    1    4    4    0    0 -0.13546942020E+00 -0.20775978006E+02 -0.23762084972E+02  0.31564161581E+02  0.00000000000E+00 0.  1.
       14    1    4    4    0    0 -0.15913075684E+02  0.68072468534E+02 -0.21850150929E+02  0.73242856619E+02  0.00000000000E+00 0. -1.
        1    1    3    3  502    0 -0.61803518999E+00  0.98775524095E+01 -0.47153615258E+01  0.10962784474E+02  0.00000000000E+00 0. -1.
       -2    1    3    3    0  502  0.16666580294E+02 -0.57174042937E+02 -0.27432945398E+03  0.28071924659E+03  0.00000000000E+00 0.  1.
</event>
<event>
 8   1  0.2279600E-02  0.1183930E+03  0.7546771E-02  0.1246464E+00
       -2   -1    0    0    0  501 -0.00000000000E+00  0.00000000000E+00  0.17222735559E+02  0.17222735559E+02  0.00000000000E+00 0.  1.
        2   -1    0    0  501    0  0.00000000000E+00 -0.00000000000E+00 -0.14379177494E+04  0.14379177494E+04  0.00000000000E+00 0. -1.
      -24    2    1    2    0    0 -0.84326139772E+02 -0.21316831235E+02 -0.22951301889E+03  0.25825013504E+03  0.80321860445E+02 0.  0.
       24    2    1    2    0    0  0.84326139772E+02  0.21316831235E+02 -0.11911819950E+04  0.11968903500E+04  0.77888763572E+02 0.  0.
      -13    1    4    4    0    0 -0.13865250380E+02 -0.24426757954E+01 -0.22529526562E+03  0.22573473047E+03  0.00000000000E+00 0.  1.
       14    1    4    4    0    0  0.98191390151E+02  0.23759507030E+02 -0.96588672937E+03  0.97115561948E+03  0.00000000000E+00 0. -1.
        1    1    3    3  502    0 -0.62448328866E+02  0.13078227367E+02 -0.19387821799E+03  0.20410682796E+03  0.00000000000E+00 0. -1.
       -2    1    3    3    0  502 -0.21877810906E+02 -0.34395058602E+02 -0.35634800900E+02  0.54143307079E+02  0.00000000000E+00 0.  1.
</event>
<event>
 8   1  0.2279600E-02  0.9350859E+02  0.7546771E-02  0.1304735E+00
        2   -1    0    0  501    0  0.00000000000E+00  0.00000000000E+00  0.80141231738E+03  0.80141231738E+03  0.00000000000E+00 0. -1.
       -2   -1    0    0    0  501 -0.00000000000E+00 -0.00000000000E+00 -0.10455795018E+02  0.10455795018E+02  0.00000000000E+00 0.  1.
       24    2    1    2    0    0 -0.42571907364E+02  0.20902020838E+02  0.21894477250E+03  0.23226367960E+03  0.61321624914E+02 0.  0.
      -24    2    1    2    0    0  0.42571907364E+02 -0.20902020838E+02  0.57201174986E+03  0.57960443280E+03  0.80589048712E+02 0.  0.
      -13    1    3    3    0    0 -0.94036623855E+00  0.31404553148E+02  0.61381983867E+02  0.68955624793E+02  0.00000000000E+00 0.  1.
       14    1    3    3    0    0 -0.41631541126E+02 -0.10502532310E+02  0.15756278864E+03  0.16330805481E+03  0.00000000000E+00 0. -1.
        3    1    4    4  502    0 -0.70902526990E+01  0.24864775755E+02  0.14565862833E+03  0.14793567779E+03  0.00000000000E+00 0. -1.
       -4    1    4    4    0  502  0.49662160063E+02 -0.45766796593E+02  0.42635312153E+03  0.43166875501E+03  0.00000000000E+00 0.  1.
</event>
<event>
 8   1  0.2279600E-02  0.1348385E+03  0.7546771E-02  0.1221242E+00
       -1   -1    0    0    0  501 -0.00000000000E+00  0.00000000000E+00  0.38437758790E+02  0.38437758790E+02  0.00000000000E+00 0.  1.
        1   -1    0    0  501    0  0.00000000000E+00 -0.00000000000E+00 -0.19016585003E+04  0.19016585003E+04  0.00000000000E+00 0. -1.
       24    2    1    2    0    0 -0.16545012755E+02 -0.10318353133E+03 -0.90434837349E+02  0.16235726575E+03  0.85210582398E+02 0.  0.
      -24    2    1    2    0    0  0.16545012755E+02  0.10318353133E+03 -0.17727859041E+04  0.17777389933E+04  0.81642439059E+02 0.  0.
      -13    1    3    3    0    0  0.27992119736E+01 -0.73968733286E+02 -0.10092102353E+02  0.74706489822E+02  0.00000000000E+00 0.  1.
       14    1    3    3    0    0 -0.19344224728E+02 -0.29214798041E+02 -0.80342734996E+02  0.87650775932E+02  0.00000000000E+00 0. -1.
        3    1    4    4  502    0  0.29817058989E+02  0.11112129556E+03 -0.14375889537E+04  0.14421854940E+04  0.00000000000E+00 0. -1.
       -4    1    4    4    0  502 -0.13272046234E+02 -0.79377642320E+01 -0.33519695043E+03  0.33555349929E+03  0.00000000000E+00 0.  1.
</event>
<event>
 8   1  0.2279600E-02  0.1358136E+03  0.7546771E-02  0.1219201E+00
        2   -1    0    0  501    0  0.00000000000E+00  0.00000000000E+00  0.19595310731E+03  0.19595310731E+03  0.00000000000E+00 0. -1.
       -2   -1    0    0    0  501 -0.00000000000E+00 -0.00000000000E+00 -0.94038717488E+03  0.94038717488E+03  0.00000000000E+00 0.  1.
      -24    2    1    2    0    0 -0.71513205795E+02  0.82268237941E+02 -0.91132888078E+03  0.92139333429E+03  0.81013245480E+02 0.  0.
       24    2    1    2    0    0  0.71513205795E+02 -0.82268237941E+02  0.16689481321E+03  0.21494694790E+03  0.80412126918E+02 0.  0.
      -13    1    4    4    0    0 -0.95356642262E+01  0.59196655681E+01  0.24193937778E+01  0.11481498113E+02  0.00000000000E+00 0.  1.
       14    1    4    4    0    0  0.81048870021E+02 -0.88187903509E+02  0.16447541944E+03  0.20346544978E+03  0.00000000000E+00 0. -1.
        3    1    3    3  502    0  0.15971052818E+02  0.51613758751E+00 -0.96541220813E+02  0.97854730300E+02  0.00000000000E+00 0. -1.
       -4    1    3    3    0  502 -0.87484258613E+02  0.81752100353E+02 -0.81478765997E+03  0.82353860399E+03  0.00000000000E+00 0.  1.
</event>
<event>
 8   1  0.2279600E-02  0.9598184E+02  0.7546771E-02  0.1291320E+00
        2   -1    0    0  501    0  0.00000000000E+00  0.00000000000E+00  0.33793666845E+02  0.33793666845E+02  0.00000000000E+00 0. -1.
       -2   -1    0    0    0  501 -0.00000000000E+00 -0.00000000000E+00 -0.77584481342E+03  0.77584481342E+03  0.00000000000E+00 0.  1.
       24    2    1    2    0    0  0.45159299744E+02  0.37427098392E+01 -0.38561693017E+02  0.99631491579E+02  0.79912825727E+02 0.  0.
      -24    2    1    2    0    0 -0.45159299744E+02 -0.37427098392E+01 -0.70348945355E+03  0.71000698868E+03  0.84611716007E+02 0.  0.
      -13    1    3    3    0    0  0.64423176749E+02  0.11621234531E+01 -0.45625421160E+02  0.78951727590E+02  0.00000000000E+00 0.  1.
       14    1    3    3    0    0 -0.19263877005E+02  0.25805863860E+01  0.70637281433E+01  0.20679763989E+02  0.00000000000E+00 0. -1.
        1    1    4    4  502    0  0.21352736732E+02  0.90491475831E+01 -0.96370436502E+02  0.99121579232E+02  0.00000000000E+00 0. -1.
       -2    1    4    4    0  502 -0.66512036477E+02 -0.12791857422E+02 -0.60711901705E+03  0.61088540945E+03  0.00000000000E+00 0.  1.
</event>
<event>
 8   1  0.2279600E-02  0.1091773E+03  0.7546771E-02  0.1266780E+00
        3   -1    0    0  501    0  0.00000000000E+00  0.00000000000E+00  0.37512096021E+03  0.37512096021E+03  0.00000000000E+00 0. -1.
       -3   -1    0    0    0  501 -0.00000000000E+00 -0.00000000000E+00 -0.41144520121E+02  0.41144520121E+02  0.00000000000E+00 0.  1.
       24    2    1    2    0    0  0.34038657113E+02 -0.47709230705E+02  0.59669764561E+02  0.12441931893E+03  0.92113436840E+02 0.  0.
      -24    2    1    2    0    0 -0.34038657113E+02  0.47709230705E+02  0.27430667552E+03  0.29184616140E+03  0.80592982417E+02 0.  0.
      -13    1    3    3    0    0 -0.44879606646E+01 -0.65070249568E+02  0.25339033910E+02  0.69973893770E+02  0.00000000000E+00 0.  1.
       14    1    3    3    0    0  0.38526617778E+02  0.17361018863E+02  0.34330730650E+02  0.54445425155E+02  0.00000000000E+00 0. -1.
        3    1    4    4  502    0 -0.49166891923E+02  0.35443519032E+02  0.10356446862E+03  0.11999677272E+03  0.00000000000E+00 0. -1.
       -4    1    4    4    0  502  0.15128234810E+02  0.12265711673E+02  0.17074220691E+03  0.17184938868E+03  0.00000000000E+00 0.  1.
</event>
<event>
 8   1  0.2279600E-02  0.8496745E+02  0.7546771E-02  0.1316445E+00
       -1   -1    0    0    0  501 -0.00000000000E+00  0.00000000000E+00  0.19482551428E+03  0.19482551428E+03  0.00000000000E+00 0.  1.
        1   -1    0    0  501    0  0.00000000000E+00 -0.00000000000E+00 -0.50288820632E+02  0.50288820632E+02  0.00000000000E+00 0. -1.
       24    2    1    2    0    0 -0.25857226986E+01 -0.26231034160E+02  0.84055416026E+01  0.85382201079E+02  0.80775701894E+02 0.  0.
      -24    2    1    2    0    0  0.25857226986E+01  0.26231034160E+02  0.13613115204E+03  0.15973213383E+03  0.79296348633E+02 0.  0.
      -13    1    3    3    0    0  0.29717267538E+02  0.10133128416E+02 -0.10633063115E+02  0.33149031850E+02  0.00000000000E+00 0.  1.
       14    1    3    3    0    0 -0.32302990236E+02 -0.36364162576E+02  0.19038604717E+02  0.52233169229E+02  0.00000000000E+00 0. -1.
        3    1    4    4  502    0  0.15810450138E+02 -0.65651948623E+01 -0.19173935749E+01  0.17226390083E+02  0.00000000000E+00 0. -1.
       -4    1    4    4    0  502 -0.13224727440E+02  0.32796229023E+02  0.13804854562E+03  0.14250574375E+03  0.00000000000E+00 0.  1.
</event>
<event>
 8   1  0.2279600E-02  0.8164908E+02  0.7546771E-02  0.1325721E+00
       -1   -1    0    0    0  501 -0.00000000000E+00  0.00000000000E+00  0.14125097966E+04  0.14125097966E+04  0.00000000000E+00 0.  1.
        1   -1    0    0  501    0  0.00000000000E+00 -0.00000000000E+00 -0.19431730297E+02  0.19431730297E+02  0.00000000000E+00 0. -1.
       24    2    1    2    0    0  0.31311518183E+01  0.77512635745E+01  0.13198629512E+04  0.13222737300E+04  0.79370781705E+02 0.  0.
      -24    2    1    2    0    0 -0.31311518183E+01 -0.77512635745E+01  0.73215115048E+02  0.10966779681E+03  0.81219987606E+02 0.  0.
      -13    1    3    3    0    0  0.39381595128E+02 -0.80338032363E+01  0.63592806240E+03  0.63719694960E+03  0.00000000000E+00 0.  1.
       14    1    3    3    0    0 -0.36250443310E+02  0.15785066811E+02  0.68393488880E+03  0.68507678044E+03  0.00000000000E+00 0. -1.
        3    1    4    4  502    0 -0.13713615244E+02 -0.11715636292E+02 -0.13304873934E+02  0.22412921434E+02  0.00000000000E+00 0. -1.
       -4    1    4    4    0  502  0.10582463426E+02  0.39643727174E+01  0.86519988982E+02  0.87254875375E+02  0.00000000000E+00 0.  1.
</event>
<event>
 8   1  0.2279600E-02  0.9109547E+02  0.7546771E-02  0.1300221E+00
        2   -1    0    0  501    0  0.00000000000E+00  0.00000000000E+00  0.22926922447E+02  0.22926922447E+02  0.00000000000E+00 0. -1.
       -2   -1    0    0    0  501 -0.00000000000E+00 -0.00000000000E+00 -0.58398518674E+03  0.58398518674E+03  0.00000000000E+00 0.  1.
       24    2    1    2    0    0  0.72308442961E+01  0.42424798163E+02 -0.46764358634E+03  0.47643342296E+03  0.80287820145E+02 0.  0.
      -24    2    1    2    0    0 -0.72308442961E+01 -0.42424798163E+02 -0.93414677953E+02  0.13047868622E+03  0.80288460522E+02 0.  0.
      -13    1    3    3    0    0  0.19996621262E+02  0.78154309727E+01 -0.38874219379E+03  0.38933461066E+03  0.00000000000E+00 0.  1.
       14    1    3    3    0    0 -0.12765776966E+02  0.34609367190E+02 -0.78901392550E+02  0.87098812307E+02  0.00000000000E+00 0. -1.
        3    1    4    4  502    0 -0.21209858834E+02 -0.49249185447E+02 -0.22966583798E+02  0.58333561097E+02  0.00000000000E+00 0. -1.
       -4    1    4    4    0  502  0.13979014538E+02  0.68243872842E+01 -0.70448094155E+02  0.72145125125E+02  0.00000000000E+00 0.  1.
</event>
<event>
 8   1  0.2279600E-02  0.1044275E+03  0.7546771E-02  0.1271599E+00
       -1   -1    0    0    0  501 -0.00000000000E+00  0.00000000000E+00  0.14699778966E+02  0.14699778966E+02  0.00000000000E+00 0.  1.
        1   -1    0    0  501    0  0.00000000000E+00 -0.00000000000E+00 -0.81954279892E+03  0.81954279892E+03  0.00000000000E+00 0. -1.
       24    2    1    2    0    0 -0.45530182939E+02  0.48063397191E+02 -0.27118435526E+03  0.29059604927E+03  0.80759034189E+02 0.  0.
      -24    2    1    2    0    0  0.45530182939E+02 -0.48063397191E+02 -0.53365866469E+03  0.54364652862E+03  0.79855431681E+02 0.  0.
      -13    1    3    3    0    0 -0.13080551110E+02  0.59778058855E+02 -0.11110958179E+03  0.12684579734E+03  0.00000000000E+00 0.  1.
       14    1    3    3    0    0 -0.32449631829E+02 -0.11714661664E+02 -0.16007477347E+03  0.16375025192E+03  0.00000000000E+00 0. -1.
        1    1    4    4  502    0  0.41689866233E+02 -0.58663576776E+02 -0.52364432761E+03  0.52856678105E+03  0.00000000000E+00 0. -1.
       -2    1    4    4    0  502  0.38403167059E+01  0.10600179585E+02 -0.10014337081E+02  0.15079747571E+02  0.00000000000E+00 0.  1.
</event>
<event>
 8   1  0.2279600E-02  0.8767473E+02  0.7546771E-02  0.1308613E+00
       -2   -1    0    0    0  501 -0.00000000000E+00  0.00000000000E+00  0.56607247625E+01  0.56607247625E+01  0.00000000000E+00 0.  1.
        2   -1    0    0  501    0  0.00000000000E+00 -0.00000000000E+00 -0.13587796799E+04  0.13587796799E+04  0.00000000000E+00 0. -1.
      -24    2    1    2    0    0  0.28116011491E+02  0.20208500200E+02 -0.65336984677E+03  0.65922607283E+03  0.80547904032E+02 0.  0.
       24    2    1    2    0    0 -0.28116011491E+02 -0.20208500200E+02 -0.69974910841E+03  0.70521433187E+03  0.80495624621E+02 0.  0.
      -13    1    4    4    0    0  0.22353908535E+02  0.25435840626E+01 -0.83314231390E+02  0.86298483178E+02  0.00000000000E+00 0.  1.
       14    1    4    4    0    0 -0.50469920026E+02 -0.22752084263E+02 -0.61643487702E+03  0.61891584870E+03  0.00000000000E+00 0. -1.
        1    1    3    3  502    0 -0.27517044545E+02  0.10677346565E+02 -0.16657034874E+03  0.16916522855E+03  0.00000000000E+00 0. -1.
       -2    1    3    3    0  502  0.55633056036E+02  0.95311536351E+01 -0.48679949803E+03  0.49006084428E+03  0.00000000000E+00 0.  1.
</event>
<event>
 8   1  0.2279600E-02  0.1045433E+03  0.7546771E-02  0.1271342E+00
       -2   -1    0    0    0  501 -0.00000000000E+00  0.00000000000E+00  0.51243625022E+02  0.51243625022E+02  0.00000000000E+00 0.  1.
        2   -1    0    0  501    0  0.00000000000E+00 -0.00000000000E+00 -0.31577285927E+03  0.31577285927E+03  0.00000000000E+00 0. -1.
       24    2    1    2    0    0  0.64383708814E+02  0.31709205260E+01 -0.23775094436E+03  0.25972062860E+03  0.82304171708E+02 0.  0.
      -24    2    1    2    0    0 -0.64383708814E+02 -0.31709205260E+01 -0.26778289891E+02  0.10729585569E+03  0.81486238970E+02 0.  0.
      -13    1    3    3    0    0  0.42389518684E+02 -0.35168613639E+02 -0.17108946409E+03  0.17973677254E+03  0.00000000000E+00 0.  1.
       14    1    3    3    0    0  0.21994190130E+02  0.38339534165E+02 -0.66661480267E+02  0.79983856064E+02  0.00000000000E+00 0. -1.
        1    1    4    4  502    0  0.87094419699E+01  0.23404354814E+02 -0.13527000710E+02  0.28400668159E+02  0.00000000000E+00 0. -1.
       -2    1    4    4    0  502 -0.73093150784E+02 -0.26575275340E+02 -0.13251289181E+02  0.78895187533E+02  0.00000000000E+00 0.  1.
</event>
<event>
 8   1  0.2279600E-02  0.9069456E+02  0.7546771E-02  0.1304838E+00
        1   -1    0    0  501    0  0.00000000000E+00  0.00000000000E+00  0.18330469780E+03  0.18330469780E+03  0.00000000000E+00 0. -1.
       -1   -1    0    0    0  501 -0.00000000000E+00 -0.00000000000E+00 -0.64781844578E+02  0.64781844578E+02  0.00000000000E+00 0.  1.
       24    2    1    2    0    0 -0.39505833483E+02 -0.83109726741E+01 -0.12971501008E+02  0.91617479369E+02  0.81214035373E+02 0.  0.
      -24    2    1    2    0    0  0.39505833483E+02  0.83109726741E+01  0.13149435423E+03  0.15646906301E+03  0.74578947021E+02 0.  0.
      -13    1    3    3    0    0 -0.52569730155E+02  0.87959765243E+01  0.15885069751E+02  0.55617274049E+02  0.00000000000E+00 0.  1.
       14    1    3    3    0    0  0.13063896672E+02 -0.17106949198E+02 -0.28856570759E+02  0.36000205320E+02  0.00000000000E+00 0. -1.
        1    1    4    4  502    0  0.15138961717E+02  0.83466287886E+01  0.13096022760E+03  0.13209631179E+03  0.00000000000E+00 0. -1.
       -2    1    4    4    0  502  0.24366871766E+02 -0.35656114474E-01  0.53412662994E+00  0.24372751225E+02  0.00000000000E+00 0.  1.
</event>
<event>
 8   1  0.2279600E-02  0.8417513E+02  0.7546771E-02  0.1319851E+00
        4   -1    0    0  501    0  0.00000000000E+00  0.00000000000E+00  0.22889419111E+03  0.22889419111E+03  0.00000000000E+00 0. -1.
       -4   -1    0    0    0  501 -0.00000000000E+00 -0.00000000000E+00 -0.31896769898E+02  0.31896769898E+02  0.00000000000E+00 0.  1.
      -24    2    1    2    0    0  0.19545603668E+01 -0.80946893997E+01  0.66496029022E+02  0.10727150240E+03  0.83762217304E+02 0.  0.
       24    2    1    2    0    0 -0.19545603668E+01  0.80946893997E+01  0.13050139219E+03  0.15351945861E+03  0.80425533921E+02 0.  0.
      -13    1    4    4    0    0  0.31451213422E+02 -0.18575597917E+02  0.75395187395E+02  0.83777478752E+02  0.00000000000E+00 0.  1.
       14    1    4    4    0    0 -0.33405773789E+02  0.26670287317E+02  0.55106204791E+02  0.69741979858E+02  0.00000000000E+00 0. -1.
        3    1    3    3  502    0  0.21935059943E+02  0.11841442265E+02  0.73983440533E+02  0.78069943530E+02  0.00000000000E+00 0. -1.
       -4    1    3    3    0  502 -0.19980499576E+02 -0.19936131665E+02 -0.74874115109E+01  0.29201558866E+02  0.00000000000E+00 0.  1.
</event>
<event>
 8   1  0.2279600E-02  0.1213895E+03  0.7546771E-02  0.1242324E+00
        2   -1    0    0  501    0  0.00000000000E+00  0.00000000000E+00  0.11009529884E+03  0.11009529884E+03  0.00000000000E+00 0. -1.
       -2   -1    0    0    0  501 -0.00000000000E+00 -0.00000000000E+00 -0.17399954508E+03  0.17399954508E+03  0.00000000000E+00 0.  1.
       24    2    1    2    0    0  0.84836936158E+02  0.21286759768E+02  0.39220832733E+02  0.12756838019E+03  0.84172359033E+02 0.  0.
      -24    2    1    2    0    0 -0.84836936158E+02 -0.21286759768E+02 -0.10312507898E+03  0.15652646373E+03  0.78837301170E+02 0.  0.
      -13    1    3    3    0    0  0.70496290977E+01 -0.28246235350E+02  0.77412497167E+01  0.30124309603E+02  0.00000000000E+00 0.  1.
       14    1    3    3    0    0  0.77787307060E+02  0.49532995119E+02  0.31479583017E+02  0.97444070584E+02  0.00000000000E+00 0. -1.
        1    1    4    4  502    0 -0.97633754511E+02 -0.10101797362E+02 -0.74460978164E+02  0.12320240906E+03  0.00000000000E+00 0. -1.
       -2    1    4    4    0  502  0.12796818353E+02 -0.11184962406E+02 -0.28664100816E+02  0.33324054669E+02  0.00000000000E+00 0.  1.
</event>
<event>
 8   1  0.2279600E-02  0.1413555E+03  0.7546771E-02  0.1211741E+00
       -2   -1    0    0    0  501 -0.00000000000E+00  0.00000000000E+00  0.27538354445E+02  0.27538354445E+02  0.00000000000E+00 0.  1.
        2   -1    0    0  501    0  0.00000000000E+00 -0.00000000000E+00 -0.11245123536E+04  0.11245123536E+04  0.00000000000E+00 0. -1.
      -24    2    1    2    0    0 -0.11624341536E+03  0.88587529315E+00 -0.20475849612E+03  0.24881203222E+03  0.80424307613E+02 0.  0.
       24    2    1    2    0    0  0.11624341536E+03 -0.88587529315E+00 -0.89221550302E+03  0.90323867580E+03  0.79235631240E+02 0.  0.
      -13    1    4    4    0    0  0.90723847120E+01  0.27036939744E+02 -0.13613015321E+03  0.13908530796E+03  0.00000000000E+00 0.  1.
       14    1    4    4    0    0  0.10717103065E+03 -0.27922815037E+02 -0.75608534980E+03  0.76415336785E+03  0.00000000000E+00 0. -1.
        1    1    3    3  502    0 -0.12128167248E+02  0.30600802375E+02 -0.52969854641E+02  0.62364309084E+02  0.00000000000E+00 0. -1.
       -2    1    3    3    0  502 -0.10411524811E+03 -0.29714927082E+02 -0.15178864148E+03  0.18644772313E+03  0.00000000000E+00 0.  1.
</event>
<event>
 8   1  0.2279600E-02  0.1119776E+03  0.7546771E-02  0.1257041E+00
        2   -1    0    0  501    0  0.00000000000E+00  0.00000000000E+00  0.51568231526E+03  0.51568231526E+03  0.00000000000E+00 0. -1.
       -2   -1    0    0    0  501 -0.00000000000E+00 -0.00000000000E+00 -0.26936359391E+02  0.26936359391E+02  0.00000000000E+00 0.  1.
      -24    2    1    2    0    0  0.37203402088E+02  0.68786055549E+02  0.15924103726E+03  0.19467074065E+03  0.80145959044E+02 0.  0.
       24    2    1    2    0    0 -0.37203402088E+02 -0.68786055549E+02  0.32950491860E+03  0.34794793400E+03  0.79866506287E+02 0.  0.
      -13    1    4    4    0    0 -0.16677275402E+02  0.10655203509E+02  0.21588251873E+02  0.29286814364E+02  0.00000000000E+00 0.  1.
       14    1    4    4    0    0 -0.20526126686E+02 -0.79441259058E+02  0.30791666673E+03  0.31866111964E+03  0.00000000000E+00 0. -1.
        1    1    3    3  502    0  0.55471012000E+02  0.49989733707E+02  0.14874509555E+03  0.16643650471E+03  0.00000000000E+00 0. -1.
       -2    1    3    3    0  502 -0.18267609912E+02  0.18796321842E+02  0.10495941707E+02  0.28234235938E+02  0.00000000000E+00 0.  1.
</event>
<event>
 8   1  0.2279600E-02  0.8685901E+02  0.7546771E-02  0.1312203E+00
        1   -1    0    0  501    0  0.00000000000E+00  0.00000000000E+00  0.71578766084E+02  0.71578766084E+02  0.00000000000E+00 0. -1.
       -1   -1    0    0    0  501 -0.00000000000E+00 -0.00000000000E+00 -0.11080917270E+03  0.11080917270E+03  0.00000000000E+00 0.  1.
       24    2    1    2    0    0 -0.81252423543E+01  0.25627565998E+02 -0.44354522364E+02  0.95377910945E+02  0.80042679489E+02 0.  0.
      -24    2    1    2    0    0  0.81252423543E+01 -0.25627565998E+02  0.51241157510E+01  0.87010027837E+02  0.82593563185E+02 0.  0.
      -13    1    3    3    0    0 -0.15300300750E+02  0.49286054938E+02 -0.47890272307E+02  0.70403782540E+02  0.00000000000E+00 0.  1.
       14    1    3    3    0    0  0.71750583958E+01 -0.23658488940E+02  0.35357499429E+01  0.24974128405E+02  0.00000000000E+00 0. -1.
        3    1    4    4  502    0  0.43172173994E+02 -0.17747433702E+02  0.16216636059E+02  0.49414444198E+02  0.00000000000E+00 0. -1.
       -4    1    4    4    0  502 -0.35046931640E+02 -0.78801322960E+01 -0.11092520307E+02  0.37595583639E+02  0.00000000000E+00 0.  1.
</event>
<event>
 8   1  0.2279600E-02  0.8606387E+02  0.7546771E-02  0.1316525E+00
        2   -1    0    0  501    0  0.00000000000E+00  0.00000000000E+00  0.79671352839E+02  0.79671352839E+02  0.00000000000E+00 0. -1.
       -2   -1    0    0    0  501 -0.00000000000E+00 -0.00000000000E+00 -0.96987989927E+02  0.96987989927E+02  0.00000000000E+00 0.  1.
      -24    2    1    2    0    0 -0.37439098218E+01 -0.24774741092E+02 -0.36945590302E+02  0.88385417082E+02  0.76283685367E+02 0.  0.
       24    2    1    2    0    0  0.37439098218E+01  0.24774741092E+02  0.19628953214E+02  0.88273925684E+02  0.82335809308E+02 0.  0.
      -13    1    4    4    0    0  0.46022561016E+01  0.40792502368E+00 -0.31390027921E+02  0.31728236903E+02  0.00000000000E+00 0.  1.
       14    1    4    4    0    0 -0.85834627973E+00  0.24366816068E+02  0.51018981135E+02  0.56545688781E+02  0.00000000000E+00 0. -1.
        3    1    3    3  502    0 -0.23540874223E+01  0.60834691881E+01  0.21397493421E+02  0.22369690424E+02  0.00000000000E+00 0. -1.
       -4    1    3    3    0  502 -0.13898223995E+01 -0.30858210280E+02 -0.58343083723E+02  0.66015726658E+02  0.00000000000E+00 0.  1.
</event>
<event>
 8   1  0.2279600E-02  0.8840200E+02  0.7546771E-02  0.1307224E+00
       -2   -1    0    0    0  501 -0.00000000000E+00  0.00000000000E+00  0.10774791445E+03  0.10774791445E+03  0.00000000000E+00 0.  1.
        2   -1    0    0  501    0  0.00000000000E+00 -0.00000000000E+00 -0.39152177240E+03  0.39152177240E+03  0.00000000000E+00 0. -1.
      -24    2    1    2    0    0  0.32974039094E+02 -0.69776295915E+01  0.83544863997E+02  0.12163329328E+03  0.81724776937E+02 0.  0.
       24    2    1    2    0    0 -0.32974039094E+02  0.69776295915E+01 -0.36731872195E+03  0.37763639357E+03  0.80933476906E+02 0.  0.
      -13    1    4    4    0    0 -0.49208436795E+00 -0.19262854670E+02 -0.19838573762E+02  0.27656260159E+02  0.00000000000E+00 0.  1.
       14    1    4    4    0    0 -0.32481954726E+02  0.26240484262E+02 -0.34748014819E+03  0.34998013341E+03  0.00000000000E+00 0. -1.
        3    1    3    3  502    0  0.27448911345E+02 -0.33637535219E+02  0.11941082161E+02  0.45027946353E+02  0.00000000000E+00 0. -1.
       -4    1    3    3    0  502  0.55251277489E+01  0.26659905627E+02  0.71603781836E+02  0.76605346928E+02  0.00000000000E+00 0.  1.
</event>
<event>
 8   1  0.2279600E-02  0.8745676E+02  0.7546771E-02  0.1309527E+00
       -2   -1    0    0    0  501 -0.00000000000E+00  0.00000000000E+00  0.20137844946E+02  0.20137844946E+02  0.00000000000E+00 0.  1.
        2   -1    0    0  501    0  0.00000000000E+00 -0.00000000000E+00 -0.48604093311E+03  0.48604093311E+03  0.00000000000E+00 0. -1.
      -24    2    1    2    0    0  0.19721064820E+02 -0.25675084996E+02 -0.11247458151E+03  0.14209033613E+03  0.80566753376E+02 0.  0.
       24    2    1    2    0    0 -0.19721064820E+02  0.25675084996E+02 -0.35342850666E+03  0.36408844193E+03  0.81243792620E+02 0.  0.
      -13    1    4    4    0    0  0.65329714500E+01 -0.22791239627E+02 -0.19308552469E+03  0.19453570409E+03  0.00000000000E+00 0.  1.
       14    1    4    4    0    0 -0.26254036270E+02  0.48466324623E+02 -0.16034298197E+03  0.16955273784E+03  0.00000000000E+00 0. -1.
        1    1    3    3  502    0 -0.23617503589E+02  0.98763486534E+01 -0.60310650887E+02  0.65518725178E+02  0.00000000000E+00 0. -1.
       -2    1    3    3    0  502  0.43338568409E+02 -0.35551433649E+02 -0.52163930622E+02  0.76571610955E+02  0.00000000000E+00 0.  1.
</event>
<event>
 8   1  0.2279600E-02  0.9623882E+02  0.7546771E-02  0.1288818E+00
       -2   -1    0    0    0  501 -0.00000000000E+00  0.00000000000E+00  0.19371160832E+03  0.19371160832E+03  0.00000000000E+00 0.  1.
        2   -1    0    0  501    0  0.00000000000E+00 -0.00000000000E+00 -0.10071453617E+03  0.10071453617E+03  0.00000000000E+00 0. -1.
      -24    2    1    2    0    0  0.51914170586E+02  0.23665784320E+01  0.15364118121E+03  0.18129402120E+03  0.81001405917E+02 0.  0.
       24    2    1    2    0    0 -0.51914170586E+02 -0.23665784320E+01 -0.60644109059E+02  0.11313212328E+03  0.80127944894E+02 0.  0.
      -13    1    4    4    0    0 -0.14821904984E+02  0.17560767418E+02  0.14374054351E+02  0.27105033816E+02  0.00000000000E+00 0.  1.
       14    1    4    4    0    0 -0.37092265603E+02 -0.19927345850E+02 -0.75018163410E+02  0.86027089463E+02  0.00000000000E+00 0. -1.
        3    1    3    3  502    0  0.19163001693E+01 -0.26155840898E+02  0.12879494542E+02  0.29217830157E+02  0.00000000000E+00 0. -1.
       -4    1    3    3    0  502  0.49997870417E+02  0.28522419330E+02  0.14076168667E+03  0.15207619105E+03  0.00000000000E+00 0.  1.
</event>
<event>
 8   1  0.2279600E-02  0.1136588E+03  0.7546771E-02  0.1254018E+00
        2   -1    0    0  501    0  0.00000000000E+00  0.00000000000E+00  0.34747298830E+03  0.34747298830E+03  0.00000000000E+00 0. -1.
       -2   -1    0    0    0  501 -0.00000000000E+00 -0.00000000000E+00 -0.38761839351E+02  0.38761839351E+02  0.00000000000E+00 0.  1.
       24    2    1    2    0    0 -0.31481249007E+02 -0.73379274680E+02  0.11450796966E+03  0.16121659161E+03  0.80641969867E+02 0.  0.
      -24    2    1    2    0    0  0.31481249007E+02  0.73379274680E+02  0.19420317929E+03  0.22501823604E+03  0.80887234543E+02 0.  0.
      -13    1    3    3    0    0 -0.61640112136E+01 -0.82513292836E+02  0.66399623760E+02  0.10609122756E+03  0.00000000000E+00 0.  1.
       14    1    3    3    0    0 -0.25317237794E+02  0.91340181559E+01  0.48108345899E+02  0.55125364056E+02  0.00000000000E+00 0. -1.
        1    1    4    4  502    0  0.24265560611E+01  0.82803984211E+02  0.14860553018E+03  0.17013521556E+03  0.00000000000E+00 0. -1.
       -2    1    4    4    0  502  0.29054692946E+02 -0.94247095304E+01  0.45597649114E+02  0.54883020477E+02  0.00000000000E+00 0.  1.
</event>
<event>
 8   1  0.2279600E-02  0.8610129E+02  0.7546771E-02  0.1315816E+00
       -2   -1    0    0    0  501 -0.00000000000E+00  0.00000000000E+00  0.54144415922E+01  0.54144415922E+01  0.00000000000E+00 0.  1.
        2   -1    0    0  501    0  0.00000000000E+00 -0.00000000000E+00 -0.13000238429E+04  0.13000238429E+04  0.00000000000E+00 0. -1.
      -24    2    1    2    0    0  0.27413217766E+02 -0.15827226275E+02 -0.71527258581E+03  0.72043618979E+03  0.80071505169E+02 0.  0.
       24    2    1    2    0    0 -0.27413217766E+02  0.15827226275E+02 -0.57933681552E+03  0.58500209473E+03  0.74795183145E+02 0.  0.
      -13    1    4    4    0    0 -0.48077122586E+02  0.29310763058E+02 -0.42269674347E+03  0.42643061274E+03  0.00000000000E+00 0.  1.
       14    1    4    4    0    0  0.20663904821E+02 -0.13483536782E+02 -0.15664007205E+03  0.15857148198E+03  0.00000000000E+00 0. -1.
        3    1    3    3  502    0  0.67007324492E+01  0.28098473970E+02 -0.43731469978E+03  0.43826769297E+03  0.00000000000E+00 0. -1.
       -4    1    3    3    0  502  0.20712485316E+02 -0.43925700246E+02 -0.27795788603E+03  0.28216849682E+03  0.00000000000E+00 0.  1.
</event>
<event>
 8   1  0.2279600E-02  0.1209662E+03  0.7546771E-02  0.1241532E+00
        2   -1    0    0  501    0  0.00000000000E+00  0.00000000000E+00  0.25355911554E+03  0.25355911554E+03  0.00000000000E+00 0. -1.
       -2   -1    0    0    0  501 -0.00000000000E+00 -0.00000000000E+00 -0.10099565827E+03  0.10099565827E+03  0.00000000000E+00 0.  1.
      -24    2    1    2    0    0 -0.52077760054E+02 -0.72978037327E+02 -0.39816878899E+02  0.12730379942E+03  0.81135605485E+02 0.  0.
       24    2    1    2    0    0  0.52077760054E+02  0.72978037327E+02  0.19238033617E+03  0.22725097439E+03  0.81209141067E+02 0.  0.
      -13    1    4    4    0    0 -0.11608097301E+02 -0.95550535838E+01  0.38994742055E+02  0.41792785022E+02  0.00000000000E+00 0.  1.
       14    1    4    4    0    0  0.63685857356E+02  0.82533090911E+02  0.15338559411E+03  0.18545818937E+03  0.00000000000E+00 0. -1.
        3    1    3    3  502    0 -0.18777187650E+02  0.28416180325E+01  0.18111822616E+02  0.26243012166E+02  0.00000000000E+00 0. -1.
       -4    1    3    3    0  502 -0.33300572404E+02 -0.75819655359E+02 -0.57928701516E+02  0.10106078725E+03  0.00000000000E+00 0.  1.
</event>
<event>
 8   1  0.2279600E-02  0.1261840E+03  0.7546771E-02  0.1233702E+00
       -1   -1    0    0    0  501 -0.00000000000E+00  0.00000000000E+00  0.20252060381E+03  0.20252060381E+03  0.00000000000E+00 0.  1.
        1   -1    0    0  501    0  0.00000000000E+00 -0.00000000000E+00 -0.80592077540E+02  0.80592077540E+02  0.00000000000E+00 0. -1.
       24    2    1    2    0    0  0.85685365439E+02 -0.44412079301E+02  0.87285196774E+02  0.15343109444E+03  0.81289485961E+02 0.  0.
      -24    2    1    2    0    0 -0.85685365439E+02  0.44412079301E+02  0.34643329496E+02  0.12968158691E+03  0.79389791950E+02 0.  0.
      -13    1    3    3    0    0  0.10096004489E+03 -0.31372066610E+02  0.77532189108E+02  0.13110445292E+03  0.00000000000E+00 0.  1.
       14    1    3    3    0    0 -0.15274679449E+02 -0.13040012690E+02  0.97530076670E+01  0.22326641525E+02  0.00000000000E+00 0. -1.
        3    1    4    4  502    0 -0.93407432373E+02  0.19759485490E+02  0.13756480153E+02  0.96460491579E+02  0.00000000000E+00 0. -1.
       -4    1    4    4    0  502  0.77220669339E+01  0.24652593811E+02  0.20886849342E+02  0.33221095328E+02  0.00000000000E+00 0.  1.
</event>
<event>
 8   1  0.2279600E-02  0.9467090E+02  0.7546771E-02  0.1292035E+00
       -2   -1    0    0    0  501 -0.00000000000E+00  0.00000000000E+00  0.75435414175E+01  0.75435414175E+01  0.00000000000E+00 0.  1.
        2   -1    0    0  501    0  0.00000000000E+00 -0.00000000000E+00 -0.15009841526E+04  0.15009841526E+04  0.00000000000E+00 0. -1.
      -24    2    1    2    0    0  0.30669309261E+02  0.39020821312E+02 -0.40030038243E+03  0.41129565862E+03  0.80377183327E+02 0.  0.
       24    2    1    2    0    0 -0.30669309261E+02 -0.39020821312E+02 -0.10931402287E+04  0.10972320354E+04  0.80618538556E+02 0.  0.
      -13    1    4    4    0    0  0.12098455160E+02 -0.35805592560E+02 -0.23491673421E+03  0.23793756552E+03  0.00000000000E+00 0.  1.
       14    1    4    4    0    0 -0.42767764422E+02 -0.32152287523E+01 -0.85822349450E+03  0.85929446983E+03  0.00000000000E+00 0. -1.
        1    1    3    3  502    0 -0.17026225078E+02  0.32800908551E+02 -0.90044664782E+02  0.97333620080E+02  0.00000000000E+00 0. -1.
       -2    1    3    3    0  502  0.47695534340E+02  0.62199127607E+01 -0.31025571765E+03  0.31396203854E+03  0.00000000000E+00 0.  1.
</event>
<event>
 8   1  0.2279600E-02  0.8714515E+02  0.7546771E-02  0.1316520E+00
        3   -1    0    0  501    0  0.00000000000E+00  0.00000000000E+00  0.11170302931E+03  0.11170302931E+03  0.00000000000E+00 0. -1.
       -3   -1    0    0    0  501 -0.00000000000E+00 -0.00000000000E+00 -0.66159055375E+02  0.66159055375E+02  0.00000000000E+00 0.  1.
       24    2    1    2    0    0  0.26302864748E+02  0.14260231009E+02 -0.18200502373E+01  0.87164151450E+02  0.81847918927E+02 0.  0.
      -24    2    1    2    0    0 -0.26302864748E+02 -0.14260231009E+02  0.47364024177E+02  0.90697933241E+02  0.71327199759E+02 0.  0.
      -13    1    3    3    0    0  0.50923256262E+02 -0.10627775109E+02  0.11216027127E+01  0.52032543901E+02  0.00000000000E+00 0.  1.
       14    1    3    3    0    0 -0.24620391515E+02  0.24888006119E+02 -0.29416529500E+01  0.35131607549E+02  0.00000000000E+00 0. -1.
        3    1    4    4  502    0 -0.36577150033E+02  0.17789035680E+02  0.38240994896E+02  0.55827514593E+02  0.00000000000E+00 0. -1.
       -4    1    4    4    0  502  0.10274285285E+02 -0.32049266689E+02  0.91230292809E+01  0.34870418648E+02  0.00000000000E+00 0.  1.
</event>
<event>
 8   1  0.2279600E-02  0.9239073E+02  0.7546771E-02  0.1297357E+00
        4   -1    0    0  501    0  0.00000000000E+00  0.00000000000E+00  0.59108431317E+03  0.59108431317E+03  0.00000000000E+00 0. -1.
       -4   -1    0    0    0  501 -0.00000000000E+00 -0.00000000000E+00 -0.19465159620E+02  0.19465159620E+02  0.00000000000E+00 0.  1.
      -24    2    1    2    0    0 -0.41599389825E+02  0.10355863718E+02  0.13030571143E+03  0.15973610897E+03  0.81843099468E+02 0.  0.
       24    2    1    2    0    0  0.41599389825E+02 -0.10355863718E+02  0.44131344212E+03  0.45081336382E+03  0.81470127386E+02 0.  0.
      -13    1    4    4    0    0  0.28099482612E+02  0.29677234382E+02  0.12077347800E+03  0.12750118491E+03  0.00000000000E+00 0.  1.
       14    1    4    4    0    0  0.13499907213E+02 -0.40033098099E+02  0.32053996411E+03  0.32331217891E+03  0.00000000000E+00 0. -1.
        1    1    3    3  502    0 -0.50037036087E+02 -0.15935971059E+02  0.11867408944E+03  0.12977364779E+03  0.00000000000E+00 0. -1.
       -2    1    3    3    0  502  0.84376462624E+01  0.26291834777E+02  0.11631621990E+02  0.29962461189E+02  0.00000000000E+00 0.  1.
</event>
<event>
 8   1  0.2279600E-02  0.1853189E+03  0.7546771E-02  0.1163105E+00
       -2   -1    0    0    0  501 -0.00000000000E+00  0.00000000000E+00  0.62888179988E+02  0.62888179988E+02  0.00000000000E+00 0.  1.
        2   -1    0    0  501    0  0.00000000000E+00 -0.00000000000E+00 -0.54782000034E+03  0.54782000034E+03  0.00000000000E+00 0. -1.
       24    2    1    2    0    0 -0.14715996047E+03  0.74874913056E+02 -0.27385874891E+03  0.32982573794E+03  0.80771879270E+02 0.  0.
      -24    2    1    2    0    0  0.14715996047E+03 -0.74874913056E+02 -0.21107307144E+03  0.28088244239E+03  0.84147479970E+02 0.  0.
      -13    1    3    3    0    0 -0.12095492182E+03  0.29767377331E+02 -0.14711953208E+03  0.19277019113E+03  0.00000000000E+00 0.  1.
       14    1    3    3    0    0 -0.26205038645E+02  0.45107535725E+02 -0.12673921683E+03  0.13705554681E+03  0.00000000000E+00 0. -1.
        1    1    4    4  502    0  0.14546150545E+03 -0.71986848188E+02 -0.15407569145E+03  0.22378667202E+03  0.00000000000E+00 0. -1.
       -2    1    4    4    0  502  0.16984550198E+01 -0.28880648687E+01 -0.56997379986E+02  0.57095770364E+02  0.00000000000E+00 0.  1.
</event>
<event>
 8   1  0.2279600E-02  0.9882334E+02  0.7546771E-02  0.1287408E+00
       -3   -1    0    0    0  501 -0.00000000000E+00  0.00000000000E+00  0.50895820210E+02  0.50895820210E+02  0.00000000000E+00 0.  1.
        3   -1    0    0  501    0  0.00000000000E+00 -0.00000000000E+00 -0.30723648024E+03  0.30723648024E+03  0.00000000000E+00 0. -1.
       24    2    1    2    0    0 -0.45383427153E+02 -0.14938412053E+02 -0.14492267544E+02  0.99880317777E+02  0.86505724931E+02 0.  0.
      -24    2    1    2    0    0  0.45383427153E+02  0.14938412053E+02 -0.24184839248E+03  0.25825198267E+03  0.76945630105E+02 0.  0.
      -13    1    3    3    0    0 -0.66344307295E+02 -0.26687452714E+02  0.58415788301E+00  0.71513135040E+02  0.00000000000E+00 0.  1.
       14    1    3    3    0    0  0.20960880141E+02  0.11749040661E+02 -0.15076425427E+02  0.28367182737E+02  0.00000000000E+00 0. -1.
        1    1    4    4  502    0  0.32499823167E+02  0.44689259172E+02 -0.18177789632E+03  0.18999097868E+03  0.00000000000E+00 0. -1.
       -2    1    4    4    0  502  0.12883603986E+02 -0.29750847119E+02 -0.60070496167E+02  0.68261003990E+02  0.00000000000E+00 0.  1.
</event>
<event>
 8   1  0.2279600E-02  0.9037700E+02  0.7546771E-02  0.1304208E+00
        2   -1    0    0  501    0  0.00000000000E+00  0.00000000000E+00  0.15891092437E+03  0.15891092437E+03  0.00000000000E+00 0. -1.
       -2   -1    0    0    0  501 -0.00000000000E+00 -0.00000000000E+00 -0.49342786412E+02  0.49342786412E+02  0.00000000000E+00 0.  1.
      -24    2    1    2    0    0  0.40735616713E+02  0.60425378653E+01  0.54116148971E+02  0.10534021100E+03  0.80449361345E+02 0.  0.
       24    2    1    2    0    0 -0.40735616713E+02 -0.60425378653E+01  0.55451988991E+02  0.10291349979E+03  0.76291301095E+02 0.  0.
      -13    1    4    4    0    0 -0.61644948068E+02  0.26024418601E+01  0.29212289013E+02  0.68265878411E+02  0.00000000000E+00 0.  1.
       14    1    4    4    0    0  0.20909331355E+02 -0.86449797254E+01  0.26239699978E+02  0.34647621377E+02  0.00000000000E+00 0. -1.
        3    1    3    3  502    0  0.56244597801E+02  0.11449795082E+02  0.64160428264E+02  0.86087822276E+02  0.00000000000E+00 0. -1.
       -4    1    3    3    0  502 -0.15508981088E+02 -0.54072572163E+01 -0.10044279293E+02  0.19252388722E+02  0.00000000000E+00 0.  1.
</event>
<event>
 8   1  0.2279600E-02  0.1553436E+03  0.7546771E-02  0.1194945E+00
       -2   -1    0    0    0  501 -0.00000000000E+00  0.00000000000E+00  0.43476300090E+03  0.43476300090E+03  0.00000000000E+00 0.  1.
        2   -1    0    0  501    0  0.00000000000E+00 -0.00000000000E+00 -0.74812091657E+02  0.74812091657E+02  0.00000000000E+00 0. -1.
      -24    2    1    2    0    0  0.34730211530E+02  0.12758286053E+03  0.31165414814E+03  0.34689685686E+03  0.75667346659E+02 0.  0.
       24    2    1    2    0    0 -0.34730211530E+02 -0.12758286053E+03  0.48296761104E+02  0.16267823570E+03  0.81535620089E+02 0.  0.
      -13    1    4    4    0    0 -0.66107835537E+01 -0.84154573997E+02  0.66888426568E+02  0.10770216522E+03  0.00000000000E+00 0.  1.
       14    1    4    4    0    0 -0.28119427976E+02 -0.43428286535E+02 -0.18591665464E+02  0.54976070484E+02  0.00000000000E+00 0. -1.
        1    1    3    3  502    0 -0.61188994152E+00  0.64451870146E+02  0.72358603434E+02  0.96902969333E+02  0.00000000000E+00 0. -1.
       -2    1    3    3    0  502  0.35342101472E+02  0.63130990386E+02  0.23929554471E+03  0.24999388753E+03  0.00000000000E+00 0.  1.
</event>
<event>
 8   1  0.2279600E-02  0.8372580E+02  0.7546771E-02  0.1319382E+00
        4   -1    0    0  501    0  0.00000000000E+00  0.00000000000E+00  0.43386251811E+02  0.43386251811E+02  0.00000000000E+00 0. -1.
       -4   -1    0    0    0  501 -0.00000000000E+00 -0.00000000000E+00 -0.30245445351E+03  0.30245445351E+03  0.00000000000E+00 0.  1.
       24    2    1    2    0    0 -0.25159414927E+02  0.32539466590E+00 -0.10461927135E+02  0.83514403632E+02  0.78943661262E+02 0.  0.
      -24    2    1    2    0    0  0.25159414927E+02 -0.32539466590E+00 -0.24860627456E+03  0.26232630169E+03  0.79855536838E+02 0.  0.
      -13    1    3    3    0    0 -0.43695805002E+02 -0.25776947094E+02 -0.43193917596E+01  0.50915926010E+02  0.00000000000E+00 0.  1.
       14    1    3    3    0    0  0.18536390076E+02  0.26102341760E+02 -0.61425353755E+01  0.32598477622E+02  0.00000000000E+00 0. -1.
        1    1    4    4  502    0  0.13434496601E+02  0.27152849293E+02 -0.33545002313E+02  0.45199890529E+02  0.00000000000E+00 0. -1.
       -2    1    4    4    0  502  0.11724918325E+02 -0.27478243958E+02 -0.21506127225E+03  0.21712641116E+03  0.00000000000E+00 0.  1.
</event>
<event>
 8   1  0.2279600E-02  0.8157812E+02  0.7546771E-02  0.1325260E+00
        2   -1    0    0  501    0  0.00000000000E+00  0.00000000000E+00  0.15067499228E+04  0.15067499228E+04  0.00000000000E+00 0. -1.
       -2   -1    0    0    0  501 -0.00000000000E+00 -0.00000000000E+00 -0.27210702857E+02  0.27210702857E+02  0.00000000000E+00 0.  1.
      -24    2    1    2    0    0  0.35181294938E+01  0.14037848729E+02  0.37703368002E+02  0.89869536570E+02  0.80284190302E+02 0.  0.
       24    2    1    2    0    0 -0.35181294938E+01 -0.14037848729E+02  0.14418358519E+04  0.14440910891E+04  0.79366310266E+02 0.  0.
      -13    1    4    4    0    0 -0.93393567870E+01  0.13070742675E+02  0.64304898686E+02  0.66281127738E+02  0.00000000000E+00 0.  1.
       14    1    4    4    0    0  0.58212272932E+01 -0.27108591404E+02  0.13775309532E+04  0.13778099613E+04  0.00000000000E+00 0. -1.
        3    1    3    3  502    0  0.16421632705E+02  0.34119116490E+02  0.50237319112E+02  0.62909239086E+02  0.00000000000E+00 0. -1.
       -4    1    3    3    0  502 -0.12903503211E+02 -0.20081267760E+02 -0.12533951111E+02  0.26960297484E+02  0.00000000000E+00 0.  1.
</event>
<event>
 8   1  0.2279600E-02  0.9862317E+02  0.7546771E-02  0.1283900E+00
       -1   -1    0    0    0  501 -0.00000000000E+00  0.00000000000E+00  0.63377862219E+01  0.63377862219E+01  0.00000000000E+00 0.  1.
        1   -1    0    0  501    0  0.00000000000E+00 -0.00000000000E+00 -0.15755434194E+04  0.15755434194E+04  0.00000000000E+00 0. -1.
       24    2    1    2    0    0 -0.33485997921E+02  0.45451591276E+02 -0.63452609287E+03  0.64214475946E+03  0.80866373524E+02 0.  0.
      -24    2    1    2    0    0  0.33485997921E+02 -0.45451591276E+02 -0.93467954029E+03  0.93973644614E+03  0.79319518164E+02 0.  0.
      -13    1    3    3    0    0 -0.49053070435E+02  0.52083727831E+02 -0.35674358623E+03  0.36384736462E+03  0.00000000000E+00 0.  1.
       14    1    3    3    0    0  0.15567072514E+02 -0.66321365552E+01 -0.27778250664E+03  0.27829739485E+03  0.00000000000E+00 0. -1.
        1    1    4    4  502    0  0.42766665498E+02 -0.56920758518E+02 -0.52669912322E+03  0.53148934781E+03  0.00000000000E+00 0. -1.
       -2    1    4    4    0  502 -0.92806675766E+01  0.11469167242E+02 -0.40798041707E+03  0.40824709833E+03  0.00000000000E+00 0.  1.
</event>
<event>
 8   1  0.2279600E-02  0.1047235E+03  0.7546771E-02  0.1271451E+00
       -1   -1    0    0    0  501 -0.00000000000E+00  0.00000000000E+00  0.16750365921E+02  0.16750365921E+02  0.00000000000E+00 0.  1.
        1   -1    0    0  501    0  0.00000000000E+00 -0.00000000000E+00 -0.69287828712E+03  0.69287828712E+03  0.00000000000E+00 0. -1.
       24    2    1    2    0    0 -0.60114044476E+00  0.67994195227E+02 -0.42903078561E+03  0.44125575166E+03  0.77560630581E+02 0.  0.
      -24    2    1    2    0    0  0.60114044476E+00 -0.67994195227E+02 -0.24709713560E+03  0.26837290139E+03  0.79645764644E+02 0.  0.
      -13    1    3    3    0    0  0.23479584526E+02 -0.53672802960E+01 -0.70361706362E+02  0.74369807781E+02  0.00000000000E+00 0.  1.
       14    1    3    3    0    0 -0.24080724970E+02  0.73361475523E+02 -0.35866907925E+03  0.36688594387E+03  0.00000000000E+00 0. -1.
        1    1    4    4  502    0 -0.29320700335E+02 -0.26401417164E+01 -0.10614156208E+03  0.11014855885E+03  0.00000000000E+00 0. -1.
       -2    1    4    4    0  502  0.29921840780E+02 -0.65354053510E+02 -0.14095557352E+03  0.15822434254E+03  0.00000000000E+00 0.  1.
</event>
<event>
 8   1  0.2279600E-02  0.8478224E+02  0.7546771E-02  0.1316275E+00
        2   -1    0    0  501    0  0.00000000000E+00  0.00000000000E+00  0.31809491674E+03  0.31809491674E+03  0.00000000000E+00 0. -1.
       -2   -1    0    0    0  501 -0.00000000000E+00 -0.00000000000E+00 -0.83336574311E+02  0.83336574311E+02  0.00000000000E+00 0.  1.
      -24    2    1    2    0    0  0.25427857121E+02 -0.11367785408E+01 -0.54208915103E+02  0.10028351277E+03  0.80438226447E+02 0.  0.
       24    2    1    2    0    0 -0.25427857121E+02  0.11367785408E+01  0.28896725753E+03  0.30114797827E+03  0.80871260112E+02 0.  0.
      -13    1    4    4    0    0 -0.97440795486E+01 -0.39048257787E+02  0.11240851747E+03  0.11939593093E+03  0.00000000000E+00 0.  1.
       14    1    4    4    0    0 -0.15683777573E+02  0.40185036327E+02  0.17655874006E+03  0.18175204734E+03  0.00000000000E+00 0. -1.
        3    1    3    3  502    0  0.35977186705E+02 -0.25035349921E+02 -0.59228052047E+02  0.73682351062E+02  0.00000000000E+00 0. -1.
       -4    1    3    3    0  502 -0.10549329584E+02  0.23898571380E+02  0.50191369431E+01  0.26601161710E+02  0.00000000000E+00 0.  1.
</event>
<event>
 8   1  0.2279600E-02  0.1612769E+03  0.7546771E-02  0.1187663E+00
        1   -1    0    0  501    0  0.00000000000E+00  0.00000000000E+00  0.40083115254E+03  0.40083115254E+03  0.00000000000E+00 0. -1.
       -1   -1    0    0    0  501 -0.00000000000E+00 -0.00000000000E+00 -0.65686330419E+02  0.65686330419E+02  0.00000000000E+00 0.  1.
       24    2    1    2    0    0 -0.62686527662E+02  0.12437990468E+03  0.13317713421E+03  0.20805822554E+03  0.78435417375E+02 0.  0.
      -24    2    1    2    0    0  0.62686527662E+02 -0.12437990468E+03  0.20196768791E+03  0.25845925742E+03  0.81303624452E+02 0.  0.
      -13    1    3    3    0    0 -0.63806333194E+02  0.11536662793E+03  0.80212099908E+02  0.15432008284E+03  0.00000000000E+00 0.  1.
       14    1    3    3    0    0  0.11198055325E+01  0.90132767523E+01  0.52965034303E+02  0.53738142701E+02  0.00000000000E+00 0. -1.
        3    1    4    4  502    0  0.65982881357E+02 -0.54095721031E+02  0.76438153586E+02  0.11455513515E+03  0.00000000000E+00 0. -1.
       -4    1    4    4    0  502 -0.32963536951E+01 -0.70284183647E+02  0.12552953432E+03  0.14390412227E+03  0.00000000000E+00 0.  1.
</event>
<event>
 8   1  0.2279600E-02  0.1058910E+03  0.7546771E-02  0.1273516E+00
       -2   -1    0    0    0  501 -0.00000000000E+00  0.00000000000E+00  0.32058118228E+03  0.32058118228E+03  0.00000000000E+00 0.  1.
        2   -1    0    0  501    0  0.00000000000E+00 -0.00000000000E+00 -0.37354544679E+02  0.37354544679E+02  0.00000000000E+00 0. -1.
      -24    2    1    2    0    0 -0.63453997775E+02 -0.21818772275E+02  0.21683977082E+03  0.24131388918E+03  0.81917264631E+02 0.  0.
       24    2    1    2    0    0  0.63453997775E+02  0.21818772275E+02  0.66386866785E+02  0.11662183778E+03  0.68490643954E+02 0.  0.
      -13    1    4    4    0    0  0.45378157338E+02  0.41756971699E+02  0.23505405783E+02  0.65994893362E+02  0.00000000000E+00 0.  1.
       14    1    4    4    0    0  0.18075840437E+02 -0.19938199424E+02  0.42881461002E+02  0.50626944421E+02  0.00000000000E+00 0. -1.
        3    1    3    3  502    0 -0.48562492918E+02 -0.37531674199E+02  0.70890517864E+02  0.93767839954E+02  0.00000000000E+00 0. -1.
       -4    1    3    3    0  502 -0.14891504857E+02  0.15712901924E+02  0.14594925295E+03  0.14754604922E+03  0.00000000000E+00 0.  1.
</event>
<event>
 8   1  0.2279600E-02  0.8570807E+02  0.7546771E-02  0.1317802E+00
       -2   -1    0    0    0  501 -0.00000000000E+00  0.00000000000E+00  0.12742873455E+02  0.12742873455E+02  0.00000000000E+00 0.  1.
        2   -1    0    0  501    0  0.00000000000E+00 -0.00000000000E+00 -0.88831860519E+03  0.88831860519E+03  0.00000000000E+00 0. -1.
      -24    2    1    2    0    0 -0.57166446605E+01 -0.23482283037E+02 -0.14386575465E+03  0.16434893998E+03  0.75690957639E+02 0.  0.
       24    2    1    2    0    0  0.57166446605E+01  0.23482283037E+02 -0.73170997708E+03  0.73671253866E+03  0.82230021409E+02 0.  0.
      -13    1    4    4    0    0  0.42320026963E+02  0.23579591309E+01 -0.30860319682E+03  0.31150036556E+03  0.00000000000E+00 0.  1.
       14    1    4    4    0    0 -0.36603382303E+02  0.21124323906E+02 -0.42310678026E+03  0.42521217310E+03  0.00000000000E+00 0. -1.
        1    1    3    3  502    0  0.96909171048E+01  0.11937628568E+02 -0.11526702011E+03  0.11628803368E+03  0.00000000000E+00 0. -1.
       -2    1    3    3    0  502 -0.15407561765E+02 -0.35419911605E+02 -0.28598734538E+02  0.48060906305E+02  0.00000000000E+00 0.  1.
</event>
<event>
 8   1  0.2279600E-02  0.8163776E+02  0.7546771E-02  0.1324774E+00
        1   -1    0    0  501    0  0.00000000000E+00  0.00000000000E+00  0.63262349627E+03  0.63262349627E+03  0.00000000000E+00 0. -1.
       -1   -1    0    0    0  501 -0.00000000000E+00 -0.00000000000E+00 -0.12441169932E+02  0.12441169932E+02  0.00000000000E+00 0.  1.
       24    2    1    2    0    0 -0.44610219260E+01 -0.15400187411E+01  0.18125168948E+03  0.19860657431E+03  0.81056301703E+02 0.  0.
      -24    2    1    2    0    0  0.44610219260E+01  0.15400187411E+01  0.43893063685E+03  0.44645809189E+03  0.81501235993E+02 0.  0.
      -13    1    3    3    0    0 -0.19407226926E+02 -0.34064425835E+02  0.13215161736E+03  0.13784438884E+03  0.00000000000E+00 0.  1.
       14    1    3    3    0    0  0.14946205000E+02  0.32524407094E+02  0.49100072120E+02  0.60762185469E+02  0.00000000000E+00 0. -1.
        1    1    4    4  502    0  0.29140306152E+01  0.31772858443E+02  0.78187078222E+02  0.84446582577E+02  0.00000000000E+00 0. -1.
       -2    1    4    4    0  502  0.15469913108E+01 -0.30232839702E+02  0.36074355863E+03  0.36201150931E+03  0.00000000000E+00 0.  1.
</event>
<event>
 8   1  0.2279600E-02  0.1288389E+03  0.7546771E-02  0.1238736E+00
       -2   -1    0    0    0  501 -0.00000000000E+00  0.00000000000E+00  0.11232657931E+02  0.11232657931E+02  0.00000000000E+00 0.  1.
        2   -1    0    0  501    0  0.00000000000E+00 -0.00000000000E+00 -0.12266435695E+04  0.12266435695E+04  0.00000000000E+00 0. -1.
      -24    2    1    2    0    0  0.63336063701E+02  0.27103862565E+02 -0.66570927743E+03  0.67806216167E+03  0.10887321389E+03 0.  0.
       24    2    1    2    0    0 -0.63336063701E+02 -0.27103862565E+02 -0.54970163414E+03  0.55981406576E+03  0.80460085241E+02 0.  0.
      -13    1    4    4    0    0 -0.43755294578E+02  0.17628200647E+02 -0.15269161831E+03  0.15981241993E+03  0.00000000000E+00 0.  1.
       14    1    4    4    0    0 -0.19580769124E+02 -0.44732063212E+02 -0.39701001583E+03  0.40000164583E+03  0.00000000000E+00 0. -1.
        3    1    3    3  502    0 -0.42284756026E+01 -0.29146548159E+01 -0.45009802247E+03  0.45012732093E+03  0.00000000000E+00 0. -1.
       -4    1    3    3    0  502  0.67564539304E+02  0.30018517381E+02 -0.21561125496E+03  0.22793484074E+03  0.00000000000E+00 0.  1.
</event>
<event>
 8   1  0.2279600E-02  0.1059775E+03  0.7546771E-02  0.1269791E+00
        2   -1    0    0  501    0  0.00000000000E+00  0.00000000000E+00  0.18397335881E+04  0.18397335881E+04  0.00000000000E+00 0. -1.
       -2   -1    0    0    0  501 -0.00000000000E+00 -0.00000000000E+00 -0.68850624208E+01  0.68850624208E+01  0.00000000000E+00 0.  1.
       24    2    1    2    0    0 -0.21145926401E+02 -0.62755797067E+02  0.12738767545E+04  0.12782774372E+04  0.82739232220E+02 0.  0.
      -24    2    1    2    0    0  0.21145926401E+02  0.62755797067E+02  0.55897177119E+03  0.56834121332E+03  0.78592960925E+02 0.  0.
      -13    1    3    3    0    0 -0.39363767876E+02 -0.14356266768E+02  0.28654007521E+03  0.28958733280E+03  0.00000000000E+00 0.  1.
       14    1    3    3    0    0  0.18217841475E+02 -0.48399530299E+02  0.98733667925E+03  0.98869010437E+03  0.00000000000E+00 0. -1.
        3    1    4    4  502    0  0.37961364228E+02  0.20812978810E+02  0.41958670085E+03  0.42181423019E+03  0.00000000000E+00 0. -1.
       -4    1    4    4    0  502 -0.16815437827E+02  0.41942818257E+02  0.13938507034E+03  0.14652698313E+03  0.00000000000E+00 0.  1.
</event>
<event>
 8   1  0.2279600E-02  0.1700146E+03  0.7546771E-02  0.1178059E+00
       -2   -1    0    0    0  501 -0.00000000000E+00  0.00000000000E+00  0.32777560053E+02  0.32777560053E+02  0.00000000000E+00 0.  1.
        2   -1    0    0  501    0  0.00000000000E+00 -0.00000000000E+00 -0.11461251311E+04  0.11461251311E+04  0.00000000000E+00 0. -1.
      -24    2    1    2    0    0  0.10533362310E+03 -0.10557903679E+03 -0.27015003224E+03  0.31873582258E+03  0.79808392472E+02 0.  0.
       24    2    1    2    0    0 -0.10533362310E+03  0.10557903679E+03 -0.84319753877E+03  0.86016686854E+03  0.81626265274E+02 0.  0.
      -13    1    4    4    0    0 -0.53088431059E+02  0.24907302348E+01 -0.31728586161E+03  0.32170623747E+03  0.00000000000E+00 0.  1.
       14    1    4    4    0    0 -0.52245192038E+02  0.10308830656E+03 -0.52591167716E+03  0.53846063107E+03  0.00000000000E+00 0. -1.
        1    1    3    3  502    0  0.24948221691E+02  0.87488285034E+01 -0.24152385496E+02  0.35809125805E+02  0.00000000000E+00 0. -1.
       -2    1    3    3    0  502  0.80385401406E+02 -0.11432786530E+03 -0.24599764675E+03  0.28292669677E+03  0.00000000000E+00 0.  1.
</event>
<event>
 8   1  0.2279600E-02  0.8134446E+02  0.7546771E-02  0.1326832E+00
        2   -1    0    0  501    0  0.00000000000E+00  0.00000000000E+00  0.77685298030E+02  0.77685298030E+02  0.00000000000E+00 0. -1.
       -2   -1    0    0    0  501 -0.00000000000E+00 -0.00000000000E+00 -0.83049552146E+02  0.83049552146E+02  0.00000000000E+00 0.  1.
      -24    2    1    2    0    0 -0.11576752647E+02  0.67278039236E+00  0.88795791167E+00  0.81349305242E+02  0.80513645792E+02 0.  0.
       24    2    1    2    0    0  0.11576752647E+02 -0.67278039236E+00 -0.62522120273E+01  0.79385544935E+02  0.78284741515E+02 0.  0.
      -13    1    4    4    0    0  0.22070937512E+02  0.30947151081E+02 -0.20458590488E+02  0.43167190868E+02  0.00000000000E+00 0.  1.
       14    1    4    4    0    0 -0.10494184865E+02 -0.31619931473E+02  0.14206378460E+02  0.36218354067E+02  0.00000000000E+00 0. -1.
        1    1    3    3  502    0 -0.44604945660E+02 -0.11192367453E+02  0.37355816824E+01  0.46139189817E+02  0.00000000000E+00 0. -1.
       -2    1    3    3    0  502  0.33028193012E+02  0.11865147845E+02 -0.28476237707E+01  0.35210115424E+02  0.00000000000E+00 0.  1.
</event>
<event>
 8   1  0.2279600E-02  0.8817575E+02  0.7546771E-02  0.1308202E+00
        3   -1    0    0  501    0  0.00000000000E+00  0.00000000000E+00  0.50763365347E+02  0.50763365347E+02  0.00000000000E+00 0. -1.
       -3   -1    0    0    0  501 -0.00000000000E+00 -0.00000000000E+00 -0.15250950088E+03  0.15250950088E+03  0.00000000000E+00 0.  1.
       24    2    1    2    0    0  0.29273356913E+02  0.14969570824E+02 -0.39588094745E+02  0.95390596798E+02  0.80318934482E+02 0.  0.
      -24    2    1    2    0    0 -0.29273356913E+02 -0.14969570824E+02 -0.62158040786E+02  0.10788226943E+03  0.81816529790E+02 0.  0.
      -13    1    3    3    0    0  0.23317603866E+02 -0.18196243684E+02 -0.51717407494E+02  0.59577715399E+02  0.00000000000E+00 0.  1.
       14    1    3    3    0    0  0.59557530467E+01  0.33165814508E+02  0.12129312749E+02  0.35812881399E+02  0.00000000000E+00 0. -1.
        3    1    4    4  502    0 -0.45030472303E+02  0.18163938424E+02 -0.48787808020E+02  0.68832567192E+02  0.00000000000E+00 0. -1.
       -4    1    4    4    0  502  0.15757115390E+02 -0.33133509248E+02 -0.13370232766E+02  0.39049702235E+02  0.00000000000E+00 0.  1.
</event>
<event>
 8   1  0.2279600E-02  0.8356769E+02  0.7546771E-02  0.1320182E+00
        2   -1    0    0  501    0  0.00000000000E+00  0.00000000000E+00  0.23687967229E+03  0.23687967229E+03  0.00000000000E+00 0. -1.
       -2   -1    0    0    0  501 -0.00000000000E+00 -0.00000000000E+00 -0.30063405434E+02  0.30063405434E+02  0.00000000000E+00 0.  1.
       24    2    1    2    0    0  0.21004244753E+02  0.12062371950E+02  0.12957970952E+03  0.15418968878E+03  0.79980496945E+02 0.  0.
      -24    2    1    2    0    0 -0.21004244753E+02 -0.12062371950E+02  0.77236557344E+02  0.11275338895E+03  0.78493068582E+02 0.  0.
      -13    1    3    3    0    0 -0.90988296736E+01  0.29033675195E+02  0.13885696628E+02  0.33444813762E+02  0.00000000000E+00 0.  1.
       14    1    3    3    0    0  0.30103074427E+02 -0.16971303245E+02  0.11569401289E+03  0.12074487501E+03  0.00000000000E+00 0. -1.
        3    1    4    4  502    0 -0.32410188886E+02 -0.38080083083E+02  0.64519196515E+02  0.81628670149E+02  0.00000000000E+00 0. -1.
       -4    1    4    4    0  502  0.11405944133E+02  0.26017711134E+02  0.12717360829E+02  0.31124718804E+02  0.00000000000E+00 0.  1.
</event>
<event>
 8   1  0.2279600E-02  0.1094733E+03  0.7546771E-02  0.1261647E+00
        3   -1    0    0  501    0  0.00000000000E+00  0.00000000000E+00  0.23007438367E+02  0.23007438367E+02  0.00000000000E+00 0. -1.
       -3   -1    0    0    0  501 -0.00000000000E+00 -0.00000000000E+00 -0.74827067536E+03  0.74827067536E+03  0.00000000000E+00 0.  1.
       24    2    1    2    0    0 -0.75025389711E+02 -0.85118297726E+01 -0.57592437982E+03  0.58623655998E+03  0.79266339923E+02 0.  0.
      -24    2    1    2    0    0  0.75025389711E+02  0.85118297726E+01 -0.14933885717E+03  0.18504155374E+03  0.78974818786E+02 0.  0.
      -13    1    3    3    0    0 -0.70972911532E+02  0.19394608718E+02 -0.49719509120E+03  0.50260945448E+03  0.00000000000E+00 0.  1.
       14    1    3    3    0    0 -0.40524781794E+01 -0.27906438490E+02 -0.78729288612E+02  0.83627105498E+02  0.00000000000E+00 0. -1.
        1    1    4    4  502    0  0.51294342754E+02  0.23343047524E+01 -0.22857841782E+02  0.56205333449E+02  0.00000000000E+00 0. -1.
       -2    1    4    4    0  502  0.23731046958E+02  0.61775250202E+01 -0.12648101539E+03  0.12883622029E+03  0.00000000000E+00 0.  1.
</event>
<event>
 8   1  0.2279600E-02  0.1317208E+03  0.7546771E-02  0.1225801E+00
        1   -1    0    0  501    0  0.00000000000E+00  0.00000000000E+00  0.15222801657E+03  0.15222801657E+03  0.00000000000E+00 0. -1.
       -1   -1    0    0    0  501 -0.00000000000E+00 -0.00000000000E+00 -0.14733627052E+03  0.14733627052E+03  0.00000000000E+00 0.  1.
       24    2    1    2    0    0  0.90879724821E+02  0.46664697684E+02 -0.70999517417E+02  0.14754505711E+03  0.79321459964E+02 0.  0.
      -24    2    1    2    0    0 -0.90879724821E+02 -0.46664697684E+02  0.75891263464E+02  0.15201922998E+03  0.83148325424E+02 0.  0.
      -13    1    3    3    0    0  0.63463440477E+02 -0.10209991754E+02 -0.48478189786E+02  0.80510788680E+02  0.00000000000E+00 0.  1.
       14    1    3    3    0    0  0.27416284343E+02  0.56874689438E+02 -0.22521327631E+02  0.67034268431E+02  0.00000000000E+00 0. -1.
        3    1    4    4  502    0 -0.98251828414E+02 -0.60950432020E+02  0.67553897109E+02  0.13391006670E+03  0.00000000000E+00 0. -1.
       -4    1    4    4    0  502  0.73721035931E+01  0.14285734336E+02  0.83373663549E+01  0.18109163278E+02  0.00000000000E+00 0.  1.
</event>
<event>
 8   1  0.2279600E-02  0.1092166E+03  0.7546771E-02  0.1262173E+00
       -2   -1    0    0    0  501 -0.00000000000E+00  0.00000000000E+00  0.18057492885E+02  0.18057492885E+02  0.00000000000E+00 0.  1.
        2   -1    0    0  501    0  0.00000000000E+00 -0.00000000000E+00 -0.18356465848E+04  0.18356465848E+04  0.00000000000E+00 0. -1.
       24    2    1    2    0    0 -0.17922987218E+02 -0.71779648566E+02 -0.16504865705E+04  0.16540756347E+04  0.79917046862E+02 0.  0.
      -24    2    1    2    0    0  0.17922987218E+02  0.71779648566E+02 -0.16710252141E+03  0.19962844301E+03  0.80341217189E+02 0.  0.
      -13    1    3    3    0    0  0.61608292844E+01  0.60946929077E+01 -0.71281523502E+03  0.71286791229E+03  0.00000000000E+00 0.  1.
       14    1    3    3    0    0 -0.24083816502E+02 -0.77874341474E+02 -0.93767133547E+03  0.94120772237E+03  0.00000000000E+00 0. -1.
        1    1    4    4  502    0 -0.16046031822E+02 -0.85352062737E+01 -0.12273262162E+02  0.21930751183E+02  0.00000000000E+00 0. -1.
       -2    1    4    4    0  502  0.33969019040E+02  0.80314854840E+02 -0.15482925925E+03  0.17769769183E+03  0.00000000000E+00 0.  1.
</event>
<event>
 8   1  0.2279600E-02  0.9113902E+02  0.7546771E-02  0.1300265E+00
       -3   -1    0    0    0  501 -0.00000000000E+00  0.00000000000E+00  0.15751982207E+03  0.15751982207E+03  0.00000000000E+00 0.  1.
        3   -1    0    0  501    0  0.00000000000E+00 -0.00000000000E+00 -0.61865452507E+02  0.61865452507E+02  0.00000000000E+00 0. -1.
       24    2    1    2    0    0  0.30037832391E+02 -0.30512887582E+02  0.90361717327E+02  0.12834157846E+03  0.80455037872E+02 0.  0.
      -24    2    1    2    0    0 -0.30037832391E+02  0.30512887582E+02  0.52926522371E+01  0.91043696123E+02  0.80172531161E+02 0.  0.
      -13    1    3    3    0    0  0.84475215538E+01 -0.54508555605E+02  0.38541956171E+02  0.67290605882E+02  0.00000000000E+00 0.  1.
       14    1    3    3    0    0  0.21590310837E+02  0.23995668023E+02  0.51819761157E+02  0.61050972574E+02  0.00000000000E+00 0. -1.
        1    1    4    4  502    0  0.79290704707E+01  0.43672003667E+02 -0.13901635265E+02  0.46512036355E+02  0.00000000000E+00 0. -1.
       -2    1    4    4    0  502 -0.37966902861E+02 -0.13159116085E+02  0.19194287502E+02  0.44531659768E+02  0.00000000000E+00 0.  1.
</event>
<event>
 8   1  0.2279600E-02  0.9469123E+02  0.7546771E-02  0.1293984E+00
       -2   -1    0    0    0  501 -0.00000000000E+00  0.00000000000E+00  0.27800340432E+02  0.27800340432E+02  0.00000000000E+00 0.  1.
        2   -1    0    0  501    0  0.00000000000E+00 -0.00000000000E+00 -0.52607083843E+03  0.52607083843E+03  0.00000000000E+00 0. -1.
      -24    2    1    2    0    0  0.13475255019E+02 -0.41332566007E+02 -0.74647041192E+02  0.12057615967E+03  0.84121733284E+02 0.  0.
       24    2    1    2    0    0 -0.13475255019E+02  0.41332566007E+02 -0.42362345681E+03  0.43329501920E+03  0.79986104994E+02 0.  0.
      -13    1    4    4    0    0  0.31475701198E+02  0.25442413070E+02 -0.14162013076E+03  0.14728984209E+03  0.00000000000E+00 0.  1.
       14    1    4    4    0    0 -0.44950956217E+02  0.15890152936E+02 -0.28200332605E+03  0.28600517710E+03  0.00000000000E+00 0. -1.
        3    1    3    3  502    0 -0.60207870193E+01  0.24396375452E+02 -0.28164937241E+02  0.37745154673E+02  0.00000000000E+00 0. -1.
       -4    1    3    3    0  502  0.19496042039E+02 -0.65728941459E+02 -0.46482103951E+02  0.82831004993E+02  0.00000000000E+00 0.  1.
</event>
<event>
 8   1  0.2279600E-02  0.1120153E+03  0.7546771E-02  0.1257889E+00
        2   -1    0    0  501    0  0.00000000000E+00  0.00000000000E+00  0.26518935284E+04  0.26518935284E+04  0.00000000000E+00 0. -1.
       -2   -1    0    0    0  501 -0.00000000000E+00 -0.00000000000E+00 -0.54571382491E+01  0.54571382491E+01  0.00000000000E+00 0.  1.
      -24    2    1    2    0    0  0.73503564482E+02  0.38799986980E+02  0.81992418976E+03  0.82754039622E+03  0.75094723229E+02 0.  0.
       24    2    1    2    0    0 -0.73503564482E+02 -0.38799986980E+02  0.18265122004E+04  0.18298102704E+04  0.71767642954E+02 0.  0.
      -13    1    4    4    0    0  0.47739203828E+01 -0.37170281704E+01  0.13781546387E+02  0.15051167233E+02  0.00000000000E+00 0.  1.
       14    1    4    4    0    0 -0.78277484865E+02 -0.35082958809E+02  0.18127306540E+04  0.18147591032E+04  0.00000000000E+00 0. -1.
        3    1    3    3  502    0  0.27650029028E+02 -0.17386252185E+02  0.40594926657E+03  0.40726111144E+03  0.00000000000E+00 0. -1.
       -4    1    3    3    0  502  0.45853535454E+02  0.56186239164E+02  0.41397492319E+03  0.42027928478E+03  0.00000000000E+00 0.  1.
</event>
<event>
 8   1  0.2279600E-02  0.1052203E+03  0.7546771E-02  0.1270159E+00
        3   -1    0    0  501    0  0.00000000000E+00  0.00000000000E+00  0.51125914360E+03  0.51125914360E+03  0.00000000000E+00 0. -1.
       -3   -1    0    0    0  501 -0.00000000000E+00 -0.00000000000E+00 -0.29809467370E+02  0.29809467370E+02  0.00000000000E+00 0.  1.
       24    2    1    2    0    0 -0.64883851176E+02 -0.14740134096E+02  0.98326377460E+02  0.14401176990E+03  0.81511518619E+02 0.  0.
      -24    2    1    2    0    0  0.64883851176E+02  0.14740134096E+02  0.38312329877E+03  0.39705684107E+03  0.80271335395E+02 0.  0.
      -13    1    3    3    0    0 -0.62848974194E+02  0.20181561928E+02  0.43766701518E+02  0.79201093180E+02  0.00000000000E+00 0.  1.
       14    1    3    3    0    0 -0.20348769823E+01 -0.34921696024E+02  0.54559675942E+02  0.64810676716E+02  0.00000000000E+00 0. -1.
        1    1    4    4  502    0  0.27027478975E+01 -0.27993026532E+02  0.84867900920E+02  0.89406235729E+02  0.00000000000E+00 0. -1.
       -2    1    4    4    0  502  0.62181103279E+02  0.42733160628E+02  0.29825539785E+03  0.30765060534E+03  0.00000000000E+00 0.  1.
</event>
<event>
 8   1  0.2279600E-02  0.1025570E+03  0.7546771E-02  0.1275567E+00
       -1   -1    0    0    0  501 -0.00000000000E+00  0.00000000000E+00  0.60756003185E+03  0.60756003185E+03  0.00000000000E+00 0.  1.
        1   -1    0    0  501    0  0.00000000000E+00 -0.00000000000E+00 -0.22916331521E+02  0.22916331521E+02  0.00000000000E+00 0. -1.
       24    2    1    2    0    0 -0.48117703541E+01 -0.62175495341E+02  0.45192436422E+03  0.46341512516E+03  0.81418682706E+02 0.  0.
      -24    2    1    2    0    0  0.48117703541E+01  0.62175495341E+02  0.13271933610E+03  0.16706123821E+03  0.80038052081E+02 0.  0.
      -13    1    3    3    0    0  0.71799663052E+01  0.17381835192E+02  0.47936513581E+02  0.51493586446E+02  0.00000000000E+00 0.  1.
       14    1    3    3    0    0 -0.11991736659E+02 -0.79557330533E+02  0.40398785064E+03  0.41192153871E+03  0.00000000000E+00 0. -1.
        1    1    4    4  502    0  0.15167805793E+02 -0.11965754705E+02  0.58650291925E+02  0.61750290372E+02  0.00000000000E+00 0. -1.
       -2    1    4    4    0  502 -0.10356035439E+02  0.74141250046E+02  0.74069044177E+02  0.10531094783E+03  0.00000000000E+00 0.  1.
</event>
<event>
 8   1  0.2279600E-02  0.8776629E+02  0.7546771E-02  0.1311711E+00
       -1   -1    0    0    0  501 -0.00000000000E+00  0.00000000000E+00  0.99401174847E+02  0.99401174847E+02  0.00000000000E+00 0.  1.
        1   -1    0    0  501    0  0.00000000000E+00 -0.00000000000E+00 -0.14680474798E+03  0.14680474798E+03  0.00000000000E+00 0. -1.
       24    2    1    2    0    0 -0.11377577410E+01 -0.19932888426E+02  0.63216799879E+02  0.10816323469E+03  0.85465238656E+02 0.  0.
      -24    2    1    2    0    0  0.11377577410E+01  0.19932888426E+02 -0.11062037301E+03  0.13804268813E+03  0.80126788831E+02 0.  0.
      -13    1    3    3    0    0 -0.34341808365E+02 -0.35685763943E+02  0.26317536842E+02  0.56084278505E+02  0.00000000000E+00 0.  1.
       14    1    3    3    0    0  0.33204050624E+02  0.15752875518E+02  0.36899263037E+02  0.52078956188E+02  0.00000000000E+00 0. -1.
        3    1    4    4  502    0  0.40168114159E+02  0.10668064036E+02 -0.66435772961E+02  0.78364513105E+02  0.00000000000E+00 0. -1.
       -4    1    4    4    0  502 -0.39030356418E+02  0.92648243902E+01 -0.44184600052E+02  0.59678175030E+02  0.00000000000E+00 0.  1.
</event>
<event>
 8   1  0.2279600E-02  0.9664974E+02  0.7546771E-02  0.1288802E+00
        1   -1    0    0  501    0  0.00000000000E+00  0.00000000000E+00  0.21284941547E+04  0.21284941547E+04  0.00000000000E+00 0. -1.
       -1   -1    0    0    0  501 -0.00000000000E+00 -0.00000000000E+00 -0.64483430750E+01  0.64483430750E+01  0.00000000000E+00 0.  1.
       24    2    1    2    0    0 -0.35739986017E+02 -0.38737917739E+02  0.43393605682E+03  0.44406825173E+03  0.78218526695E+02 0.  0.
      -24    2    1    2    0    0  0.35739986017E+02  0.38737917739E+02  0.16881097548E+04  0.16908742460E+04  0.81013571613E+02 0.  0.
      -13    1    3    3    0    0 -0.39472287312E+02 -0.58859365054E+02  0.37608784902E+03  0.38270688066E+03  0.00000000000E+00 0.  1.
       14    1    3    3    0    0  0.37323012946E+01  0.20121447315E+02  0.57848207792E+02  0.61361371071E+02  0.00000000000E+00 0. -1.
        3    1    4    4  502    0 -0.24089018464E+02  0.59088641120E+00  0.57548711113E+03  0.57599135848E+03  0.00000000000E+00 0. -1.
       -4    1    4    4    0  502  0.59829004481E+02  0.38147031328E+02  0.11126226436E+04  0.11148828875E+04  0.00000000000E+00 0.  1.
</event>
<event>
 8   1  0.2279600E-02  0.9103740E+02  0.7546771E-02  0.1300467E+00
       -2   -1    0    0    0  501 -0.00000000000E+00  0.00000000000E+00  0.70022864201E+02  0.70022864201E+02  0.00000000000E+00 0.  1.
        2   -1    0    0  501    0  0.00000000000E+00 -0.00000000000E+00 -0.14495284992E+03  0.14495284992E+03  0.00000000000E+00 0. -1.
      -24    2    1    2    0    0  0.27936431716E+02 -0.24962023904E+02  0.87488090044E+01  0.91456824569E+02  0.82971454410E+02 0.  0.
       24    2    1    2    0    0 -0.27936431716E+02  0.24962023904E+02 -0.83678794728E+02  0.12351888956E+03  0.82772148309E+02 0.  0.
      -13    1    4    4    0    0  0.17674185474E+02 -0.99295181357E+01 -0.56420252329E+02  0.59951789260E+02  0.00000000000E+00 0.  1.
       14    1    4    4    0    0 -0.45610617190E+02  0.34891542039E+02 -0.27258542399E+02  0.63567100296E+02  0.00000000000E+00 0. -1.
        3    1    3    3  502    0 -0.24710020736E+02  0.10039042256E+02  0.92656082708E+01  0.28235066687E+02  0.00000000000E+00 0. -1.
       -4    1    3    3    0  502  0.52646452453E+02 -0.35001066160E+02 -0.51679926636E+00  0.63221757882E+02  0.00000000000E+00 0.  1.
</event>
<event>
 8   1  0.2279600E-02  0.8529074E+02  0.7546771E-02  0.1315311E+00
       -1   -1    0    0    0  501 -0.00000000000E+00  0.00000000000E+00  0.13656173498E+03  0.13656173498E+03  0.00000000000E+00 0.  1.
        1   -1    0    0  501    0  0.00000000000E+00 -0.00000000000E+00 -0.86722987110E+02  0.86722987110E+02  0.00000000000E+00 0. -1.
       24    2    1    2    0    0 -0.25682018851E+02 -0.51647363700E+01  0.94971203784E+02  0.12764810701E+03  0.81168153116E+02 0.  0.
      -24    2    1    2    0    0  0.25682018851E+02  0.51647363700E+01 -0.45132455917E+02  0.95636615079E+02  0.80144762603E+02 0.  0.
      -13    1    3    3    0    0 -0.26373868062E+02  0.19522554120E+02  0.97450865629E+02  0.10282695292E+03  0.00000000000E+00 0.  1.
       14    1    3    3    0    0  0.69184921165E+00 -0.24687290490E+02 -0.24796618452E+01  0.24821154082E+02  0.00000000000E+00 0. -1.
        3    1    4    4  502    0  0.49045890630E+02 -0.16836342202E+02 -0.23482897883E+02  0.56924584314E+02  0.00000000000E+00 0. -1.
       -4    1    4    4    0  502 -0.23363871779E+02  0.22001078572E+02 -0.21649558035E+02  0.38712030765E+02  0.00000000000E+00 0.  1.
</event>
<event>
 8   1  0.2279600E-02  0.8749585E+02  0.7546771E-02  0.1312184E+00
        2   -1    0    0  501    0  0.00000000000E+00  0.00000000000E+00  0.37971706963E+02  0.37971706963E+02  0.00000000000E+00 0. -1.
       -2   -1    0    0    0  501 -0.00000000000E+00 -0.00000000000E+00 -0.28664176357E+03  0.28664176357E+03  0.00000000000E+00 0.  1.
       24    2    1    2    0    0  0.32750094754E+02  0.11522431932E+02 -0.28032214490E+02  0.87260187048E+02  0.74987999376E+02 0.  0.
      -24    2    1    2    0    0 -0.32750094754E+02 -0.11522431932E+02 -0.22063784212E+03  0.23735328349E+03  0.80313066578E+02 0.  0.
      -13    1    3    3    0    0  0.77818813291E+01  0.11154914017E+02 -0.51334342987E+02  0.53105598139E+02  0.00000000000E+00 0.  1.
       14    1    3    3    0    0  0.24968213425E+02  0.36751791500E+00  0.23302128497E+02  0.34154588909E+02  0.00000000000E+00 0. -1.
        1    1    4    4  502    0  0.26205658343E+02 -0.10441907064E+02 -0.62176841009E+02  0.68276859258E+02  0.00000000000E+00 0. -1.
       -2    1    4    4    0  502 -0.58955753097E+02 -0.10805248687E+01 -0.15846100111E+03  0.16907642423E+03  0.00000000000E+00 0.  1.
</event>
<event>
 8   1  0.2279600E-02  0.8510255E+02  0.7546771E-02  0.1315568E+00
       -2   -1    0    0    0  501 -0.00000000000E+00  0.00000000000E+00  0.78008985542E+03  0.78008985542E+03  0.00000000000E+00 0.  1.
        2   -1    0    0  501    0  0.00000000000E+00 -0.00000000000E+00 -0.99112263627E+01  0.99112263627E+01  0.00000000000E+00 0. -1.
      -24    2    1    2    0    0  0.28275092719E+02  0.53025465254E+01  0.49092087941E+03  0.49824266622E+03  0.80092738347E+02 0.  0.
       24    2    1    2    0    0 -0.28275092719E+02 -0.53025465254E+01  0.27925774965E+03  0.29175841557E+03  0.79438557667E+02 0.  0.
      -13    1    4    4    0    0 -0.44394595879E+02  0.14243724279E+02  0.95619591806E+02  0.10638077910E+03  0.00000000000E+00 0.  1.
       14    1    4    4    0    0  0.16119503160E+02 -0.19546270804E+02  0.18363815785E+03  0.18537763647E+03  0.00000000000E+00 0. -1.
        1    1    3    3  502    0  0.43723244163E+02 -0.44821714448E+01  0.13760658044E+03  0.14445547038E+03  0.00000000000E+00 0. -1.
       -2    1    3    3    0  502 -0.15448151444E+02  0.97847179701E+01  0.35331429896E+03  0.35378719584E+03  0.00000000000E+00 0.  1.
</event>
<event>
 8   1  0.2279600E-02  0.1088945E+03  0.7546771E-02  0.1265062E+00
        2   -1    0    0  501    0  0.00000000000E+00  0.00000000000E+00  0.25187320747E+04  0.25187320747E+04  0.00000000000E+00 0. -1.
       -2   -1    0    0    0  501 -0.00000000000E+00 -0.00000000000E+00 -0.76780868081E+01  0.76780868081E+01  0.00000000000E+00 0.  1.
       24    2    1    2    0    0  0.19282471429E+02  0.63624573334E+02  0.45939215092E+03  0.47212196782E+03  0.86244444115E+02 0.  0.
      -24    2    1    2    0    0 -0.19282471429E+02 -0.63624573334E+02  0.20516618369E+04  0.20542881937E+04  0.79773362581E+02 0.  0.
      -13    1    3    3    0    0 -0.18356858621E+02  0.15044514797E+02  0.30538595332E+03  0.30630685949E+03  0.00000000000E+00 0.  1.
       14    1    3    3    0    0  0.37639330050E+02  0.48580058538E+02  0.15400619760E+03  0.16581510834E+03  0.00000000000E+00 0. -1.
        1    1    4    4  502    0  0.61424369976E+01  0.72074095485E+00  0.11357964827E+04  0.11358133205E+04  0.00000000000E+00 0. -1.
       -2    1    4    4    0  502 -0.25424908427E+02 -0.64345314289E+02  0.91586535425E+03  0.91847487312E+03  0.00000000000E+00 0.  1.
</event>
<event>
 8   1  0.2279600E-02  0.1060113E+03  0.7546771E-02  0.1272056E+00
       -2   -1    0    0    0  501 -0.00000000000E+00  0.00000000000E+00  0.80573969355E+01  0.80573969355E+01  0.00000000000E+00 0.  1.
        2   -1    0    0  501    0  0.00000000000E+00 -0.00000000000E+00 -0.30449282218E+04  0.30449282218E+04  0.00000000000E+00 0. -1.
       24    2    1    2    0    0  0.40574183233E+02 -0.57991412888E+02 -0.26997646955E+04  0.27018452610E+04  0.78924869685E+02 0.  0.
      -24    2    1    2    0    0 -0.40574183233E+02  0.57991412888E+02 -0.33710612935E+03  0.35114035772E+03  0.68189002449E+02 0.  0.
      -13    1    3    3    0    0 -0.20535591240E+02 -0.87380755816E+01 -0.10244086746E+04  0.10246517443E+04  0.00000000000E+00 0.  1.
       14    1    3    3    0    0  0.61109774474E+02 -0.49253337307E+02 -0.16753560209E+04  0.16771935167E+04  0.00000000000E+00 0. -1.
        1    1    4    4  502    0 -0.23413152844E+02 -0.76496540895E+01 -0.15218833852E+03  0.15416868462E+03  0.00000000000E+00 0. -1.
       -2    1    4    4    0  502 -0.17161030389E+02  0.65641066978E+02 -0.18491779083E+03  0.19697167310E+03  0.00000000000E+00 0.  1.
</event>
<event>
 8   1  0.2279600E-02  0.8769053E+02  0.7546771E-02  0.1308679E+00
       -1   -1    0    0    0  501 -0.00000000000E+00  0.00000000000E+00  0.13392295131E+03  0.13392295131E+03  0.00000000000E+00 0.  1.
        1   -1    0    0  501    0  0.00000000000E+00 -0.00000000000E+00 -0.57336945363E+02  0.57336945363E+02  0.00000000000E+00 0. -1.
       24    2    1    2    0    0 -0.12966701280E+02 -0.24902033470E+02  0.35218849997E+02  0.94498657863E+02  0.83074558860E+02 0.  0.
      -24    2    1    2    0    0  0.12966701280E+02  0.24902033470E+02  0.41367155949E+02  0.96761238809E+02  0.82844729051E+02 0.  0.
      -13    1    3    3    0    0 -0.48352450260E+02 -0.18266536467E+02  0.20868576740E+02  0.55741576008E+02  0.00000000000E+00 0.  1.
       14    1    3    3    0    0  0.35385748980E+02 -0.66354970028E+01  0.14350273257E+02  0.38757081855E+02  0.00000000000E+00 0. -1.
        1    1    4    4  502    0  0.24905762527E+02  0.47222588362E+02  0.66568542251E+01  0.53801334248E+02  0.00000000000E+00 0. -1.
       -2    1    4    4    0  502 -0.11939061247E+02 -0.22320554892E+02  0.34710301724E+02  0.42959904561E+02  0.00000000000E+00 0.  1.
</event>
<event>
 8   1  0.2279600E-02  0.8707446E+02  0.7546771E-02  0.1311959E+00
        2   -1    0    0  501    0  0.00000000000E+00  0.00000000000E+00  0.10440544532E+04  0.10440544532E+04  0.00000000000E+00 0. -1.
       -2   -1    0    0    0  501 -0.00000000000E+00 -0.00000000000E+00 -0.74712816043E+01  0.74712816043E+01  0.00000000000E+00 0.  1.
      -24    2    1    2    0    0 -0.29772175832E+02 -0.51933689995E+01  0.39772403587E+03  0.40714416431E+03  0.81661547179E+02 0.  0.
       24    2    1    2    0    0  0.29772175832E+02  0.51933689995E+01  0.63885913569E+03  0.64438157046E+03  0.78570093272E+02 0.  0.
      -13    1    4    4    0    0 -0.98552019752E+00 -0.33888845889E+02  0.29569861482E+03  0.29763584450E+03  0.00000000000E+00 0.  1.
       14    1    4    4    0    0  0.30757696029E+02  0.39082214889E+02  0.34316052087E+03  0.34674572595E+03  0.00000000000E+00 0. -1.
        1    1    3    3  502    0  0.10507460224E+02 -0.24231846197E+02  0.28047600560E+03  0.28171684154E+03  0.00000000000E+00 0. -1.
       -2    1    3    3    0  502 -0.40279636056E+02  0.19038477198E+02  0.11724803027E+03  0.12542732277E+03  0.00000000000E+00 0.  1.
</event>
<event>
 8   1  0.2279600E-02  0.1320832E+03  0.7546771E-02  0.1225210E+00
        2   -1    0    0  501    0  0.00000000000E+00  0.00000000000E+00  0.14436373279E+04  0.14436373279E+04  0.00000000000E+00 0. -1.
       -2   -1    0    0    0  501 -0.00000000000E+00 -0.00000000000E+00 -0.20802602585E+02  0.20802602585E+02  0.00000000000E+00 0.  1.
       24    2    1    2    0    0  0.10492689292E+03 -0.95748570643E+01  0.11874395750E+04  0.11945198391E+04  0.75918186143E+02 0.  0.
      -24    2    1    2    0    0 -0.10492689292E+03  0.95748570643E+01  0.23539515036E+03  0.26992009143E+03  0.79653299988E+02 0.  0.
      -13    1    3    3    0    0  0.11124663471E+02  0.50745728560E+00  0.55225256593E+03  0.55236483616E+03  0.00000000000E+00 0.  1.
       14    1    3    3    0    0  0.93802229444E+02 -0.10082314350E+02  0.63518700905E+03  0.64215500292E+03  0.00000000000E+00 0. -1.
        1    1    4    4  502    0 -0.23534432044E+02 -0.27246903533E+02  0.11155572019E+03  0.11722176398E+03  0.00000000000E+00 0. -1.
       -2    1    4    4    0  502 -0.81392460872E+02  0.36821760597E+02  0.12383943017E+03  0.15269832745E+03  0.00000000000E+00 0.  1.
</event>
<event>
 8   1  0.2279600E-02  0.9996873E+02  0.7546771E-02  0.1280685E+00
        2   -1    0    0  501    0  0.00000000000E+00  0.00000000000E+00  0.72536130096E+02  0.72536130096E+02  0.00000000000E+00 0. -1.
       -2   -1    0    0    0  501 -0.00000000000E+00 -0.00000000000E+00 -0.22263195326E+04  0.22263195326E+04  0.00000000000E+00 0.  1.
      -24    2    1    2    0    0 -0.14474675675E+01 -0.58899882995E+02 -0.21902060596E+04  0.21924585001E+04  0.80002497061E+02 0.  0.
       24    2    1    2    0    0  0.14474675675E+01  0.58899882995E+02  0.36422657103E+02  0.10639716264E+03  0.80761716730E+02 0.  0.
      -13    1    4    4    0    0  0.13711095122E+02  0.25780571910E+02 -0.23068508837E+02  0.37212741332E+02  0.00000000000E+00 0.  1.
       14    1    4    4    0    0 -0.12263627555E+02  0.33119311085E+02  0.59491165940E+02  0.69184421313E+02  0.00000000000E+00 0. -1.
        1    1    3    3  502    0 -0.15174926266E+02  0.16658063657E+02 -0.47548064147E+03  0.47601429588E+03  0.00000000000E+00 0. -1.
       -2    1    3    3    0  502  0.13727458698E+02 -0.75557946652E+02 -0.17147254182E+04  0.17164442042E+04  0.00000000000E+00 0.  1.
</event>
<event>
 8   1  0.2279600E-02  0.9920151E+02  0.7546771E-02  0.1282432E+00
       -2   -1    0    0    0  501 -0.00000000000E+00  0.00000000000E+00  0.36984363514E+02  0.36984363514E+02  0.00000000000E+00 0.  1.
        2   -1    0    0  501    0  0.00000000000E+00 -0.00000000000E+00 -0.16892083626E+04  0.16892083626E+04  0.00000000000E+00 0. -1.
      -24    2    1    2    0    0  0.42042534127E+02  0.39157656473E+02 -0.33828415071E+02  0.10481079007E+03  0.80870534262E+02 0.  0.
       24    2    1    2    0    0 -0.42042534127E+02 -0.39157656473E+02 -0.16183955840E+04  0.16213819361E+04  0.79838708946E+02 0.  0.
      -13    1    4    4    0    0  0.27910290124E+01  0.85293264047E+01 -0.23677483576E+02  0.25321186393E+02  0.00000000000E+00 0.  1.
       14    1    4    4    0    0 -0.44833563139E+02 -0.47686982878E+02 -0.15947181005E+04  0.15960607497E+04  0.00000000000E+00 0. -1.
        1    1    3    3  502    0  0.23778563998E+01  0.55516027020E+02 -0.25347167763E+02  0.61075055226E+02  0.00000000000E+00 0. -1.
       -2    1    3    3    0  502  0.39664677727E+02 -0.16358370547E+02 -0.84812473071E+01  0.43735734840E+02  0.00000000000E+00 0.  1.
</event>
<event>
 8   1  0.2279600E-02  0.1361443E+03  0.7546771E-02  0.1218636E+00
        2   -1    0    0  501    0  0.00000000000E+00  0.00000000000E+00  0.26544807591E+03  0.26544807591E+03  0.00000000000E+00 0. -1.
       -2   -1    0    0    0  501 -0.00000000000E+00 -0.00000000000E+00 -0.13077101523E+03  0.13077101523E+03  0.00000000000E+00 0.  1.
      -24    2    1    2    0    0 -0.10071404982E+03 -0.43568987690E+02 -0.67950621737E+02  0.15210179338E+03  0.80474169996E+02 0.  0.
       24    2    1    2    0    0  0.10071404982E+03  0.43568987690E+02  0.20262768242E+03  0.24411729776E+03  0.80583502426E+02 0.  0.
      -13    1    4    4    0    0  0.34938462761E+02  0.53969738787E+02  0.66073056025E+02  0.92190442115E+02  0.00000000000E+00 0.  1.
       14    1    4    4    0    0  0.65775587059E+02 -0.10400751098E+02  0.13655462639E+03  0.15192685564E+03  0.00000000000E+00 0. -1.
        3    1    3    3  502    0 -0.23576284393E+02  0.22287083574E+02 -0.28799575164E+02  0.43381687492E+02  0.00000000000E+00 0. -1.
       -4    1    3    3    0  502 -0.77137765428E+02 -0.65856071263E+02 -0.39151046573E+02  0.10872010589E+03  0.00000000000E+00 0.  1.
</event>
<event>
 8   1  0.2279600E-02  0.1608840E+03  0.7546771E-02  0.1187838E+00
       -1   -1    0    0    0  501 -0.00000000000E+00  0.00000000000E+00  0.14755438076E+02  0.14755438076E+02  0.00000000000E+00 0.  1.
        1   -1    0    0  501    0  0.00000000000E+00 -0.00000000000E+00 -0.21032559134E+04  0.21032559134E+04  0.00000000000E+00 0. -1.
       24    2    1    2    0    0 -0.10571500124E+03 -0.89637597223E+02 -0.14776141772E+04  0.14862948614E+04  0.80735358851E+02 0.  0.
      -24    2    1    2    0    0  0.10571500124E+03  0.89637597223E+02 -0.61088629812E+03  0.63171649002E+03  0.81689009168E+02 0.  0.
      -13    1    3    3    0    0 -0.12652911191E+02  0.13199244024E+02 -0.29694238202E+03  0.29750478054E+03  0.00000000000E+00 0.  1.
       14    1    3    3    0    0 -0.93062090051E+02 -0.10283684125E+03 -0.11806717951E+04  0.11887900809E+04  0.00000000000E+00 0. -1.
        3    1    4    4  502    0 -0.11832558733E+02  0.20818752570E+00 -0.71536768150E+02  0.72509047612E+02  0.00000000000E+00 0. -1.
       -4    1    4    4    0  502  0.11754755998E+03  0.89429409697E+02 -0.53934952997E+03  0.55920744241E+03  0.00000000000E+00 0.  1.
</event>
<event>
 8   1  0.2279600E-02  0.1024732E+03  0.7546771E-02  0.1276061E+00
       -1   -1    0    0    0  501 -0.00000000000E+00  0.00000000000E+00  0.22229052256E+03  0.22229052256E+03  0.00000000000E+00 0.  1.
        1   -1    0    0  501    0  0.00000000000E+00 -0.00000000000E+00 -0.17155996917E+03  0.17155996917E+03  0.00000000000E+00 0. -1.
       24    2    1    2    0    0 -0.24980759118E+02 -0.57731245034E+02  0.19358744611E+03  0.21903619889E+03  0.80893894438E+02 0.  0.
      -24    2    1    2    0    0  0.24980759118E+02  0.57731245034E+02 -0.14285689271E+03  0.17481429283E+03  0.78708387127E+02 0.  0.
      -13    1    3    3    0    0 -0.31800589987E+02 -0.22941643216E+02  0.17434230022E+03  0.17869760537E+03  0.00000000000E+00 0.  1.
       14    1    3    3    0    0  0.68198308693E+01 -0.34789601818E+02  0.19245145882E+02  0.40338593527E+02  0.00000000000E+00 0. -1.
        1    1    4    4  502    0  0.24704416752E+02  0.73980554465E+02 -0.13679591086E+03  0.15746920929E+03  0.00000000000E+00 0. -1.
       -2    1    4    4    0  502  0.27634236556E+00 -0.16249309431E+02 -0.60609818489E+01  0.17345083542E+02  0.00000000000E+00 0.  1.
</event>
<event>
 8   1  0.2279600E-02  0.1161596E+03  0.7546771E-02  0.1249735E+00
        2   -1    0    0  501    0  0.00000000000E+00  0.00000000000E+00  0.16846372652E+04  0.16846372652E+04  0.00000000000E+00 0. -1.
       -2   -1    0    0    0  501 -0.00000000000E+00 -0.00000000000E+00 -0.79847144021E+01  0.79847144021E+01  0.00000000000E+00 0.  1.
       24    2    1    2    0    0 -0.83347965088E+02 -0.85224664271E+01  0.82536840085E+03  0.83344926275E+03  0.79907200722E+02 0.  0.
      -24    2    1    2    0    0  0.83347965088E+02  0.85224664271E+01  0.85128414997E+03  0.85917271688E+03  0.80458298045E+02 0.  0.
      -13    1    3    3    0    0 -0.39100082409E+02  0.19185799066E+02  0.15360726223E+03  0.15966246378E+03  0.00000000000E+00 0.  1.
       14    1    3    3    0    0 -0.44247882679E+02 -0.27708265494E+02  0.67176113863E+03  0.67378679897E+03  0.00000000000E+00 0. -1.
        3    1    4    4  502    0  0.17312007804E+02  0.16642601820E+02  0.53779056486E+02  0.58897102866E+02  0.00000000000E+00 0. -1.
       -4    1    4    4    0  502  0.66035957284E+02 -0.81201353933E+01  0.79750509348E+03  0.80027561402E+03  0.00000000000E+00 0.  1.
</event>
<event>
 8   1  0.2279600E-02  0.7641124E+02  0.7546771E-02  0.1344617E+00
       -1   -1    0    0    0  501 -0.00000000000E+00  0.00000000000E+00  0.66289500111E+01  0.66289500111E+01  0.00000000000E+00 0.  1.
        1   -1    0    0  501    0  0.00000000000E+00 -0.00000000000E+00 -0.24088270818E+04  0.24088270818E+04  0.00000000000E+00 0. -1.
       24    2    1    2    0    0  0.22271496572E+02 -0.81898638877E+01 -0.23465943297E+03  0.24678680456E+03  0.72633215484E+02 0.  0.
      -24    2    1    2    0    0 -0.22271496572E+02  0.81898638877E+01 -0.21675386989E+04  0.21686692273E+04  0.65871943436E+02 0.  0.
      -13    1    3    3    0    0  0.37320090046E+02 -0.20161170475E+02 -0.76586830104E+02  0.87548868989E+02  0.00000000000E+00 0.  1.
       14    1    3    3    0    0 -0.15048593474E+02  0.11971306587E+02 -0.15807260287E+03  0.15923793557E+03  0.00000000000E+00 0. -1.
        1    1    4    4  502    0 -0.19331800890E+02 -0.26940802631E+02 -0.82148122662E+03  0.82215018766E+03  0.00000000000E+00 0. -1.
       -2    1    4    4    0  502 -0.29396956821E+01  0.35130666519E+02 -0.13460574722E+04  0.13465190396E+04  0.00000000000E+00 0.  1.
</event>
<event>
 8   1  0.2279600E-02  0.1865261E+03  0.7546771E-02  0.1164713E+00
       -1   -1    0    0    0  501 -0.00000000000E+00  0.00000000000E+00  0.10505946854E+03  0.10505946854E+03  0.00000000000E+00 0.  1.
        1   -1    0    0  501    0  0.00000000000E+00 -0.00000000000E+00 -0.44401249403E+03  0.44401249403E+03  0.00000000000E+00 0. -1.
       24    2    1    2    0    0 -0.11896787252E+03  0.98367905262E+02 -0.13822076744E+02  0.17423584171E+03  0.79608286336E+02 0.  0.
      -24    2    1    2    0    0  0.11896787252E+03 -0.98367905262E+02 -0.32513094875E+03  0.37483612086E+03  0.10470140493E+03 0.  0.
      -13    1    3    3    0    0 -0.10098611360E+03  0.10357012488E+03  0.87411537612E+01  0.14491850701E+03  0.00000000000E+00 0.  1.
       14    1    3    3    0    0 -0.17981758924E+02 -0.52022196134E+01 -0.22563230505E+02  0.29317334697E+02  0.00000000000E+00 0. -1.
        1    1    4    4  502    0  0.55041113263E+02 -0.10004364504E+03 -0.25790939217E+03  0.28205586261E+03  0.00000000000E+00 0. -1.
       -2    1    4    4    0  502  0.63926759259E+02  0.16757397793E+01 -0.67221556571E+02  0.92780258250E+02  0.00000000000E+00 0.  1.
</event>
<event>
 8   1  0.2279600E-02  0.1036196E+03  0.7546771E-02  0.1275604E+00
        2   -1    0    0  501    0  0.00000000000E+00  0.00000000000E+00  0.30361157398E+04  0.30361157398E+04  0.00000000000E+00 0. -1.
       -2   -1    0    0    0  501 -0.00000000000E+00 -0.00000000000E+00 -0.41614958420E+01  0.41614958420E+01  0.00000000000E+00 0.  1.
      -24    2    1    2    0    0 -0.62815558953E+02  0.29625905623E+00  0.88013986312E+03  0.88621848751E+03  0.82408414268E+02 0.  0.
       24    2    1    2    0    0  0.62815558953E+02 -0.29625905623E+00  0.21518143809E+04  0.21540587482E+04  0.75617977963E+02 0.  0.
      -13    1    4    4    0    0  0.11365672218E+02  0.22688802027E+02  0.22601995521E+03  0.22744005891E+03  0.00000000000E+00 0.  1.
       14    1    4    4    0    0  0.51449886735E+02 -0.22985061083E+02  0.19257944257E+04  0.19266186892E+04  0.00000000000E+00 0. -1.
        3    1    3    3  502    0 -0.35892688765E+02 -0.38776862005E+02  0.57350606733E+03  0.57593501318E+03  0.00000000000E+00 0. -1.
       -4    1    3    3    0  502 -0.26922870188E+02  0.39073121061E+02  0.30663379578E+03  0.31028347433E+03  0.00000000000E+00 0.  1.
</event>
<event>
 8   1  0.2279600E-02  0.9411100E+02  0.7546771E-02  0.1293255E+00
        2   -1    0    0  501    0  0.00000000000E+00  0.00000000000E+00  0.54308481895E+03  0.54308481895E+03  0.00000000000E+00 0. -1.
       -2   -1    0    0    0  501 -0.00000000000E+00 -0.00000000000E+00 -0.22570855844E+02  0.22570855844E+02  0.00000000000E+00 0.  1.
       24    2    1    2    0    0 -0.20769134246E+02  0.43894665274E+02  0.40935213976E+03  0.42000598773E+03  0.80484512951E+02 0.  0.
      -24    2    1    2    0    0  0.20769134246E+02 -0.43894665274E+02  0.11116182334E+03  0.14564968706E+03  0.80615022146E+02 0.  0.
      -13    1    3    3    0    0  0.16817327108E+02  0.52608969807E+02  0.22792126738E+03  0.23451786780E+03  0.00000000000E+00 0.  1.
       14    1    3    3    0    0 -0.37586461355E+02 -0.87143045326E+01  0.18143087238E+03  0.18548811993E+03  0.00000000000E+00 0. -1.
        3    1    4    4  502    0 -0.28456964223E+02 -0.71454383419E+01  0.19224464878E+02  0.35077573344E+02  0.00000000000E+00 0. -1.
       -4    1    4    4    0  502  0.49226098469E+02 -0.36749226932E+02  0.91937358462E+02  0.11057211372E+03  0.00000000000E+00 0.  1.
</event>
<event>
 8   1  0.2279600E-02  0.8186933E+02  0.7546771E-02  0.1329181E+00
        2   -1    0    0  501    0  0.00000000000E+00  0.00000000000E+00  0.21653134559E+04  0.21653134559E+04  0.00000000000E+00 0. -1.
       -2   -1    0    0    0  501 -0.00000000000E+00 -0.00000000000E+00 -0.29343484549E+01  0.29343484549E+01  0.00000000000E+00 0.  1.
      -24    2    1    2    0    0  0.13933305191E+01 -0.24954615120E+01  0.91860986097E+03  0.92225086778E+03  0.81819421694E+02 0.  0.
       24    2    1    2    0    0 -0.13933305191E+01  0.24954615120E+01  0.12437692465E+04  0.12459969366E+04  0.74419478356E+02 0.  0.
      -13    1    4    4    0    0  0.18799447203E+02  0.36082773023E+01  0.88318499356E+02  0.90369221579E+02  0.00000000000E+00 0.  1.
       14    1    4    4    0    0 -0.20192777722E+02 -0.11128157903E+01  0.11554507472E+04  0.11556277150E+04  0.00000000000E+00 0. -1.
        1    1    3    3  502    0  0.12503651026E+02 -0.35832941112E+02  0.26578393268E+03  0.26847986858E+03  0.00000000000E+00 0. -1.
       -2    1    3    3    0  502 -0.11110320507E+02  0.33337479600E+02  0.65282592828E+03  0.65377099921E+03  0.00000000000E+00 0.  1.
</event>
<event>
 8   1  0.2279600E-02  0.9471478E+02  0.7546771E-02  0.1294057E+00
       -4   -1    0    0    0  501 -0.00000000000E+00  0.00000000000E+00  0.23382097822E+02  0.23382097822E+02  0.00000000000E+00 0.  1.
        4   -1    0    0  501    0  0.00000000000E+00 -0.00000000000E+00 -0.38997327980E+03  0.38997327980E+03  0.00000000000E+00 0. -1.
      -24    2    1    2    0    0  0.31627552081E+02  0.31407078540E+02 -0.13802244354E+03  0.16739499648E+03  0.83571426292E+02 0.  0.
       24    2    1    2    0    0 -0.31627552081E+02 -0.31407078540E+02 -0.22856873844E+03  0.24596038114E+03  0.79158917801E+02 0.  0.
      -13    1    4    4    0    0  0.66377288143E+01  0.23150303698E+02 -0.66477148246E+02  0.70705072266E+02  0.00000000000E+00 0.  1.
       14    1    4    4    0    0 -0.38265280895E+02 -0.54557382237E+02 -0.16209159019E+03  0.17525530887E+03  0.00000000000E+00 0. -1.
        3    1    3    3  502    0  0.11352883821E+02 -0.28796273692E+02 -0.39795832978E+02  0.50416482147E+02  0.00000000000E+00 0. -1.
       -4    1    3    3    0  502  0.20274668260E+02  0.60203352232E+02 -0.98226610560E+02  0.11697851433E+03  0.00000000000E+00 0.  1.
</event>
<event>
 8   1  0.2279600E-02  0.1031334E+03  0.7546771E-02  0.1274568E+00
       -1   -1    0    0    0  501 -0.00000000000E+00  0.00000000000E+00  0.13063309340E+03  0.13063309340E+03  0.00000000000E+00 0.  1.
        1   -1    0    0  501    0  0.00000000000E+00 -0.00000000000E+00 -0.34517824197E+03  0.34517824197E+03  0.00000000000E+00 0. -1.
       24    2    1    2    0    0 -0.51519180608E+02 -0.35770576885E+02  0.10095703758E+03  0.14432196973E+03  0.81870308228E+02 0.  0.
      -24    2    1    2    0    0  0.51519180608E+02  0.35770576885E+02 -0.31550218614E+03  0.33148936564E+03  0.80061288606E+02 0.  0.
      -13    1    3    3    0    0 -0.36598038705E+02 -0.87743765363E+01  0.10652528317E+03  0.11297806015E+03  0.00000000000E+00 0.  1.
       14    1    3    3    0    0 -0.14921141903E+02 -0.26996200349E+02 -0.55682455913E+01  0.31343909583E+02  0.00000000000E+00 0. -1.
        3    1    4    4  502    0  0.65545517953E+02  0.26026683402E+02 -0.30079205938E+03  0.30894897015E+03  0.00000000000E+00 0. -1.
       -4    1    4    4    0  502 -0.14026337344E+02  0.97438934832E+01 -0.14710126761E+02  0.22540395490E+02  0.00000000000E+00 0.  1.
</event>
<event>
 8   1  0.2279600E-02  0.8463444E+02  0.7546771E-02  0.1317258E+00
       -2   -1    0    0    0  501 -0.00000000000E+00  0.00000000000E+00  0.29491799382E+02  0.29491799382E+02  0.00000000000E+00 0.  1.
        2   -1    0    0  501    0  0.00000000000E+00 -0.00000000000E+00 -0.37899581505E+03  0.37899581505E+03  0.00000000000E+00 0. -1.
      -24    2    1    2    0    0  0.20347543750E+02  0.14876435240E+02 -0.49827123154E+02  0.97088789878E+02  0.79423926219E+02 0.  0.
       24    2    1    2    0    0 -0.20347543750E+02 -0.14876435240E+02 -0.29967689251E+03  0.31139882456E+03  0.80793917875E+02 0.  0.
      -13    1    4    4    0    0 -0.47945329653E+01 -0.30911520346E+02 -0.40077639377E+02  0.50840208640E+02  0.00000000000E+00 0.  1.
       14    1    4    4    0    0 -0.15553010784E+02  0.16035085107E+02 -0.25959925314E+03  0.26055861592E+03  0.00000000000E+00 0. -1.
        1    1    3    3  502    0 -0.13137546094E+02 -0.21462918219E+02 -0.39140205163E+02  0.46531791670E+02  0.00000000000E+00 0. -1.
       -2    1    3    3    0  502  0.33485089843E+02  0.36339353459E+02 -0.10686917991E+02  0.50556998207E+02  0.00000000000E+00 0.  1.
</event>
<event>
 8   1  0.2279600E-02  0.8602736E+02  0.7546771E-02  0.1314826E+00
       -2   -1    0    0    0  501 -0.00000000000E+00  0.00000000000E+00  0.23122132142E+02  0.23122132142E+02  0.00000000000E+00 0.  1.
        2   -1    0    0  501    0  0.00000000000E+00 -0.00000000000E+00 -0.48517402509E+03  0.48517402509E+03  0.00000000000E+00 0. -1.
      -24    2    1    2    0    0 -0.45263720170E+01 -0.30427738343E+02 -0.74955782288E+02  0.11175598776E+03  0.76972048162E+02 0.  0.
       24    2    1    2    0    0  0.45263720170E+01  0.30427738343E+02 -0.38709611066E+03  0.39654016947E+03  0.80339105107E+02 0.  0.
      -13    1    4    4    0    0 -0.28494399013E+02  0.33036888143E+02 -0.12574466988E+03  0.13309804190E+03  0.00000000000E+00 0.  1.
       14    1    4    4    0    0  0.33020771030E+02 -0.26091497999E+01 -0.26135144078E+03  0.26344212757E+03  0.00000000000E+00 0. -1.
        3    1    3    3  502    0  0.25959921500E+02  0.93266538969E+01 -0.46701610825E+02  0.54239694421E+02  0.00000000000E+00 0. -1.
       -4    1    3    3    0  502 -0.30486293517E+02 -0.39754392240E+02 -0.28254171463E+02  0.57516293342E+02  0.00000000000E+00 0.  1.
</event>
<event>
 8   1  0.2279600E-02  0.1057367E+03  0.7546771E-02  0.1277348E+00
       -3   -1    0    0    0  501 -0.00000000000E+00  0.00000000000E+00  0.32081557645E+03  0.32081557645E+03  0.00000000000E+00 0.  1.
        3   -1    0    0  501    0  0.00000000000E+00 -0.00000000000E+00 -0.31053982995E+02  0.31053982995E+02  0.00000000000E+00 0. -1.
       24    2    1    2    0    0  0.68266918784E-01 -0.38886738300E+02  0.16998513922E+03  0.19209892385E+03  0.80590730932E+02 0.  0.
      -24    2    1    2    0    0 -0.68266918784E-01  0.38886738300E+02  0.11977645424E+03  0.15977063560E+03  0.98326364391E+02 0.  0.
      -13    1    3    3    0    0 -0.39671217826E+02 -0.16711632573E+02  0.96463046161E+02  0.10563239778E+03  0.00000000000E+00 0.  1.
       14    1    3    3    0    0  0.39739484745E+02 -0.22175105727E+02  0.73522093059E+02  0.86466526064E+02  0.00000000000E+00 0. -1.
        3    1    4    4  502    0  0.14839073959E+02  0.28485362860E+02 -0.60111591444E+01  0.32676414238E+02  0.00000000000E+00 0. -1.
       -4    1    4    4    0  502 -0.14907340877E+02  0.10401375440E+02  0.12578761338E+03  0.12709422136E+03  0.00000000000E+00 0.  1.
</event>
<event>
 8   1  0.2279600E-02  0.8565686E+02  0.7546771E-02  0.1315125E+00
       -2   -1    0    0    0  501 -0.00000000000E+00  0.00000000000E+00  0.46988443070E+02  0.46988443070E+02  0.00000000000E+00 0.  1.
        2   -1    0    0  501    0  0.00000000000E+00 -0.00000000000E+00 -0.15818155460E+03  0.15818155460E+03  0.00000000000E+00 0. -1.
      -24    2    1    2    0    0 -0.26764917280E+02  0.22318010822E+02 -0.76091722474E+02  0.11457333219E+03  0.78247324651E+02 0.  0.
       24    2    1    2    0    0  0.26764917280E+02 -0.22318010822E+02 -0.35101389056E+02  0.90596665484E+02  0.75902528806E+02 0.  0.
      -13    1    4    4    0    0  0.46470074422E+02  0.70608873688E+01 -0.12569579061E+02  0.48655094954E+02  0.00000000000E+00 0.  1.
       14    1    4    4    0    0 -0.19705157141E+02 -0.29378898191E+02 -0.22531809995E+02  0.41941570530E+02  0.00000000000E+00 0. -1.
        3    1    3    3  502    0 -0.24309986733E+01 -0.12952932095E+02 -0.70073569561E+02  0.71302127286E+02  0.00000000000E+00 0. -1.
       -4    1    3    3    0  502 -0.24333918607E+02  0.35270942917E+02 -0.60181529130E+01  0.43271204901E+02  0.00000000000E+00 0.  1.
</event>
<event>
 8   1  0.2279600E-02  0.9252276E+02  0.7546771E-02  0.1296976E+00
        3   -1    0    0  501    0  0.00000000000E+00  0.00000000000E+00  0.26561343968E+04  0.26561343968E+04  0.00000000000E+00 0. -1.
       -3   -1    0    0    0  501 -0.00000000000E+00 -0.00000000000E+00 -0.34046508461E+01  0.34046508461E+01  0.00000000000E+00 0.  1.
       24    2    1    2    0    0  0.45758187989E+02  0.25875337229E+01  0.16410598476E+04  0.16436659893E+04  0.80373837393E+02 0.  0.
      -24    2    1    2    0    0 -0.45758187989E+02 -0.25875337229E+01  0.10116698984E+04  0.10158730584E+04  0.80134764156E+02 0.  0.
      -13    1    3    3    0    0 -0.12026624280E+02  0.36141577787E+00  0.45667513588E+02  0.47225968600E+02  0.00000000000E+00 0.  1.
       14    1    3    3    0    0  0.57784812270E+02  0.22261179450E+01  0.15953923340E+04  0.15964400207E+04  0.00000000000E+00 0. -1.
        3    1    4    4  502    0 -0.42252856494E+02 -0.32814405163E+02  0.41592323224E+03  0.41934976355E+03  0.00000000000E+00 0. -1.
       -4    1    4    4    0  502 -0.35053314955E+01  0.30226871440E+02  0.59574666612E+03  0.59652329485E+03  0.00000000000E+00 0.  1.
</event>
<event>
 8   1  0.2279600E-02  0.8666672E+02  0.7546771E-02  0.1315175E+00
       -2   -1    0    0    0  501 -0.00000000000E+00  0.00000000000E+00  0.29809743745E+01  0.29809743745E+01  0.00000000000E+00 0.  1.
        2   -1    0    0  501    0  0.00000000000E+00 -0.00000000000E+00 -0.23853543432E+04  0.23853543432E+04  0.00000000000E+00 0. -1.
      -24    2    1    2    0    0  0.21823541576E+02  0.25140641865E+02 -0.99384808241E+03  0.99710794883E+03  0.73361651278E+02 0.  0.
       24    2    1    2    0    0 -0.21823541576E+02 -0.25140641865E+02 -0.13885252864E+04  0.13912273687E+04  0.80017508560E+02 0.  0.
      -13    1    4    4    0    0 -0.34740636669E+02 -0.12954242430E+02 -0.26706400063E+03  0.26962548964E+03  0.00000000000E+00 0.  1.
       14    1    4    4    0    0  0.12917095094E+02 -0.12186399434E+02 -0.11214612858E+04  0.11216018791E+04  0.00000000000E+00 0. -1.
        3    1    3    3  502    0  0.19026546633E+02  0.35732745920E+02 -0.25620979017E+03  0.25938830965E+03  0.00000000000E+00 0. -1.
       -4    1    3    3    0  502  0.27969949421E+01 -0.10592104055E+02 -0.73763829224E+03  0.73771963918E+03  0.00000000000E+00 0.  1.
</event>
<event>
 8   1  0.2279600E-02  0.1102288E+03  0.7546771E-02  0.1269142E+00
        2   -1    0    0  501    0  0.00000000000E+00  0.00000000000E+00  0.56880005798E+03  0.56880005798E+03  0.00000000000E+00 0. -1.
       -2   -1    0    0    0  501 -0.00000000000E+00 -0.00000000000E+00 -0.18351531069E+02  0.18351531069E+02  0.00000000000E+00 0.  1.
      -24    2    1    2    0    0  0.17910029450E+02 -0.45962147203E+02  0.26218726525E+03  0.28441616890E+03  0.98575387098E+02 0.  0.
       24    2    1    2    0    0 -0.17910029450E+02  0.45962147203E+02  0.28826126166E+03  0.30273542015E+03  0.78236126616E+02 0.  0.
      -13    1    4    4    0    0  0.23562494999E+02  0.31833038681E+02  0.20352228273E+03  0.20733994572E+03  0.00000000000E+00 0.  1.
       14    1    4    4    0    0 -0.41472524449E+02  0.14129108522E+02  0.84738978929E+02  0.95395474430E+02  0.00000000000E+00 0. -1.
        3    1    3    3  502    0 -0.22926097446E+02 -0.19160650803E+02  0.21303740461E+03  0.21512245872E+03  0.00000000000E+00 0. -1.
       -4    1    3    3    0  502  0.40836126896E+02 -0.26801496400E+02  0.49149860635E+02  0.69293710173E+02  0.00000000000E+00 0.  1.
</event>
<event>
 8   1  0.2279600E-02  0.8855854E+02  0.7546771E-02  0.1307831E+00
        2   -1    0    0  501    0  0.00000000000E+00  0.00000000000E+00  0.14323568572E+04  0.14323568572E+04  0.00000000000E+00 0. -1.
       -2   -1    0    0    0  501 -0.00000000000E+00 -0.00000000000E+00 -0.81824588018E+01  0.81824588018E+01  0.00000000000E+00 0.  1.
      -24    2    1    2    0    0 -0.22382016480E+02 -0.71083481425E+01  0.29323088468E+03  0.30631187713E+03  0.85388120173E+02 0.  0.
       24    2    1    2    0    0  0.22382016480E+02  0.71083481425E+01  0.11309435137E+04  0.11342274389E+04  0.82988966677E+02 0.  0.
      -13    1    4    4    0    0  0.82913280829E+01  0.36771005004E+02  0.26564690432E+03  0.26830790280E+03  0.00000000000E+00 0.  1.
       14    1    4    4    0    0  0.14090688397E+02 -0.29662656861E+02  0.86529660939E+03  0.86591953606E+03  0.00000000000E+00 0. -1.
        1    1    3    3  502    0  0.22817161311E+02 -0.29196536759E+02  0.14977529638E+03  0.15429095895E+03  0.00000000000E+00 0. -1.
       -2    1    3    3    0  502 -0.45199177790E+02  0.22088188617E+02  0.14345558831E+03  0.15202091818E+03  0.00000000000E+00 0.  1.
</event>
<event>
 8   1  0.2279600E-02  0.9603627E+02  0.7546771E-02  0.1288891E+00
        2   -1    0    0  501    0  0.00000000000E+00  0.00000000000E+00  0.20531982374E+04  0.20531982374E+04  0.00000000000E+00 0. -1.
       -2   -1    0    0    0  501 -0.00000000000E+00 -0.00000000000E+00 -0.44895939293E+01  0.44895939293E+01  0.00000000000E+00 0.  1.
       24    2    1    2    0    0  0.36032063850E+02  0.37749336027E+02  0.10163467572E+04  0.10208739866E+04  0.80620367034E+02 0.  0.
      -24    2    1    2    0    0 -0.36032063850E+02 -0.37749336027E+02  0.10323618862E+04  0.10368138447E+04  0.80551613716E+02 0.  0.
      -13    1    3    3    0    0  0.60928633540E+02  0.19368778034E+02  0.75479606002E+03  0.75749887140E+03  0.00000000000E+00 0.  1.
       14    1    3    3    0    0 -0.24896569690E+02  0.18380557993E+02  0.26155069720E+03  0.26337511519E+03  0.00000000000E+00 0. -1.
        3    1    4    4  502    0 -0.54021571643E+02 -0.17597257052E+02  0.89614476415E+03  0.89794400270E+03  0.00000000000E+00 0. -1.
       -4    1    4    4    0  502  0.17989507793E+02 -0.20152078975E+02  0.13621712209E+03  0.13886984204E+03  0.00000000000E+00 0.  1.
</event>
<event>
 8   1  0.2279600E-02  0.9230635E+02  0.7546771E-02  0.1297478E+00
        1   -1    0    0  501    0  0.00000000000E+00  0.00000000000E+00  0.25012030911E+02  0.25012030911E+02  0.00000000000E+00 0. -1.
       -1   -1    0    0    0  501 -0.00000000000E+00 -0.00000000000E+00 -0.34682639610E+03  0.34682639610E+03  0.00000000000E+00 0.  1.
       24    2    1    2    0    0 -0.32491681306E+02  0.28242522506E+02 -0.18697986696E+03  0.20843462174E+03  0.81425864829E+02 0.  0.
      -24    2    1    2    0    0  0.32491681306E+02 -0.28242522506E+02 -0.13483449824E+03  0.16340380527E+03  0.81652386556E+02 0.  0.
      -13    1    3    3    0    0 -0.11806192322E+02  0.17187570298E+02 -0.18355035732E+03  0.18473097310E+03  0.00000000000E+00 0.  1.
       14    1    3    3    0    0 -0.20685488984E+02  0.11054952208E+02 -0.34295096381E+01  0.23703648647E+02  0.00000000000E+00 0. -1.
        1    1    4    4  502    0  0.51646988529E+02  0.67912127087E+01 -0.69900048442E+02  0.87175390830E+02  0.00000000000E+00 0. -1.
       -2    1    4    4    0  502 -0.19155307222E+02 -0.35033735215E+02 -0.64934449794E+02  0.76228414439E+02  0.00000000000E+00 0.  1.
</event>
<event>
 8   1  0.2279600E-02  0.1465682E+03  0.7546771E-02  0.1204921E+00
        3   -1    0    0  501    0  0.00000000000E+00  0.00000000000E+00  0.10470544226E+03  0.10470544226E+03  0.00000000000E+00 0. -1.
       -3   -1    0    0    0  501 -0.00000000000E+00 -0.00000000000E+00 -0.20602251024E+03  0.20602251024E+03  0.00000000000E+00 0.  1.
       24    2    1    2    0    0 -0.58994641461E+02 -0.10662336258E+03 -0.37109115504E+02  0.15119303598E+03  0.81445309914E+02 0.  0.
      -24    2    1    2    0    0  0.58994641461E+02  0.10662336258E+03 -0.64207952474E+02  0.15953491653E+03  0.80497324559E+02 0.  0.
      -13    1    3    3    0    0 -0.75295494156E+02 -0.71907585870E+02 -0.42514715863E+02  0.11246160861E+03  0.00000000000E+00 0.  1.
       14    1    3    3    0    0  0.16300852695E+02 -0.34715776709E+02  0.54056003597E+01  0.38731427373E+02  0.00000000000E+00 0. -1.
        1    1    4    4  502    0  0.24303700366E+02  0.10722568066E+03 -0.39037251200E+02  0.11667014797E+03  0.00000000000E+00 0. -1.
       -2    1    4    4    0  502  0.34690941094E+02 -0.60231808360E+00 -0.25170701274E+02  0.42864768560E+02  0.00000000000E+00 0.  1.
</event>
<event>
 8   1  0.2279600E-02  0.1039291E+03  0.7546771E-02  0.1275765E+00
        2   -1    0    0  501    0  0.00000000000E+00  0.00000000000E+00  0.41578011595E+03  0.41578011595E+03  0.00000000000E+00 0. -1.
       -2   -1    0    0    0  501 -0.00000000000E+00 -0.00000000000E+00 -0.33136147907E+02  0.33136147907E+02  0.00000000000E+00 0.  1.
      -24    2    1    2    0    0  0.48708461309E+02 -0.34262920710E+02  0.30239217434E+03  0.31760896629E+03  0.76733085622E+02 0.  0.
       24    2    1    2    0    0 -0.48708461309E+02  0.34262920710E+02  0.80251793706E+02  0.13130729757E+03  0.85175078883E+02 0.  0.
      -13    1    4    4    0    0 -0.63502973688E+02 -0.14660987786E+01  0.61170038873E+02  0.88184753606E+02  0.00000000000E+00 0.  1.
       14    1    4    4    0    0  0.14794512379E+02  0.35729019489E+02  0.19081754833E+02  0.43122543961E+02  0.00000000000E+00 0. -1.
        1    1    3    3  502    0  0.63292334847E+02 -0.42927030747E+02  0.20604524441E+03  0.21978010002E+03  0.00000000000E+00 0. -1.
       -2    1    3    3    0  502 -0.14583873538E+02  0.86641100366E+01  0.96346929927E+02  0.97828866274E+02  0.00000000000E+00 0.  1.
</event>
<event>
 8   1  0.2279600E-02  0.8355041E+02  0.7546771E-02  0.1320174E+00
        1   -1    0    0  501    0  0.00000000000E+00  0.00000000000E+00  0.32012686380E+03  0.32012686380E+03  0.00000000000E+00 0. -1.
       -1   -1    0    0    0  501 -0.00000000000E+00 -0.00000000000E+00 -0.29155217125E+02  0.29155217125E+02  0.00000000000E+00 0.  1.
       24    2    1    2    0    0 -0.13815364180E+02 -0.14451059488E+02  0.54878859411E+02  0.98841519578E+02  0.79738694337E+02 0.  0.
      -24    2    1    2    0    0  0.13815364180E+02  0.14451059488E+02  0.23609278726E+03  0.25044056135E+03  0.81123197436E+02 0.  0.
      -13    1    3    3    0    0  0.14978305811E+02 -0.38478465823E+02  0.42730954914E+02  0.59421178757E+02  0.00000000000E+00 0.  1.
       14    1    3    3    0    0 -0.28793669991E+02  0.24027406335E+02  0.12147904497E+02  0.39420340821E+02  0.00000000000E+00 0. -1.
        3    1    4    4  502    0 -0.12070657910E+02 -0.24775760574E+02  0.38576615017E+02  0.47409854678E+02  0.00000000000E+00 0. -1.
       -4    1    4    4    0  502  0.25886022090E+02  0.39226820062E+02  0.19751617225E+03  0.20303070667E+03  0.00000000000E+00 0.  1.
</event>
<event>
 8   1  0.2279600E-02  0.9265208E+02  0.7546771E-02  0.1301929E+00
        2   -1    0    0  501    0  0.00000000000E+00  0.00000000000E+00  0.30553278648E+03  0.30553278648E+03  0.00000000000E+00 0. -1.
       -2   -1    0    0    0  501 -0.00000000000E+00 -0.00000000000E+00 -0.25515871864E+02  0.25515871864E+02  0.00000000000E+00 0.  1.
      -24    2    1    2    0    0  0.38631999053E+02 -0.38185004102E+01  0.13644877849E+03  0.16017965167E+03  0.74379025008E+02 0.  0.
       24    2    1    2    0    0 -0.38631999053E+02  0.38185004102E+01  0.14356813612E+03  0.17086900667E+03  0.84127257385E+02 0.  0.
      -13    1    4    4    0    0 -0.19929760586E+02  0.26665787298E+02  0.13651091284E+03  0.14051152584E+03  0.00000000000E+00 0.  1.
       14    1    4    4    0    0 -0.18702238467E+02 -0.22847286888E+02  0.70572232765E+01  0.30357480827E+02  0.00000000000E+00 0. -1.
        3    1    3    3  502    0 -0.11870859021E+01 -0.29719283194E+02  0.85482831932E+02  0.90509444378E+02  0.00000000000E+00 0. -1.
       -4    1    3    3    0  502  0.39819084955E+02  0.25900782783E+02  0.50965946561E+02  0.69670207293E+02  0.00000000000E+00 0.  1.
</event>
<event>
 8   1  0.2279600E-02  0.8734198E+02  0.7546771E-02  0.1317220E+00
       -1   -1    0    0    0  501 -0.00000000000E+00  0.00000000000E+00  0.24835684443E+02  0.24835684443E+02  0.00000000000E+00 0.  1.
        1   -1    0    0  501    0  0.00000000000E+00 -0.00000000000E+00 -0.37552338778E+03  0.37552338778E+03  0.00000000000E+00 0. -1.
       24    2    1    2    0    0 -0.23842244120E+01 -0.11492691907E+01 -0.59684601483E+02  0.96531116415E+02  0.75822156633E+02 0.  0.
      -24    2    1    2    0    0  0.23842244120E+01  0.11492691907E+01 -0.29100310185E+03  0.30382795580E+03  0.87301867656E+02 0.  0.
      -13    1    3    3    0    0  0.55167711046E+01 -0.33223437016E+02 -0.53051677909E+02  0.62838778310E+02  0.00000000000E+00 0.  1.
       14    1    3    3    0    0 -0.79009955165E+01  0.32074167825E+02 -0.66329235737E+01  0.33692338105E+02  0.00000000000E+00 0. -1.
        3    1    4    4  502    0 -0.42245614191E+02 -0.14692269921E+01 -0.12760745767E+03  0.13442661120E+03  0.00000000000E+00 0. -1.
       -4    1    4    4    0  502  0.44629838603E+02  0.26184961828E+01 -0.16339564418E+03  0.16940134460E+03  0.00000000000E+00 0.  1.
</event>
<event>
 8   1  0.2279600E-02  0.1709116E+03  0.7546771E-02  0.1177049E+00
        2   -1    0    0  501    0  0.00000000000E+00  0.00000000000E+00  0.16680813446E+04  0.16680813446E+04  0.00000000000E+00 0. -1.
       -2   -1    0    0    0  501 -0.00000000000E+00 -0.00000000000E+00 -0.18487466826E+02  0.18487466826E+02  0.00000000000E+00 0.  1.
      -24    2    1    2    0    0 -0.58821310899E+02 -0.13901549972E+03  0.62400283818E+03  0.64683435156E+03  0.78929592124E+02 0.  0.
       24    2    1    2    0    0  0.58821310899E+02  0.13901549972E+03  0.10255910396E+04  0.10397344598E+04  0.80159283768E+02 0.  0.
      -13    1    4    4    0    0  0.14925940820E+01  0.48617556352E+02  0.15158411546E+03  0.15919685513E+03  0.00000000000E+00 0.  1.
       14    1    4    4    0    0  0.57328716817E+02  0.90397943368E+02  0.87400692411E+03  0.88053760472E+03  0.00000000000E+00 0. -1.
        1    1    3    3  502    0 -0.27661405835E+02 -0.53826531110E+01  0.17748320727E+03  0.17970646953E+03  0.00000000000E+00 0. -1.
       -2    1    3    3    0  502 -0.31159905064E+02 -0.13363284661E+03  0.44651963091E+03  0.46712788202E+03  0.00000000000E+00 0.  1.
</event>
<event>
 8   1  0.2279600E-02  0.1085114E+03  0.7546771E-02  0.1263976E+00
        2   -1    0    0  501    0  0.00000000000E+00  0.00000000000E+00  0.24466845256E+03  0.24466845256E+03  0.00000000000E+00 0. -1.
       -2   -1    0    0    0  501 -0.00000000000E+00 -0.00000000000E+00 -0.16937371728E+03  0.16937371728E+03  0.00000000000E+00 0.  1.
       24    2    1    2    0    0  0.72055223480E+01 -0.70930508439E+02  0.21328849240E+03  0.23930461457E+03  0.81802573222E+02 0.  0.
      -24    2    1    2    0    0 -0.72055223480E+01  0.70930508439E+02 -0.13799375712E+03  0.17473755526E+03  0.80049232566E+02 0.  0.
      -13    1    3    3    0    0 -0.19611986950E+02  0.26129550036E+01  0.11547485422E+02  0.22908557038E+02  0.00000000000E+00 0.  1.
       14    1    3    3    0    0  0.26817509298E+02 -0.73543463443E+02  0.20174100698E+03  0.21639605754E+03  0.00000000000E+00 0. -1.
        3    1    4    4  502    0  0.13291728322E+02  0.16797609966E+01 -0.82705899734E+02  0.83783993040E+02  0.00000000000E+00 0. -1.
       -4    1    4    4    0  502 -0.20497250670E+02  0.69250747443E+02 -0.55287857387E+02  0.90953562222E+02  0.00000000000E+00 0.  1.
</event>
<event>
 8   1  0.2279600E-02  0.1324078E+03  0.7546771E-02  0.1225118E+00
        1   -1    0    0  501    0  0.00000000000E+00  0.00000000000E+00  0.79659102570E+03  0.79659102570E+03  0.00000000000E+00 0. -1.
       -1   -1    0    0    0  501 -0.00000000000E+00 -0.00000000000E+00 -0.26184749235E+02  0.26184749235E+02  0.00000000000E+00 0.  1.
       24    2    1    2    0    0 -0.48340255812E+02  0.92564311571E+02  0.21460782718E+03  0.25216730899E+03  0.81405774554E+02 0.  0.
      -24    2    1    2    0    0  0.48340255812E+02 -0.92564311571E+02  0.55579844929E+03  0.57060846595E+03  0.76007717147E+02 0.  0.
      -13    1    3    3    0    0 -0.41225462694E+02  0.10788874213E+03  0.18848796117E+03  0.22105933810E+03  0.00000000000E+00 0.  1.
       14    1    3    3    0    0 -0.71147931181E+01 -0.15324430562E+02  0.26119866006E+02  0.31107970897E+02  0.00000000000E+00 0. -1.
        3    1    4    4  502    0  0.15925974908E+02 -0.77226208084E+02  0.48369420331E+03  0.49007918361E+03  0.00000000000E+00 0. -1.
       -4    1    4    4    0  502  0.32414280904E+02 -0.15338103487E+02  0.72104245986E+02  0.80529282341E+02  0.00000000000E+00 0.  1.
</event>
<event>
 8   1  0.2279600E-02  0.8556336E+02  0.7546771E-02  0.1314480E+00
        2   -1    0    0  501    0  0.00000000000E+00  0.00000000000E+00  0.11073696329E+03  0.11073696329E+03  0.00000000000E+00 0. -1.
       -2   -1    0    0    0  501 -0.00000000000E+00 -0.00000000000E+00 -0.17079307740E+03  0.17079307740E+03  0.00000000000E+00 0.  1.
      -24    2    1    2    0    0  0.27218047042E+02 -0.58963388225E+01 -0.14049672692E+03  0.16409163137E+03  0.80069621680E+02 0.  0.
       24    2    1    2    0    0 -0.27218047042E+02  0.58963388225E+01  0.80440612802E+02  0.11743840932E+03  0.80904257614E+02 0.  0.
      -13    1    4    4    0    0  0.25413257070E+02 -0.10768393011E+02  0.13668707587E+02  0.30799764448E+02  0.00000000000E+00 0.  1.
       14    1    4    4    0    0 -0.52631304113E+02  0.16664731833E+02  0.66771905216E+02  0.86638644875E+02  0.00000000000E+00 0. -1.
        3    1    3    3  502    0  0.50904530083E+02  0.15099375905E+02 -0.86064054813E+02  0.10112509019E+03  0.00000000000E+00 0. -1.
       -4    1    3    3    0  502 -0.23686483041E+02 -0.20995714728E+02 -0.54432672103E+02  0.62966541178E+02  0.00000000000E+00 0.  1.
</event>
<event>
 8   1  0.2279600E-02  0.1290257E+03  0.7546771E-02  0.1236093E+00
       -2   -1    0    0    0  501 -0.00000000000E+00  0.00000000000E+00  0.22262377998E+02  0.22262377998E+02  0.00000000000E+00 0.  1.
        2   -1    0    0  501    0  0.00000000000E+00 -0.00000000000E+00 -0.10702562305E+04  0.10702562305E+04  0.00000000000E+00 0. -1.
      -24    2    1    2    0    0 -0.26323359053E+02  0.71723587999E+02 -0.15827990611E+03  0.19349772514E+03  0.80942255042E+02 0.  0.
       24    2    1    2    0    0  0.26323359053E+02 -0.71723587999E+02 -0.88971394643E+03  0.89902088339E+03  0.10397331384E+03 0.  0.
      -13    1    4    4    0    0  0.40221427163E+02  0.13564029354E+02 -0.27202475033E+03  0.27531656487E+03  0.00000000000E+00 0.  1.
       14    1    4    4    0    0 -0.13898068110E+02 -0.85287617353E+02 -0.61768919610E+03  0.62370431853E+03  0.00000000000E+00 0. -1.
        1    1    3    3  502    0 -0.34505169103E+02  0.94946082863E+01 -0.10578335317E+03  0.11167305892E+03  0.00000000000E+00 0. -1.
       -2    1    3    3    0  502  0.81818100498E+01  0.62228979713E+02 -0.52496552934E+02  0.81824666218E+02  0.00000000000E+00 0.  1.
</event>
<event>
 8   1  0.2279600E-02  0.8960154E+02  0.7546771E-02  0.1307717E+00
       -2   -1    0    0    0  501 -0.00000000000E+00  0.00000000000E+00  0.39311955253E+03  0.39311955253E+03  0.00000000000E+00 0.  1.
        2   -1    0    0  501    0  0.00000000000E+00 -0.00000000000E+00 -0.83817383308E+03  0.83817383308E+03  0.00000000000E+00 0. -1.
      -24    2    1    2    0    0 -0.81162902572E+01 -0.19870036737E+02  0.38589713704E+03  0.39616289117E+03  0.86992778103E+02 0.  0.
       24    2    1    2    0    0  0.81162902572E+01  0.19870036737E+02 -0.83095141759E+03  0.83513049444E+03  0.80634929289E+02 0.  0.
      -13    1    4    4    0    0 -0.15139489001E+02  0.14064955048E+01 -0.30039337801E+02  0.33668147741E+02  0.00000000000E+00 0.  1.
       14    1    4    4    0    0  0.23255779258E+02  0.18463541232E+02 -0.80091207979E+03  0.80146234670E+03  0.00000000000E+00 0. -1.
        3    1    3    3  502    0  0.13711223965E+02 -0.23491564202E+02  0.33864669202E+02  0.43435781004E+02  0.00000000000E+00 0. -1.
       -4    1    3    3    0  502 -0.21827514222E+02  0.36215274660E+01  0.35203246783E+03  0.35272711017E+03  0.00000000000E+00 0.  1.
</event>
<event>
 8   1  0.2279600E-02  0.8573392E+02  0.7546771E-02  0.1317899E+00
        1   -1    0    0  501    0  0.00000000000E+00  0.00000000000E+00  0.97390141054E+03  0.97390141054E+03  0.00000000000E+00 0. -1.
       -1   -1    0    0    0  501 -0.00000000000E+00 -0.00000000000E+00 -0.19745851251E+02  0.19745851251E+02  0.00000000000E+00 0.  1.
       24    2    1    2    0    0  0.19182026792E+02 -0.24303062224E+02  0.71181536491E+02  0.10652076031E+03  0.72947051028E+02 0.  0.
      -24    2    1    2    0    0 -0.19182026792E+02  0.24303062224E+02  0.88297402280E+03  0.88712650148E+03  0.79948206444E+02 0.  0.
      -13    1    3    3    0    0 -0.10227270285E+02 -0.14675365737E+02 -0.93961875277E+01  0.20205240831E+02  0.00000000000E+00 0.  1.
       14    1    3    3    0    0  0.29409297076E+02 -0.96276964872E+01  0.80577724019E+02  0.86315519475E+02  0.00000000000E+00 0. -1.
        3    1    4    4  502    0  0.30967733065E+02  0.14812563530E+02  0.31563784501E+03  0.31749907360E+03  0.00000000000E+00 0. -1.
       -4    1    4    4    0  502 -0.50149759857E+02  0.94904986947E+01  0.56733617778E+03  0.56962742789E+03  0.00000000000E+00 0.  1.
</event>
<event>
 8   1  0.2279600E-02  0.1038225E+03  0.7546771E-02  0.1272540E+00
        2   -1    0    0  501    0  0.00000000000E+00  0.00000000000E+00  0.15619542448E+03  0.15619542448E+03  0.00000000000E+00 0. -1.
       -2   -1    0    0    0  501 -0.00000000000E+00 -0.00000000000E+00 -0.72014240846E+02  0.72014240846E+02  0.00000000000E+00 0.  1.
       24    2    1    2    0    0 -0.73889926959E+01 -0.63689178976E+02  0.65850618586E+02  0.12294479357E+03  0.81659105836E+02 0.  0.
      -24    2    1    2    0    0  0.73889926959E+01  0.63689178976E+02  0.18330565049E+02  0.10526487176E+03  0.81447988802E+02 0.  0.
      -13    1    3    3    0    0 -0.22020610804E+02 -0.16523997118E+02 -0.12574959233E+02  0.30266803278E+02  0.00000000000E+00 0.  1.
       14    1    3    3    0    0  0.14631618108E+02 -0.47165181857E+02  0.78425577820E+02  0.92677990291E+02  0.00000000000E+00 0. -1.
        1    1    4    4  502    0  0.27950527231E+02  0.96982258411E+01  0.34327502216E+02  0.45317380390E+02  0.00000000000E+00 0. -1.
       -2    1    4    4    0  502 -0.20561534535E+02  0.53990953134E+02 -0.15996937167E+02  0.59947491370E+02  0.00000000000E+00 0.  1.
</event>
<event>
 8   1  0.2279600E-02  0.7939087E+02  0.7546771E-02  0.1334338E+00
       -2   -1    0    0    0  501 -0.00000000000E+00  0.00000000000E+00  0.10032002060E+03  0.10032002060E+03  0.00000000000E+00 0.  1.
        2   -1    0    0  501    0  0.00000000000E+00 -0.00000000000E+00 -0.18272995377E+03  0.18272995377E+03  0.00000000000E+00 0. -1.
       24    2    1    2    0    0  0.43711570376E+01  0.17970341172E+01 -0.15718388773E+03  0.17399011074E+03  0.74454333165E+02 0.  0.
      -24    2    1    2    0    0 -0.43711570376E+01 -0.17970341172E+01  0.74773954557E+02  0.10905986363E+03  0.79250067697E+02 0.  0.
      -13    1    3    3    0    0  0.20797909819E+02  0.33090390793E+02 -0.76528179792E+02  0.85930723946E+02  0.00000000000E+00 0.  1.
       14    1    3    3    0    0 -0.16426752782E+02 -0.31293356676E+02 -0.80655707940E+02  0.88059386792E+02  0.00000000000E+00 0. -1.
        3    1    4    4  502    0 -0.14766459696E+02 -0.23446439051E+02  0.79843427374E+02  0.84514831426E+02  0.00000000000E+00 0. -1.
       -4    1    4    4    0  502  0.10395302658E+02  0.21649404934E+02 -0.50694728176E+01  0.24545032206E+02  0.00000000000E+00 0.  1.
</event>
<event>
 8   1  0.2279600E-02  0.1015727E+03  0.7546771E-02  0.1278327E+00
        1   -1    0    0  501    0  0.00000000000E+00  0.00000000000E+00  0.19585534051E+03  0.19585534051E+03  0.00000000000E+00 0. -1.
       -1   -1    0    0    0  501 -0.00000000000E+00 -0.00000000000E+00 -0.12293898542E+03  0.12293898542E+03  0.00000000000E+00 0.  1.
       24    2    1    2    0    0 -0.40817570671E+02  0.44974344724E+02 -0.85330066667E+02  0.13075456731E+03  0.78273691850E+02 0.  0.
      -24    2    1    2    0    0  0.40817570671E+02 -0.44974344724E+02  0.15824642176E+03  0.18803975862E+03  0.81414096220E+02 0.  0.
      -13    1    3    3    0    0 -0.64066221639E+02  0.29870259423E+02 -0.67840500347E+02  0.97974724498E+02  0.00000000000E+00 0.  1.
       14    1    3    3    0    0  0.23248650968E+02  0.15104085301E+02 -0.17489566321E+02  0.32779842811E+02  0.00000000000E+00 0. -1.
        3    1    4    4  502    0  0.49982031731E+02 -0.52486352218E+02  0.16038268989E+03  0.17599894284E+03  0.00000000000E+00 0. -1.
       -4    1    4    4    0  502 -0.91644610605E+01  0.75120074944E+01 -0.21362681282E+01  0.12040815780E+02  0.00000000000E+00 0.  1.
</event>
<event>
 8   1  0.2279600E-02  0.8562859E+02  0.7546771E-02  0.1313866E+00
       -3   -1    0    0    0  501 -0.00000000000E+00  0.00000000000E+00  0.19650667768E+02  0.19650667768E+02  0.00000000000E+00 0.  1.
        3   -1    0    0  501    0  0.00000000000E+00 -0.00000000000E+00 -0.10755831330E+04  0.10755831330E+04  0.00000000000E+00 0. -1.
       24    2    1    2    0    0  0.84342126156E+01  0.29198091972E+02 -0.85382498974E+02  0.12092322413E+03  0.80053672529E+02 0.  0.
      -24    2    1    2    0    0 -0.84342126156E+01 -0.29198091972E+02 -0.97054996626E+03  0.97431057664E+03  0.79938715465E+02 0.  0.
      -13    1    3    3    0    0 -0.14307739402E+02 -0.23903393663E+02 -0.28317866734E+02  0.39723861995E+02  0.00000000000E+00 0.  1.
       14    1    3    3    0    0  0.22741952018E+02  0.53101485635E+02 -0.57064632241E+02  0.81199362134E+02  0.00000000000E+00 0. -1.
        3    1    4    4  502    0  0.53398567302E+01 -0.29294777433E+02 -0.94336702705E+03  0.94383687456E+03  0.00000000000E+00 0. -1.
       -4    1    4    4    0  502 -0.13774069346E+02  0.96685461195E-01 -0.27182939212E+02  0.30473702082E+02  0.00000000000E+00 0.  1.
</event>
<event>
 8   1  0.2279600E-02  0.8264899E+02  0.7546771E-02  0.1321839E+00
        1   -1    0    0  501    0  0.00000000000E+00  0.00000000000E+00  0.68355601400E+03  0.68355601400E+03  0.00000000000E+00 0. -1.
       -1   -1    0    0    0  501 -0.00000000000E+00 -0.00000000000E+00 -0.11482032722E+02  0.11482032722E+02  0.00000000000E+00 0.  1.
       24    2    1    2    0    0 -0.17770605081E+02  0.51908166123E+01  0.21021179427E+03  0.22587574834E+03  0.80548843893E+02 0.  0.
      -24    2    1    2    0    0  0.17770605081E+02 -0.51908166123E+01  0.46186218700E+03  0.46916229838E+03  0.80335816801E+02 0.  0.
      -13    1    3    3    0    0  0.62922058263E+01  0.18813302302E+02  0.73770262063E+01  0.21164893416E+02  0.00000000000E+00 0.  1.
       14    1    3    3    0    0 -0.24062810907E+02 -0.13622485690E+02  0.20283476807E+03  0.20471085492E+03  0.00000000000E+00 0. -1.
        1    1    4    4  502    0 -0.20799482428E+02 -0.15732280372E+02  0.61400570975E+02  0.66709468826E+02  0.00000000000E+00 0. -1.
       -2    1    4    4    0  502  0.38570087509E+02  0.10541463760E+02  0.40046161603E+03  0.40245282956E+03  0.00000000000E+00 0.  1.
</event>
<event>
 8   1  0.2279600E-02  0.1014743E+03  0.7546771E-02  0.1279920E+00
       -1   -1    0    0    0  501 -0.00000000000E+00  0.00000000000E+00  0.31785404712E+02  0.31785404712E+02  0.00000000000E+00 0.  1.
        1   -1    0    0  501    0  0.00000000000E+00 -0.00000000000E+00 -0.56836118037E+03  0.56836118037E+03  0.00000000000E+00 0. -1.
       24    2    1    2    0    0  0.55209806227E+02 -0.25677812666E+02 -0.68934287256E+02  0.12267424264E+03  0.81176111513E+02 0.  0.
      -24    2    1    2    0    0 -0.55209806227E+02  0.25677812666E+02 -0.46764148840E+03  0.47747234244E+03  0.74724851004E+02 0.  0.
      -13    1    3    3    0    0  0.62215755864E+02 -0.47050198449E+02 -0.46023393051E+02  0.90568615754E+02  0.00000000000E+00 0.  1.
       14    1    3    3    0    0 -0.70059496368E+01  0.21372385782E+02 -0.22910894205E+02  0.32105626884E+02  0.00000000000E+00 0. -1.
        1    1    4    4  502    0 -0.40403748807E+02  0.35090197385E+02 -0.14848564343E+03  0.15783463236E+03  0.00000000000E+00 0. -1.
       -2    1    4    4    0  502 -0.14806057419E+02 -0.94123847186E+01 -0.31915584497E+03  0.31963771008E+03  0.00000000000E+00 0.  1.
</event>
<event>
 8   1  0.2279600E-02  0.9335812E+02  0.7546771E-02  0.1295058E+00
       -1   -1    0    0    0  501 -0.00000000000E+00  0.00000000000E+00  0.19527707228E+02  0.19527707228E+02  0.00000000000E+00 0.  1.
        1   -1    0    0  501    0  0.00000000000E+00 -0.00000000000E+00 -0.69860196752E+03  0.69860196752E+03  0.00000000000E+00 0. -1.
       24    2    1    2    0    0  0.27626697846E+02  0.39661243440E+02 -0.12298406499E+03  0.15425730960E+03  0.79586359764E+02 0.  0.
      -24    2    1    2    0    0 -0.27626697846E+02 -0.39661243440E+02 -0.55609019531E+03  0.56387236515E+03  0.79871710847E+02 0.  0.
      -13    1    3    3    0    0  0.38306063050E+02  0.51872932145E+02 -0.56218923271E+02  0.85549534712E+02  0.00000000000E+00 0.  1.
       14    1    3    3    0    0 -0.10679365204E+02 -0.12211688705E+02 -0.66765141716E+02  0.68707774892E+02  0.00000000000E+00 0. -1.
        3    1    4    4  502    0  0.23531051897E+02 -0.60546279526E+01 -0.28131142059E+03  0.28235878644E+03  0.00000000000E+00 0. -1.
       -4    1    4    4    0  502 -0.51157749743E+02 -0.33606615487E+02 -0.27477877472E+03  0.28151357871E+03  0.00000000000E+00 0.  1.
</event>
<event>
 8   1  0.2279600E-02  0.1050013E+03  0.7546771E-02  0.1270193E+00
       -1   -1    0    0    0  501 -0.00000000000E+00  0.00000000000E+00  0.48860137986E+02  0.48860137986E+02  0.00000000000E+00 0.  1.
        1   -1    0    0  501    0  0.00000000000E+00 -0.00000000000E+00 -0.30070869752E+03  0.30070869752E+03  0.00000000000E+00 0. -1.
       24    2    1    2    0    0  0.65184620965E+02  0.25982177609E+02 -0.38338431491E+02  0.11163638541E+03  0.77902110723E+02 0.  0.
      -24    2    1    2    0    0 -0.65184620965E+02 -0.25982177609E+02 -0.21351012805E+03  0.23793245010E+03  0.78109971625E+02 0.  0.
      -13    1    3    3    0    0  0.98961029944E+00  0.58544305230E+00 -0.42461625449E+02  0.42477190442E+02  0.00000000000E+00 0.  1.
       14    1    3    3    0    0  0.64195010666E+02  0.25396734556E+02  0.41231939578E+01  0.69159194970E+02  0.00000000000E+00 0. -1.
        3    1    4    4  502    0 -0.23792192174E+01 -0.39724085407E+02 -0.97304508884E+02  0.10512768948E+03  0.00000000000E+00 0. -1.
       -4    1    4    4    0  502 -0.62805401748E+02  0.13741907798E+02 -0.11620561916E+03  0.13280476062E+03  0.00000000000E+00 0.  1.
</event>
<event>
 8   1  0.2279600E-02  0.9170484E+02  0.7546771E-02  0.1298882E+00
       -2   -1    0    0    0  501 -0.00000000000E+00  0.00000000000E+00  0.75421387293E+02  0.75421387293E+02  0.00000000000E+00 0.  1.
        2   -1    0    0  501    0  0.00000000000E+00 -0.00000000000E+00 -0.11555932182E+03  0.11555932182E+03  0.00000000000E+00 0. -1.
       24    2    1    2    0    0  0.26183611093E+02 -0.39456505237E+02 -0.38416810140E+02  0.99259720563E+02  0.78321411692E+02 0.  0.
      -24    2    1    2    0    0 -0.26183611093E+02  0.39456505237E+02 -0.17211243887E+01  0.91720988553E+02  0.78532669486E+02 0.  0.
      -13    1    3    3    0    0 -0.12887675768E+02 -0.34080981718E+02  0.90527476044E+01  0.37544077306E+02  0.00000000000E+00 0.  1.
       14    1    3    3    0    0  0.39071286862E+02 -0.53755235189E+01 -0.47469557744E+02  0.61715643257E+02  0.00000000000E+00 0. -1.
        1    1    4    4  502    0  0.23755478877E+02  0.20302126353E+02  0.16345340971E+02  0.35265695550E+02  0.00000000000E+00 0. -1.
       -2    1    4    4    0  502 -0.49939089970E+02  0.19154378884E+02 -0.18066465360E+02  0.56455293003E+02  0.00000000000E+00 0.  1.
</event>
<event>
 8   1  0.2279600E-02  0.8706999E+02  0.7546771E-02  0.1312499E+00
        2   -1    0    0  501    0  0.00000000000E+00  0.00000000000E+00  0.99709403438E+03  0.99709403438E+03  0.00000000000E+00 0. -1.
       -2   -1    0    0    0  501 -0.00000000000E+00 -0.00000000000E+00 -0.15507650096E+02  0.15507650096E+02  0.00000000000E+00 0.  1.
      -24    2    1    2    0    0  0.28657938448E+02  0.82057453783E+01  0.11715198626E+03  0.14379329865E+03  0.77867279126E+02 0.  0.
       24    2    1    2    0    0 -0.28657938448E+02 -0.82057453783E+01  0.86443439803E+03  0.86880838583E+03  0.81808135915E+02 0.  0.
      -13    1    4    4    0    0  0.27125375975E+02  0.67516353088E+01  0.21465825188E+03  0.21647063473E+03  0.00000000000E+00 0.  1.
       14    1    4    4    0    0 -0.55783314423E+02 -0.14957380687E+02  0.64977614615E+03  0.65233775110E+03  0.00000000000E+00 0. -1.
        1    1    3    3  502    0 -0.17469453655E+02 -0.22029688682E+02  0.36129511362E+02  0.45780242307E+02  0.00000000000E+00 0. -1.
       -2    1    3    3    0  502  0.46127392103E+02  0.30235434060E+02  0.81022474901E+02  0.98013056345E+02  0.00000000000E+00 0.  1.
</event>
<event>
 8   1  0.2279600E-02  0.1742146E+03  0.7546771E-02  0.1173677E+00
       -2   -1    0    0    0  501 -0.00000000000E+00  0.00000000000E+00  0.11795825747E+02  0.11795825747E+02  0.00000000000E+00 0.  1.
        2   -1    0    0  501    0  0.00000000000E+00 -0.00000000000E+00 -0.26200796894E+04  0.26200796894E+04  0.00000000000E+00 0. -1.
       24    2    1    2    0    0 -0.48182861351E+02 -0.14521586078E+03 -0.14943990298E+04  0.15044491826E+04  0.82034434481E+02 0.  0.
      -24    2    1    2    0    0  0.48182861351E+02  0.14521586078E+03 -0.11138848339E+04  0.11274263326E+04  0.83315531921E+02 0.  0.
      -13    1    3    3    0    0 -0.20731557127E+02 -0.77457631762E+02 -0.42129664315E+03  0.42885935189E+03  0.00000000000E+00 0.  1.
       14    1    3    3    0    0 -0.27451304224E+02 -0.67758229020E+02 -0.10731023867E+04  0.10755898307E+04  0.00000000000E+00 0. -1.
        3    1    4    4  502    0 -0.97450810547E+01  0.56677117491E+01 -0.18458641518E+02  0.21628939130E+02  0.00000000000E+00 0. -1.
       -4    1    4    4    0  502  0.57927942406E+02  0.13954814903E+03 -0.10954261924E+04  0.11057973934E+04  0.00000000000E+00 0.  1.
</event>
<event>
 8   1  0.2279600E-02  0.8960182E+02  0.7546771E-02  0.1304371E+00
       -2   -1    0    0    0  501 -0.00000000000E+00  0.00000000000E+00  0.76829887884E+02  0.76829887884E+02  0.00000000000E+00 0.  1.
        2   -1    0    0  501    0  0.00000000000E+00 -0.00000000000E+00 -0.13497468526E+03  0.13497468526E+03  0.00000000000E+00 0. -1.
       24    2    1    2    0    0 -0.33153120104E+02  0.19269615234E+02 -0.80367461224E+02  0.12036367840E+03  0.80981718983E+02 0.  0.
      -24    2    1    2    0    0  0.33153120104E+02 -0.19269615234E+02  0.22222663843E+02  0.91440894754E+02  0.79982141764E+02 0.  0.
      -13    1    3    3    0    0 -0.55920742057E+02  0.28231873159E+02 -0.44080429876E+02  0.76597991830E+02  0.00000000000E+00 0.  1.
       14    1    3    3    0    0  0.22767621954E+02 -0.89622579253E+01 -0.36287031348E+02  0.43765686566E+02  0.00000000000E+00 0. -1.
        3    1    4    4  502    0  0.36679352909E+02 -0.43296604957E+02  0.32134129055E+02  0.65211756461E+02  0.00000000000E+00 0. -1.
       -4    1    4    4    0  502 -0.35262328048E+01  0.24026989723E+02 -0.99114652117E+01  0.26229138293E+02  0.00000000000E+00 0.  1.
</event>
<event>
 8   1  0.2279600E-02  0.1088571E+03  0.7546771E-02  0.1264158E+00
       -2   -1    0    0    0  501 -0.00000000000E+00  0.00000000000E+00  0.26409721580E+02  0.26409721580E+02  0.00000000000E+00 0.  1.
        2   -1    0    0  501    0  0.00000000000E+00 -0.00000000000E+00 -0.46585665200E+03  0.46585665200E+03  0.00000000000E+00 0. -1.
       24    2    1    2    0    0 -0.53776709666E+02  0.49307433849E+02 -0.27890381962E+03  0.29829740398E+03  0.76621427082E+02 0.  0.
      -24    2    1    2    0    0  0.53776709666E+02 -0.49307433849E+02 -0.16054311079E+03  0.19396896959E+03  0.80788075891E+02 0.  0.
      -13    1    3    3    0    0  0.18520165123E+02  0.19240806908E+02 -0.56016558809E+02  0.62056909587E+02  0.00000000000E+00 0.  1.
       14    1    3    3    0    0 -0.72296874790E+02  0.30066626941E+02 -0.22288726081E+03  0.23624049440E+03  0.00000000000E+00 0. -1.
        1    1    4    4  502    0  0.25035855583E+02  0.16032375773E+02 -0.84939249002E+02  0.89991706056E+02  0.00000000000E+00 0. -1.
       -2    1    4    4    0  502  0.28740854083E+02 -0.65339809622E+02 -0.75603861792E+02  0.10397726354E+03  0.00000000000E+00 0.  1.
</event>
<event>
 8   1  0.2279600E-02  0.1161581E+03  0.7546771E-02  0.1249861E+00
        2   -1    0    0  501    0  0.00000000000E+00  0.00000000000E+00  0.37639972118E+02  0.37639972118E+02  0.00000000000E+00 0. -1.
       -2   -1    0    0    0  501 -0.00000000000E+00 -0.00000000000E+00 -0.52778901930E+03  0.52778901930E+03  0.00000000000E+00 0.  1.
       24    2    1    2    0    0  0.83926995493E+02  0.21233089289E+01 -0.83500384222E+02  0.14251548483E+03  0.79310152180E+02 0.  0.
      -24    2    1    2    0    0 -0.83926995493E+02 -0.21233089289E+01 -0.40664866296E+03  0.42291350659E+03  0.80277331490E+02 0.  0.
      -13    1    3    3    0    0  0.77114773549E+02 -0.29323827109E+02 -0.52216681124E+02  0.97637886722E+02  0.00000000000E+00 0.  1.
       14    1    3    3    0    0  0.68122219440E+01  0.31447136038E+02 -0.31283703098E+02  0.44877598112E+02  0.00000000000E+00 0. -1.
        1    1    4    4  502    0 -0.55180291704E+02  0.33705877798E+02 -0.17072665645E+03  0.18256106380E+03  0.00000000000E+00 0. -1.
       -2    1    4    4    0  502 -0.28746703790E+02 -0.35829186727E+02 -0.23592200651E+03  0.24035244279E+03  0.00000000000E+00 0.  1.
</event>
<event>
 8   1  0.2279600E-02  0.1420500E+03  0.7546771E-02  0.1211424E+00
       -4   -1    0    0    0  501 -0.00000000000E+00  0.00000000000E+00  0.79980266024E+02  0.79980266024E+02  0.00000000000E+00 0.  1.
        4   -1    0    0  501    0  0.00000000000E+00 -0.00000000000E+00 -0.38819412912E+03  0.38819412912E+03  0.00000000000E+00 0. -1.
      -24    2    1    2    0    0  0.99046656958E+02  0.61624340370E+02 -0.14252737059E+02  0.14276326027E+03  0.81058055665E+02 0.  0.
       24    2    1    2    0    0 -0.99046656958E+02 -0.61624340370E+02 -0.29396112603E+03  0.32541113487E+03  0.76625475522E+02 0.  0.
      -13    1    4    4    0    0 -0.21243369288E+02 -0.23404175106E+01 -0.74020982386E+01  0.22617456780E+02  0.00000000000E+00 0.  1.
       14    1    4    4    0    0 -0.77803287670E+02 -0.59283922859E+02 -0.28655902780E+03  0.30279367809E+03  0.00000000000E+00 0. -1.
        1    1    3    3  502    0  0.24063854700E+02  0.23884927413E+02 -0.42341904334E+02  0.54243854243E+02  0.00000000000E+00 0. -1.
       -2    1    3    3    0  502  0.74982802259E+02  0.37739412957E+02  0.28089167275E+02  0.88519406025E+02  0.00000000000E+00 0.  1.
</event>
<event>
 8   1  0.2279600E-02  0.1666199E+03  0.7546771E-02  0.1181953E+00
       -2   -1    0    0    0  501 -0.00000000000E+00  0.00000000000E+00  0.30785529667E+02  0.30785529667E+02  0.00000000000E+00 0.  1.
        2   -1    0    0  501    0  0.00000000000E+00 -0.00000000000E+00 -0.16732019015E+04  0.16732019015E+04  0.00000000000E+00 0. -1.
      -24    2    1    2    0    0  0.51807094920E+02  0.13399007720E+03 -0.23610244895E+03  0.28783735699E+03  0.80427991438E+02 0.  0.
       24    2    1    2    0    0 -0.51807094920E+02 -0.13399007720E+03 -0.14063139229E+04  0.14161500742E+04  0.84408927378E+02 0.  0.
      -13    1    4    4    0    0  0.89261111075E+01  0.20499900794E+00 -0.18507648249E+02  0.20548735431E+02  0.00000000000E+00 0.  1.
       14    1    4    4    0    0 -0.60733206028E+02 -0.13419507621E+03 -0.13878062746E+04  0.13956013388E+04  0.00000000000E+00 0. -1.
        1    1    3    3  502    0 -0.21097798118E+01  0.65988531411E+01 -0.75735997430E+02  0.76052201417E+02  0.00000000000E+00 0. -1.
       -2    1    3    3    0  502  0.53916874732E+02  0.12739122406E+03 -0.16036645152E+03  0.21178515557E+03  0.00000000000E+00 0.  1.
</event>
<event>
 8   1  0.2279600E-02  0.8552578E+02  0.7546771E-02  0.1318058E+00
       -1   -1    0    0    0  501 -0.00000000000E+00  0.00000000000E+00  0.62830846230E+02  0.62830846230E+02  0.00000000000E+00 0.  1.
        1   -1    0    0  501    0  0.00000000000E+00 -0.00000000000E+00 -0.37250531126E+03  0.37250531126E+03  0.00000000000E+00 0. -1.
       24    2    1    2    0    0 -0.60207812236E+01  0.14772045012E+02  0.26759261625E+02  0.89614269769E+02  0.84024973330E+02 0.  0.
      -24    2    1    2    0    0  0.60207812236E+01 -0.14772045012E+02 -0.33643372665E+03  0.34572188772E+03  0.77984024632E+02 0.  0.
      -13    1    3    3    0    0 -0.93693963670E+01 -0.33418678790E+02  0.67277002299E+00  0.34713776802E+02  0.00000000000E+00 0.  1.
       14    1    3    3    0    0  0.33486151435E+01  0.48190723802E+02  0.26086491602E+02  0.54900492967E+02  0.00000000000E+00 0. -1.
        1    1    4    4  502    0  0.27138491099E+02  0.42061114032E+01 -0.43688515196E+02  0.51603056424E+02  0.00000000000E+00 0. -1.
       -2    1    4    4    0  502 -0.21117709875E+02 -0.18978156415E+02 -0.29274521146E+03  0.29411883129E+03  0.00000000000E+00 0.  1.
</event>
<event>
 8   1  0.2279600E-02  0.8469684E+02  0.7546771E-02  0.1318345E+00
       -1   -1    0    0    0  501 -0.00000000000E+00  0.00000000000E+00  0.32099640223E+02  0.32099640223E+02  0.00000000000E+00 0.  1.
        1   -1    0    0  501    0  0.00000000000E+00 -0.00000000000E+00 -0.22864488421E+04  0.22864488421E+04  0.00000000000E+00 0. -1.
       24    2    1    2    0    0  0.12433271909E+02  0.40416935885E+01 -0.25843977965E+02  0.88552053520E+02  0.83681739036E+02 0.  0.
      -24    2    1    2    0    0 -0.12433271909E+02 -0.40416935885E+01 -0.22285052239E+04  0.22299964288E+04  0.80483650104E+02 0.  0.
      -13    1    3    3    0    0  0.11903334281E+02 -0.39382057712E+02 -0.15008145421E+02  0.43793609872E+02  0.00000000000E+00 0.  1.
       14    1    3    3    0    0  0.52993762805E+00  0.43423751300E+02 -0.10835832543E+02  0.44758443648E+02  0.00000000000E+00 0. -1.
        1    1    4    4  502    0  0.47008790862E+01 -0.38732302764E+02 -0.14562289035E+04  0.14567514918E+04  0.00000000000E+00 0. -1.
       -2    1    4    4    0  502 -0.17134150995E+02  0.34690609175E+02 -0.77227632041E+03  0.77324493698E+03  0.00000000000E+00 0.  1.
</event>
<event>
 8   1  0.2279600E-02  0.1435152E+03  0.7546771E-02  0.1209032E+00
        1   -1    0    0  501    0  0.00000000000E+00  0.00000000000E+00  0.23996903277E+04  0.23996903277E+04  0.00000000000E+00 0. -1.
       -1   -1    0    0    0  501 -0.00000000000E+00 -0.00000000000E+00 -0.86478476143E+01  0.86478476143E+01  0.00000000000E+00 0.  1.
       24    2    1    2    0    0 -0.11439668803E+03  0.20007374927E+02  0.13476057747E+04  0.13552261586E+04  0.84319153594E+02 0.  0.
      -24    2    1    2    0    0  0.11439668803E+03 -0.20007374927E+02  0.10434367054E+04  0.10531120167E+04  0.82449162029E+02 0.  0.
      -13    1    3    3    0    0 -0.11625725031E+03  0.36153938442E+02  0.12761840718E+04  0.12819784088E+04  0.00000000000E+00 0.  1.
       14    1    3    3    0    0  0.18605622789E+01 -0.16146563515E+02  0.71421702871E+02  0.73247749770E+02  0.00000000000E+00 0. -1.
        1    1    4    4  502    0  0.31345623478E+01 -0.75988643566E+01  0.39476064713E+03  0.39484621910E+03  0.00000000000E+00 0. -1.
       -2    1    4    4    0  502  0.11126212568E+03 -0.12408510570E+02  0.64867605824E+03  0.65826579759E+03  0.00000000000E+00 0.  1.
</event>
<event>
 8   1  0.2279600E-02  0.9194016E+02  0.7546771E-02  0.1298799E+00
        1   -1    0    0  501    0  0.00000000000E+00  0.00000000000E+00  0.15191775447E+04  0.15191775447E+04  0.00000000000E+00 0. -1.
       -1   -1    0    0    0  501 -0.00000000000E+00 -0.00000000000E+00 -0.55606578623E+01  0.55606578623E+01  0.00000000000E+00 0.  1.
       24    2    1    2    0    0  0.25796526983E+02 -0.31743455055E+02  0.82898102466E+03  0.83395657475E+03  0.81246055788E+02 0.  0.
      -24    2    1    2    0    0 -0.25796526983E+02  0.31743455055E+02  0.68463586215E+03  0.69078162778E+03  0.82340061927E+02 0.  0.
      -13    1    3    3    0    0  0.23354946550E+02 -0.14392659742E+02  0.76477128817E+02  0.81248713313E+02  0.00000000000E+00 0.  1.
       14    1    3    3    0    0  0.24415804327E+01 -0.17350795313E+02  0.75250389584E+03  0.75270786144E+03  0.00000000000E+00 0. -1.
        1    1    4    4  502    0  0.22073523692E+02  0.37687757633E+02  0.31709021211E+03  0.32008406730E+03  0.00000000000E+00 0. -1.
       -2    1    4    4    0  502 -0.47870050675E+02 -0.59443025788E+01  0.36754565004E+03  0.37069756048E+03  0.00000000000E+00 0.  1.
</event>
<event>
 8   1  0.2279600E-02  0.1412582E+03  0.7546771E-02  0.1213665E+00
        2   -1    0    0  501    0  0.00000000000E+00  0.00000000000E+00  0.23363844896E+04  0.23363844896E+04  0.00000000000E+00 0. -1.
       -2   -1    0    0    0  501 -0.00000000000E+00 -0.00000000000E+00 -0.12717716791E+02  0.12717716791E+02  0.00000000000E+00 0.  1.
      -24    2    1    2    0    0  0.71619284208E+02  0.80181064499E+02  0.44471209064E+03  0.46484517117E+03  0.82181899586E+02 0.  0.
       24    2    1    2    0    0 -0.71619284208E+02 -0.80181064499E+02  0.18789546821E+04  0.18842570352E+04  0.91627245812E+02 0.  0.
      -13    1    4    4    0    0 -0.52043005129E+02 -0.55316856314E+02  0.58428355663E+03  0.58919920530E+03  0.00000000000E+00 0.  1.
       14    1    4    4    0    0 -0.19576279079E+02 -0.24864208185E+02  0.12946711255E+04  0.12950578299E+04  0.00000000000E+00 0. -1.
        1    1    3    3  502    0 -0.73076626982E+01 -0.34308908156E+01  0.12190631152E+03  0.12217332661E+03  0.00000000000E+00 0. -1.
       -2    1    3    3    0  502  0.78926946906E+02  0.83611955315E+02  0.32280577912E+03  0.34267184456E+03  0.00000000000E+00 0.  1.
</event>
<event>
 8   1  0.2279600E-02  0.9801356E+02  0.7546771E-02  0.1285828E+00
       -3   -1    0    0    0  501 -0.00000000000E+00  0.00000000000E+00  0.15129876209E+03  0.15129876209E+03  0.00000000000E+00 0.  1.
        3   -1    0    0  501    0  0.00000000000E+00 -0.00000000000E+00 -0.61973033190E+02  0.61973033190E+02  0.00000000000E+00 0. -1.
       24    2    1    2    0    0 -0.12880768146E+01  0.52289551390E+02  0.46303437090E+02  0.10840048628E+03  0.82890293842E+02 0.  0.
      -24    2    1    2    0    0  0.12880768146E+01 -0.52289551390E+02  0.43022291812E+02  0.10487130900E+03  0.80070078883E+02 0.  0.
      -13    1    3    3    0    0  0.34362679482E+02  0.23468397298E+01  0.27939217872E+02  0.44349760915E+02  0.00000000000E+00 0.  1.
       14    1    3    3    0    0 -0.35650756297E+02  0.49942711660E+02  0.18364219218E+02  0.64050725367E+02  0.00000000000E+00 0. -1.
        3    1    4    4  502    0 -0.23009972267E+02  0.34431114352E+01  0.37090234312E+02  0.43783550809E+02  0.00000000000E+00 0. -1.
       -4    1    4    4    0  502  0.24298049081E+02 -0.55732662825E+02  0.59320574997E+01  0.61087758192E+02  0.00000000000E+00 0.  1.
</event>
<event>
 8   1  0.2279600E-02  0.8674993E+02  0.7546771E-02  0.1311075E+00
       -2   -1    0    0    0  501 -0.00000000000E+00  0.00000000000E+00  0.30659074604E+03  0.30659074604E+03  0.00000000000E+00 0.  1.
        2   -1    0    0  501    0  0.00000000000E+00 -0.00000000000E+00 -0.28211801353E+02  0.28211801353E+02  0.00000000000E+00 0. -1.
      -24    2    1    2    0    0  0.26885284630E+02 -0.16264890393E+02  0.20027285724E+03  0.21825390783E+03  0.80859048642E+02 0.  0.
       24    2    1    2    0    0 -0.26885284630E+02  0.16264890393E+02  0.78106087441E+02  0.11654863956E+03  0.80595653095E+02 0.  0.
      -13    1    4    4    0    0  0.27332935273E+02 -0.41792035294E+01  0.17626884485E+02  0.32791190120E+02  0.00000000000E+00 0.  1.
       14    1    4    4    0    0 -0.54218219904E+02  0.20444093922E+02  0.60479202956E+02  0.83757449436E+02  0.00000000000E+00 0. -1.
        1    1    3    3  502    0  0.21675880067E+02  0.96384098082E+01  0.93289992422E+01  0.25490644307E+02  0.00000000000E+00 0. -1.
       -2    1    3    3    0  502  0.52094045631E+01 -0.25903300201E+02  0.19094385800E+03  0.19276326353E+03  0.00000000000E+00 0.  1.
</event>
<event>
 8   1  0.2279600E-02  0.8946705E+02  0.7546771E-02  0.1304588E+00
        2   -1    0    0  501    0  0.00000000000E+00  0.00000000000E+00  0.17222477461E+02  0.17222477461E+02  0.00000000000E+00 0. -1.
       -2   -1    0    0    0  501 -0.00000000000E+00 -0.00000000000E+00 -0.46239259046E+03  0.46239259046E+03  0.00000000000E+00 0.  1.
      -24    2    1    2    0    0 -0.35258039613E+02 -0.66979349370E+01 -0.21049124740E+03  0.22871580141E+03  0.81953406832E+02 0.  0.
       24    2    1    2    0    0  0.35258039613E+02  0.66979349370E+01 -0.23467886559E+03  0.25089926651E+03  0.81168222158E+02 0.  0.
      -13    1    4    4    0    0 -0.38966008902E+01 -0.32170229234E+02 -0.67995570816E+02  0.75322671209E+02  0.00000000000E+00 0.  1.
       14    1    4    4    0    0  0.39154640503E+02  0.38868164171E+02 -0.16668329478E+03  0.17557659530E+03  0.00000000000E+00 0. -1.
        1    1    3    3  502    0 -0.35799675960E+02  0.33490066401E+02 -0.10705333525E+03  0.11774386580E+03  0.00000000000E+00 0. -1.
       -2    1    3    3    0  502  0.54163634717E+00 -0.40188001338E+02 -0.10343791215E+03  0.11097193560E+03  0.00000000000E+00 0.  1.
</event>
<event>
 8   1  0.2279600E-02  0.9591055E+02  0.7546771E-02  0.1289532E+00
        2   -1    0    0  501    0  0.00000000000E+00  0.00000000000E+00  0.49431262704E+02  0.49431262704E+02  0.00000000000E+00 0. -1.
       -2   -1    0    0    0  501 -0.00000000000E+00 -0.00000000000E+00 -0.18503731260E+03  0.18503731260E+03  0.00000000000E+00 0.  1.
      -24    2    1    2    0    0  0.49550594293E+02 -0.12452415204E+02 -0.72351605574E+02  0.11957750661E+03  0.80334931501E+02 0.  0.
       24    2    1    2    0    0 -0.49550594293E+02  0.12452415204E+02 -0.63254444326E+02  0.11489106870E+03  0.81169630404E+02 0.  0.
      -13    1    4    4    0    0 -0.33998154071E+01 -0.31124996917E+02 -0.12873945320E+02  0.33853547022E+02  0.00000000000E+00 0.  1.
       14    1    4    4    0    0 -0.46150778886E+02  0.43577412121E+02 -0.50380499006E+02  0.81037521674E+02  0.00000000000E+00 0. -1.
        3    1    3    3  502    0  0.35514789474E+02  0.17442385332E+02  0.52122861002E+00  0.39570301449E+02  0.00000000000E+00 0. -1.
       -4    1    3    3    0  502  0.14035804819E+02 -0.29894800536E+02 -0.72872834184E+02  0.80007205163E+02  0.00000000000E+00 0.  1.
</event>
<event>
 8   1  0.2279600E-02  0.9514838E+02  0.7546771E-02  0.1291002E+00
       -2   -1    0    0    0  501 -0.00000000000E+00  0.00000000000E+00  0.40874126334E+02  0.40874126334E+02  0.00000000000E+00 0.  1.
        2   -1    0    0  501    0  0.00000000000E+00 -0.00000000000E+00 -0.22120321740E+03  0.22120321740E+03  0.00000000000E+00 0. -1.
      -24    2    1    2    0    0  0.25381870090E+02 -0.42336747360E+02 -0.95418538225E+02  0.13455081135E+03  0.81009776512E+02 0.  0.
       24    2    1    2    0    0 -0.25381870090E+02  0.42336747360E+02 -0.84910552836E+02  0.12752653238E+03  0.81342331985E+02 0.  0.
      -13    1    4    4    0    0 -0.40029524853E+02  0.58507959880E+02 -0.51501853840E+02  0.87624112995E+02  0.00000000000E+00 0.  1.
       14    1    4    4    0    0  0.14647654763E+02 -0.16171212521E+02 -0.33408698996E+02  0.39902419389E+02  0.00000000000E+00 0. -1.
        3    1    3    3  502    0  0.45297118090E+02 -0.46124129143E+02 -0.94190491080E+02  0.11424146711E+03  0.00000000000E+00 0. -1.
       -4    1    3    3    0  502 -0.19915248000E+02  0.37873817833E+01 -0.12280471448E+01  0.20309344240E+02  0.00000000000E+00 0.  1.
</event>
<event>
 8   1  0.2279600E-02  0.8167458E+02  0.7546771E-02  0.1324493E+00
       -2   -1    0    0    0  501 -0.00000000000E+00  0.00000000000E+00  0.40969847162E+02  0.40969847162E+02  0.00000000000E+00 0.  1.
        2   -1    0    0  501    0  0.00000000000E+00 -0.00000000000E+00 -0.39903662138E+03  0.39903662138E+03  0.00000000000E+00 0. -1.
      -24    2    1    2    0    0  0.13092670791E+01  0.11798663585E+02 -0.97151144865E+01  0.82250349828E+02  0.80807264245E+02 0.  0.
       24    2    1    2    0    0 -0.13092670791E+01 -0.11798663585E+02 -0.34835165973E+03  0.35775611871E+03  0.80620338601E+02 0.  0.
      -13    1    4    4    0    0  0.22726579827E+02 -0.10911952056E+01 -0.26911796859E+02  0.35241069050E+02  0.00000000000E+00 0.  1.
       14    1    4    4    0    0 -0.24035846906E+02 -0.10707468379E+02 -0.32143986287E+03  0.32251504966E+03  0.00000000000E+00 0. -1.
        3    1    3    3  502    0  0.72899773028E+01 -0.45424952772E+01 -0.43450547970E+02  0.44291400422E+02  0.00000000000E+00 0. -1.
       -4    1    3    3    0  502 -0.59807102237E+01  0.16341158862E+02  0.33735433483E+02  0.37958949407E+02  0.00000000000E+00 0.  1.
</event>
<event>
 8   1  0.2279600E-02  0.8827067E+02  0.7546771E-02  0.1307887E+00
       -4   -1    0    0    0  501 -0.00000000000E+00  0.00000000000E+00  0.12063647116E+02  0.12063647116E+02  0.00000000000E+00 0.  1.
        4   -1    0    0  501    0  0.00000000000E+00 -0.00000000000E+00 -0.76400295519E+03  0.76400295519E+03  0.00000000000E+00 0. -1.
       24    2    1    2    0    0  0.31350742683E+02 -0.10974443654E+01 -0.53665159267E+03  0.54386270589E+03  0.82508408676E+02 0.  0.
      -24    2    1    2    0    0 -0.31350742683E+02  0.10974443654E+01 -0.21528771541E+03  0.23220389642E+03  0.81152792015E+02 0.  0.
      -13    1    3    3    0    0  0.44824373518E+02 -0.14592776693E+02 -0.50283422434E+03  0.50503903885E+03  0.00000000000E+00 0.  1.
       14    1    3    3    0    0 -0.13473630835E+02  0.13495332327E+02 -0.33817368324E+02  0.38823667046E+02  0.00000000000E+00 0. -1.
        3    1    4    4  502    0 -0.50966886546E+02 -0.22585443530E+02 -0.15036603629E+03  0.16036729920E+03  0.00000000000E+00 0. -1.
       -4    1    4    4    0  502  0.19616143863E+02  0.23682887895E+02 -0.64921679123E+02  0.71836597213E+02  0.00000000000E+00 0.  1.
</event>
<event>
 8   1  0.2279600E-02  0.1202241E+03  0.7546771E-02  0.1242836E+00
       -2   -1    0    0    0  501 -0.00000000000E+00  0.00000000000E+00  0.68405440141E+02  0.68405440141E+02  0.00000000000E+00 0.  1.
        2   -1    0    0  501    0  0.00000000000E+00 -0.00000000000E+00 -0.37980067235E+03  0.37980067235E+03  0.00000000000E+00 0. -1.
       24    2    1    2    0    0  0.19038242814E+02 -0.86948559633E+02 -0.30526610293E+03  0.32808723222E+03  0.80816654452E+02 0.  0.
      -24    2    1    2    0    0 -0.19038242814E+02  0.86948559633E+02 -0.61291292808E+01  0.12011888027E+03  0.80426814311E+02 0.  0.
      -13    1    3    3    0    0  0.46040742783E+02 -0.38513863145E+02 -0.20380957696E+03  0.21246508257E+03  0.00000000000E+00 0.  1.
       14    1    3    3    0    0 -0.27002499969E+02 -0.48434696488E+02 -0.10145652598E+03  0.11562214966E+03  0.00000000000E+00 0. -1.
        1    1    4    4  502    0 -0.37431262190E+00 -0.12394219699E+02 -0.14036654135E+02  0.18729240539E+02  0.00000000000E+00 0. -1.
       -2    1    4    4    0  502 -0.18663930192E+02  0.99342779332E+02  0.79075248542E+01  0.10138963973E+03  0.00000000000E+00 0.  1.
</event>
<event>
 8   1  0.2279600E-02  0.8630977E+02  0.7546771E-02  0.1314609E+00
        2   -1    0    0  501    0  0.00000000000E+00  0.00000000000E+00  0.16197440103E+02  0.16197440103E+02  0.00000000000E+00 0. -1.
       -2   -1    0    0    0  501 -0.00000000000E+00 -0.00000000000E+00 -0.45337803705E+03  0.45337803705E+03  0.00000000000E+00 0.  1.
      -24    2    1    2    0    0  0.61005299969E+01  0.15078375946E+02 -0.17235104812E+03  0.19103631126E+03  0.80780038019E+02 0.  0.
       24    2    1    2    0    0 -0.61005299969E+01 -0.15078375946E+02 -0.26482954883E+03  0.27853916590E+03  0.84763217968E+02 0.  0.
      -13    1    4    4    0    0 -0.80636875765E+01  0.26028976043E+02 -0.19932869852E+03  0.20118265508E+03  0.00000000000E+00 0.  1.
       14    1    4    4    0    0  0.19631575797E+01 -0.41107351988E+02 -0.65500850306E+02  0.77356510818E+02  0.00000000000E+00 0. -1.
        1    1    3    3  502    0 -0.87985753389E+01 -0.28966951246E+02 -0.10439195003E+03  0.10869304680E+03  0.00000000000E+00 0. -1.
       -2    1    3    3    0  502  0.14899105336E+02  0.44045327191E+02 -0.67959098090E+02  0.82343264450E+02  0.00000000000E+00 0.  1.
</event>
<event>
 8   1  0.2279600E-02  0.9619452E+02  0.7546771E-02  0.1290548E+00
        1   -1    0    0  501    0  0.00000000000E+00  0.00000000000E+00  0.17313645281E+03  0.17313645281E+03  0.00000000000E+00 0. -1.
       -1   -1    0    0    0  501 -0.00000000000E+00 -0.00000000000E+00 -0.69292690990E+02  0.69292690990E+02  0.00000000000E+00 0.  1.
       24    2    1    2    0    0  0.57157449288E+01 -0.40723357037E+02 -0.10300509914E+02  0.93156574721E+02  0.82951704990E+02 0.  0.
      -24    2    1    2    0    0 -0.57157449288E+01  0.40723357037E+02  0.11414427174E+03  0.14927256908E+03  0.86961621201E+02 0.  0.
      -13    1    3    3    0    0  0.44379580962E+02 -0.22348420398E+02 -0.75603479899E+01  0.50260898941E+02  0.00000000000E+00 0.  1.
       14    1    3    3    0    0 -0.38663836033E+02 -0.18374936638E+02 -0.27401619243E+01  0.42895675780E+02  0.00000000000E+00 0. -1.
        1    1    4    4  502    0 -0.36480644297E+02 -0.83370830259E+01  0.35270161333E+02  0.51423036104E+02  0.00000000000E+00 0. -1.
       -2    1    4    4    0  502  0.30764899368E+02  0.49060440062E+02  0.78874110404E+02  0.97849532979E+02  0.00000000000E+00 0.  1.
</event>
<event>
 8   1  0.2279600E-02  0.1002308E+03  0.7546771E-02  0.1280934E+00
        2   -1    0    0  501    0  0.00000000000E+00  0.00000000000E+00  0.99549135791E+03  0.99549135791E+03  0.00000000000E+00 0. -1.
       -2   -1    0    0    0  501 -0.00000000000E+00 -0.00000000000E+00 -0.26451745647E+02  0.26451745647E+02  0.00000000000E+00 0.  1.
      -24    2    1    2    0    0  0.44274341317E+01 -0.56668418852E+02  0.82016560415E+02  0.12951034881E+03  0.82554844793E+02 0.  0.
       24    2    1    2    0    0 -0.44274341317E+01  0.56668418852E+02  0.88702305185E+03  0.89243275475E+03  0.79971340897E+02 0.  0.
      -13    1    4    4    0    0  0.88280516376E+01  0.29943132282E+01  0.10008750774E+02  0.13677554587E+02  0.00000000000E+00 0.  1.
       14    1    4    4    0    0 -0.13255485769E+02  0.53674105624E+02  0.87701430108E+03  0.87875520016E+03  0.00000000000E+00 0. -1.
        3    1    3    3  502    0 -0.39047250929E+02 -0.27804252767E+02  0.42324265228E+02  0.63946131268E+02  0.00000000000E+00 0. -1.
       -4    1    3    3    0  502  0.43474685061E+02 -0.28864166085E+02  0.39692295187E+02  0.65564217544E+02  0.00000000000E+00 0.  1.
</event>
<event>
 8   1  0.2279600E-02  0.8984590E+02  0.7546771E-02  0.1304159E+00
       -1   -1    0    0    0  501 -0.00000000000E+00  0.00000000000E+00  0.41546382485E+02  0.41546382485E+02  0.00000000000E+00 0.  1.
        1   -1    0    0  501    0  0.00000000000E+00 -0.00000000000E+00 -0.12204146468E+04  0.12204146468E+04  0.00000000000E+00 0. -1.
       24    2    1    2    0    0  0.31356688222E+02 -0.20440969566E+02 -0.10725128505E+02  0.90483779858E+02  0.81677481002E+02 0.  0.
      -24    2    1    2    0    0 -0.31356688222E+02  0.20440969566E+02 -0.11681431358E+04  0.11714772495E+04  0.79996781513E+02 0.  0.
      -13    1    3    3    0    0  0.18244917816E+02 -0.31448678607E+02  0.29465627087E+02  0.46798713570E+02  0.00000000000E+00 0.  1.
       14    1    3    3    0    0  0.13111770406E+02  0.11007709040E+02 -0.40190755591E+02  0.43685066287E+02  0.00000000000E+00 0. -1.
        3    1    4    4  502    0 -0.39720771124E+02 -0.77895625841E+01 -0.99689087150E+03  0.99771229652E+03  0.00000000000E+00 0. -1.
       -4    1    4    4    0  502  0.83640829016E+01  0.28230532150E+02 -0.17125226435E+03  0.17376495295E+03  0.00000000000E+00 0.  1.
</event>
<event>
 8   1  0.2279600E-02  0.9046400E+02  0.7546771E-02  0.1302996E+00
       -2   -1    0    0    0  501 -0.00000000000E+00  0.00000000000E+00  0.14378185224E+02  0.14378185224E+02  0.00000000000E+00 0.  1.
        2   -1    0    0  501    0  0.00000000000E+00 -0.00000000000E+00 -0.58122967820E+03  0.58122967820E+03  0.00000000000E+00 0. -1.
      -24    2    1    2    0    0 -0.14069191362E+02  0.39204314611E+02 -0.21846456344E+03  0.23566732965E+03  0.77957708778E+02 0.  0.
       24    2    1    2    0    0  0.14069191362E+02 -0.39204314611E+02 -0.34838692954E+03  0.35994053378E+03  0.80304512628E+02 0.  0.
      -13    1    4    4    0    0 -0.24916689022E+01 -0.49612114124E+02 -0.10934320503E+03  0.12009790492E+03  0.00000000000E+00 0.  1.
       14    1    4    4    0    0  0.16560860265E+02  0.10407799513E+02 -0.23904372452E+03  0.23984262885E+03  0.00000000000E+00 0. -1.
        3    1    3    3  502    0 -0.42076269881E+02  0.17097149889E+02 -0.16684577300E+03  0.17291684993E+03  0.00000000000E+00 0. -1.
       -4    1    3    3    0  502  0.28007078519E+02  0.22107164723E+02 -0.51618790434E+02  0.62750479720E+02  0.00000000000E+00 0.  1.
</event>
<event>
 8   1  0.2279600E-02  0.9434787E+02  0.7546771E-02  0.1292907E+00
        1   -1    0    0  501    0  0.00000000000E+00  0.00000000000E+00  0.50483830798E+02  0.50483830798E+02  0.00000000000E+00 0. -1.
       -1   -1    0    0    0  501 -0.00000000000E+00 -0.00000000000E+00 -0.20288067499E+03  0.20288067499E+03  0.00000000000E+00 0.  1.
       24    2    1    2    0    0  0.29248749678E+02 -0.39023531382E+02 -0.29493300026E+02  0.98423221753E+02  0.80243071194E+02 0.  0.
      -24    2    1    2    0    0 -0.29248749678E+02  0.39023531382E+02 -0.12290354416E+03  0.15494128403E+03  0.80766298482E+02 0.  0.
      -13    1    3    3    0    0 -0.48755630854E+01 -0.24560227432E+02 -0.50105901594E+02  0.56014080921E+02  0.00000000000E+00 0.  1.
       14    1    3    3    0    0  0.34124312763E+02 -0.14463303950E+02  0.20612601568E+02  0.42409140832E+02  0.00000000000E+00 0. -1.
        1    1    4    4  502    0 -0.44723595714E+02  0.54577987895E+02 -0.79434978777E+02  0.10624910649E+03  0.00000000000E+00 0. -1.
       -2    1    4    4    0  502  0.15474846036E+02 -0.15554456513E+02 -0.43468565384E+02  0.48692177542E+02  0.00000000000E+00 0.  1.
</event>
<event>
 8   1  0.2279600E-02  0.1197378E+03  0.7546771E-02  0.1243734E+00
       -2   -1    0    0    0  501 -0.00000000000E+00  0.00000000000E+00  0.25650053818E+02  0.25650053818E+02  0.00000000000E+00 0.  1.
        2   -1    0    0  501    0  0.00000000000E+00 -0.00000000000E+00 -0.73662958839E+03  0.73662958839E+03  0.00000000000E+00 0. -1.
       24    2    1    2    0    0 -0.83265601401E+02 -0.28823213243E+02 -0.54332907479E+03  0.55626065338E+03  0.80346082578E+02 0.  0.
      -24    2    1    2    0    0  0.83265601401E+02  0.28823213243E+02 -0.16765045977E+03  0.20601898882E+03  0.81075329753E+02 0.  0.
      -13    1    3    3    0    0  0.73292982956E+01  0.14283889218E+02 -0.41423068245E+02  0.44425428389E+02  0.00000000000E+00 0.  1.
       14    1    3    3    0    0 -0.90594899696E+02 -0.43107102461E+02 -0.50190600655E+03  0.51183522499E+03  0.00000000000E+00 0. -1.
        1    1    4    4  502    0  0.22534851042E+02 -0.14531673895E+02 -0.52873541722E+01  0.27330297690E+02  0.00000000000E+00 0. -1.
       -2    1    4    4    0  502  0.60730750358E+02  0.43354887138E+02 -0.16236310560E+03  0.17868869113E+03  0.00000000000E+00 0.  1.
</event>
<event>
 8   1  0.2279600E-02  0.1200802E+03  0.7546771E-02  0.1243200E+00
        2   -1    0    0  501    0  0.00000000000E+00  0.00000000000E+00  0.64777548445E+03  0.64777548445E+03  0.00000000000E+00 0. -1.
       -2   -1    0    0    0  501 -0.00000000000E+00 -0.00000000000E+00 -0.22836542032E+02  0.22836542032E+02  0.00000000000E+00 0.  1.
      -24    2    1    2    0    0 -0.85459864236E+02  0.23344221312E+02  0.25523775716E+03  0.28207367164E+03  0.81061103448E+02 0.  0.
       24    2    1    2    0    0  0.85459864236E+02 -0.23344221312E+02  0.36970118526E+03  0.38853835484E+03  0.80216866887E+02 0.  0.
      -13    1    4    4    0    0  0.60584513509E+02 -0.27358016523E+02  0.11685445655E+03  0.13443923669E+03  0.00000000000E+00 0.  1.
       14    1    4    4    0    0  0.24875350727E+02  0.40137952115E+01  0.25284672871E+03  0.25409911815E+03  0.00000000000E+00 0. -1.
        1    1    3    3  502    0 -0.91266692707E+02  0.52900872954E+01  0.24267901610E+03  0.25932739747E+03  0.00000000000E+00 0. -1.
       -2    1    3    3    0  502  0.58068284710E+01  0.18054134016E+02  0.12558741054E+02  0.22746274175E+02  0.00000000000E+00 0.  1.
</event>
<event>
 8   1  0.2279600E-02  0.8129034E+02  0.7546771E-02  0.1326744E+00
       -2   -1    0    0    0  501 -0.00000000000E+00  0.00000000000E+00  0.77044778521E+01  0.77044778521E+01  0.00000000000E+00 0.  1.
        2   -1    0    0  501    0  0.00000000000E+00 -0.00000000000E+00 -0.19908792289E+04  0.19908792289E+04  0.00000000000E+00 0. -1.
      -24    2    1    2    0    0 -0.57159940572E+01 -0.99651030616E+01 -0.23605833038E+03  0.24966308088E+03  0.80474485072E+02 0.  0.
       24    2    1    2    0    0  0.57159940572E+01  0.99651030616E+01 -0.17471164207E+04  0.17489206259E+04  0.78584937187E+02 0.  0.
      -13    1    4    4    0    0 -0.15101313984E+02  0.14875260666E+02 -0.13431274883E+03  0.13597513582E+03  0.00000000000E+00 0.  1.
       14    1    4    4    0    0  0.20817308041E+02 -0.49101576046E+01 -0.16128036719E+04  0.16129454901E+04  0.00000000000E+00 0. -1.
        1    1    3    3  502    0  0.17778411932E+02  0.10461500494E+02 -0.20376593669E+03  0.20480740191E+03  0.00000000000E+00 0. -1.
       -2    1    3    3    0  502 -0.23494405989E+02 -0.20426603555E+02 -0.32292393685E+02  0.44855678966E+02  0.00000000000E+00 0.  1.
</event>
<event>
 8   1  0.2279600E-02  0.1002266E+03  0.7546771E-02  0.1280695E+00
        1   -1    0    0  501    0  0.00000000000E+00  0.00000000000E+00  0.40370383397E+03  0.40370383397E+03  0.00000000000E+00 0. -1.
       -1   -1    0    0    0  501 -0.00000000000E+00 -0.00000000000E+00 -0.26713122257E+02  0.26713122257E+02  0.00000000000E+00 0.  1.
       24    2    1    2    0    0 -0.24128288878E+02  0.51798966667E+02  0.12475182050E+03  0.15899507852E+03  0.80318808537E+02 0.  0.
      -24    2    1    2    0    0  0.24128288878E+02 -0.51798966667E+02  0.25223889121E+03  0.27142187770E+03  0.82341181580E+02 0.  0.
      -13    1    3    3    0    0 -0.40390358848E+02  0.53534192557E+02  0.53208442592E+02  0.85606245238E+02  0.00000000000E+00 0.  1.
       14    1    3    3    0    0  0.16262069970E+02 -0.17352258904E+01  0.71543377909E+02  0.73388833287E+02  0.00000000000E+00 0. -1.
        1    1    4    4  502    0  0.33040943737E+02  0.12315325879E+02  0.97988696672E+02  0.10414007821E+03  0.00000000000E+00 0. -1.
       -2    1    4    4    0  502 -0.89126548595E+01 -0.64114292545E+02  0.15425019454E+03  0.16728179949E+03  0.00000000000E+00 0.  1.
</event>
<event>
 8   1  0.2279600E-02  0.1028241E+03  0.7546771E-02  0.1274823E+00
        1   -1    0    0  501    0  0.00000000000E+00  0.00000000000E+00  0.95507290308E+03  0.95507290308E+03  0.00000000000E+00 0. -1.
       -1   -1    0    0    0  501 -0.00000000000E+00 -0.00000000000E+00 -0.13997247432E+02  0.13997247432E+02  0.00000000000E+00 0.  1.
       24    2    1    2    0    0  0.15443647842E+02 -0.61437937452E+02  0.24739584658E+03  0.26791322560E+03  0.80991759645E+02 0.  0.
      -24    2    1    2    0    0 -0.15443647842E+02  0.61437937452E+02  0.69367980907E+03  0.70115692491E+03  0.80101369668E+02 0.  0.
      -13    1    3    3    0    0  0.38355408185E+02 -0.62732050517E+02  0.14044805815E+03  0.15853108382E+03  0.00000000000E+00 0.  1.
       14    1    3    3    0    0 -0.22911760343E+02  0.12941130653E+01  0.10694778843E+03  0.10938214178E+03  0.00000000000E+00 0. -1.
        1    1    4    4  502    0  0.32553667605E+02  0.30021643568E+02  0.33614090566E+03  0.33904534920E+03  0.00000000000E+00 0. -1.
       -2    1    4    4    0  502 -0.47997315448E+02  0.31416293884E+02  0.35753890341E+03  0.36211157571E+03  0.00000000000E+00 0.  1.
</event>
<event>
 8   1  0.2279600E-02  0.8921428E+02  0.7546771E-02  0.1306692E+00
        2   -1    0    0  501    0  0.00000000000E+00  0.00000000000E+00  0.20588962136E+03  0.20588962136E+03  0.00000000000E+00 0. -1.
       -2   -1    0    0    0  501 -0.00000000000E+00 -0.00000000000E+00 -0.56066634812E+02  0.56066634812E+02  0.00000000000E+00 0.  1.
      -24    2    1    2    0    0 -0.61859085719E+01  0.32069660726E+02 -0.16711986233E+01  0.86144777462E+02  0.79695678523E+02 0.  0.
       24    2    1    2    0    0  0.61859085719E+01 -0.32069660726E+02  0.15149418517E+03  0.17581147871E+03  0.83020836551E+02 0.  0.
      -13    1    4    4    0    0  0.41776211041E+02 -0.60312299691E+01  0.51944936258E+02  0.66932084584E+02  0.00000000000E+00 0.  1.
       14    1    4    4    0    0 -0.35590302469E+02 -0.26038430757E+02  0.99549248912E+02  0.10887939413E+03  0.00000000000E+00 0. -1.
        3    1    3    3  502    0  0.27542557724E+02 -0.98794503322E+01  0.10267140358E+02  0.31009840309E+02  0.00000000000E+00 0. -1.
       -4    1    3    3    0  502 -0.33728466296E+02  0.41949111058E+02 -0.11938338981E+02  0.55134937153E+02  0.00000000000E+00 0.  1.
</event>
<event>
 8   1  0.2279600E-02  0.8369817E+02  0.7546771E-02  0.1322864E+00
        2   -1    0    0  501    0  0.00000000000E+00  0.00000000000E+00  0.12487623065E+04  0.12487623065E+04  0.00000000000E+00 0. -1.
       -2   -1    0    0    0  501 -0.00000000000E+00 -0.00000000000E+00 -0.53662038032E+01  0.53662038032E+01  0.00000000000E+00 0.  1.
      -24    2    1    2    0    0 -0.15592944218E+02  0.21988700917E+02  0.54374922478E+03  0.55015325364E+03  0.79238501824E+02 0.  0.
       24    2    1    2    0    0  0.15592944218E+02 -0.21988700917E+02  0.69964687794E+03  0.70397525668E+03  0.73135253669E+02 0.  0.
      -13    1    4    4    0    0 -0.65600540124E+01  0.23954364958E+02  0.31205087310E+03  0.31303768673E+03  0.00000000000E+00 0.  1.
       14    1    4    4    0    0  0.22152998230E+02 -0.45943065875E+02  0.38759600484E+03  0.39093756995E+03  0.00000000000E+00 0. -1.
        3    1    3    3  502    0  0.34223202212E+01  0.16735428526E+02  0.51501842474E+03  0.51530162494E+03  0.00000000000E+00 0. -1.
       -4    1    3    3    0  502 -0.19015264439E+02  0.52532723909E+01  0.28730800034E+02  0.34851628701E+02  0.00000000000E+00 0.  1.
</event>
<event>
 8   1  0.2279600E-02  0.9130064E+02  0.7546771E-02  0.1300645E+00
       -2   -1    0    0    0  501 -0.00000000000E+00  0.00000000000E+00  0.12949844107E+02  0.12949844107E+02  0.00000000000E+00 0.  1.
        2   -1    0    0  501    0  0.00000000000E+00 -0.00000000000E+00 -0.63364214456E+03  0.63364214456E+03  0.00000000000E+00 0. -1.
      -24    2    1    2    0    0  0.29190514548E+02 -0.28097347107E+02 -0.30266679957E+03  0.31613762536E+03  0.81818454855E+02 0.  0.
       24    2    1    2    0    0 -0.29190514548E+02  0.28097347107E+02 -0.31802550089E+03  0.33045436331E+03  0.80114417927E+02 0.  0.
      -13    1    4    4    0    0 -0.21457142169E+02  0.94055105073E+01 -0.17484073256E+02  0.29232950511E+02  0.00000000000E+00 0.  1.
       14    1    4    4    0    0 -0.77333723790E+01  0.18691836600E+02 -0.30054142763E+03  0.30122141280E+03  0.00000000000E+00 0. -1.
        1    1    3    3  502    0 -0.26093972654E+02 -0.43320862836E+01 -0.14468813178E+03  0.14708608996E+03  0.00000000000E+00 0. -1.
       -2    1    3    3    0  502  0.55284487202E+02 -0.23765260823E+02 -0.15797866778E+03  0.16905153540E+03  0.00000000000E+00 0.  1.
</event>
<event>
 8   1  0.2279600E-02  0.3383176E+03  0.7546771E-02  0.1067573E+00
        2   -1    0    0  501    0  0.00000000000E+00  0.00000000000E+00  0.13494840710E+04  0.13494840710E+04  0.00000000000E+00 0. -1.
       -2   -1    0    0    0  501 -0.00000000000E+00 -0.00000000000E+00 -0.24641584532E+03  0.24641584532E+03  0.00000000000E+00 0.  1.
       24    2    1    2    0    0  0.11855920094E+03 -0.30584286202E+03  0.11978444513E+04  0.12445576868E+04  0.80600036808E+02 0.  0.
      -24    2    1    2    0    0 -0.11855920094E+03  0.30584286202E+03 -0.94776225577E+02  0.35134222953E+03  0.82841348034E+02 0.  0.
      -13    1    3    3    0    0  0.11764859838E+03 -0.28515836209E+03  0.10231463345E+04  0.10686369383E+04  0.00000000000E+00 0.  1.
       14    1    3    3    0    0  0.91060255809E+00 -0.20684499924E+02  0.17469811674E+03  0.17592074843E+03  0.00000000000E+00 0. -1.
        3    1    4    4  502    0 -0.14069274370E+02 -0.94154629164E+00 -0.20626301464E+01  0.14250804674E+02  0.00000000000E+00 0. -1.
       -4    1    4    4    0  502 -0.10448992657E+03  0.30678440831E+03 -0.92713595430E+02  0.33709142486E+03  0.00000000000E+00 0.  1.
</event>
<event>
 8   1  0.2279600E-02  0.1201257E+03  0.7546771E-02  0.1242912E+00
        4   -1    0    0  501    0  0.00000000000E+00  0.00000000000E+00  0.16531342502E+03  0.16531342502E+03  0.00000000000E+00 0. -1.
       -4   -1    0    0    0  501 -0.00000000000E+00 -0.00000000000E+00 -0.18290294167E+03  0.18290294167E+03  0.00000000000E+00 0.  1.
      -24    2    1    2    0    0 -0.44733971378E+02  0.78747508074E+02 -0.13470243478E+03  0.18044978148E+03  0.78835775354E+02 0.  0.
       24    2    1    2    0    0  0.44733971378E+02 -0.78747508074E+02  0.11711291813E+03  0.16776658521E+03  0.78917002602E+02 0.  0.
      -13    1    4    4    0    0  0.73479733938E+01 -0.59847048705E+02  0.22612669721E+02  0.64397164407E+02  0.00000000000E+00 0.  1.
       14    1    4    4    0    0  0.37385997984E+02 -0.18900459368E+02  0.94500248404E+02  0.10336942081E+03  0.00000000000E+00 0. -1.
        1    1    3    3  502    0  0.11027746694E+02  0.32765459471E+01  0.46834638327E+01  0.12421021857E+02  0.00000000000E+00 0. -1.
       -2    1    3    3    0  502 -0.55761718072E+02  0.75470962126E+02 -0.13938589862E+03  0.16802875962E+03  0.00000000000E+00 0.  1.
</event>
<event>
 8   1  0.2279600E-02  0.8773830E+02  0.7546771E-02  0.1309461E+00
        2   -1    0    0  501    0  0.00000000000E+00  0.00000000000E+00  0.25579678065E+04  0.25579678065E+04  0.00000000000E+00 0. -1.
       -2   -1    0    0    0  501 -0.00000000000E+00 -0.00000000000E+00 -0.37893774829E+01  0.37893774829E+01  0.00000000000E+00 0.  1.
      -24    2    1    2    0    0 -0.29269717458E+02  0.17401847558E+02  0.66612554647E+03  0.67166679032E+03  0.79079029503E+02 0.  0.
       24    2    1    2    0    0  0.29269717458E+02 -0.17401847558E+02  0.18880528826E+04  0.18900903937E+04  0.80860795478E+02 0.  0.
      -13    1    4    4    0    0 -0.79348537691E+00 -0.41554118424E+02  0.13583229208E+04  0.13589586202E+04  0.00000000000E+00 0.  1.
       14    1    4    4    0    0  0.30063202835E+02  0.24152270866E+02  0.52972996181E+03  0.53113177347E+03  0.00000000000E+00 0. -1.
        1    1    3    3  502    0 -0.22401341606E+02 -0.87111931376E+01  0.59657301013E+03  0.59705700013E+03  0.00000000000E+00 0. -1.
       -2    1    3    3    0  502 -0.68683758520E+01  0.26113040696E+02  0.69552536338E+02  0.74609790190E+02  0.00000000000E+00 0.  1.
</event>
<event>
 8   1  0.2279600E-02  0.9268653E+02  0.7546771E-02  0.1303690E+00
        2   -1    0    0  501    0  0.00000000000E+00  0.00000000000E+00  0.14877006395E+03  0.14877006395E+03  0.00000000000E+00 0. -1.
       -2   -1    0    0    0  501 -0.00000000000E+00 -0.00000000000E+00 -0.71052679043E+02  0.71052679043E+02  0.00000000000E+00 0.  1.
       24    2    1    2    0    0 -0.34530979767E+02  0.32465101999E+02  0.99324756232E+02  0.13585359648E+03  0.79651874198E+02 0.  0.
      -24    2    1    2    0    0  0.34530979767E+02 -0.32465101999E+02 -0.21607371329E+02  0.83969146513E+02  0.65860213018E+02 0.  0.
      -13    1    3    3    0    0 -0.96736493462E+01 -0.24837257414E+02  0.13993778143E+02  0.30104728436E+02  0.00000000000E+00 0.  1.
       14    1    3    3    0    0 -0.24857330421E+02  0.57302359413E+02  0.85330978089E+02  0.10574886804E+03  0.00000000000E+00 0. -1.
        3    1    4    4  502    0 -0.12968110859E+02 -0.17823816376E+02 -0.25982266705E+02  0.34072547785E+02  0.00000000000E+00 0. -1.
       -4    1    4    4    0  502  0.47499090626E+02 -0.14641285624E+02  0.43748953758E+01  0.49896598727E+02  0.00000000000E+00 0.  1.
</event>
<event>
 8   1  0.2279600E-02  0.8976992E+02  0.7546771E-02  0.1303416E+00
       -3   -1    0    0    0  501 -0.00000000000E+00  0.00000000000E+00  0.32028548958E+03  0.32028548958E+03  0.00000000000E+00 0.  1.
        3   -1    0    0  501    0  0.00000000000E+00 -0.00000000000E+00 -0.57173173557E+02  0.57173173557E+02  0.00000000000E+00 0. -1.
       24    2    1    2    0    0  0.30983423685E+02  0.22718907191E+02  0.27278112386E+03  0.28716954485E+03  0.81121419276E+02 0.  0.
      -24    2    1    2    0    0 -0.30983423685E+02 -0.22718907191E+02 -0.96688078399E+01  0.90289118288E+02  0.81132716884E+02 0.  0.
      -13    1    3    3    0    0  0.28142364768E+02 -0.23775501366E+02  0.17531773171E+03  0.17914679514E+03  0.00000000000E+00 0.  1.
       14    1    3    3    0    0  0.28410589166E+01  0.46494408557E+02  0.97463392154E+02  0.10802274970E+03  0.00000000000E+00 0. -1.
        3    1    4    4  502    0 -0.26295167238E+02 -0.51936210648E+02  0.25624944190E+01  0.58269822157E+02  0.00000000000E+00 0. -1.
       -4    1    4    4    0  502 -0.46882564468E+01  0.29217303457E+02 -0.12231302259E+02  0.32019296131E+02  0.00000000000E+00 0.  1.
</event>
<event>
 8   1  0.2279600E-02  0.1372949E+03  0.7546771E-02  0.1217046E+00
        1   -1    0    0  501    0  0.00000000000E+00  0.00000000000E+00  0.17895230673E+03  0.17895230673E+03  0.00000000000E+00 0. -1.
       -1   -1    0    0    0  501 -0.00000000000E+00 -0.00000000000E+00 -0.12894635427E+03  0.12894635427E+03  0.00000000000E+00 0.  1.
       24    2    1    2    0    0 -0.69255010542E+02  0.87540688922E+02 -0.40973912760E+02  0.14319520261E+03  0.79789572137E+02 0.  0.
      -24    2    1    2    0    0  0.69255010542E+02 -0.87540688922E+02  0.90979865219E+02  0.16470345840E+03  0.79939130786E+02 0.  0.
      -13    1    3    3    0    0 -0.82129702495E+02  0.67707840509E+02 -0.50362649654E+02  0.11775413444E+03  0.00000000000E+00 0.  1.
       14    1    3    3    0    0  0.12874691953E+02  0.19832848413E+02  0.93887368938E+01  0.25441068168E+02  0.00000000000E+00 0. -1.
        1    1    4    4  502    0  0.29638824365E+02 -0.91927074763E+02  0.72499724644E+02  0.12076943760E+03  0.00000000000E+00 0. -1.
       -2    1    4    4    0  502  0.39616186177E+02  0.43863858412E+01  0.18480140576E+02  0.43934020800E+02  0.00000000000E+00 0.  1.
</event>
<event>
 8   1  0.2279600E-02  0.8319036E+02  0.7546771E-02  0.1320503E+00
       -2   -1    0    0    0  501 -0.00000000000E+00  0.00000000000E+00  0.25004015684E+02  0.25004015684E+02  0.00000000000E+00 0.  1.
        2   -1    0    0  501    0  0.00000000000E+00 -0.00000000000E+00 -0.29133016926E+03  0.29133016926E+03  0.00000000000E+00 0. -1.
      -24    2    1    2    0    0 -0.98898267876E+01 -0.10680900771E+02 -0.96544081693E+02  0.12744173750E+03  0.81906937629E+02 0.  0.
       24    2    1    2    0    0  0.98898267876E+01  0.10680900771E+02 -0.16978207188E+03  0.18889244744E+03  0.81501622399E+02 0.  0.
      -13    1    4    4    0    0  0.87509335153E+01 -0.21089988603E+02 -0.82757448358E+01  0.24286918480E+02  0.00000000000E+00 0.  1.
       14    1    4    4    0    0  0.11388932723E+01  0.31770889374E+02 -0.16150632705E+03  0.16460552896E+03  0.00000000000E+00 0. -1.
        1    1    3    3  502    0 -0.10390531409E+02  0.31808217580E+02 -0.17648905692E+02  0.37831332526E+02  0.00000000000E+00 0. -1.
       -2    1    3    3    0  502  0.50070462173E+00 -0.42489118350E+02 -0.78895176001E+02  0.89610404974E+02  0.00000000000E+00 0.  1.
</event>
<event>
 8   1  0.2279600E-02  0.8985527E+02  0.7546771E-02  0.1303744E+00
       -2   -1    0    0    0  501 -0.00000000000E+00  0.00000000000E+00  0.15691204038E+02  0.15691204038E+02  0.00000000000E+00 0.  1.
        2   -1    0    0  501    0  0.00000000000E+00 -0.00000000000E+00 -0.10259431253E+04  0.10259431253E+04  0.00000000000E+00 0. -1.
      -24    2    1    2    0    0 -0.36263068913E+02 -0.12702802765E+02 -0.13436076598E+03  0.16114623446E+03  0.80242894260E+02 0.  0.
       24    2    1    2    0    0  0.36263068913E+02  0.12702802765E+02 -0.87589115530E+03  0.88048809490E+03  0.81225599195E+02 0.  0.
      -13    1    4    4    0    0  0.47405977705E+01 -0.71815240655E+01 -0.78516872762E+01  0.11648886136E+02  0.00000000000E+00 0.  1.
       14    1    4    4    0    0  0.31522471143E+02  0.19884326830E+02 -0.86803946802E+03  0.86883920876E+03  0.00000000000E+00 0. -1.
        1    1    3    3  502    0 -0.87032377888E+00  0.18762984788E+02 -0.10217372078E+03  0.10388588104E+03  0.00000000000E+00 0. -1.
       -2    1    3    3    0  502 -0.35392745134E+02 -0.31465787553E+02 -0.32187045201E+02  0.57260353415E+02  0.00000000000E+00 0.  1.
</event>
<event>
 8   1  0.2279600E-02  0.8490122E+02  0.7546771E-02  0.1316846E+00
       -2   -1    0    0    0  501 -0.00000000000E+00  0.00000000000E+00  0.11603801188E+03  0.11603801188E+03  0.00000000000E+00 0.  1.
        2   -1    0    0  501    0  0.00000000000E+00 -0.00000000000E+00 -0.64369669678E+02  0.64369669678E+02  0.00000000000E+00 0. -1.
      -24    2    1    2    0    0  0.18602240759E+02  0.12672121275E+02  0.44878381440E+01  0.83277781955E+02  0.80052621801E+02 0.  0.
       24    2    1    2    0    0 -0.18602240759E+02 -0.12672121275E+02  0.47180504060E+02  0.97129899604E+02  0.81863248255E+02 0.  0.
      -13    1    4    4    0    0  0.10030484238E+02 -0.85148534586E+00  0.61985078045E+02  0.62797177816E+02  0.00000000000E+00 0.  1.
       14    1    4    4    0    0 -0.28632724997E+02 -0.11820635929E+02 -0.14804573985E+02  0.34332721788E+02  0.00000000000E+00 0. -1.
        1    1    3    3  502    0 -0.21063370081E+02  0.16406440801E+02 -0.22699585174E+02  0.35044372245E+02  0.00000000000E+00 0. -1.
       -2    1    3    3    0  502  0.39665610840E+02 -0.37343195257E+01  0.27187423319E+02  0.48233409710E+02  0.00000000000E+00 0.  1.
</event>
<event>
 8   1  0.2279600E-02  0.1015718E+03  0.7546771E-02  0.1277760E+00
       -1   -1    0    0    0  501 -0.00000000000E+00  0.00000000000E+00  0.27599472927E+02  0.27599472927E+02  0.00000000000E+00 0.  1.
        1   -1    0    0  501    0  0.00000000000E+00 -0.00000000000E+00 -0.40017137457E+03  0.40017137457E+03  0.00000000000E+00 0. -1.
       24    2    1    2    0    0 -0.14544067947E+02  0.58204158280E+02 -0.24514490085E+03  0.26481544035E+03  0.80199383278E+02 0.  0.
      -24    2    1    2    0    0  0.14544067947E+02 -0.58204158280E+02 -0.12742700079E+03  0.16295540715E+03  0.81960784742E+02 0.  0.
      -13    1    3    3    0    0  0.75156145365E+01  0.25229403640E+02 -0.13101692214E+02  0.29405128953E+02  0.00000000000E+00 0.  1.
       14    1    3    3    0    0 -0.22059682483E+02  0.32974754640E+02 -0.23204320864E+03  0.23541031139E+03  0.00000000000E+00 0. -1.
        1    1    4    4  502    0  0.15060805943E+02 -0.76265055055E+02 -0.12091692462E+03  0.14375009272E+03  0.00000000000E+00 0. -1.
       -2    1    4    4    0  502 -0.51673799626E+00  0.18060896775E+02 -0.65100761684E+01  0.19205314426E+02  0.00000000000E+00 0.  1.
</event>
<event>
 8   1  0.2279600E-02  0.1070668E+03  0.7546771E-02  0.1266587E+00
       -4   -1    0    0    0  501 -0.00000000000E+00  0.00000000000E+00  0.35174252959E+03  0.35174252959E+03  0.00000000000E+00 0.  1.
        4   -1    0    0  501    0  0.00000000000E+00 -0.00000000000E+00 -0.36185628098E+02  0.36185628098E+02  0.00000000000E+00 0. -1.
      -24    2    1    2    0    0 -0.58564368133E+02 -0.35481804361E+02  0.22214021826E+03  0.24659597847E+03  0.82307693285E+02 0.  0.
       24    2    1    2    0    0  0.58564368133E+02  0.35481804361E+02  0.93416683227E+02  0.14133217921E+03  0.80989903819E+02 0.  0.
      -13    1    4    4    0    0  0.30241054065E+02  0.34116558726E+02  0.10198373588E+03  0.11171008600E+03  0.00000000000E+00 0.  1.
       14    1    4    4    0    0  0.28323314068E+02  0.13652456353E+01 -0.85670526490E+01  0.29622093216E+02  0.00000000000E+00 0. -1.
        1    1    3    3  502    0  0.20032851929E+02  0.16453666342E+01  0.39090897174E+02  0.43955894140E+02  0.00000000000E+00 0. -1.
       -2    1    3    3    0  502 -0.78597220062E+02 -0.37127170995E+02  0.18304932109E+03  0.20264008433E+03  0.00000000000E+00 0.  1.
</event>
<event>
 8   1  0.2279600E-02  0.9770914E+02  0.7546771E-02  0.1286281E+00
       -2   -1    0    0    0  501 -0.00000000000E+00  0.00000000000E+00  0.13375428656E+02  0.13375428656E+02  0.00000000000E+00 0.  1.
        2   -1    0    0  501    0  0.00000000000E+00 -0.00000000000E+00 -0.16592863059E+04  0.16592863059E+04  0.00000000000E+00 0. -1.
      -24    2    1    2    0    0 -0.48384429216E+02  0.29947292488E+02 -0.18325641839E+03  0.20674729538E+03  0.76965160615E+02 0.  0.
       24    2    1    2    0    0  0.48384429216E+02 -0.29947292488E+02 -0.14626544588E+04  0.14659144392E+04  0.79430369878E+02 0.  0.
      -13    1    4    4    0    0  0.34391208284E+01 -0.44366886058E+02 -0.45940496212E+03  0.46155516176E+03  0.00000000000E+00 0.  1.
       14    1    4    4    0    0  0.44945308388E+02  0.14419593571E+02 -0.10032494967E+04  0.10043592774E+04  0.00000000000E+00 0. -1.
        3    1    3    3  502    0 -0.13000784765E+02  0.15685285038E+02 -0.16160020526E+03  0.16287932622E+03  0.00000000000E+00 0. -1.
       -4    1    3    3    0  502 -0.35383644451E+02  0.14262007450E+02 -0.21656213137E+02  0.43867969164E+02  0.00000000000E+00 0.  1.
</event>
<event>
 8   1  0.2279600E-02  0.9354513E+02  0.7546771E-02  0.1295623E+00
       -2   -1    0    0    0  501 -0.00000000000E+00  0.00000000000E+00  0.54444430131E+02  0.54444430131E+02  0.00000000000E+00 0.  1.
        2   -1    0    0  501    0  0.00000000000E+00 -0.00000000000E+00 -0.62612319790E+03  0.62612319790E+03  0.00000000000E+00 0. -1.
      -24    2    1    2    0    0 -0.28723297085E+02 -0.35329370153E+02  0.78237798275E+01  0.93871734978E+02  0.81715964818E+02 0.  0.
       24    2    1    2    0    0  0.28723297085E+02  0.35329370153E+02 -0.57950254760E+03  0.58669589305E+03  0.79471227892E+02 0.  0.
      -13    1    4    4    0    0 -0.15469790509E+02 -0.16509526314E+02 -0.18168580408E+03  0.18308907745E+03  0.00000000000E+00 0.  1.
       14    1    4    4    0    0  0.44193087595E+02  0.51838896467E+02 -0.39781674351E+03  0.40360681560E+03  0.00000000000E+00 0. -1.
        3    1    3    3  502    0 -0.18358039605E+02  0.20740504048E+02  0.21701605142E+02  0.35187295890E+02  0.00000000000E+00 0. -1.
       -4    1    3    3    0  502 -0.10365257480E+02 -0.56069874202E+02 -0.13877825314E+02  0.58684439088E+02  0.00000000000E+00 0.  1.
</event>
<event>
 8   1  0.2279600E-02  0.9088252E+02  0.7546771E-02  0.1302507E+00
        1   -1    0    0  501    0  0.00000000000E+00  0.00000000000E+00  0.15859783170E+03  0.15859783170E+03  0.00000000000E+00 0. -1.
       -1   -1    0    0    0  501 -0.00000000000E+00 -0.00000000000E+00 -0.55168105836E+02  0.55168105836E+02  0.00000000000E+00 0.  1.
       24    2    1    2    0    0 -0.24004428644E+02  0.36249005202E+02  0.21125944150E+02  0.93305611251E+02  0.79808700040E+02 0.  0.
      -24    2    1    2    0    0  0.24004428644E+02 -0.36249005202E+02  0.82303781712E+02  0.12046032628E+03  0.76462897874E+02 0.  0.
      -13    1    3    3    0    0  0.53604484571E+01 -0.19081872419E+02 -0.11252625269E+02  0.22791968719E+02  0.00000000000E+00 0.  1.
       14    1    3    3    0    0 -0.29364877101E+02  0.55330877621E+02  0.32378569419E+02  0.70513642531E+02  0.00000000000E+00 0. -1.
        3    1    4    4  502    0  0.40047316232E+02 -0.36711786217E+01  0.13078333789E+02  0.42288389714E+02  0.00000000000E+00 0. -1.
       -4    1    4    4    0  502 -0.16042887588E+02 -0.32577826580E+02  0.69225447922E+02  0.78171936569E+02  0.00000000000E+00 0.  1.
</event>
<event>
 8   1  0.2279600E-02  0.1019893E+03  0.7546771E-02  0.1276727E+00
       -2   -1    0    0    0  501 -0.00000000000E+00  0.00000000000E+00  0.79703192804E+01  0.79703192804E+01  0.00000000000E+00 0.  1.
        2   -1    0    0  501    0  0.00000000000E+00 -0.00000000000E+00 -0.13296135887E+04  0.13296135887E+04  0.00000000000E+00 0. -1.
       24    2    1    2    0    0  0.11813066057E+02  0.60927101212E+02 -0.77794349214E+03  0.78460047323E+03  0.80933092368E+02 0.  0.
      -24    2    1    2    0    0 -0.11813066057E+02 -0.60927101212E+02 -0.54369977729E+03  0.55298343476E+03  0.79558601681E+02 0.  0.
      -13    1    3    3    0    0  0.25653182859E+02  0.55756528887E+01 -0.77268862839E+02  0.81606683920E+02  0.00000000000E+00 0.  1.
       14    1    3    3    0    0 -0.13840116802E+02  0.55351448324E+02 -0.70067462930E+03  0.70299378931E+03  0.00000000000E+00 0. -1.
        1    1    4    4  502    0 -0.17178865005E+02  0.14569837467E+02 -0.18633331628E+03  0.18768989936E+03  0.00000000000E+00 0. -1.
       -2    1    4    4    0  502  0.53657989476E+01 -0.75496938680E+02 -0.35736646102E+03  0.36529353541E+03  0.00000000000E+00 0.  1.
</event>
<event>
 8   1  0.2279600E-02  0.9459600E+02  0.7546771E-02  0.1292649E+00
       -2   -1    0    0    0  501 -0.00000000000E+00  0.00000000000E+00  0.71908997848E+02  0.71908997848E+02  0.00000000000E+00 0.  1.
        2   -1    0    0  501    0  0.00000000000E+00 -0.00000000000E+00 -0.18985929231E+03  0.18985929231E+03  0.00000000000E+00 0. -1.
       24    2    1    2    0    0 -0.17423533630E+02  0.45166740763E+02 -0.13675717798E+03  0.16628568385E+03  0.81269852518E+02 0.  0.
      -24    2    1    2    0    0  0.17423533630E+02 -0.45166740763E+02  0.18806883517E+02  0.95482606311E+02  0.80122501490E+02 0.  0.
      -13    1    3    3    0    0 -0.70410165534E+00  0.13000542615E+02  0.91688280146E+01  0.15924109852E+02  0.00000000000E+00 0.  1.
       14    1    3    3    0    0 -0.16719431975E+02  0.32166198148E+02 -0.14592600599E+03  0.15036157399E+03  0.00000000000E+00 0. -1.
        3    1    4    4  502    0  0.18686971032E+02 -0.19334684874E+02 -0.29975330511E+02  0.40268515800E+02  0.00000000000E+00 0. -1.
       -4    1    4    4    0  502 -0.12634374017E+01 -0.25832055888E+02  0.48782214028E+02  0.55214090511E+02  0.00000000000E+00 0.  1.
</event>
<event>
 8   1  0.2279600E-02  0.1199594E+03  0.7546771E-02  0.1247348E+00
        2   -1    0    0  501    0  0.00000000000E+00  0.00000000000E+00  0.24171502222E+03  0.24171502222E+03  0.00000000000E+00 0. -1.
       -2   -1    0    0    0  501 -0.00000000000E+00 -0.00000000000E+00 -0.54898741599E+02  0.54898741599E+02  0.00000000000E+00 0.  1.
      -24    2    1    2    0    0  0.32508290708E+02 -0.69394655963E+02  0.10289947767E+03  0.15804607768E+03  0.92292214864E+02 0.  0.
       24    2    1    2    0    0 -0.32508290708E+02  0.69394655963E+02  0.83916802949E+02  0.13856768614E+03  0.79287871599E+02 0.  0.
      -13    1    4    4    0    0 -0.23612851005E+02  0.79998110397E+02  0.90641999707E+02  0.12317969196E+03  0.00000000000E+00 0.  1.
       14    1    4    4    0    0 -0.88954397026E+01 -0.10603454434E+02 -0.67251967570E+01  0.15387994179E+02  0.00000000000E+00 0. -1.
        3    1    3    3  502    0  0.61718921656E+02 -0.61494935616E+02  0.89651999772E+02  0.12501333313E+03  0.00000000000E+00 0. -1.
       -4    1    3    3    0  502 -0.29210630948E+02 -0.78997203470E+01  0.13247477896E+02  0.33032744551E+02  0.00000000000E+00 0.  1.
</event>
<event>
 8   1  0.2279600E-02  0.9346127E+02  0.7546771E-02  0.1295416E+00
       -2   -1    0    0    0  501 -0.00000000000E+00  0.00000000000E+00  0.10150921224E+02  0.10150921224E+02  0.00000000000E+00 0.  1.
        2   -1    0    0  501    0  0.00000000000E+00 -0.00000000000E+00 -0.25907198479E+04  0.25907198479E+04  0.00000000000E+00 0. -1.
      -24    2    1    2    0    0 -0.42498237034E+02  0.20205360530E+02 -0.22109127526E+03  0.23954279585E+03  0.79278258697E+02 0.  0.
       24    2    1    2    0    0  0.42498237034E+02 -0.20205360530E+02 -0.23594776515E+04  0.23613279733E+04  0.80750560950E+02 0.  0.
      -13    1    4    4    0    0  0.19874802472E+02 -0.24437651501E+02 -0.28714976920E+03  0.28887228412E+03  0.00000000000E+00 0.  1.
       14    1    4    4    0    0  0.22623434562E+02  0.42322909710E+01 -0.20723278823E+04  0.20724556892E+04  0.00000000000E+00 0. -1.
        3    1    3    3  502    0 -0.43746461344E+02 -0.14611151583E+02 -0.17928745338E+03  0.18512490262E+03  0.00000000000E+00 0. -1.
       -4    1    3    3    0  502  0.12482243103E+01  0.34816512113E+02 -0.41803821878E+02  0.54417893227E+02  0.00000000000E+00 0.  1.
</event>
<event>
 8   1  0.2279600E-02  0.8966791E+02  0.7546771E-02  0.1306591E+00
        1   -1    0    0  501    0  0.00000000000E+00  0.00000000000E+00  0.26386909324E+02  0.26386909324E+02  0.00000000000E+00 0. -1.
       -1   -1    0    0    0  501 -0.00000000000E+00 -0.00000000000E+00 -0.62262624625E+03  0.62262624625E+03  0.00000000000E+00 0.  1.
       24    2    1    2    0    0 -0.55663497950E+01  0.37463431409E+02 -0.53933240346E+03  0.54673556260E+03  0.81276325244E+02 0.  0.
      -24    2    1    2    0    0  0.55663497950E+01 -0.37463431409E+02 -0.56906933466E+02  0.10227759298E+03  0.76077684017E+02 0.  0.
      -13    1    3    3    0    0  0.74740349202E+01  0.46140379665E+02 -0.15058119809E+03  0.15766893496E+03  0.00000000000E+00 0.  1.
       14    1    3    3    0    0 -0.13040384715E+02 -0.86769482556E+01 -0.38875120537E+03  0.38906662764E+03  0.00000000000E+00 0. -1.
        1    1    4    4  502    0  0.14616604994E+02  0.10969642676E+02  0.86909975415E+01  0.20236393954E+02  0.00000000000E+00 0. -1.
       -2    1    4    4    0  502 -0.90502551988E+01 -0.48433074085E+02 -0.65597931008E+02  0.82041199022E+02  0.00000000000E+00 0.  1.
</event>
<event>
 8   1  0.2279600E-02  0.1619766E+03  0.7546771E-02  0.1188167E+00
        2   -1    0    0  501    0  0.00000000000E+00  0.00000000000E+00  0.17758282427E+04  0.17758282427E+04  0.00000000000E+00 0. -1.
       -2   -1    0    0    0  501 -0.00000000000E+00 -0.00000000000E+00 -0.22026616457E+02  0.22026616457E+02  0.00000000000E+00 0.  1.
      -24    2    1    2    0    0  0.87877323998E+02  0.10019746468E+03  0.33180511428E+03  0.36666287237E+03  0.81148457244E+02 0.  0.
       24    2    1    2    0    0 -0.87877323998E+02 -0.10019746468E+03  0.14219965120E+04  0.14311919868E+04  0.92056868300E+02 0.  0.
      -13    1    4    4    0    0  0.79056079751E+01  0.12023151904E+02  0.13662179250E+03  0.13737746906E+03  0.00000000000E+00 0.  1.
       14    1    4    4    0    0 -0.95782931974E+02 -0.11222061658E+03  0.12853747195E+04  0.12938145178E+04  0.00000000000E+00 0. -1.
        3    1    3    3  502    0  0.32012217603E+02 -0.89386009413E+01  0.78518699675E+02  0.85263514245E+02  0.00000000000E+00 0. -1.
       -4    1    3    3    0  502  0.55865106395E+02  0.10913606562E+03  0.25328641460E+03  0.28139935813E+03  0.00000000000E+00 0.  1.
</event>
<event>
 8   1  0.2279600E-02  0.1166228E+03  0.7546771E-02  0.1249279E+00
       -2   -1    0    0    0  501 -0.00000000000E+00  0.00000000000E+00  0.38587795104E+03  0.38587795104E+03  0.00000000000E+00 0.  1.
        2   -1    0    0  501    0  0.00000000000E+00 -0.00000000000E+00 -0.37727994922E+02  0.37727994922E+02  0.00000000000E+00 0. -1.
      -24    2    1    2    0    0 -0.57067283003E+02  0.63180075728E+02  0.23293668185E+03  0.26050024991E+03  0.79702482355E+02 0.  0.
       24    2    1    2    0    0  0.57067283003E+02 -0.63180075728E+02  0.11521327427E+03  0.16310569605E+03  0.77980592192E+02 0.  0.
      -13    1    4    4    0    0  0.39293037789E+02 -0.92548596684E+01  0.94335685991E+02  0.10261002338E+03  0.00000000000E+00 0.  1.
       14    1    4    4    0    0  0.17774245214E+02 -0.53925216060E+02  0.20877588277E+02  0.60495672674E+02  0.00000000000E+00 0. -1.
        3    1    3    3  502    0 -0.30183299165E+02 -0.63393032964E+01  0.25302466431E+02  0.39892770300E+02  0.00000000000E+00 0. -1.
       -4    1    3    3    0  502 -0.26883983838E+02  0.69519379024E+02  0.20763421541E+03  0.22060747961E+03  0.00000000000E+00 0.  1.
</event>
<event>
 8   1  0.2279600E-02  0.8254577E+02  0.7546771E-02  0.1322547E+00
       -3   -1    0    0    0  501 -0.00000000000E+00  0.00000000000E+00  0.19659400725E+02  0.19659400725E+02  0.00000000000E+00 0.  1.
        3   -1    0    0  501    0  0.00000000000E+00 -0.00000000000E+00 -0.47312817125E+03  0.47312817125E+03  0.00000000000E+00 0. -1.
       24    2    1    2    0    0 -0.77559311353E+01  0.19594385613E+02 -0.96739038902E+02  0.12663199618E+03  0.78950151322E+02 0.  0.
      -24    2    1    2    0    0  0.77559311353E+01 -0.19594385613E+02 -0.35672973163E+03  0.36615557580E+03  0.79810462004E+02 0.  0.
      -13    1    3    3    0    0  0.31345979335E+02 -0.50468044315E+01 -0.58849258022E+02  0.66867599218E+02  0.00000000000E+00 0.  1.
       14    1    3    3    0    0 -0.39101910470E+02  0.24641190044E+02 -0.37889780880E+02  0.59764396963E+02  0.00000000000E+00 0. -1.
        1    1    4    4  502    0 -0.26427493539E+02 -0.33952968904E+02 -0.23493849221E+03  0.23884579048E+03  0.00000000000E+00 0. -1.
       -2    1    4    4    0  502  0.34183424675E+02  0.14358583291E+02 -0.12179123942E+03  0.12730978531E+03  0.00000000000E+00 0.  1.
</event>
<event>
 8   1  0.2279600E-02  0.1044419E+03  0.7546771E-02  0.1271961E+00
       -2   -1    0    0    0  501 -0.00000000000E+00  0.00000000000E+00  0.13875904768E+02  0.13875904768E+02  0.00000000000E+00 0.  1.
        2   -1    0    0  501    0  0.00000000000E+00 -0.00000000000E+00 -0.12280814699E+04  0.12280814699E+04  0.00000000000E+00 0. -1.
      -24    2    1    2    0    0 -0.58193796005E+02 -0.29882843232E+02 -0.98153216916E+03  0.98691810559E+03  0.79513809040E+02 0.  0.
       24    2    1    2    0    0  0.58193796005E+02  0.29882843232E+02 -0.23267339594E+03  0.25503926905E+03  0.81416321247E+02 0.  0.
      -13    1    4    4    0    0  0.99032687844E+00  0.31616935308E+02 -0.15703820623E+03  0.16019241419E+03  0.00000000000E+00 0.  1.
       14    1    4    4    0    0  0.57203469127E+02 -0.17340920758E+01 -0.75635189709E+02  0.94846854865E+02  0.00000000000E+00 0. -1.
        1    1    3    3  502    0 -0.66244836227E+02 -0.19991550472E+02 -0.95475103493E+03  0.95725523196E+03  0.00000000000E+00 0. -1.
       -2    1    3    3    0  502  0.80510402218E+01 -0.98912927604E+01 -0.26781134226E+02  0.29662873622E+02  0.00000000000E+00 0.  1.
</event>
<event>
 8   1  0.2279600E-02  0.9836458E+02  0.7546771E-02  0.1288577E+00
        2   -1    0    0  501    0  0.00000000000E+00  0.00000000000E+00  0.98217850080E+03  0.98217850080E+03  0.00000000000E+00 0. -1.
       -2   -1    0    0    0  501 -0.00000000000E+00 -0.00000000000E+00 -0.93182868468E+01  0.93182868468E+01  0.00000000000E+00 0.  1.
      -24    2    1    2    0    0 -0.21739980712E+02  0.36722226652E+02  0.41866781758E+03  0.43006782277E+03  0.88625289919E+02 0.  0.
       24    2    1    2    0    0  0.21739980712E+02 -0.36722226652E+02  0.55419239637E+03  0.56142896488E+03  0.79070359258E+02 0.  0.
      -13    1    4    4    0    0 -0.75293236356E+00 -0.56257785566E+02  0.27812771538E+03  0.28376139872E+03  0.00000000000E+00 0.  1.
       14    1    4    4    0    0  0.22492913075E+02  0.19535558915E+02  0.27606468100E+03  0.27766756615E+03  0.00000000000E+00 0. -1.
        1    1    3    3  502    0 -0.49104775966E+02  0.47895452711E+02  0.27928657983E+03  0.28758693831E+03  0.00000000000E+00 0. -1.
       -2    1    3    3    0  502  0.27364795254E+02 -0.11173226060E+02  0.13938123775E+03  0.14248088446E+03  0.00000000000E+00 0.  1.
</event>
<event>
 8   1  0.2279600E-02  0.1365736E+03  0.7546771E-02  0.1218052E+00
        2   -1    0    0  501    0  0.00000000000E+00  0.00000000000E+00  0.25563722020E+04  0.25563722020E+04  0.00000000000E+00 0. -1.
       -2   -1    0    0    0  501 -0.00000000000E+00 -0.00000000000E+00 -0.13071193090E+02  0.13071193090E+02  0.00000000000E+00 0.  1.
      -24    2    1    2    0    0  0.50590764471E+02 -0.98190869412E+02  0.41758321613E+03  0.43934960942E+03  0.80321009805E+02 0.  0.
       24    2    1    2    0    0 -0.50590764471E+02  0.98190869412E+02  0.21257177927E+04  0.21300937856E+04  0.80140682161E+02 0.  0.
      -13    1    4    4    0    0  0.69870076441E+01  0.65502064229E+02  0.79253936267E+03  0.79527226789E+03  0.00000000000E+00 0.  1.
       14    1    4    4    0    0 -0.57577772115E+02  0.32688805183E+02  0.13331784301E+04  0.13348215178E+04  0.00000000000E+00 0. -1.
        1    1    3    3  502    0 -0.16137093748E+02 -0.18157390387E+02  0.15422139237E+03  0.15612281859E+03  0.00000000000E+00 0. -1.
       -2    1    3    3    0  502  0.66727858220E+02 -0.80033479025E+02  0.26336182376E+03  0.28322679082E+03  0.00000000000E+00 0.  1.
</event>
<event>
 8   1  0.2279600E-02  0.8625527E+02  0.7546771E-02  0.1313328E+00
        2   -1    0    0  501    0  0.00000000000E+00  0.00000000000E+00  0.63507672596E+03  0.63507672596E+03  0.00000000000E+00 0. -1.
       -2   -1    0    0    0  501 -0.00000000000E+00 -0.00000000000E+00 -0.11492186265E+02  0.11492186265E+02  0.00000000000E+00 0.  1.
      -24    2    1    2    0    0  0.13287278501E+02 -0.28211679918E+02  0.30298850849E+03  0.31502699502E+03  0.80420896916E+02 0.  0.
       24    2    1    2    0    0 -0.13287278501E+02  0.28211679918E+02  0.32059603120E+03  0.33154191720E+03  0.78522461660E+02 0.  0.
      -13    1    4    4    0    0  0.14351401500E+01 -0.23235532784E+02  0.43615334974E+02  0.49439327017E+02  0.00000000000E+00 0.  1.
       14    1    4    4    0    0 -0.14722418651E+02  0.51447212701E+02  0.27698069623E+03  0.28210259018E+03  0.00000000000E+00 0. -1.
        3    1    3    3  502    0  0.67011551130E+01 -0.44370331750E+02  0.28953965041E+03  0.29299631564E+03  0.00000000000E+00 0. -1.
       -4    1    3    3    0  502  0.65861233879E+01  0.16158651832E+02  0.13448858082E+02  0.22030679382E+02  0.00000000000E+00 0.  1.
</event>
<event>
 8   1  0.2279600E-02  0.8254841E+02  0.7546771E-02  0.1336837E+00
       -1   -1    0    0    0  501 -0.00000000000E+00  0.00000000000E+00  0.15642300444E+03  0.15642300444E+03  0.00000000000E+00 0.  1.
        1   -1    0    0  501    0  0.00000000000E+00 -0.00000000000E+00 -0.28890175434E+03  0.28890175434E+03  0.00000000000E+00 0. -1.
       24    2    1    2    0    0  0.17427791583E+02 -0.58400408133E+01  0.14367547818E+03  0.15709672879E+03  0.60818625193E+02 0.  0.
      -24    2    1    2    0    0 -0.17427791583E+02  0.58400408133E+01 -0.27615422808E+03  0.28822803000E+03  0.80476118165E+02 0.  0.
      -13    1    3    3    0    0  0.25959427138E+02 -0.14465699863E+02  0.14172685843E+03  0.14480901467E+03  0.00000000000E+00 0.  1.
       14    1    3    3    0    0 -0.85316355545E+01  0.86256590496E+01  0.19486197465E+01  0.12287714116E+02  0.00000000000E+00 0. -1.
        1    1    4    4  502    0 -0.49688043351E+01  0.42760826224E+02 -0.16120062561E+03  0.16684968976E+03  0.00000000000E+00 0. -1.
       -2    1    4    4    0  502 -0.12458987248E+02 -0.36920785410E+02 -0.11495360246E+03  0.12137834023E+03  0.00000000000E+00 0.  1.
</event>
<event>
 8   1  0.2279600E-02  0.8558061E+02  0.7546771E-02  0.1315110E+00
        2   -1    0    0  501    0  0.00000000000E+00  0.00000000000E+00  0.12724896162E+04  0.12724896162E+04  0.00000000000E+00 0. -1.
       -2   -1    0    0    0  501 -0.00000000000E+00 -0.00000000000E+00 -0.90331752521E+01  0.90331752521E+01  0.00000000000E+00 0.  1.
      -24    2    1    2    0    0  0.22648783213E+01  0.27180602336E+02  0.24291915347E+03  0.25755340335E+03  0.81117973576E+02 0.  0.
       24    2    1    2    0    0 -0.22648783213E+01 -0.27180602336E+02  0.10205372875E+04  0.10239693881E+04  0.79202511456E+02 0.  0.
      -13    1    4    4    0    0  0.18681726299E+01  0.24718205333E+02  0.16524230114E+03  0.16709128591E+03  0.00000000000E+00 0.  1.
       14    1    4    4    0    0 -0.41330509512E+01 -0.51898807669E+02  0.85529498633E+03  0.85687810218E+03  0.00000000000E+00 0. -1.
        1    1    3    3  502    0  0.30816054123E+02 -0.11310526421E+02  0.59259050265E+02  0.67743577097E+02  0.00000000000E+00 0. -1.
       -2    1    3    3    0  502 -0.28551175801E+02  0.38491128757E+02  0.18366010320E+03  0.18980982625E+03  0.00000000000E+00 0.  1.
</event>
<event>
 8   1  0.2279600E-02  0.1018081E+03  0.7546771E-02  0.1277024E+00
       -3   -1    0    0    0  501 -0.00000000000E+00  0.00000000000E+00  0.19536988836E+03  0.19536988836E+03  0.00000000000E+00 0.  1.
        3   -1    0    0  501    0  0.00000000000E+00 -0.00000000000E+00 -0.60056646327E+02  0.60056646327E+02  0.00000000000E+00 0. -1.
       24    2    1    2    0    0 -0.61214430514E+02  0.44889862247E+01  0.11249108760E+03  0.15109173786E+03  0.80044431173E+02 0.  0.
      -24    2    1    2    0    0  0.61214430514E+02 -0.44889862247E+01  0.22822154441E+02  0.10433479683E+03  0.81225252202E+02 0.  0.
      -13    1    3    3    0    0 -0.29891788750E+02 -0.37197502470E+02  0.64436680934E+02  0.80182660685E+02  0.00000000000E+00 0.  1.
       14    1    3    3    0    0 -0.31322641764E+02  0.41686488695E+02  0.48054406662E+02  0.70909077179E+02  0.00000000000E+00 0. -1.
        3    1    4    4  502    0  0.75236518356E+02 -0.15439253684E+02  0.33272242345E+02  0.83701531403E+02  0.00000000000E+00 0. -1.
       -4    1    4    4    0  502 -0.14022087842E+02  0.10950267459E+02 -0.10450087903E+02  0.20633265424E+02  0.00000000000E+00 0.  1.
</event>
<event>
 8   1  0.2279600E-02  0.8790279E+02  0.7546771E-02  0.1310681E+00
        2   -1    0    0  501    0  0.00000000000E+00  0.00000000000E+00  0.91910194686E+03  0.91910194686E+03  0.00000000000E+00 0. -1.
       -2   -1    0    0    0  501 -0.00000000000E+00 -0.00000000000E+00 -0.80159426444E+01  0.80159426444E+01  0.00000000000E+00 0.  1.
       24    2    1    2    0    0  0.27903110281E+02  0.20176661438E+02  0.47431649131E+03  0.48239302860E+03  0.80877802203E+02 0.  0.
      -24    2    1    2    0    0 -0.27903110281E+02 -0.20176661438E+02  0.43676951291E+03  0.44472486090E+03  0.76334220811E+02 0.  0.
      -13    1    3    3    0    0  0.32073954476E+02  0.39448190943E+02  0.17003581613E+03  0.17747415894E+03  0.00000000000E+00 0.  1.
       14    1    3    3    0    0 -0.41708441945E+01 -0.19271529505E+02  0.30428067518E+03  0.30491886967E+03  0.00000000000E+00 0. -1.
        1    1    4    4  502    0 -0.39181230429E+02 -0.26801693537E+02  0.42328543132E+03  0.42593902845E+03  0.00000000000E+00 0. -1.
       -2    1    4    4    0  502  0.11278120147E+02  0.66250320988E+01  0.13484081590E+02  0.18785832446E+02  0.00000000000E+00 0.  1.
</event>
<event>
 8   1  0.2279600E-02  0.9280716E+02  0.7546771E-02  0.1297176E+00
        2   -1    0    0  501    0  0.00000000000E+00  0.00000000000E+00  0.19429928520E+04  0.19429928520E+04  0.00000000000E+00 0. -1.
       -2   -1    0    0    0  501 -0.00000000000E+00 -0.00000000000E+00 -0.59987676783E+01  0.59987676783E+01  0.00000000000E+00 0.  1.
      -24    2    1    2    0    0  0.19881025845E+02  0.38776960129E+02  0.45172406425E+03  0.46082489449E+03  0.80037774422E+02 0.  0.
       24    2    1    2    0    0 -0.19881025845E+02 -0.38776960129E+02  0.14852700200E+04  0.14881667252E+04  0.81940598033E+02 0.  0.
      -13    1    4    4    0    0  0.28427406071E+02 -0.19083823691E+01  0.30322086457E+03  0.30455648417E+03  0.00000000000E+00 0.  1.
       14    1    4    4    0    0 -0.48308431916E+02 -0.36868577759E+02  0.11820491555E+04  0.11836102410E+04  0.00000000000E+00 0. -1.
        3    1    3    3  502    0  0.22462488694E+02  0.54294911219E+02  0.43003967902E+03  0.43403528234E+03  0.00000000000E+00 0. -1.
       -4    1    3    3    0  502 -0.25814628487E+01 -0.15517951090E+02  0.21684385228E+02  0.26789612151E+02  0.00000000000E+00 0.  1.
</event>
<event>
 8   1  0.2279600E-02  0.9473744E+02  0.7546771E-02  0.1292502E+00
       -1   -1    0    0    0  501 -0.00000000000E+00  0.00000000000E+00  0.16569859267E+03  0.16569859267E+03  0.00000000000E+00 0.  1.
        1   -1    0    0  501    0  0.00000000000E+00 -0.00000000000E+00 -0.58063201779E+02  0.58063201779E+02  0.00000000000E+00 0. -1.
       24    2    1    2    0    0  0.36817982039E+02  0.30700554771E+02  0.85077132053E+02  0.12637566680E+03  0.80215976569E+02 0.  0.
      -24    2    1    2    0    0 -0.36817982039E+02 -0.30700554771E+02  0.22558258837E+02  0.97386127643E+02  0.81713493078E+02 0.  0.
      -13    1    3    3    0    0  0.56715156217E+02  0.32826803107E+02  0.83723490626E+02  0.10631947531E+03  0.00000000000E+00 0.  1.
       14    1    3    3    0    0 -0.19897174178E+02 -0.21262483355E+01  0.13536414271E+01  0.20056191497E+02  0.00000000000E+00 0. -1.
        3    1    4    4  502    0 -0.47576017535E+02 -0.23457700720E+01  0.40174861675E+02  0.62313719134E+02  0.00000000000E+00 0. -1.
       -4    1    4    4    0  502  0.10758035496E+02 -0.28354784699E+02 -0.17616602838E+02  0.35072408509E+02  0.00000000000E+00 0.  1.
</event>
<event>
 8   1  0.2279600E-02  0.1266194E+03  0.7546771E-02  0.1232832E+00
        2   -1    0    0  501    0  0.00000000000E+00  0.00000000000E+00  0.69513630572E+02  0.69513630572E+02  0.00000000000E+00 0. -1.
       -2   -1    0    0    0  501 -0.00000000000E+00 -0.00000000000E+00 -0.22935534172E+03  0.22935534172E+03  0.00000000000E+00 0.  1.
       24    2    1    2    0    0  0.78292891630E+02 -0.57458516727E+02 -0.80035143936E+02  0.14919747727E+03  0.80143651868E+02 0.  0.
      -24    2    1    2    0    0 -0.78292891630E+02  0.57458516727E+02 -0.79806567210E+02  0.14967149502E+03  0.81247832141E+02 0.  0.
      -13    1    3    3    0    0  0.80536353989E+02 -0.38639868697E+02 -0.90824073771E+02  0.12738978037E+03  0.00000000000E+00 0.  1.
       14    1    3    3    0    0 -0.22434623595E+01 -0.18818648030E+02  0.10788929835E+02  0.21807696898E+02  0.00000000000E+00 0. -1.
        3    1    4    4  502    0 -0.80909028877E+02  0.72899263524E+02 -0.59734261492E+02  0.12421254193E+03  0.00000000000E+00 0. -1.
       -4    1    4    4    0  502  0.26161372471E+01 -0.15440746797E+02 -0.20072305718E+02  0.25458953093E+02  0.00000000000E+00 0.  1.
</event>
<event>
 8   1  0.2279600E-02  0.1208769E+03  0.7546771E-02  0.1241985E+00
       -2   -1    0    0    0  501 -0.00000000000E+00  0.00000000000E+00  0.22097445851E+02  0.22097445851E+02  0.00000000000E+00 0.  1.
        2   -1    0    0  501    0  0.00000000000E+00 -0.00000000000E+00 -0.66666744160E+03  0.66666744160E+03  0.00000000000E+00 0. -1.
       24    2    1    2    0    0 -0.86695983370E+02 -0.21901335162E+02 -0.36513283179E+03  0.38462086265E+03  0.81334870294E+02 0.  0.
      -24    2    1    2    0    0  0.86695983370E+02  0.21901335162E+02 -0.27943716397E+03  0.30414402480E+03  0.80141108070E+02 0.  0.
      -13    1    3    3    0    0 -0.31136264533E+02 -0.49658142816E+02 -0.18709735023E+03  0.19606329738E+03  0.00000000000E+00 0.  1.
       14    1    3    3    0    0 -0.55559718837E+02  0.27756807654E+02 -0.17803548155E+03  0.18855756527E+03  0.00000000000E+00 0. -1.
        1    1    4    4  502    0 -0.62588400322E+01 -0.17479990461E+02 -0.54947045247E+02  0.57999145911E+02  0.00000000000E+00 0. -1.
       -2    1    4    4    0  502  0.92954823402E+02  0.39381325622E+02 -0.22449011872E+03  0.24614487889E+03  0.00000000000E+00 0.  1.
</event>
<event>
 8   1  0.2279600E-02  0.1246812E+03  0.7546771E-02  0.1242330E+00
       -1   -1    0    0    0  501 -0.00000000000E+00  0.00000000000E+00  0.94406446112E+02  0.94406446112E+02  0.00000000000E+00 0.  1.
        1   -1    0    0  501    0  0.00000000000E+00 -0.00000000000E+00 -0.14629887538E+03  0.14629887538E+03  0.00000000000E+00 0. -1.
       24    2    1    2    0    0  0.72780101827E+02 -0.79987186836E+00 -0.42151131884E+02  0.13161352010E+03  0.10123150566E+03 0.  0.
      -24    2    1    2    0    0 -0.72780101827E+02  0.79987186836E+00 -0.97412973874E+01  0.10909180139E+03  0.80675555400E+02 0.  0.
      -13    1    3    3    0    0  0.83183905868E+02  0.27227892236E+02 -0.10630407134E+02  0.88169869382E+02  0.00000000000E+00 0.  1.
       14    1    3    3    0    0 -0.10403804041E+02 -0.28027764104E+02 -0.31520724750E+02  0.43443650721E+02  0.00000000000E+00 0. -1.
        1    1    4    4  502    0 -0.57110294334E+02 -0.21576678578E+02 -0.36270809827E+02  0.71012044210E+02  0.00000000000E+00 0. -1.
       -2    1    4    4    0  502 -0.15669807494E+02  0.22376550446E+02  0.26529512440E+02  0.38079757182E+02  0.00000000000E+00 0.  1.
</event>
<event>
 8   1  0.2279600E-02  0.9755068E+02  0.7546771E-02  0.1290613E+00
       -1   -1    0    0    0  501 -0.00000000000E+00  0.00000000000E+00  0.54307851415E+02  0.54307851415E+02  0.00000000000E+00 0.  1.
        1   -1    0    0  501    0  0.00000000000E+00 -0.00000000000E+00 -0.18106570086E+03  0.18106570086E+03  0.00000000000E+00 0. -1.
       24    2    1    2    0    0 -0.30153673994E+02  0.45166587654E+02 -0.10648919629E+03  0.14441635801E+03  0.81036231652E+02 0.  0.
      -24    2    1    2    0    0  0.30153673994E+02 -0.45166587654E+02 -0.20268653162E+02  0.90957194264E+02  0.70093710073E+02 0.  0.
      -13    1    3    3    0    0 -0.45069838473E+02 -0.38502582083E+01 -0.39307500593E+02  0.59926575333E+02  0.00000000000E+00 0.  1.
       14    1    3    3    0    0  0.14916164479E+02  0.49016845863E+02 -0.67181695693E+02  0.84489782680E+02  0.00000000000E+00 0. -1.
        3    1    4    4  502    0  0.36296382598E+02 -0.49561044124E+02 -0.37619078901E+02  0.72034155661E+02  0.00000000000E+00 0. -1.
       -4    1    4    4    0  502 -0.61427086041E+01  0.43944564696E+01  0.17350425739E+02  0.18923038604E+02  0.00000000000E+00 0.  1.
</event>
<event>
 8   1  0.2279600E-02  0.8655283E+02  0.7546771E-02  0.1311468E+00
        2   -1    0    0  501    0  0.00000000000E+00  0.00000000000E+00  0.28058887758E+04  0.28058887758E+04  0.00000000000E+00 0. -1.
       -2   -1    0    0    0  501 -0.00000000000E+00 -0.00000000000E+00 -0.57246685739E+01  0.57246685739E+01  0.00000000000E+00 0.  1.
      -24    2    1    2    0    0  0.25749137283E+02 -0.98807884483E+01  0.37248888967E+03  0.38239580211E+03  0.81962970242E+02 0.  0.
       24    2    1    2    0    0 -0.25749137283E+02  0.98807884483E+01  0.24276752176E+04  0.24292176423E+04  0.82041108656E+02 0.  0.
      -13    1    4    4    0    0  0.16701531679E+02  0.30113382229E+02  0.64154287994E+03  0.64246636002E+03  0.00000000000E+00 0.  1.
       14    1    4    4    0    0 -0.42450668962E+02 -0.20232593781E+02  0.17861323377E+04  0.17867512823E+04  0.00000000000E+00 0. -1.
        3    1    3    3  502    0  0.97612295130E+01  0.31478530534E+02  0.24930851226E+03  0.25147746175E+03  0.00000000000E+00 0. -1.
       -4    1    3    3    0  502  0.15987907770E+02 -0.41359318982E+02  0.12318037741E+03  0.13091834035E+03  0.00000000000E+00 0.  1.
</event>
<event>
 8   1  0.2279600E-02  0.9388905E+02  0.7546771E-02  0.1295312E+00
        2   -1    0    0  501    0  0.00000000000E+00  0.00000000000E+00  0.42013499901E+03  0.42013499901E+03  0.00000000000E+00 0. -1.
       -2   -1    0    0    0  501 -0.00000000000E+00 -0.00000000000E+00 -0.66235269647E+02  0.66235269647E+02  0.00000000000E+00 0.  1.
      -24    2    1    2    0    0  0.42519485963E+02  0.18407915280E+01 -0.26233424477E+02  0.94813927840E+02  0.80561735041E+02 0.  0.
       24    2    1    2    0    0 -0.42519485963E+02 -0.18407915280E+01  0.38013315384E+03  0.39155634082E+03  0.83689056551E+02 0.  0.
      -13    1    4    4    0    0 -0.62425637957E+02 -0.11764097558E+02  0.19486633344E+03  0.20495912318E+03  0.00000000000E+00 0.  1.
       14    1    4    4    0    0  0.19906151994E+02  0.99233060295E+01  0.18526682039E+03  0.18659721763E+03  0.00000000000E+00 0. -1.
        3    1    3    3  502    0 -0.93955468998E+00 -0.20818258455E+02  0.18939656588E+02  0.28160135649E+02  0.00000000000E+00 0. -1.
       -4    1    3    3    0  502  0.43459040653E+02  0.22659049983E+02 -0.45173081065E+02  0.66653792191E+02  0.00000000000E+00 0.  1.
</event>
<event>
 8   1  0.2279600E-02  0.8260222E+02  0.7546771E-02  0.1321933E+00
       -2   -1    0    0    0  501 -0.00000000000E+00  0.00000000000E+00  0.95472757569E+01  0.95472757569E+01  0.00000000000E+00 0.  1.
        2   -1    0    0  501    0  0.00000000000E+00 -0.00000000000E+00 -0.78709500806E+03  0.78709500806E+03  0.00000000000E+00 0. -1.
      -24    2    1    2    0    0  0.88025027502E+01 -0.12994687277E+02 -0.26646260409E+03  0.27892504910E+03  0.80935268501E+02 0.  0.
       24    2    1    2    0    0 -0.88025027502E+01  0.12994687277E+02 -0.51108512822E+03  0.51771723472E+03  0.81097354370E+02 0.  0.
      -13    1    4    4    0    0 -0.45349819167E+01 -0.25771939127E+01  0.10557555460E+01  0.53218990240E+01  0.00000000000E+00 0.  1.
       14    1    4    4    0    0 -0.42675208335E+01  0.15571881190E+02 -0.51214088377E+03  0.51239533570E+03  0.00000000000E+00 0. -1.
        1    1    3    3  502    0  0.31968773497E+02 -0.36916875007E+02 -0.14642830108E+03  0.15435707141E+03  0.00000000000E+00 0. -1.
       -2    1    3    3    0  502 -0.23166270747E+02  0.23922187730E+02 -0.12003430301E+03  0.12456797769E+03  0.00000000000E+00 0.  1.
</event>
<event>
 8   1  0.2279600E-02  0.1775646E+03  0.7546771E-02  0.1170209E+00
        1   -1    0    0  501    0  0.00000000000E+00  0.00000000000E+00  0.74318424237E+03  0.74318424237E+03  0.00000000000E+00 0. -1.
       -1   -1    0    0    0  501 -0.00000000000E+00 -0.00000000000E+00 -0.44675722097E+03  0.44675722097E+03  0.00000000000E+00 0.  1.
       24    2    1    2    0    0  0.15770862004E+03  0.12473868015E+02 -0.41782692584E+03  0.45394696810E+03  0.80379746653E+02 0.  0.
      -24    2    1    2    0    0 -0.15770862004E+03 -0.12473868015E+02  0.71425394724E+03  0.73599449524E+03  0.80632435525E+02 0.  0.
      -13    1    3    3    0    0  0.16141060000E+03  0.24881005868E+02 -0.39866866537E+03  0.43082380504E+03  0.00000000000E+00 0.  1.
       14    1    3    3    0    0 -0.37019799643E+01 -0.12407137853E+02 -0.19158260468E+02  0.23123163051E+02  0.00000000000E+00 0. -1.
        1    1    4    4  502    0 -0.13027766200E+03  0.16770157800E+02  0.61648477296E+03  0.63032291938E+03  0.00000000000E+00 0. -1.
       -2    1    4    4    0  502 -0.27430958037E+02 -0.29244025815E+02  0.97769174287E+02  0.10567157586E+03  0.00000000000E+00 0.  1.
</event>
<event>
 8   1  0.2279600E-02  0.8298644E+02  0.7546771E-02  0.1321729E+00
        1   -1    0    0  501    0  0.00000000000E+00  0.00000000000E+00  0.58180562737E+03  0.58180562737E+03  0.00000000000E+00 0. -1.
       -1   -1    0    0    0  501 -0.00000000000E+00 -0.00000000000E+00 -0.15084560829E+02  0.15084560829E+02  0.00000000000E+00 0.  1.
       24    2    1    2    0    0 -0.85740801182E+01 -0.12932812737E+02  0.14258783713E+03  0.16497890840E+03  0.81522858288E+02 0.  0.
      -24    2    1    2    0    0  0.85740801182E+01  0.12932812737E+02  0.42413322941E+03  0.43191127980E+03  0.80109829827E+02 0.  0.
      -13    1    3    3    0    0 -0.25327252896E+02  0.22374780758E+02  0.27926561654E+02  0.43840545150E+02  0.00000000000E+00 0.  1.
       14    1    3    3    0    0  0.16753172778E+02 -0.35307593495E+02  0.11466127548E+03  0.12113836325E+03  0.00000000000E+00 0. -1.
        3    1    4    4  502    0  0.32729292489E+02 -0.36735601123E+01  0.35874102793E+03  0.36024967280E+03  0.00000000000E+00 0. -1.
       -4    1    4    4    0  502 -0.24155212370E+02  0.16606372850E+02  0.65392201473E+02  0.71661606997E+02  0.00000000000E+00 0.  1.
</event>
<event>
 8   1  0.2279600E-02  0.1123343E+03  0.7546771E-02  0.1261957E+00
        2   -1    0    0  501    0  0.00000000000E+00  0.00000000000E+00  0.88280432187E+02  0.88280432187E+02  0.00000000000E+00 0. -1.
       -2   -1    0    0    0  501 -0.00000000000E+00 -0.00000000000E+00 -0.18876587344E+03  0.18876587344E+03  0.00000000000E+00 0.  1.
      -24    2    1    2    0    0  0.37351174398E+02 -0.57897427877E+02 -0.13046087651E+03  0.17215993850E+03  0.88723062056E+02 0.  0.
       24    2    1    2    0    0 -0.37351174398E+02  0.57897427877E+02  0.29975435263E+02  0.10488636712E+03  0.73180604707E+02 0.  0.
      -13    1    4    4    0    0 -0.37627069750E+02  0.52497930783E+02  0.51553461783E+02  0.82641324628E+02  0.00000000000E+00 0.  1.
       14    1    4    4    0    0  0.27589535148E+00  0.53994970936E+01 -0.21578026520E+02  0.22245042495E+02  0.00000000000E+00 0. -1.
        3    1    3    3  502    0  0.61242355632E+02 -0.36715422470E+02 -0.54708946009E+02  0.89953972363E+02  0.00000000000E+00 0. -1.
       -4    1    3    3    0  502 -0.23891181233E+02 -0.21182005407E+02 -0.75751930502E+02  0.82205966137E+02  0.00000000000E+00 0.  1.
</event>
<event>
 8   1  0.2279600E-02  0.1427840E+03  0.7546771E-02  0.1209721E+00
        1   -1    0    0  501    0  0.00000000000E+00  0.00000000000E+00  0.68361173570E+03  0.68361173570E+03  0.00000000000E+00 0. -1.
       -1   -1    0    0    0  501 -0.00000000000E+00 -0.00000000000E+00 -0.36158416087E+02  0.36158416087E+02  0.00000000000E+00 0.  1.
       24    2    1    2    0    0  0.19244942026E+02  0.11617290733E+03  0.17265923023E+03  0.22405019170E+03  0.80751262705E+02 0.  0.
      -24    2    1    2    0    0 -0.19244942026E+02 -0.11617290733E+03  0.47479408939E+03  0.49571996009E+03  0.80264184536E+02 0.  0.
      -13    1    3    3    0    0 -0.30586854700E+02  0.40227749721E+02  0.47116686538E+02  0.69092761403E+02  0.00000000000E+00 0.  1.
       14    1    3    3    0    0  0.49831796725E+02  0.75945157608E+02  0.12554254369E+03  0.15495743030E+03  0.00000000000E+00 0. -1.
        3    1    4    4  502    0 -0.40591259089E+02 -0.10740834841E+03  0.33743184639E+03  0.35643295945E+03  0.00000000000E+00 0. -1.
       -4    1    4    4    0  502  0.21346317064E+02 -0.87645589163E+01  0.13736224300E+03  0.13928700064E+03  0.00000000000E+00 0.  1.
</event>
<event>
 8   1  0.2279600E-02  0.1266426E+03  0.7546771E-02  0.1233694E+00
       -2   -1    0    0    0  501 -0.00000000000E+00  0.00000000000E+00  0.13272563410E+03  0.13272563410E+03  0.00000000000E+00 0.  1.
        2   -1    0    0  501    0  0.00000000000E+00 -0.00000000000E+00 -0.48791021501E+03  0.48791021501E+03  0.00000000000E+00 0. -1.
       24    2    1    2    0    0 -0.11801039810E+02  0.92954914524E+02 -0.44727645242E+03  0.46404955354E+03  0.80659051400E+02 0.  0.
      -24    2    1    2    0    0  0.11801039810E+02 -0.92954914524E+02  0.92091871512E+02  0.15658629557E+03  0.85196681191E+02 0.  0.
      -13    1    3    3    0    0  0.27375500460E+02  0.14680878191E+02 -0.18400374871E+03  0.18660741075E+03  0.00000000000E+00 0.  1.
       14    1    3    3    0    0 -0.39176540270E+02  0.78274036333E+02 -0.26327270371E+03  0.27744214278E+03  0.00000000000E+00 0. -1.
        1    1    4    4  502    0  0.12591730278E+02  0.14205376586E+02  0.19082264193E+02  0.26916114171E+02  0.00000000000E+00 0. -1.
       -2    1    4    4    0  502 -0.79069046825E+00 -0.10716029111E+03  0.73009607319E+02  0.12967018140E+03  0.00000000000E+00 0.  1.
</event>
<event>
 8   1  0.2279600E-02  0.1109414E+03  0.7546771E-02  0.1258873E+00
       -3   -1    0    0    0  501 -0.00000000000E+00  0.00000000000E+00  0.29129955698E+02  0.29129955698E+02  0.00000000000E+00 0.  1.
        3   -1    0    0  501    0  0.00000000000E+00 -0.00000000000E+00 -0.57524853906E+03  0.57524853906E+03  0.00000000000E+00 0. -1.
       24    2    1    2    0    0 -0.50236078410E+02 -0.56295853977E+02 -0.11726937186E+03  0.16143140178E+03  0.81333296711E+02 0.  0.
      -24    2    1    2    0    0  0.50236078410E+02  0.56295853977E+02 -0.42884921150E+03  0.44294709298E+03  0.81225576184E+02 0.  0.
      -13    1    3    3    0    0 -0.24955862862E+02 -0.72730753494E+02 -0.10169795721E+03  0.12749522382E+03  0.00000000000E+00 0.  1.
       14    1    3    3    0    0 -0.25280215548E+02  0.16434899517E+02 -0.15571414648E+02  0.33936177959E+02  0.00000000000E+00 0. -1.
        1    1    4    4  502    0  0.28092223507E+02  0.61550508391E+02 -0.40242539982E+03  0.40807332739E+03  0.00000000000E+00 0. -1.
       -2    1    4    4    0  502  0.22143854903E+02 -0.52546544138E+01 -0.26423811684E+02  0.34873765597E+02  0.00000000000E+00 0.  1.
</event>
<event>
 8   1  0.2279600E-02  0.1133337E+03  0.7546771E-02  0.1258324E+00
        2   -1    0    0  501    0  0.00000000000E+00  0.00000000000E+00  0.85567716780E+03  0.85567716780E+03  0.00000000000E+00 0. -1.
       -2   -1    0    0    0  501 -0.00000000000E+00 -0.00000000000E+00 -0.14699390788E+02  0.14699390788E+02  0.00000000000E+00 0.  1.
      -24    2    1    2    0    0  0.30122389589E+02 -0.61280788413E+02  0.33680947446E+03  0.35536620875E+03  0.90453451294E+02 0.  0.
       24    2    1    2    0    0 -0.30122389589E+02  0.61280788413E+02  0.50416830255E+03  0.51501034984E+03  0.79920521525E+02 0.  0.
      -13    1    4    4    0    0  0.23649064348E+02  0.83851052365E-01  0.11562012048E+03  0.11801397178E+03  0.00000000000E+00 0.  1.
       14    1    4    4    0    0 -0.53771453938E+02  0.61196937361E+02  0.38854818208E+03  0.39699637806E+03  0.00000000000E+00 0. -1.
        3    1    3    3  502    0  0.33602725938E+01 -0.79469624118E+02  0.26325322503E+03  0.27500722368E+03  0.00000000000E+00 0. -1.
       -4    1    3    3    0  502  0.26762116996E+02  0.18188835705E+02  0.73556249429E+02  0.80358985064E+02  0.00000000000E+00 0.  1.
</event>
<event>
 8   1  0.2279600E-02  0.1339546E+03  0.7546771E-02  0.1228628E+00
       -2   -1    0    0    0  501 -0.00000000000E+00  0.00000000000E+00  0.54702402652E+02  0.54702402652E+02  0.00000000000E+00 0.  1.
        2   -1    0    0  501    0  0.00000000000E+00 -0.00000000000E+00 -0.29961413037E+04  0.29961413037E+04  0.00000000000E+00 0. -1.
       24    2    1    2    0    0 -0.73805251249E+02  0.55313694854E+02 -0.29112121607E+04  0.29135211590E+04  0.70302766750E+02 0.  0.
      -24    2    1    2    0    0  0.73805251249E+02 -0.55313694854E+02 -0.30226740303E+02  0.13732254737E+03  0.97144254780E+02 0.  0.
      -13    1    3    3    0    0 -0.43140813916E+02 -0.49233175180E+01 -0.75306701227E+03  0.75431776716E+03  0.00000000000E+00 0.  1.
       14    1    3    3    0    0 -0.30664437333E+02  0.60237012372E+02 -0.21581451485E+04  0.21592033918E+04  0.00000000000E+00 0. -1.
        1    1    4    4  502    0  0.32801246181E+02 -0.66411045631E+01 -0.58724307490E+02  0.67591199953E+02  0.00000000000E+00 0. -1.
       -2    1    4    4    0  502  0.41004005068E+02 -0.48672590291E+02  0.28497567187E+02  0.69731347419E+02  0.00000000000E+00 0.  1.
</event>
<event>
 8   1  0.2279600E-02  0.8598570E+02  0.7546771E-02  0.1317327E+00
        1   -1    0    0  501    0  0.00000000000E+00  0.00000000000E+00  0.14285837610E+03  0.14285837610E+03  0.00000000000E+00 0. -1.
       -1   -1    0    0    0  501 -0.00000000000E+00 -0.00000000000E+00 -0.54018469107E+02  0.54018469107E+02  0.00000000000E+00 0.  1.
       24    2    1    2    0    0 -0.21892924723E+02 -0.16157675952E+02  0.95878179591E+01  0.79939109236E+02  0.74551755762E+02 0.  0.
      -24    2    1    2    0    0  0.21892924723E+02  0.16157675952E+02  0.79252089033E+02  0.11693773597E+03  0.81566965325E+02 0.  0.
      -13    1    3    3    0    0 -0.23205094562E+02 -0.26086201378E+02 -0.25638866236E+02  0.43316483904E+02  0.00000000000E+00 0.  1.
       14    1    3    3    0    0  0.13121698382E+01  0.99285254268E+01  0.35226684195E+02  0.36622625332E+02  0.00000000000E+00 0. -1.
        1    1    4    4  502    0  0.19590294297E+02  0.47540023128E+02  0.63624378837E+02  0.81804003643E+02  0.00000000000E+00 0. -1.
       -2    1    4    4    0  502  0.23026304264E+01 -0.31382347177E+02  0.15627710196E+02  0.35133732326E+02  0.00000000000E+00 0.  1.
</event>
<event>
 8   1  0.2279600E-02  0.9954209E+02  0.7546771E-02  0.1281433E+00
       -3   -1    0    0    0  501 -0.00000000000E+00  0.00000000000E+00  0.15593841736E+04  0.15593841736E+04  0.00000000000E+00 0.  1.
        3   -1    0    0  501    0  0.00000000000E+00 -0.00000000000E+00 -0.68124471749E+01  0.68124471749E+01  0.00000000000E+00 0. -1.
       24    2    1    2    0    0 -0.30589318447E+02  0.49735255839E+02  0.98272822212E+03  0.98772428179E+03  0.80219674643E+02 0.  0.
      -24    2    1    2    0    0  0.30589318447E+02 -0.49735255839E+02  0.56984350428E+03  0.57847233896E+03  0.80618394309E+02 0.  0.
      -13    1    3    3    0    0  0.13674725560E+02  0.51994562467E+02  0.61173344872E+03  0.61409139786E+03  0.00000000000E+00 0.  1.
       14    1    3    3    0    0 -0.44264044008E+02 -0.22593066280E+01  0.37099477340E+03  0.37363288393E+03  0.00000000000E+00 0. -1.
        3    1    4    4  502    0  0.23397241181E+02 -0.71683059364E+02  0.39758296497E+03  0.40467036700E+03  0.00000000000E+00 0. -1.
       -4    1    4    4    0  502  0.71920772666E+01  0.21947803526E+02  0.17226053931E+03  0.17380197196E+03  0.00000000000E+00 0.  1.
</event>
<event>
 8   1  0.2279600E-02  0.8432001E+02  0.7546771E-02  0.1318048E+00
        1   -1    0    0  501    0  0.00000000000E+00  0.00000000000E+00  0.15143466704E+04  0.15143466704E+04  0.00000000000E+00 0. -1.
       -1   -1    0    0    0  501 -0.00000000000E+00 -0.00000000000E+00 -0.25992925615E+02  0.25992925615E+02  0.00000000000E+00 0.  1.
       24    2    1    2    0    0  0.20969946646E+02 -0.55737410605E+01  0.46884095476E+02  0.96477883459E+02  0.81480416889E+02 0.  0.
      -24    2    1    2    0    0 -0.20969946646E+02  0.55737410605E+01  0.14414696493E+04  0.14438617125E+04  0.80194076177E+02 0.  0.
      -13    1    3    3    0    0  0.28862036868E+02 -0.10868979393E+02 -0.14699885353E+02  0.34164872524E+02  0.00000000000E+00 0.  1.
       14    1    3    3    0    0 -0.78920902213E+01  0.52952383326E+01  0.61583980829E+02  0.62313010935E+02  0.00000000000E+00 0. -1.
        1    1    4    4  502    0 -0.51747638223E+02  0.10571455077E+01  0.84952532598E+03  0.85110059047E+03  0.00000000000E+00 0. -1.
       -2    1    4    4    0  502  0.30777691576E+02  0.45165955528E+01  0.59194432328E+03  0.59276112204E+03  0.00000000000E+00 0.  1.
</event>
<event>
 8   1  0.2279600E-02  0.9731419E+02  0.7546771E-02  0.1289300E+00
       -2   -1    0    0    0  501 -0.00000000000E+00  0.00000000000E+00  0.19515912778E+02  0.19515912778E+02  0.00000000000E+00 0.  1.
        2   -1    0    0  501    0  0.00000000000E+00 -0.00000000000E+00 -0.54355967756E+03  0.54355967756E+03  0.00000000000E+00 0. -1.
       24    2    1    2    0    0  0.31933114858E+02 -0.35358129482E+02 -0.38112899755E+03  0.39335653633E+03  0.84853584218E+02 0.  0.
      -24    2    1    2    0    0 -0.31933114858E+02  0.35358129482E+02 -0.14291476723E+03  0.16971905401E+03  0.78166523881E+02 0.  0.
      -13    1    3    3    0    0  0.63894765320E+01 -0.69861388422E+01  0.82141775743E+00  0.95029612968E+01  0.00000000000E+00 0.  1.
       14    1    3    3    0    0  0.25543638326E+02 -0.28371990640E+02 -0.38195041531E+03  0.38385357503E+03  0.00000000000E+00 0. -1.
        1    1    4    4  502    0 -0.42940964138E+02 -0.78430150307E+01 -0.93366278231E+02  0.10306648920E+03  0.00000000000E+00 0. -1.
       -2    1    4    4    0  502  0.11007849280E+02  0.43201144513E+02 -0.49548489004E+02  0.66652564808E+02  0.00000000000E+00 0.  1.
</event>
<event>
 8   1  0.2279600E-02  0.8240220E+02  0.7546771E-02  0.1326198E+00
        1   -1    0    0  501    0  0.00000000000E+00  0.00000000000E+00  0.12182033271E+03  0.12182033271E+03  0.00000000000E+00 0. -1.
       -1   -1    0    0    0  501 -0.00000000000E+00 -0.00000000000E+00 -0.31859971953E+03  0.31859971953E+03  0.00000000000E+00 0.  1.
       24    2    1    2    0    0 -0.13497446132E+02 -0.14293909689E+02 -0.29921142671E+03  0.30895733553E+03  0.74435612431E+02 0.  0.
      -24    2    1    2    0    0  0.13497446132E+02  0.14293909689E+02  0.10243203989E+03  0.13146271670E+03  0.80022660423E+02 0.  0.
      -13    1    3    3    0    0  0.13795483433E+01  0.27350128728E+01 -0.27779841110E+03  0.27781529954E+03  0.00000000000E+00 0.  1.
       14    1    3    3    0    0 -0.14876994475E+02 -0.17028922562E+02 -0.21413015617E+02  0.31142035997E+02  0.00000000000E+00 0. -1.
        3    1    4    4  502    0  0.14017234150E+02  0.96070082347E+01  0.11592786752E+03  0.11716675265E+03  0.00000000000E+00 0. -1.
       -4    1    4    4    0  502 -0.51978801756E+00  0.46869014541E+01 -0.13495827627E+02  0.14295964052E+02  0.00000000000E+00 0.  1.
</event>
<event>
 8   1  0.2279600E-02  0.8800958E+02  0.7546771E-02  0.1308340E+00
       -3   -1    0    0    0  501 -0.00000000000E+00  0.00000000000E+00  0.55259608725E+02  0.55259608725E+02  0.00000000000E+00 0.  1.
        3   -1    0    0  501    0  0.00000000000E+00 -0.00000000000E+00 -0.15047304427E+03  0.15047304427E+03  0.00000000000E+00 0. -1.
       24    2    1    2    0    0  0.30215039509E+02  0.10936471764E+02 -0.19024882096E+02  0.90042395946E+02  0.81933704309E+02 0.  0.
      -24    2    1    2    0    0 -0.30215039509E+02 -0.10936471764E+02 -0.76188553449E+02  0.11569025705E+03  0.80913440614E+02 0.  0.
      -13    1    3    3    0    0 -0.91133914365E+00  0.39509007076E+02  0.74015994540E+01  0.40206664294E+02  0.00000000000E+00 0.  1.
       14    1    3    3    0    0  0.31126378653E+02 -0.28572535312E+02 -0.26426481550E+02  0.49835731652E+02  0.00000000000E+00 0. -1.
        3    1    4    4  502    0 -0.32990387078E+02 -0.37054607162E+02 -0.74320770942E+02  0.89358751921E+02  0.00000000000E+00 0. -1.
       -4    1    4    4    0  502  0.27753475694E+01  0.26118135397E+02 -0.18677825070E+01  0.26331505127E+02  0.00000000000E+00 0.  1.
</event>
<event>
 8   1  0.2279600E-02  0.1265516E+03  0.7546771E-02  0.1232868E+00
       -1   -1    0    0    0  501 -0.00000000000E+00  0.00000000000E+00  0.39014466150E+02  0.39014466150E+02  0.00000000000E+00 0.  1.
        1   -1    0    0  501    0  0.00000000000E+00 -0.00000000000E+00 -0.41977169432E+03  0.41977169432E+03  0.00000000000E+00 0. -1.
       24    2    1    2    0    0  0.91728890090E+02 -0.31444799227E+02 -0.22710426344E+03  0.25972699452E+03  0.80490996605E+02 0.  0.
      -24    2    1    2    0    0 -0.91728890090E+02  0.31444799227E+02 -0.15365296474E+03  0.19905916595E+03  0.81316377825E+02 0.  0.
      -13    1    3    3    0    0  0.97011231378E+02 -0.45269870959E+02 -0.17135931207E+03  0.20205086999E+03  0.00000000000E+00 0.  1.
       14    1    3    3    0    0 -0.52823412874E+01  0.13825071732E+02 -0.55744951366E+02  0.57676124528E+02  0.00000000000E+00 0. -1.
        3    1    4    4  502    0 -0.46995400229E+02 -0.25962981566E+02 -0.61689754128E+02  0.81781842843E+02  0.00000000000E+00 0. -1.
       -4    1    4    4    0  502 -0.44733489861E+02  0.57407780793E+02 -0.91963210608E+02  0.11727732311E+03  0.00000000000E+00 0.  1.
</event>
<event>
 8   1  0.2279600E-02  0.9275906E+02  0.7546771E-02  0.1296865E+00
        2   -1    0    0  501    0  0.00000000000E+00  0.00000000000E+00  0.25339052799E+03  0.25339052799E+03  0.00000000000E+00 0. -1.
       -2   -1    0    0    0  501 -0.00000000000E+00 -0.00000000000E+00 -0.33614098078E+02  0.33614098078E+02  0.00000000000E+00 0.  1.
      -24    2    1    2    0    0  0.45467359248E+02  0.17379653750E+02  0.11145615253E+03  0.14439492855E+03  0.77833722321E+02 0.  0.
       24    2    1    2    0    0 -0.45467359248E+02 -0.17379653750E+02  0.10832027738E+03  0.14260969752E+03  0.78961447652E+02 0.  0.
      -13    1    4    4    0    0 -0.45798463196E+01  0.47799724162E+01 -0.11949922061E+02  0.13661030922E+02  0.00000000000E+00 0.  1.
       14    1    4    4    0    0 -0.40887512928E+02 -0.22159626166E+02  0.12027019944E+03  0.12894866660E+03  0.00000000000E+00 0. -1.
        1    1    3    3  502    0 -0.87538256169E+01 -0.13077783455E+02  0.64707588932E+02  0.66593768090E+02  0.00000000000E+00 0. -1.
       -2    1    3    3    0  502  0.54221184865E+02  0.30457437205E+02  0.46748563602E+02  0.77801160455E+02  0.00000000000E+00 0.  1.
</event>
<event>
 8   1  0.2279600E-02  0.1115978E+03  0.7546771E-02  0.1264246E+00
       -2   -1    0    0    0  501 -0.00000000000E+00  0.00000000000E+00  0.34307626805E+03  0.34307626805E+03  0.00000000000E+00 0.  1.
        2   -1    0    0  501    0  0.00000000000E+00 -0.00000000000E+00 -0.75016527297E+02  0.75016527297E+02  0.00000000000E+00 0. -1.
      -24    2    1    2    0    0  0.30458037574E+02 -0.48024381188E+02  0.28844593619E+03  0.30464828410E+03  0.79846638361E+02 0.  0.
       24    2    1    2    0    0 -0.30458037574E+02  0.48024381188E+02 -0.20386195434E+02  0.11344451125E+03  0.96020971292E+02 0.  0.
      -13    1    4    4    0    0  0.10537314721E+02  0.34838245954E+02  0.29996915778E+02  0.47165170824E+02  0.00000000000E+00 0.  1.
       14    1    4    4    0    0 -0.40995352295E+02  0.13186135235E+02 -0.50383111213E+02  0.66279340429E+02  0.00000000000E+00 0. -1.
        1    1    3    3  502    0 -0.22548874203E+02 -0.22232899086E+02  0.51306361523E+02  0.60291759490E+02  0.00000000000E+00 0. -1.
       -2    1    3    3    0  502  0.53006911777E+02 -0.25791482102E+02  0.23713957467E+03  0.24435652461E+03  0.00000000000E+00 0.  1.
</event>
<event>
 8   1  0.2279600E-02  0.1146627E+03  0.7546771E-02  0.1252857E+00
       -1   -1    0    0    0  501 -0.00000000000E+00  0.00000000000E+00  0.63536392356E+02  0.63536392356E+02  0.00000000000E+00 0.  1.
        1   -1    0    0  501    0  0.00000000000E+00 -0.00000000000E+00 -0.20503160161E+03  0.20503160161E+03  0.00000000000E+00 0. -1.
       24    2    1    2    0    0  0.75605650402E+02  0.25486143206E+02 -0.80117746339E+02  0.13987991333E+03  0.82351557396E+02 0.  0.
      -24    2    1    2    0    0 -0.75605650402E+02 -0.25486143206E+02 -0.61377462915E+02  0.12868808064E+03  0.80172758945E+02 0.  0.
      -13    1    3    3    0    0  0.75806161940E+02  0.42183973318E+02 -0.38261789189E+02  0.94815749245E+02  0.00000000000E+00 0.  1.
       14    1    3    3    0    0 -0.20051153859E+00 -0.16697830112E+02 -0.41855957150E+02  0.45064164080E+02  0.00000000000E+00 0. -1.
        1    1    4    4  502    0 -0.73753390646E+02  0.73111162569E+01 -0.60752573316E+02  0.95832615624E+02  0.00000000000E+00 0. -1.
       -2    1    4    4    0  502 -0.18522597556E+01 -0.32797259463E+02 -0.62488959902E+00  0.32855465017E+02  0.00000000000E+00 0.  1.
</event>
<event>
 8   1  0.2279600E-02  0.1049105E+03  0.7546771E-02  0.1271564E+00
       -2   -1    0    0    0  501 -0.00000000000E+00  0.00000000000E+00  0.13812567226E+02  0.13812567226E+02  0.00000000000E+00 0.  1.
        2   -1    0    0  501    0  0.00000000000E+00 -0.00000000000E+00 -0.81387890593E+03  0.81387890593E+03  0.00000000000E+00 0. -1.
      -24    2    1    2    0    0  0.49260046155E+02 -0.45109442144E+02 -0.49200391491E+03  0.50306467219E+03  0.80899927093E+02 0.  0.
       24    2    1    2    0    0 -0.49260046155E+02  0.45109442144E+02 -0.30806242379E+03  0.32462680096E+03  0.77580210315E+02 0.  0.
      -13    1    4    4    0    0  0.14815654204E+02  0.20775165479E+02 -0.15269696090E+03  0.15481431774E+03  0.00000000000E+00 0.  1.
       14    1    4    4    0    0 -0.64075700359E+02  0.24334276665E+02 -0.15536546289E+03  0.16981248322E+03  0.00000000000E+00 0. -1.
        1    1    3    3  502    0  0.13826976133E+02 -0.18131763738E+02 -0.40199372537E+03  0.40263991527E+03  0.00000000000E+00 0. -1.
       -2    1    3    3    0  502  0.35433070023E+02 -0.26977678406E+02 -0.90010189532E+02  0.10042475692E+03  0.00000000000E+00 0.  1.
</event>
<event>
 8   1  0.2279600E-02  0.8098711E+02  0.7546771E-02  0.1327434E+00
        2   -1    0    0  501    0  0.00000000000E+00  0.00000000000E+00  0.19862017485E+04  0.19862017485E+04  0.00000000000E+00 0. -1.
       -2   -1    0    0    0  501 -0.00000000000E+00 -0.00000000000E+00 -0.33132651229E+01  0.33132651229E+01  0.00000000000E+00 0.  1.
      -24    2    1    2    0    0  0.55833534531E+01  0.84181824877E+01  0.82910892018E+03  0.83289658383E+03  0.78696112999E+02 0.  0.
       24    2    1    2    0    0 -0.55833534531E+01 -0.84181824877E+01  0.11537795632E+04  0.11566184297E+04  0.80354664165E+02 0.  0.
      -13    1    4    4    0    0 -0.16209842158E+02  0.33781115270E+02  0.53035618137E+03  0.53167809983E+03  0.00000000000E+00 0.  1.
       14    1    4    4    0    0  0.10626488705E+02 -0.42199297757E+02  0.62342338179E+03  0.62494032991E+03  0.00000000000E+00 0. -1.
        1    1    3    3  502    0 -0.89748637968E+01  0.36933580066E+02  0.24694159121E+03  0.24984952869E+03  0.00000000000E+00 0. -1.
       -2    1    3    3    0  502  0.14558217250E+02 -0.28515397579E+02  0.58216732897E+03  0.58304705514E+03  0.00000000000E+00 0.  1.
</event>
<event>
 8   1  0.2279600E-02  0.1267413E+03  0.7546771E-02  0.1233840E+00
       -2   -1    0    0    0  501 -0.00000000000E+00  0.00000000000E+00  0.33834591575E+02  0.33834591575E+02  0.00000000000E+00 0. -1.
        2   -1    0    0  501    0  0.00000000000E+00 -0.00000000000E+00 -0.46179531787E+03  0.46179531787E+03  0.00000000000E+00 0.  1.
      -24    2    1    2    0    0 -0.19447834156E+02  0.90821965902E+02 -0.19911097986E+03  0.23402798708E+03  0.80604396246E+02 0.  0.
       24    2    1    2    0    0  0.19447834156E+02 -0.90821965902E+02 -0.22884974644E+03  0.26160192236E+03  0.86235210883E+02 0.  0.
      -13    1    4    4    0    0 -0.26240065762E+02 -0.58520474381E+02 -0.79685920019E+02  0.10228896726E+03  0.00000000000E+00 0.  1.
       14    1    4    4    0    0  0.45687899917E+02 -0.32301491521E+02 -0.14916382642E+03  0.15931295511E+03  0.00000000000E+00 0. -1.
        3    1    3    3  502    0  0.29172849313E+02  0.31552663900E+02 -0.99100888278E+02  0.10801671997E+03  0.00000000000E+00 0. -1.
       -4    1    3    3    0  502 -0.48620683469E+02  0.59269302001E+02 -0.10001009158E+03  0.12601126711E+03  0.00000000000E+00 0.  1.
</event>
<event>
 8   1  0.2279600E-02  0.8628247E+02  0.7546771E-02  0.1315788E+00
       -2   -1    0    0    0  501 -0.00000000000E+00  0.00000000000E+00  0.76510675649E+01  0.76510675649E+01  0.00000000000E+00 0.  1.
        2   -1    0    0  501    0  0.00000000000E+00 -0.00000000000E+00 -0.47562319184E+04  0.47562319184E+04  0.00000000000E+00 0. -1.
      -24    2    1    2    0    0  0.37020502368E+01  0.19496986649E+02 -0.21789129770E+03  0.23237192545E+03  0.78270406019E+02 0.  0.
       24    2    1    2    0    0 -0.37020502368E+01 -0.19496986649E+02 -0.45306895532E+04  0.45315110606E+04  0.83969202913E+02 0.  0.
      -13    1    4    4    0    0  0.71733905657E+01 -0.19554866284E+02 -0.26818988985E+03  0.26899752294E+03  0.00000000000E+00 0.  1.
       14    1    4    4    0    0 -0.10875440802E+02  0.57879635367E-01 -0.42624996633E+04  0.42625135376E+04  0.00000000000E+00 0. -1.
        1    1    3    3  502    0 -0.20522358739E+02  0.12512546181E+02 -0.20004421256E+03  0.20148304643E+03  0.00000000000E+00 0. -1.
       -2    1    3    3    0  502  0.24224408976E+02  0.69844404676E+01 -0.17847085138E+02  0.30888879015E+02  0.00000000000E+00 0.  1.
</event>
<event>
 8   1  0.2279600E-02  0.9606898E+02  0.7546771E-02  0.1291504E+00
       -1   -1    0    0    0  501 -0.00000000000E+00  0.00000000000E+00  0.17306373316E+02  0.17306373316E+02  0.00000000000E+00 0.  1.
        1   -1    0    0  501    0  0.00000000000E+00 -0.00000000000E+00 -0.55433288183E+03  0.55433288183E+03  0.00000000000E+00 0. -1.
       24    2    1    2    0    0  0.46348828787E+02  0.24247975085E+02 -0.19140413594E+03  0.21416066689E+03  0.80579586505E+02 0.  0.
      -24    2    1    2    0    0 -0.46348828787E+02 -0.24247975085E+02 -0.34562237257E+03  0.35747858825E+03  0.74832736242E+02 0.  0.
      -13    1    3    3    0    0  0.44745939902E+02  0.39604487637E+02 -0.71126808795E+02  0.92896380490E+02  0.00000000000E+00 0.  1.
       14    1    3    3    0    0  0.16028888853E+01 -0.15356512552E+02 -0.12027732715E+03  0.12126428640E+03  0.00000000000E+00 0. -1.
        3    1    4    4  502    0 -0.45446817948E+02 -0.39785940437E+02 -0.32979527133E+03  0.33528086034E+03  0.00000000000E+00 0. -1.
       -4    1    4    4    0  502 -0.90201083954E+00  0.15537965352E+02 -0.15827101233E+02  0.22197727908E+02  0.00000000000E+00 0.  1.
</event>
<event>
 8   1  0.2279600E-02  0.9965413E+02  0.7546771E-02  0.1281805E+00
       -2   -1    0    0    0  501 -0.00000000000E+00  0.00000000000E+00  0.96005852073E+01  0.96005852073E+01  0.00000000000E+00 0.  1.
        2   -1    0    0  501    0  0.00000000000E+00 -0.00000000000E+00 -0.11302165853E+04  0.11302165853E+04  0.00000000000E+00 0. -1.
      -24    2    1    2    0    0 -0.51952461520E+02  0.18711966289E+02 -0.37799477276E+03  0.39053936338E+03  0.81189593990E+02 0.  0.
       24    2    1    2    0    0  0.51952461520E+02 -0.18711966289E+02 -0.74262122735E+03  0.74927780715E+03  0.82956307980E+02 0.  0.
      -13    1    4    4    0    0 -0.30066093419E+01  0.22808541650E+02 -0.84972442221E+02  0.88031728422E+02  0.00000000000E+00 0.  1.
       14    1    4    4    0    0  0.54959070862E+02 -0.41520507939E+02 -0.65764878513E+03  0.66124607873E+03  0.00000000000E+00 0. -1.
        1    1    3    3  502    0  0.88933296937E+01  0.49758795109E+01 -0.22618040824E+03  0.22640986675E+03  0.00000000000E+00 0. -1.
       -2    1    3    3    0  502 -0.60845791213E+02  0.13736086779E+02 -0.15181436452E+03  0.16412949663E+03  0.00000000000E+00 0.  1.
</event>
<event>
 8   1  0.2279600E-02  0.1172693E+03  0.7546771E-02  0.1248023E+00
        3   -1    0    0  501    0  0.00000000000E+00  0.00000000000E+00  0.14691763593E+03  0.14691763593E+03  0.00000000000E+00 0. -1.
       -3   -1    0    0    0  501 -0.00000000000E+00 -0.00000000000E+00 -0.12473175783E+03  0.12473175783E+03  0.00000000000E+00 0.  1.
       24    2    1    2    0    0  0.65682504750E+02 -0.52834806924E+02 -0.57500179228E+02  0.12986801115E+03  0.80335057445E+02 0.  0.
      -24    2    1    2    0    0 -0.65682504750E+02  0.52834806924E+02  0.79686057329E+02  0.14178138261E+03  0.81525360899E+02 0.  0.
      -13    1    3    3    0    0  0.65029250180E+02 -0.65118473581E+02 -0.67406590176E+02  0.11407395575E+03  0.00000000000E+00 0.  1.
       14    1    3    3    0    0  0.65325457012E+00  0.12283666657E+02  0.99064109478E+01  0.15794055399E+02  0.00000000000E+00 0. -1.
        3    1    4    4  502    0 -0.29409669468E+02  0.38035848769E+02  0.89320314864E+02  0.10143851880E+03  0.00000000000E+00 0. -1.
       -4    1    4    4    0  502 -0.36272835282E+02  0.14798958156E+02 -0.96342575355E+01  0.40342863807E+02  0.00000000000E+00 0.  1.
</event>
<event>
 8   1  0.2279600E-02  0.1435406E+03  0.7546771E-02  0.1209076E+00
        1   -1    0    0  501    0  0.00000000000E+00  0.00000000000E+00  0.67453433245E+03  0.67453433245E+03  0.00000000000E+00 0. -1.
       -1   -1    0    0    0  501 -0.00000000000E+00 -0.00000000000E+00 -0.37007350410E+02  0.37007350410E+02  0.00000000000E+00 0.  1.
       24    2    1    2    0    0 -0.51653470160E+02 -0.10307160816E+03  0.16810699212E+03  0.22105170636E+03  0.85510576534E+02 0.  0.
      -24    2    1    2    0    0  0.51653470160E+02  0.10307160816E+03  0.46941998992E+03  0.49048997650E+03  0.83267356859E+02 0.  0.
      -13    1    3    3    0    0 -0.52834185880E+01 -0.41779488094E+02  0.71883266993E+01  0.42721331651E+02  0.00000000000E+00 0.  1.
       14    1    3    3    0    0 -0.46370051572E+02 -0.61292120065E+02  0.16091866542E+03  0.17833037471E+03  0.00000000000E+00 0. -1.
        1    1    4    4  502    0  0.63887317517E+02  0.35528103931E+02  0.26199086758E+03  0.27199825405E+03  0.00000000000E+00 0. -1.
       -2    1    4    4    0  502 -0.12233847358E+02  0.67543504227E+02  0.20742912234E+03  0.21849172245E+03  0.00000000000E+00 0.  1.
</event>
<event>
 8   1  0.2279600E-02  0.8398522E+02  0.7546771E-02  0.1322573E+00
       -4   -1    0    0    0  501 -0.00000000000E+00  0.00000000000E+00  0.59967009608E+02  0.59967009608E+02  0.00000000000E+00 0.  1.
        4   -1    0    0  501    0  0.00000000000E+00 -0.00000000000E+00 -0.10907330744E+03  0.10907330744E+03  0.00000000000E+00 0. -1.
      -24    2    1    2    0    0  0.50816130439E+01  0.25233762484E+02 -0.19211190412E+02  0.79893057985E+02  0.73152343208E+02 0.  0.
       24    2    1    2    0    0 -0.50816130439E+01 -0.25233762484E+02 -0.29895107419E+02  0.89147259062E+02  0.79943422434E+02 0.  0.
      -13    1    4    4    0    0 -0.20537674097E+02 -0.23536137038E+02 -0.52868195256E+02  0.61406773842E+02  0.00000000000E+00 0.  1.
       14    1    4    4    0    0  0.15456061054E+02 -0.16976254456E+01  0.22973087838E+02  0.27740485220E+02  0.00000000000E+00 0. -1.
        1    1    3    3  502    0 -0.20883658043E+02  0.40930276404E+02 -0.18526378614E+02  0.49544337763E+02  0.00000000000E+00 0. -1.
       -2    1    3    3    0  502  0.25965271087E+02 -0.15696513921E+02 -0.68481179878E+00  0.30348720222E+02  0.00000000000E+00 0.  1.
</event>
<event>
 8   1  0.2279600E-02  0.9402748E+02  0.7546771E-02  0.1295420E+00
       -1   -1    0    0    0  501 -0.00000000000E+00  0.00000000000E+00  0.46244360159E+03  0.46244360159E+03  0.00000000000E+00 0.  1.
        1   -1    0    0  501    0  0.00000000000E+00 -0.00000000000E+00 -0.26358051399E+02  0.26358051399E+02  0.00000000000E+00 0. -1.
       24    2    1    2    0    0  0.13322647458E+02  0.43380106313E+02  0.34931502815E+03  0.36085521469E+03  0.78333712514E+02 0.  0.
      -24    2    1    2    0    0 -0.13322647458E+02 -0.43380106313E+02  0.86770522040E+02  0.12794643830E+03  0.82351933918E+02 0.  0.
      -13    1    3    3    0    0 -0.18364258843E+02  0.53959854306E+02  0.22920156434E+03  0.23618270253E+03  0.00000000000E+00 0.  1.
       14    1    3    3    0    0  0.31686906301E+02 -0.10579747992E+02  0.12011346381E+03  0.12467251216E+03  0.00000000000E+00 0. -1.
        1    1    4    4  502    0  0.15717372047E+02 -0.56539901553E+02  0.38812883517E+02  0.70357914825E+02  0.00000000000E+00 0. -1.
       -2    1    4    4    0  502 -0.29040019505E+02  0.13159795239E+02  0.47957638524E+02  0.57588523477E+02  0.00000000000E+00 0.  1.
</event>
<event>
 8   1  0.2279600E-02  0.8608932E+02  0.7546771E-02  0.1312875E+00
        2   -1    0    0  501    0  0.00000000000E+00  0.00000000000E+00  0.44346103177E+03  0.44346103177E+03  0.00000000000E+00 0. -1.
       -2   -1    0    0    0  501 -0.00000000000E+00 -0.00000000000E+00 -0.78150788421E+02  0.78150788421E+02  0.00000000000E+00 0.  1.
      -24    2    1    2    0    0  0.75343946583E+01 -0.29571641938E+02 -0.48645851805E+02  0.98882710853E+02  0.80499208058E+02 0.  0.
       24    2    1    2    0    0 -0.75343946583E+01  0.29571641938E+02  0.41395609516E+03  0.42272910934E+03  0.80056243088E+02 0.  0.
      -13    1    4    4    0    0 -0.29491952845E+01  0.23702495880E+02  0.28433101707E+02  0.37134180164E+02  0.00000000000E+00 0.  1.
       14    1    4    4    0    0 -0.45851993738E+01  0.58691460577E+01  0.38552299345E+03  0.38559492918E+03  0.00000000000E+00 0. -1.
        3    1    3    3  502    0 -0.17730826322E+02  0.12235256849E+02  0.89795161278E+01  0.23339139275E+02  0.00000000000E+00 0. -1.
       -4    1    3    3    0  502  0.25265220980E+02 -0.41806898786E+02 -0.57625367932E+02  0.75543571577E+02  0.00000000000E+00 0.  1.
</event>
<event>
 8   1  0.2279600E-02  0.9342177E+02  0.7546771E-02  0.1295650E+00
        1   -1    0    0  501    0  0.00000000000E+00  0.00000000000E+00  0.15875170956E+03  0.15875170956E+03  0.00000000000E+00 0. -1.
       -1   -1    0    0    0  501 -0.00000000000E+00 -0.00000000000E+00 -0.10352855801E+03  0.10352855801E+03  0.00000000000E+00 0.  1.
       24    2    1    2    0    0 -0.45623312575E+02  0.11748241822E+02 -0.62892790057E+02  0.11261940079E+03  0.80672910926E+02 0.  0.
      -24    2    1    2    0    0  0.45623312575E+02 -0.11748241822E+02  0.11811594161E+03  0.14966086678E+03  0.78914457157E+02 0.  0.
      -13    1    3    3    0    0 -0.58686601163E+02 -0.95843915751E+01 -0.64279785868E+02  0.87566366769E+02  0.00000000000E+00 0.  1.
       14    1    3    3    0    0  0.13063288588E+02  0.21332633397E+02  0.13869958104E+01  0.25053034023E+02  0.00000000000E+00 0. -1.
        1    1    4    4  502    0  0.40374710989E+02  0.60913584052E+01  0.12368390669E+03  0.13024949408E+03  0.00000000000E+00 0. -1.
       -2    1    4    4    0  502  0.52486015861E+01 -0.17839600227E+02 -0.55679650851E+01  0.19411372699E+02  0.00000000000E+00 0.  1.
</event>
<event>
 8   1  0.2279600E-02  0.8888338E+02  0.7546771E-02  0.1306777E+00
        2   -1    0    0  501    0  0.00000000000E+00  0.00000000000E+00  0.20153749335E+03  0.20153749335E+03  0.00000000000E+00 0. -1.
       -2   -1    0    0    0  501 -0.00000000000E+00 -0.00000000000E+00 -0.42667654825E+02  0.42667654825E+02  0.00000000000E+00 0.  1.
       24    2    1    2    0    0  0.35855081506E+02 -0.12455952623E+02  0.11902822234E+03  0.14855292809E+03  0.80371121101E+02 0.  0.
      -24    2    1    2    0    0 -0.35855081506E+02  0.12455952623E+02  0.39841616191E+02  0.95652220083E+02  0.78238450909E+02 0.  0.
      -13    1    3    3    0    0  0.52097965025E+02  0.17304368771E+02  0.76663310505E+02  0.94291581363E+02  0.00000000000E+00 0.  1.
       14    1    3    3    0    0 -0.16242883519E+02 -0.29760321395E+02  0.42364911832E+02  0.54261346731E+02  0.00000000000E+00 0. -1.
        3    1    4    4  502    0 -0.46533856423E+01 -0.21178274627E+02 -0.13307105314E+02  0.25441154965E+02  0.00000000000E+00 0. -1.
       -4    1    4    4    0  502 -0.31201695864E+02  0.33634227251E+02  0.53148721505E+02  0.70211065119E+02  0.00000000000E+00 0.  1.
</event>
<event>
 8   1  0.2279600E-02  0.9091379E+02  0.7546771E-02  0.1301388E+00
        2   -1    0    0  501    0  0.00000000000E+00  0.00000000000E+00  0.36693875430E+03  0.36693875430E+03  0.00000000000E+00 0. -1.
       -2   -1    0    0    0  501 -0.00000000000E+00 -0.00000000000E+00 -0.68362509952E+02  0.68362509952E+02  0.00000000000E+00 0.  1.
      -24    2    1    2    0    0 -0.39773564874E+02 -0.56765993189E+01 -0.29189329996E+02  0.95484728729E+02  0.81554620913E+02 0.  0.
       24    2    1    2    0    0  0.39773564874E+02  0.56765993189E+01  0.32776557435E+03  0.33981653553E+03  0.80192554813E+02 0.  0.
      -13    1    4    4    0    0 -0.23631420298E+02 -0.68783805376E+01  0.10625823623E+03  0.10907139364E+03  0.00000000000E+00 0.  1.
       14    1    4    4    0    0  0.63404985172E+02  0.12554979856E+02  0.22150733811E+03  0.23074514188E+03  0.00000000000E+00 0. -1.
        1    1    3    3  502    0  0.55325633558E+01 -0.23865091181E+02  0.15754457358E+02  0.29126530192E+02  0.00000000000E+00 0. -1.
       -2    1    3    3    0  502 -0.45306128230E+02  0.18188491862E+02 -0.44943787354E+02  0.66358198537E+02  0.00000000000E+00 0.  1.
</event>
<event>
 8   1  0.2279600E-02  0.8319677E+02  0.7546771E-02  0.1320386E+00
       -2   -1    0    0    0  501 -0.00000000000E+00  0.00000000000E+00  0.42468439384E+01  0.42468439384E+01  0.00000000000E+00 0.  1.
        2   -1    0    0  501    0  0.00000000000E+00 -0.00000000000E+00 -0.17228930982E+04  0.17228930982E+04  0.00000000000E+00 0. -1.
      -24    2    1    2    0    0 -0.15207636053E+02  0.10343939018E+02 -0.10664661201E+04  0.10697063559E+04  0.81138358994E+02 0.  0.
       24    2    1    2    0    0  0.15207636053E+02 -0.10343939018E+02 -0.65218013416E+03  0.65743358622E+03  0.80880922520E+02 0.  0.
      -13    1    4    4    0    0 -0.23268201168E+02 -0.31396457633E+02 -0.30269941254E+03  0.30521153498E+03  0.00000000000E+00 0.  1.
       14    1    4    4    0    0  0.38475837221E+02  0.21052518614E+02 -0.34948072163E+03  0.35222205124E+03  0.00000000000E+00 0. -1.
        1    1    3    3  502    0 -0.15186785491E+02  0.21150883009E+01 -0.10572103497E+04  0.10573215384E+04  0.00000000000E+00 0. -1.
       -2    1    3    3    0  502 -0.20850561730E-01  0.82288507172E+01 -0.92557703412E+01  0.12384817459E+02  0.00000000000E+00 0.  1.
</event>
<event>
 8   1  0.2279600E-02  0.8169272E+02  0.7546771E-02  0.1324798E+00
        2   -1    0    0  501    0  0.00000000000E+00  0.00000000000E+00  0.36136078247E+02  0.36136078247E+02  0.00000000000E+00 0. -1.
       -2   -1    0    0    0  501 -0.00000000000E+00 -0.00000000000E+00 -0.19918492128E+03  0.19918492128E+03  0.00000000000E+00 0.  1.
      -24    2    1    2    0    0  0.12590291566E+02 -0.21723501731E+01 -0.11527101611E+03  0.14128378407E+03  0.80687458369E+02 0.  0.
       24    2    1    2    0    0 -0.12590291566E+02  0.21723501731E+01 -0.47777826928E+02  0.94037215465E+02  0.79981514111E+02 0.  0.
      -13    1    4    4    0    0 -0.23387255093E+02  0.31006878013E+02 -0.20272559759E+01  0.38890872344E+02  0.00000000000E+00 0.  1.
       14    1    4    4    0    0  0.10796963528E+02 -0.28834527840E+02 -0.45750570952E+02  0.55146343121E+02  0.00000000000E+00 0. -1.
        1    1    3    3  502    0  0.40235920489E+02  0.33891486952E+01 -0.26889348909E+02  0.48512397500E+02  0.00000000000E+00 0. -1.
       -2    1    3    3    0  502 -0.27645628923E+02 -0.55614988684E+01 -0.88381667200E+02  0.92771386565E+02  0.00000000000E+00 0.  1.
</event>
<event>
 8   1  0.2279600E-02  0.8457757E+02  0.7546771E-02  0.1317864E+00
        1   -1    0    0  501    0  0.00000000000E+00  0.00000000000E+00  0.63483888634E+02  0.63483888634E+02  0.00000000000E+00 0. -1.
       -1   -1    0    0    0  501 -0.00000000000E+00 -0.00000000000E+00 -0.11454046803E+03  0.11454046803E+03  0.00000000000E+00 0.  1.
       24    2    1    2    0    0  0.11768096814E+02 -0.22440561169E+02 -0.42856817180E+02  0.93050231366E+02  0.78610253085E+02 0.  0.
      -24    2    1    2    0    0 -0.11768096814E+02  0.22440561169E+02 -0.81997622167E+01  0.84974125300E+02  0.80692620368E+02 0.  0.
      -13    1    3    3    0    0  0.35118325772E+02 -0.39603974451E+02 -0.21881766873E+02  0.57276376621E+02  0.00000000000E+00 0.  1.
       14    1    3    3    0    0 -0.23350228958E+02  0.17163413282E+02 -0.20975050307E+02  0.35773854744E+02  0.00000000000E+00 0. -1.
        3    1    4    4  502    0 -0.65995854376E+01  0.18182352040E+02  0.35680214850E+02  0.40586083642E+02  0.00000000000E+00 0. -1.
       -4    1    4    4    0  502 -0.51685113761E+01  0.42582091294E+01 -0.43879977067E+02  0.44388041658E+02  0.00000000000E+00 0.  1.
</event>
<event>
 8   1  0.2279600E-02  0.1370287E+03  0.7546771E-02  0.1217760E+00
       -1   -1    0    0    0  501 -0.00000000000E+00  0.00000000000E+00  0.18710300765E+03  0.18710300765E+03  0.00000000000E+00 0.  1.
        1   -1    0    0  501    0  0.00000000000E+00 -0.00000000000E+00 -0.10067559722E+03  0.10067559722E+03  0.00000000000E+00 0. -1.
       24    2    1    2    0    0  0.66473063660E+02 -0.85772668729E+02  0.58497726662E+02  0.14899276385E+03  0.83673417295E+02 0.  0.
      -24    2    1    2    0    0 -0.66473063660E+02  0.85772668729E+02  0.27929683767E+02  0.13878584102E+03  0.81889092913E+02 0.  0.
      -13    1    3    3    0    0  0.64558753692E+02 -0.16430264417E+02  0.37838686510E+02  0.76613004535E+02  0.00000000000E+00 0.  1.
       14    1    3    3    0    0  0.19143099679E+01 -0.69342404312E+02  0.20659040151E+02  0.72379759315E+02  0.00000000000E+00 0. -1.
        1    1    4    4  502    0 -0.83057251473E+02  0.71876057959E+02  0.92973100040E+01  0.11023209471E+03  0.00000000000E+00 0. -1.
       -2    1    4    4    0  502  0.16584187813E+02  0.13896610770E+02  0.18632373763E+02  0.28553746310E+02  0.00000000000E+00 0.  1.
</event>
<event>
 8   1  0.2279600E-02  0.8824896E+02  0.7546771E-02  0.1307611E+00
       -2   -1    0    0    0  501 -0.00000000000E+00  0.00000000000E+00  0.11103789310E+02  0.11103789310E+02  0.00000000000E+00 0.  1.
        2   -1    0    0  501    0  0.00000000000E+00 -0.00000000000E+00 -0.97770625906E+03  0.97770625906E+03  0.00000000000E+00 0. -1.
      -24    2    1    2    0    0 -0.36015363736E+02 -0.21125193084E+02 -0.21623075407E+03  0.23326680573E+03  0.76904378563E+02 0.  0.
       24    2    1    2    0    0  0.36015363736E+02  0.21125193084E+02 -0.75037171568E+03  0.75554324264E+03  0.77746379966E+02 0.  0.
      -13    1    4    4    0    0 -0.92708969468E+01  0.32478480145E+02 -0.17165926196E+03  0.17495057422E+03  0.00000000000E+00 0.  1.
       14    1    4    4    0    0  0.45286260682E+02 -0.11353287060E+02 -0.57871245372E+03  0.58059266842E+03  0.00000000000E+00 0. -1.
        3    1    3    3  502    0  0.65806523727E+01 -0.32746598468E+02 -0.14995863299E+03  0.15363344787E+03  0.00000000000E+00 0. -1.
       -4    1    3    3    0  502 -0.42596016108E+02  0.11621405383E+02 -0.66272121083E+02  0.79633357861E+02  0.00000000000E+00 0.  1.
</event>
<event>
 8   1  0.2279600E-02  0.8025610E+02  0.7546771E-02  0.1328394E+00
       -2   -1    0    0    0  501 -0.00000000000E+00  0.00000000000E+00  0.89579288994E+01  0.89579288994E+01  0.00000000000E+00 0.  1.
        2   -1    0    0  501    0  0.00000000000E+00 -0.00000000000E+00 -0.81423305039E+03  0.81423305039E+03  0.00000000000E+00 0. -1.
      -24    2    1    2    0    0  0.35973898339E+01 -0.24300270245E+01 -0.26147762241E+03  0.27351707175E+03  0.80138600393E+02 0.  0.
       24    2    1    2    0    0 -0.35973898339E+01  0.24300270245E+01 -0.54379749908E+03  0.54967390754E+03  0.80042728450E+02 0.  0.
      -13    1    4    4    0    0  0.34570933351E+02  0.11426628093E+02 -0.17184399288E+03  0.17565897401E+03  0.00000000000E+00 0.  1.
       14    1    4    4    0    0 -0.38168323184E+02 -0.89966010689E+01 -0.37195350620E+03  0.37401493353E+03  0.00000000000E+00 0. -1.
        3    1    3    3  502    0 -0.21187001775E+01  0.35697879125E+02 -0.17813384772E+03  0.18168790595E+03  0.00000000000E+00 0. -1.
       -4    1    3    3    0  502  0.57160900114E+01 -0.38127906150E+02 -0.83343774695E+02  0.91829165806E+02  0.00000000000E+00 0.  1.
</event>
<event>
 8   1  0.2279600E-02  0.1065057E+03  0.7546771E-02  0.1269070E+00
       -1   -1    0    0    0  501 -0.00000000000E+00  0.00000000000E+00  0.16933295254E+02  0.16933295254E+02  0.00000000000E+00 0.  1.
        1   -1    0    0  501    0  0.00000000000E+00 -0.00000000000E+00 -0.64718296253E+03  0.64718296253E+03  0.00000000000E+00 0. -1.
       24    2    1    2    0    0  0.56833737091E+02  0.30515549388E+02 -0.30676581650E+03  0.32472869109E+03  0.84747768195E+02 0.  0.
      -24    2    1    2    0    0 -0.56833737091E+02 -0.30515549388E+02 -0.32348385077E+03  0.33938756669E+03  0.79880199624E+02 0.  0.
      -13    1    3    3    0    0  0.95378197779E+01  0.42148273718E+01 -0.23303951151E+03  0.23327269171E+03  0.00000000000E+00 0.  1.
       14    1    3    3    0    0  0.47295917313E+02  0.26300722016E+02 -0.73726304998E+02  0.91455999375E+02  0.00000000000E+00 0. -1.
        3    1    4    4  502    0 -0.14625020293E+01  0.15006587994E+02 -0.16210983284E+03  0.16280950371E+03  0.00000000000E+00 0. -1.
       -4    1    4    4    0  502 -0.55371235062E+02 -0.45522137382E+02 -0.16137401793E+03  0.17657806298E+03  0.00000000000E+00 0.  1.
</event>
<event>
 8   1  0.2279600E-02  0.1759788E+03  0.7546771E-02  0.1171928E+00
        1   -1    0    0  501    0  0.00000000000E+00  0.00000000000E+00  0.99437167498E+03  0.99437167498E+03  0.00000000000E+00 0. -1.
       -1   -1    0    0    0  501 -0.00000000000E+00 -0.00000000000E+00 -0.69608032356E+02  0.69608032356E+02  0.00000000000E+00 0.  1.
       24    2    1    2    0    0 -0.43841550334E+02 -0.14940765318E+03  0.66696329185E+02  0.18819387419E+03  0.81998814589E+02 0.  0.
      -24    2    1    2    0    0  0.43841550334E+02  0.14940765318E+03  0.85806731343E+03  0.87578583314E+03  0.80477218989E+02 0.  0.
      -13    1    3    3    0    0  0.11245671812E+02 -0.10186896157E+03  0.30533397382E+02  0.10693941659E+03  0.00000000000E+00 0.  1.
       14    1    3    3    0    0 -0.55087222146E+02 -0.47538691609E+02  0.36162931803E+02  0.81254457602E+02  0.00000000000E+00 0. -1.
        1    1    4    4  502    0  0.66880141261E+02  0.12197768375E+03  0.65921758693E+03  0.67373536017E+03  0.00000000000E+00 0. -1.
       -2    1    4    4    0  502 -0.23038590927E+02  0.27429969426E+02  0.19884972651E+03  0.20205047297E+03  0.00000000000E+00 0.  1.
</event>
<event>
 8   1  0.2279600E-02  0.8669025E+02  0.7546771E-02  0.1311540E+00
        2   -1    0    0  501    0  0.00000000000E+00  0.00000000000E+00  0.30559005921E+04  0.30559005921E+04  0.00000000000E+00 0. -1.
       -2   -1    0    0    0  501 -0.00000000000E+00 -0.00000000000E+00 -0.25233497105E+01  0.25233497105E+01  0.00000000000E+00 0.  1.
      -24    2    1    2    0    0  0.23472461232E+02 -0.15563623884E+02  0.12524881220E+04  0.12554846457E+04  0.81987907185E+02 0.  0.
       24    2    1    2    0    0 -0.23472461232E+02  0.15563623884E+02  0.18008891204E+04  0.18029392961E+04  0.81211445154E+02 0.  0.
      -13    1    4    4    0    0  0.13667700010E+02  0.27254937242E+02  0.30004488712E+03  0.30159007264E+03  0.00000000000E+00 0.  1.
       14    1    4    4    0    0 -0.37140161242E+02 -0.11691313358E+02  0.15008442333E+04  0.15013492235E+04  0.00000000000E+00 0. -1.
        1    1    3    3  502    0 -0.11682676102E+02 -0.38152617264E+02  0.82350914140E+03  0.82447523498E+03  0.00000000000E+00 0. -1.
       -2    1    3    3    0  502  0.35155137334E+02  0.22588993380E+02  0.42897898063E+03  0.43100941072E+03  0.00000000000E+00 0.  1.
</event>
<event>
 8   1  0.2279600E-02  0.8355269E+02  0.7546771E-02  0.1319366E+00
       -1   -1    0    0    0  501 -0.00000000000E+00  0.00000000000E+00  0.58032729252E+03  0.58032729252E+03  0.00000000000E+00 0.  1.
        1   -1    0    0  501    0  0.00000000000E+00 -0.00000000000E+00 -0.24658757875E+02  0.24658757875E+02  0.00000000000E+00 0. -1.
       24    2    1    2    0    0 -0.79708904938E+01 -0.21185322047E+02  0.49463502835E+03  0.50164216689E+03  0.80428224916E+02 0.  0.
      -24    2    1    2    0    0  0.79708904938E+01  0.21185322047E+02  0.61033506295E+02  0.10334388351E+03  0.80265287655E+02 0.  0.
      -13    1    3    3    0    0 -0.20116872475E+01 -0.43746225382E+02  0.44076776190E+03  0.44293791783E+03  0.00000000000E+00 0.  1.
       14    1    3    3    0    0 -0.59592032463E+01  0.22560903335E+02  0.53867266444E+02  0.58704249052E+02  0.00000000000E+00 0. -1.
        3    1    4    4  502    0  0.10922293718E+02  0.22998351455E+02 -0.13440027481E+02  0.28789842104E+02  0.00000000000E+00 0. -1.
       -4    1    4    4    0  502 -0.29514032241E+01 -0.18130294074E+01  0.74473533775E+02  0.74554041404E+02  0.00000000000E+00 0.  1.
</event>
<event>
 8   1  0.2279600E-02  0.1310309E+03  0.7546771E-02  0.1228187E+00
       -1   -1    0    0    0  501 -0.00000000000E+00  0.00000000000E+00  0.11635610391E+04  0.11635610391E+04  0.00000000000E+00 0.  1.
        1   -1    0    0  501    0  0.00000000000E+00 -0.00000000000E+00 -0.14114429446E+02  0.14114429446E+02  0.00000000000E+00 0. -1.
       24    2    1    2    0    0  0.21594621357E+01 -0.95820543510E+02  0.53652251611E+03  0.55090195659E+03  0.80313857133E+02 0.  0.
      -24    2    1    2    0    0 -0.21594621357E+01  0.95820543510E+02  0.61292409350E+03  0.62677351192E+03  0.89346801881E+02 0.  0.
      -13    1    3    3    0    0  0.15230222410E+02 -0.64586694637E+02  0.48321881372E+03  0.48775385466E+03  0.00000000000E+00 0.  1.
       14    1    3    3    0    0 -0.13070760274E+02 -0.31233848872E+02  0.53303702391E+02  0.63148101936E+02  0.00000000000E+00 0. -1.
        1    1    4    4  502    0  0.15608490299E+02  0.10536707174E+03  0.56190957536E+03  0.57191626630E+03  0.00000000000E+00 0. -1.
       -2    1    4    4    0  502 -0.17767952435E+02 -0.95465282347E+01  0.51014518142E+02  0.54857245613E+02  0.00000000000E+00 0.  1.
</event>
<event>
 8   1  0.2279600E-02  0.1104050E+03  0.7546771E-02  0.1260170E+00
       -1   -1    0    0    0  501 -0.00000000000E+00  0.00000000000E+00  0.58352682520E+02  0.58352682520E+02  0.00000000000E+00 0.  1.
        1   -1    0    0  501    0  0.00000000000E+00 -0.00000000000E+00 -0.26126662023E+03  0.26126662023E+03  0.00000000000E+00 0. -1.
       24    2    1    2    0    0 -0.40287870020E+02 -0.63307644649E+02 -0.28663512465E+02  0.11333680778E+03  0.79954141293E+02 0.  0.
      -24    2    1    2    0    0  0.40287870020E+02  0.63307644649E+02 -0.17425042524E+03  0.20628249496E+03  0.80983249437E+02 0.  0.
      -13    1    3    3    0    0 -0.61466009473E+02 -0.56325272425E+02 -0.94545859907E+01  0.83904683007E+02  0.00000000000E+00 0.  1.
       14    1    3    3    0    0  0.21178139453E+02 -0.69823722243E+01 -0.19208926474E+02  0.29432124777E+02  0.00000000000E+00 0. -1.
        3    1    4    4  502    0  0.57796817759E+02  0.19435706326E+02 -0.11804036011E+03  0.13285987144E+03  0.00000000000E+00 0. -1.
       -4    1    4    4    0  502 -0.17508947739E+02  0.43871938324E+02 -0.56210065130E+02  0.73422623524E+02  0.00000000000E+00 0.  1.
</event>
<event>
 8   1  0.2279600E-02  0.8243117E+02  0.7546771E-02  0.1323290E+00
        2   -1    0    0  501    0  0.00000000000E+00  0.00000000000E+00  0.43249958036E+03  0.43249958036E+03  0.00000000000E+00 0. -1.
       -2   -1    0    0    0  501 -0.00000000000E+00 -0.00000000000E+00 -0.31730813067E+02  0.31730813067E+02  0.00000000000E+00 0.  1.
      -24    2    1    2    0    0  0.11781821879E+02  0.12887465673E+02  0.33178607043E+02  0.87511103974E+02  0.79072594843E+02 0.  0.
       24    2    1    2    0    0 -0.11781821879E+02 -0.12887465673E+02  0.36759016025E+03  0.37671928945E+03  0.80560530253E+02 0.  0.
      -13    1    4    4    0    0  0.10559561130E+02  0.31131660332E+02  0.13448382979E+03  0.13844343640E+03  0.00000000000E+00 0.  1.
       14    1    4    4    0    0 -0.22341383009E+02 -0.44019126005E+02  0.23310633046E+03  0.23827585305E+03  0.00000000000E+00 0. -1.
        3    1    3    3  502    0 -0.22821620294E+02 -0.16535476124E+02  0.31203861952E+02  0.42046751649E+02  0.00000000000E+00 0. -1.
       -4    1    3    3    0  502  0.34603442173E+02  0.29422941797E+02  0.19747450905E+01  0.45464352325E+02  0.00000000000E+00 0.  1.
</event>
<event>
 8   1  0.2279600E-02  0.9430236E+02  0.7546771E-02  0.1297658E+00
        1   -1    0    0  501    0  0.00000000000E+00  0.00000000000E+00  0.63682601010E+03  0.63682601010E+03  0.00000000000E+00 0. -1.
       -1   -1    0    0    0  501 -0.00000000000E+00 -0.00000000000E+00 -0.46490827199E+02  0.46490827199E+02  0.00000000000E+00 0.  1.
       24    2    1    2    0    0 -0.37833091382E+01  0.29643640681E+02  0.60559601930E+00  0.86095001344E+02  0.80739851678E+02 0.  0.
      -24    2    1    2    0    0  0.37833091382E+01 -0.29643640681E+02  0.58972958688E+03  0.59722183595E+03  0.89442030601E+02 0.  0.
      -13    1    3    3    0    0 -0.38483104222E+02  0.33266256332E+02  0.40927996628E+01  0.51032775056E+02  0.00000000000E+00 0.  1.
       14    1    3    3    0    0  0.34699795083E+02 -0.36226156509E+01 -0.34872036435E+01  0.35062226287E+02  0.00000000000E+00 0. -1.
        1    1    4    4  502    0  0.37613675341E+02  0.78713878347E+01  0.35761763068E+03  0.35967640609E+03  0.00000000000E+00 0. -1.
       -2    1    4    4    0  502 -0.33830366203E+02 -0.37515028516E+02  0.23211195619E+03  0.23754542987E+03  0.00000000000E+00 0.  1.
</event>
<event>
 8   1  0.2279600E-02  0.8304978E+02  0.7546771E-02  0.1321015E+00
        2   -1    0    0  501    0  0.00000000000E+00  0.00000000000E+00  0.54255087090E+03  0.54255087090E+03  0.00000000000E+00 0. -1.
       -2   -1    0    0    0  501 -0.00000000000E+00 -0.00000000000E+00 -0.41685983702E+02  0.41685983702E+02  0.00000000000E+00 0.  1.
      -24    2    1    2    0    0 -0.96541935546E+01  0.24552959114E+02  0.67879602481E+01  0.83326721402E+02  0.78747792609E+02 0.  0.
       24    2    1    2    0    0  0.96541935546E+01 -0.24552959114E+02  0.49407692695E+03  0.50091013320E+03  0.78121063378E+02 0.  0.
      -13    1    4    4    0    0  0.93424429584E+01  0.16239895443E+02  0.32342715675E+02  0.37377355466E+02  0.00000000000E+00 0.  1.
       14    1    4    4    0    0  0.31175059621E+00 -0.40792854557E+02  0.46173421128E+03  0.46353277773E+03  0.00000000000E+00 0. -1.
        3    1    3    3  502    0 -0.20374382041E+02  0.27252628283E+02  0.37529128364E+02  0.50658233957E+02  0.00000000000E+00 0. -1.
       -4    1    3    3    0  502  0.10720188486E+02 -0.26996691687E+01 -0.30741168116E+02  0.32668487445E+02  0.00000000000E+00 0.  1.
</event>
<event>
 8   1  0.2279600E-02  0.8605573E+02  0.7546771E-02  0.1313044E+00
        2   -1    0    0  501    0  0.00000000000E+00  0.00000000000E+00  0.24483164322E+04  0.24483164322E+04  0.00000000000E+00 0. -1.
       -2   -1    0    0    0  501 -0.00000000000E+00 -0.00000000000E+00 -0.64585018604E+01  0.64585018604E+01  0.00000000000E+00 0.  1.
      -24    2    1    2    0    0 -0.71364014144E+01  0.24851279612E+02  0.32530090647E+03  0.33649111282E+03  0.82079686469E+02 0.  0.
       24    2    1    2    0    0  0.71364014144E+01 -0.24851279612E+02  0.21165570239E+04  0.21182838213E+04  0.81511948376E+02 0.  0.
      -13    1    4    4    0    0 -0.15629679131E+02 -0.21530764622E+02  0.22221203247E+03  0.22379912437E+03  0.00000000000E+00 0.  1.
       14    1    4    4    0    0  0.22766080545E+02 -0.33205149908E+01  0.18943449914E+04  0.18944846969E+04  0.00000000000E+00 0. -1.
        1    1    3    3  502    0  0.22949396919E+02 -0.58800764512E+01  0.23795670346E+03  0.23913310695E+03  0.00000000000E+00 0. -1.
       -2    1    3    3    0  502 -0.30085798333E+02  0.30731356064E+02  0.87344203010E+02  0.97358005866E+02  0.00000000000E+00 0.  1.
</event>
<event>
 8   1  0.2279600E-02  0.8586136E+02  0.7546771E-02  0.1314757E+00
       -2   -1    0    0    0  501 -0.00000000000E+00  0.00000000000E+00  0.74126970900E+01  0.74126970900E+01  0.00000000000E+00 0.  1.
        2   -1    0    0  501    0  0.00000000000E+00 -0.00000000000E+00 -0.16877830218E+04  0.16877830218E+04  0.00000000000E+00 0. -1.
       24    2    1    2    0    0  0.29770144492E+01 -0.11637704338E+02 -0.13872385128E+04  0.13897477979E+04  0.82607213246E+02 0.  0.
      -24    2    1    2    0    0 -0.29770144492E+01  0.11637704338E+02 -0.29313181191E+03  0.30544792096E+03  0.85016907068E+02 0.  0.
      -13    1    3    3    0    0 -0.26889188840E+02  0.13198562385E+02 -0.24143018945E+03  0.24328125062E+03  0.00000000000E+00 0.  1.
       14    1    3    3    0    0  0.29866203290E+02 -0.24836266723E+02 -0.11458083233E+04  0.11464665473E+04  0.00000000000E+00 0. -1.
        3    1    4    4  502    0  0.27443086519E+02 -0.23812239504E+02 -0.90929703596E+02  0.97920154942E+02  0.00000000000E+00 0. -1.
       -4    1    4    4    0  502 -0.30420100968E+02  0.35449943842E+02 -0.20220210831E+03  0.20752776601E+03  0.00000000000E+00 0.  1.
</event>
<event>
 8   1  0.2279600E-02  0.8517058E+02  0.7546771E-02  0.1318236E+00
       -2   -1    0    0    0  501 -0.00000000000E+00  0.00000000000E+00  0.28504133370E+02  0.28504133370E+02  0.00000000000E+00 0.  1.
        2   -1    0    0  501    0  0.00000000000E+00 -0.00000000000E+00 -0.24029767287E+03  0.24029767287E+03  0.00000000000E+00 0. -1.
      -24    2    1    2    0    0 -0.28304230997E+02  0.52526525411E+01 -0.10130340939E+03  0.12929518760E+03  0.75007632485E+02 0.  0.
       24    2    1    2    0    0  0.28304230997E+02 -0.52526525411E+01 -0.11049013011E+03  0.13950661864E+03  0.80158018574E+02 0.  0.
      -13    1    4    4    0    0 -0.23651170887E+02  0.14030093192E+01 -0.90899876735E+01  0.25376646653E+02  0.00000000000E+00 0.  1.
       14    1    4    4    0    0  0.51955401884E+02 -0.66556618603E+01 -0.10140014244E+03  0.11412997199E+03  0.00000000000E+00 0. -1.
        3    1    3    3  502    0  0.17670497614E+01  0.24153691568E+02 -0.25541010984E+01  0.24352550455E+02  0.00000000000E+00 0. -1.
       -4    1    3    3    0  502 -0.30071280759E+02 -0.18901039027E+02 -0.98749308288E+02  0.10494263714E+03  0.00000000000E+00 0.  1.
</event>
<event>
 8   1  0.2279600E-02  0.8290402E+02  0.7546771E-02  0.1333038E+00
        2   -1    0    0  501    0  0.00000000000E+00  0.00000000000E+00  0.12738155535E+03  0.12738155535E+03  0.00000000000E+00 0. -1.
       -2   -1    0    0    0  501 -0.00000000000E+00 -0.00000000000E+00 -0.65082671958E+02  0.65082671958E+02  0.00000000000E+00 0.  1.
      -24    2    1    2    0    0  0.13106285391E+02  0.44329567106E+01 -0.25499810082E+02  0.71709567574E+02  0.65578929128E+02 0.  0.
       24    2    1    2    0    0 -0.13106285391E+02 -0.44329567106E+01  0.87798693470E+02  0.12075465973E+03  0.81741369267E+02 0.  0.
      -13    1    4    4    0    0  0.22335245032E+02  0.21731746396E+02  0.12623757693E+02  0.33622778445E+02  0.00000000000E+00 0.  1.
       14    1    4    4    0    0 -0.35441530422E+02 -0.26164703107E+02  0.75174935777E+02  0.87131881286E+02  0.00000000000E+00 0. -1.
        1    1    3    3  502    0  0.11845289434E+02  0.59013310751E+01  0.21188163992E+02  0.24981490820E+02  0.00000000000E+00 0. -1.
       -2    1    3    3    0  502  0.12609959566E+01 -0.14683743645E+01 -0.46687974073E+02  0.46728076754E+02  0.00000000000E+00 0.  1.
</event>
<event>
 8   1  0.2279600E-02  0.8759367E+02  0.7546771E-02  0.1309313E+00
       -2   -1    0    0    0  501 -0.00000000000E+00  0.00000000000E+00  0.43661388205E+01  0.43661388205E+01  0.00000000000E+00 0.  1.
        2   -1    0    0  501    0  0.00000000000E+00 -0.00000000000E+00 -0.18847761688E+04  0.18847761688E+04  0.00000000000E+00 0. -1.
       24    2    1    2    0    0  0.30035028806E+02  0.18888902781E+02 -0.12056142268E+04  0.12087920891E+04  0.80085937041E+02 0.  0.
      -24    2    1    2    0    0 -0.30035028806E+02 -0.18888902781E+02 -0.67479580323E+03  0.68035021853E+03  0.79171650158E+02 0.  0.
      -13    1    3    3    0    0  0.39536265597E+02 -0.18965140399E+02 -0.43886042622E+03  0.44104565132E+03  0.00000000000E+00 0.  1.
       14    1    3    3    0    0 -0.95012367909E+01  0.37854043180E+02 -0.76675380057E+03  0.76774643781E+03  0.00000000000E+00 0. -1.
        1    1    4    4  502    0  0.92469688000E+01  0.15297478879E+02 -0.45225066294E+02  0.48629475766E+02  0.00000000000E+00 0. -1.
       -2    1    4    4    0  502 -0.39281997606E+02 -0.34186381660E+02 -0.62957073694E+03  0.63172074276E+03  0.00000000000E+00 0.  1.
</event>
<event>
 8   1  0.2279600E-02  0.1157493E+03  0.7546771E-02  0.1250312E+00
        2   -1    0    0  501    0  0.00000000000E+00  0.00000000000E+00  0.16453080850E+03  0.16453080850E+03  0.00000000000E+00 0. -1.
       -2   -1    0    0    0  501 -0.00000000000E+00 -0.00000000000E+00 -0.11116127578E+03  0.11116127578E+03  0.00000000000E+00 0.  1.
       24    2    1    2    0    0 -0.82580545166E+02 -0.79843518958E+01  0.98031238159E+02  0.15162528675E+03  0.80602776700E+02 0.  0.
      -24    2    1    2    0    0  0.82580545166E+02  0.79843518958E+01 -0.44661705440E+02  0.12406679753E+03  0.80713109231E+02 0.  0.
      -13    1    3    3    0    0 -0.41788177372E+02 -0.24044457425E+02  0.46134539981E+01  0.48432134567E+02  0.00000000000E+00 0.  1.
       14    1    3    3    0    0 -0.40792367794E+02  0.16060105529E+02  0.93417784161E+02  0.10319315218E+03  0.00000000000E+00 0. -1.
        1    1    4    4  502    0  0.18044111871E+02  0.38648742584E+02 -0.26946907278E+02  0.50452463651E+02  0.00000000000E+00 0. -1.
       -2    1    4    4    0  502  0.64536433294E+02 -0.30664390689E+02 -0.17714798162E+02  0.73614333880E+02  0.00000000000E+00 0.  1.
</event>
<event>
 8   1  0.2279600E-02  0.8791995E+02  0.7546771E-02  0.1309415E+00
        1   -1    0    0  501    0  0.00000000000E+00  0.00000000000E+00  0.12714381838E+03  0.12714381838E+03  0.00000000000E+00 0. -1.
       -1   -1    0    0    0  501 -0.00000000000E+00 -0.00000000000E+00 -0.67802346004E+02  0.67802346004E+02  0.00000000000E+00 0.  1.
       24    2    1    2    0    0  0.76729352556E+01 -0.31278097921E+02  0.63989810199E+02  0.10690341643E+03  0.79350181417E+02 0.  0.
      -24    2    1    2    0    0 -0.76729352556E+01  0.31278097921E+02 -0.46483378271E+01  0.88042747947E+02  0.81809076981E+02 0.  0.
      -13    1    3    3    0    0 -0.22293103098E+02  0.69020431273E+01 -0.36820197925E+01  0.23625789189E+02  0.00000000000E+00 0.  1.
       14    1    3    3    0    0  0.29966038354E+02 -0.38180141048E+02  0.67671829992E+02  0.83277627244E+02  0.00000000000E+00 0. -1.
        1    1    4    4  502    0  0.18626566502E+02  0.86765864817E+01  0.31718619288E+02  0.37792895392E+02  0.00000000000E+00 0. -1.
       -2    1    4    4    0  502 -0.26299501757E+02  0.22601511439E+02 -0.36366957115E+02  0.50249852555E+02  0.00000000000E+00 0.  1.
</event>
<event>
 8   1  0.2279600E-02  0.8262299E+02  0.7546771E-02  0.1322006E+00
        2   -1    0    0  501    0  0.00000000000E+00  0.00000000000E+00  0.20346531326E+03  0.20346531326E+03  0.00000000000E+00 0. -1.
       -2   -1    0    0    0  501 -0.00000000000E+00 -0.00000000000E+00 -0.92643664750E+02  0.92643664750E+02  0.00000000000E+00 0.  1.
      -24    2    1    2    0    0 -0.97748819059E+01  0.95552948326E+01 -0.63017158533E+02  0.10363433328E+03  0.81129900707E+02 0.  0.
       24    2    1    2    0    0  0.97748819059E+01 -0.95552948326E+01  0.17383880704E+03  0.19247464473E+03  0.81484391479E+02 0.  0.
      -13    1    4    4    0    0  0.36456657588E+02 -0.22856823250E+02  0.54343030015E+02  0.69315850732E+02  0.00000000000E+00 0.  1.
       14    1    4    4    0    0 -0.26681775682E+02  0.13301528417E+02  0.11949577703E+03  0.12315879400E+03  0.00000000000E+00 0. -1.
        1    1    3    3  502    0  0.19899798013E+02 -0.25661166213E+02 -0.11294760568E+02  0.34381230761E+02  0.00000000000E+00 0. -1.
       -2    1    3    3    0  502 -0.29674679919E+02  0.35216461046E+02 -0.51722397965E+02  0.69253102516E+02  0.00000000000E+00 0.  1.
</event>
<event>
 8   1  0.2279600E-02  0.8467873E+02  0.7546771E-02  0.1317198E+00
        3   -1    0    0  501    0  0.00000000000E+00  0.00000000000E+00  0.15287416877E+03  0.15287416877E+03  0.00000000000E+00 0. -1.
       -3   -1    0    0    0  501 -0.00000000000E+00 -0.00000000000E+00 -0.70629363843E+02  0.70629363843E+02  0.00000000000E+00 0.  1.
       24    2    1    2    0    0 -0.27550653044E+01  0.18443596985E+02 -0.24461600381E+02  0.88141123331E+02  0.82599824904E+02 0.  0.
      -24    2    1    2    0    0  0.27550653044E+01 -0.18443596985E+02  0.10670640530E+03  0.13536240928E+03  0.81172459974E+02 0.  0.
      -13    1    3    3    0    0 -0.32220922267E+02  0.18266120786E+02 -0.40260917755E+02  0.54706311325E+02  0.00000000000E+00 0.  1.
       14    1    3    3    0    0  0.29465856963E+02  0.17747619900E+00  0.15799317374E+02  0.33434812006E+02  0.00000000000E+00 0. -1.
        3    1    4    4  502    0  0.19371923672E+02 -0.46281836497E+02  0.73149089766E+02  0.88702137234E+02  0.00000000000E+00 0. -1.
       -4    1    4    4    0  502 -0.16616858367E+02  0.27838239512E+02  0.33557315537E+02  0.46660272044E+02  0.00000000000E+00 0.  1.
</event>
<event>
 8   1  0.2279600E-02  0.1129739E+03  0.7546771E-02  0.1260692E+00
       -2   -1    0    0    0  501 -0.00000000000E+00  0.00000000000E+00  0.73464959509E+02  0.73464959509E+02  0.00000000000E+00 0.  1.
        2   -1    0    0  501    0  0.00000000000E+00 -0.00000000000E+00 -0.25872492372E+03  0.25872492372E+03  0.00000000000E+00 0. -1.
      -24    2    1    2    0    0  0.67648469869E+02 -0.37479478092E+02  0.14861964235E+02  0.10238152947E+03  0.65422265640E+02 0.  0.
       24    2    1    2    0    0 -0.67648469869E+02  0.37479478092E+02 -0.20012192844E+03  0.22980835376E+03  0.82353302669E+02 0.  0.
      -13    1    4    4    0    0  0.64844144104E+01 -0.18801183552E+02 -0.34104125321E+02  0.39479405987E+02  0.00000000000E+00 0.  1.
       14    1    4    4    0    0 -0.74132884280E+02  0.56280661644E+02 -0.16601780312E+03  0.19032894777E+03  0.00000000000E+00 0. -1.
        3    1    3    3  502    0  0.44711106566E+02  0.12363805761E+02  0.82463137092E+01  0.47116328731E+02  0.00000000000E+00 0. -1.
       -4    1    3    3    0  502  0.22937363303E+02 -0.49843283853E+02  0.66156505257E+01  0.55265200736E+02  0.00000000000E+00 0.  1.
</event>
<event>
 8   1  0.2279600E-02  0.8047015E+02  0.7546771E-02  0.1328646E+00
       -3   -1    0    0    0  501 -0.00000000000E+00  0.00000000000E+00  0.54484674850E+01  0.54484674850E+01  0.00000000000E+00 0.  1.
        3   -1    0    0  501    0  0.00000000000E+00 -0.00000000000E+00 -0.12937357218E+04  0.12937357218E+04  0.00000000000E+00 0. -1.
       24    2    1    2    0    0 -0.46343620242E+01  0.45637730704E+01 -0.43800450663E+03  0.44510211167E+03  0.78902703702E+02 0.  0.
      -24    2    1    2    0    0  0.46343620242E+01 -0.45637730704E+01 -0.85028274768E+03  0.85408207761E+03  0.80206851025E+02 0.  0.
      -13    1    3    3    0    0  0.33863191637E+02  0.10601687439E+02 -0.13433156838E+03  0.13893912979E+03  0.00000000000E+00 0.  1.
       14    1    3    3    0    0 -0.38497553661E+02 -0.60379143681E+01 -0.30367293825E+03  0.30616298188E+03  0.00000000000E+00 0. -1.
        1    1    4    4  502    0 -0.37804446893E+02 -0.29699751367E+00 -0.39224542924E+03  0.39406311825E+03  0.00000000000E+00 0. -1.
       -2    1    4    4    0  502  0.42438808917E+02 -0.42667755568E+01 -0.45803731844E+03  0.46001895935E+03  0.00000000000E+00 0.  1.
</event>
<event>
 8   1  0.2279600E-02  0.9509239E+02  0.7546771E-02  0.1293608E+00
       -2   -1    0    0    0  501 -0.00000000000E+00  0.00000000000E+00  0.63675196083E+02  0.63675196083E+02  0.00000000000E+00 0.  1.
        2   -1    0    0  501    0  0.00000000000E+00 -0.00000000000E+00 -0.32489986580E+03  0.32489986580E+03  0.00000000000E+00 0. -1.
       24    2    1    2    0    0 -0.25764086932E+02 -0.38608165379E+02 -0.27768645537E+03  0.29206830938E+03  0.77715836501E+02 0.  0.
      -24    2    1    2    0    0  0.25764086932E+02  0.38608165379E+02  0.16461785645E+02  0.96506752503E+02  0.82995085895E+02 0.  0.
      -13    1    3    3    0    0 -0.21364755037E+02  0.10330866459E+02 -0.19063653457E+03  0.19210795890E+03  0.00000000000E+00 0.  1.
       14    1    3    3    0    0 -0.43993318946E+01 -0.48939031838E+02 -0.87049920799E+02  0.99960350487E+02  0.00000000000E+00 0. -1.
        3    1    4    4  502    0  0.14186888353E+02 -0.11921483590E+02 -0.24301327633E+02  0.30560498963E+02  0.00000000000E+00 0. -1.
       -4    1    4    4    0  502  0.11577198578E+02  0.50529648968E+02  0.40763113279E+02  0.65946253540E+02  0.00000000000E+00 0.  1.
</event>
<event>
 8   1  0.2279600E-02  0.1278904E+03  0.7546771E-02  0.1230714E+00
        1   -1    0    0  501    0  0.00000000000E+00  0.00000000000E+00  0.96014381006E+03  0.96014381006E+03  0.00000000000E+00 0. -1.
       -1   -1    0    0    0  501 -0.00000000000E+00 -0.00000000000E+00 -0.63763457231E+02  0.63763457231E+02  0.00000000000E+00 0.  1.
       24    2    1    2    0    0 -0.59795077945E+02  0.78832631035E+02  0.96560457069E+01  0.12800774338E+03  0.80639370565E+02 0.  0.
      -24    2    1    2    0    0  0.59795077945E+02 -0.78832631035E+02  0.88672430713E+03  0.89589952391E+03  0.81030395741E+02 0.  0.
      -13    1    3    3    0    0 -0.40645505257E+02  0.46813108158E+02 -0.33898317666E+02  0.70658475313E+02  0.00000000000E+00 0.  1.
       14    1    3    3    0    0 -0.19149572688E+02  0.32019522877E+02  0.43554363373E+02  0.57349268070E+02  0.00000000000E+00 0. -1.
        1    1    4    4  502    0  0.54358183536E+02 -0.77051474149E+02  0.88487753045E+03  0.88988762531E+03  0.00000000000E+00 0. -1.
       -2    1    4    4    0  502  0.54368944087E+01 -0.17811568860E+01  0.18467766726E+01  0.60118985972E+01  0.00000000000E+00 0.  1.
</event>
<event>
 8   1  0.2279600E-02  0.1073816E+03  0.7546771E-02  0.1267604E+00
        2   -1    0    0  501    0  0.00000000000E+00  0.00000000000E+00  0.60434561679E+02  0.60434561679E+02  0.00000000000E+00 0. -1.
       -2   -1    0    0    0  501 -0.00000000000E+00 -0.00000000000E+00 -0.30793103908E+03  0.30793103908E+03  0.00000000000E+00 0.  1.
      -24    2    1    2    0    0 -0.57624492281E+02  0.42659190894E+02 -0.23944029145E+03  0.26068222747E+03  0.74048510275E+02 0.  0.
       24    2    1    2    0    0  0.57624492281E+02 -0.42659190894E+02 -0.80561859532E+01  0.10768337328E+03  0.79940090514E+02 0.  0.
      -13    1    4    4    0    0  0.28932001395E+02 -0.48774039409E+02 -0.35997286588E+02  0.67169727308E+02  0.00000000000E+00 0.  1.
       14    1    4    4    0    0  0.28692490886E+02  0.61148485151E+01  0.27941100634E+02  0.40513645976E+02  0.00000000000E+00 0. -1.
        1    1    3    3  502    0 -0.13791919448E+02  0.55408518171E+02 -0.12274097067E+03  0.13537232660E+03  0.00000000000E+00 0. -1.
       -2    1    3    3    0  502 -0.43832572833E+02 -0.12749327277E+02 -0.11669932078E+03  0.12530990088E+03  0.00000000000E+00 0.  1.
</event>
<event>
 8   1  0.2279600E-02  0.2270065E+03  0.7546771E-02  0.1128902E+00
        2   -1    0    0  501    0  0.00000000000E+00  0.00000000000E+00  0.73363520005E+03  0.73363520005E+03  0.00000000000E+00 0. -1.
       -2   -1    0    0    0  501 -0.00000000000E+00 -0.00000000000E+00 -0.10105565675E+03  0.10105565675E+03  0.00000000000E+00 0.  1.
      -24    2    1    2    0    0  0.17915204516E+03  0.11165542663E+03  0.84578040238E+02  0.24153184560E+03  0.81374430660E+02 0.  0.
       24    2    1    2    0    0 -0.17915204516E+03 -0.11165542663E+03  0.54800150307E+03  0.59315901120E+03  0.83483984200E+02 0.  0.
      -13    1    4    4    0    0 -0.64559232035E+02 -0.80250771742E+02  0.31825841411E+03  0.33450934062E+03  0.00000000000E+00 0.  1.
       14    1    4    4    0    0 -0.11459281313E+03 -0.31404654893E+02  0.22974308896E+03  0.25864967058E+03  0.00000000000E+00 0. -1.
        3    1    3    3  502    0  0.72463241918E+02  0.36876922439E+02  0.75459233194E+02  0.11092756516E+03  0.00000000000E+00 0. -1.
       -4    1    3    3    0  502  0.10668880324E+03  0.74778504196E+02  0.91188070444E+01  0.13060428044E+03  0.00000000000E+00 0.  1.
</event>
<event>
 8   1  0.2279600E-02  0.1243232E+03  0.7546771E-02  0.1236395E+00
       -2   -1    0    0    0  501 -0.00000000000E+00  0.00000000000E+00  0.91098716187E+01  0.91098716187E+01  0.00000000000E+00 0.  1.
        2   -1    0    0  501    0  0.00000000000E+00 -0.00000000000E+00 -0.21649706334E+04  0.21649706334E+04  0.00000000000E+00 0. -1.
       24    2    1    2    0    0 -0.93016520757E+02  0.11721278700E+02 -0.15861389763E+04  0.15909517174E+04  0.80629111329E+02 0.  0.
      -24    2    1    2    0    0  0.93016520757E+02 -0.11721278700E+02 -0.56972178554E+03  0.58312878764E+03  0.81650526876E+02 0.  0.
      -13    1    3    3    0    0 -0.21482660224E+00  0.28040475828E+02 -0.27296434043E+03  0.27440088480E+03  0.00000000000E+00 0.  1.
       14    1    3    3    0    0 -0.92801694154E+02 -0.16319197128E+02 -0.13131746358E+04  0.13165508326E+04  0.00000000000E+00 0. -1.
        1    1    4    4  502    0  0.86233588271E+02 -0.40090452776E+02 -0.44335449278E+03  0.45343873061E+03  0.00000000000E+00 0. -1.
       -2    1    4    4    0  502  0.67829324855E+01  0.28369174076E+02 -0.12636729277E+03  0.12969005703E+03  0.00000000000E+00 0.  1.
</event>
<event>
 8   1  0.2279600E-02  0.8135308E+02  0.7546771E-02  0.1326260E+00
        2   -1    0    0  501    0  0.00000000000E+00  0.00000000000E+00  0.13270907165E+04  0.13270907165E+04  0.00000000000E+00 0. -1.
       -2   -1    0    0    0  501 -0.00000000000E+00 -0.00000000000E+00 -0.52968722589E+01  0.52968722589E+01  0.00000000000E+00 0.  1.
      -24    2    1    2    0    0  0.94852839084E+01 -0.10797988884E+02  0.47299898275E+03  0.47970298114E+03  0.78615171959E+02 0.  0.
       24    2    1    2    0    0 -0.94852839084E+01  0.10797988884E+02  0.84879486146E+03  0.85268460758E+03  0.80073441244E+02 0.  0.
      -13    1    4    4    0    0  0.23799545002E+02  0.28212723982E+02  0.24971368712E+03  0.25242682439E+03  0.00000000000E+00 0.  1.
       14    1    4    4    0    0 -0.33284828911E+02 -0.17414735098E+02  0.59908117434E+03  0.60025778319E+03  0.00000000000E+00 0. -1.
        1    1    3    3  502    0 -0.12446883682E+02 -0.56876451181E+01  0.43717255007E+03  0.43738668561E+03  0.00000000000E+00 0. -1.
       -2    1    3    3    0  502  0.21932167591E+02 -0.51103437663E+01  0.35826432680E+02  0.42316295528E+02  0.00000000000E+00 0.  1.
</event>
<event>
 8   1  0.2279600E-02  0.1379907E+03  0.7546771E-02  0.1216785E+00
       -1   -1    0    0    0  501 -0.00000000000E+00  0.00000000000E+00  0.62004580010E+03  0.62004580010E+03  0.00000000000E+00 0.  1.
        1   -1    0    0  501    0  0.00000000000E+00 -0.00000000000E+00 -0.80683169754E+02  0.80683169754E+02  0.00000000000E+00 0. -1.
       24    2    1    2    0    0  0.75165112084E+02 -0.83112222754E+02  0.54592405567E+03  0.56258232031E+03  0.76865837196E+02 0.  0.
      -24    2    1    2    0    0 -0.75165112084E+02  0.83112222754E+02 -0.65614253253E+01  0.13814664954E+03  0.80523343388E+02 0.  0.
      -13    1    3    3    0    0  0.90201211378E+02 -0.64198659958E+02  0.47194464842E+03  0.48475713264E+03  0.00000000000E+00 0.  1.
       14    1    3    3    0    0 -0.15036099294E+02 -0.18913562796E+02  0.73979407250E+02  0.77825187675E+02  0.00000000000E+00 0. -1.
        1    1    4    4  502    0 -0.75810993736E+02  0.75031700201E+02 -0.32070658276E+02  0.11138038395E+03  0.00000000000E+00 0. -1.
       -2    1    4    4    0  502  0.64588165223E+00  0.80805225523E+01  0.25509232950E+02  0.26766265588E+02  0.00000000000E+00 0.  1.
</event>
<event>
 8   1  0.2279600E-02  0.8434103E+02  0.7546771E-02  0.1318721E+00
        2   -1    0    0  501    0  0.00000000000E+00  0.00000000000E+00  0.96958343166E+03  0.96958343166E+03  0.00000000000E+00 0. -1.
       -2   -1    0    0    0  501 -0.00000000000E+00 -0.00000000000E+00 -0.95999791565E+02  0.95999791565E+02  0.00000000000E+00 0.  1.
      -24    2    1    2    0    0  0.27151981045E+02 -0.35741043335E+00 -0.75358435169E+02  0.11310306232E+03  0.79850179320E+02 0.  0.
       24    2    1    2    0    0 -0.27151981045E+02  0.35741043335E+00  0.94894207527E+03  0.95248016091E+03  0.77395328652E+02 0.  0.
      -13    1    4    4    0    0  0.61030974039E+01  0.32653104919E+02  0.28679677266E+03  0.28871415253E+03  0.00000000000E+00 0.  1.
       14    1    4    4    0    0 -0.33255078449E+02 -0.32295694486E+02  0.66214530261E+03  0.66376600838E+03  0.00000000000E+00 0. -1.
        3    1    3    3  502    0  0.16043011418E+02  0.26104536755E+02  0.18872624444E+01  0.30698319401E+02  0.00000000000E+00 0. -1.
       -4    1    3    3    0  502  0.11108969627E+02 -0.26461947188E+02 -0.77245697614E+02  0.82404742916E+02  0.00000000000E+00 0.  1.
</event>
<event>
 8   1  0.2279600E-02  0.2064700E+03  0.7546771E-02  0.1144489E+00
        1   -1    0    0  501    0  0.00000000000E+00  0.00000000000E+00  0.28782457124E+04  0.28782457124E+04  0.00000000000E+00 0. -1.
       -1   -1    0    0    0  501 -0.00000000000E+00 -0.00000000000E+00 -0.16952087236E+02  0.16952087236E+02  0.00000000000E+00 0.  1.
       24    2    1    2    0    0 -0.14353707424E+03 -0.12285374542E+03  0.91354516758E+03  0.93658668988E+03  0.83270162759E+02 0.  0.
      -24    2    1    2    0    0  0.14353707424E+03  0.12285374542E+03  0.19477484576E+04  0.19586111097E+04  0.82082219728E+02 0.  0.
      -13    1    3    3    0    0 -0.11149444790E+03 -0.10249569014E+03  0.53137900001E+03  0.55253960950E+03  0.00000000000E+00 0.  1.
       14    1    3    3    0    0 -0.32042626347E+02 -0.20358055284E+02  0.38216616757E+03  0.38404708039E+03  0.00000000000E+00 0. -1.
        1    1    4    4  502    0  0.15250781954E+03  0.10309299438E+03  0.17678887042E+04  0.17774468405E+04  0.00000000000E+00 0. -1.
       -2    1    4    4    0  502 -0.89707453020E+01  0.19760751041E+02  0.17985975339E+03  0.18116426922E+03  0.00000000000E+00 0.  1.
</event>
<event>
 8   1  0.2279600E-02  0.8604863E+02  0.7546771E-02  0.1313570E+00
        2   -1    0    0  501    0  0.00000000000E+00  0.00000000000E+00  0.77576166394E+02  0.77576166394E+02  0.00000000000E+00 0. -1.
       -2   -1    0    0    0  501 -0.00000000000E+00 -0.00000000000E+00 -0.12302584049E+03  0.12302584049E+03  0.00000000000E+00 0.  1.
       24    2    1    2    0    0 -0.88608801982E+01 -0.30396661446E+02  0.25870537301E+02  0.89853497550E+02  0.80011837230E+02 0.  0.
      -24    2    1    2    0    0  0.88608801982E+01  0.30396661446E+02 -0.71320211396E+02  0.11074850933E+03  0.78588724006E+02 0.  0.
      -13    1    3    3    0    0 -0.42022971004E+02 -0.22932771343E+02  0.12633550134E+01  0.47889854451E+02  0.00000000000E+00 0.  1.
       14    1    3    3    0    0  0.33162090805E+02 -0.74638901024E+01  0.24607182287E+02  0.41963643099E+02  0.00000000000E+00 0. -1.
        1    1    4    4  502    0 -0.78505025974E+00  0.79414573293E+01  0.17176194356E+02  0.18939501075E+02  0.00000000000E+00 0. -1.
       -2    1    4    4    0  502  0.96459304579E+01  0.22455204117E+02 -0.88496405752E+02  0.91809008258E+02  0.00000000000E+00 0.  1.
</event>
<event>
 8   1  0.2279600E-02  0.9548758E+02  0.7546771E-02  0.1290546E+00
        2   -1    0    0  501    0  0.00000000000E+00  0.00000000000E+00  0.27430553013E+04  0.27430553013E+04  0.00000000000E+00 0. -1.
       -2   -1    0    0    0  501 -0.00000000000E+00 -0.00000000000E+00 -0.32956401155E+01  0.32956401155E+01  0.00000000000E+00 0.  1.
       24    2    1    2    0    0 -0.19557100946E+02 -0.45649123637E+02  0.13900865014E+04  0.13933622497E+04  0.81557065258E+02 0.  0.
      -24    2    1    2    0    0  0.19557100946E+02  0.45649123637E+02  0.13496731598E+04  0.13529886917E+04  0.80588081736E+02 0.  0.
      -13    1    3    3    0    0  0.17045914309E+02 -0.44383946385E+02  0.10919467622E+04  0.10929813490E+04  0.00000000000E+00 0.  1.
       14    1    3    3    0    0 -0.36603015255E+02 -0.12651772520E+01  0.29813973917E+03  0.30038090065E+03  0.00000000000E+00 0. -1.
        3    1    4    4  502    0 -0.17938812988E+02  0.43058332430E+02  0.10395927861E+04  0.10406387375E+04  0.00000000000E+00 0. -1.
       -4    1    4    4    0  502  0.37495913934E+02  0.25907912070E+01  0.31008037366E+03  0.31234995420E+03  0.00000000000E+00 0.  1.
</event>
<event>
 8   1  0.2279600E-02  0.1066530E+03  0.7546771E-02  0.1267265E+00
        1   -1    0    0  501    0  0.00000000000E+00  0.00000000000E+00  0.97124695285E+03  0.97124695285E+03  0.00000000000E+00 0. -1.
       -1   -1    0    0    0  501 -0.00000000000E+00 -0.00000000000E+00 -0.12008179301E+02  0.12008179301E+02  0.00000000000E+00 0.  1.
       24    2    1    2    0    0  0.67431322577E+02 -0.14983075425E+02  0.39383074281E+03  0.40801656016E+03  0.81261205808E+02 0.  0.
      -24    2    1    2    0    0 -0.67431322577E+02  0.14983075425E+02  0.56540803074E+03  0.57523857199E+03  0.80260187321E+02 0.  0.
      -13    1    3    3    0    0  0.82508599180E+02 -0.47974751496E+01  0.25651881650E+03  0.26950433749E+03  0.00000000000E+00 0.  1.
       14    1    3    3    0    0 -0.15077276602E+02 -0.10185600275E+02  0.13731192631E+03  0.13851222267E+03  0.00000000000E+00 0. -1.
        1    1    4    4  502    0 -0.45194469647E+02 -0.30861630368E+02  0.27454430661E+03  0.27994563153E+03  0.00000000000E+00 0. -1.
       -2    1    4    4    0  502 -0.22236852930E+02  0.45844705793E+02  0.29086372412E+03  0.29529294046E+03  0.00000000000E+00 0.  1.
</event>
<event>
 8   1  0.2279600E-02  0.7978930E+02  0.7546771E-02  0.1332755E+00
        2   -1    0    0  501    0  0.00000000000E+00  0.00000000000E+00  0.30535909843E+03  0.30535909843E+03  0.00000000000E+00 0. -1.
       -2   -1    0    0    0  501 -0.00000000000E+00 -0.00000000000E+00 -0.31540652711E+02  0.31540652711E+02  0.00000000000E+00 0.  1.
      -24    2    1    2    0    0  0.14716279259E+02 -0.89593171044E+01  0.31634787084E+02  0.81911013011E+02  0.73565046458E+02 0.  0.
       24    2    1    2    0    0 -0.14716279259E+02  0.89593171044E+01  0.24218365864E+03  0.25498873813E+03  0.77906956204E+02 0.  0.
      -13    1    4    4    0    0  0.20110084497E+02 -0.22490135641E+02  0.12864316844E+03  0.13213359333E+03  0.00000000000E+00 0.  1.
       14    1    4    4    0    0 -0.34826363756E+02  0.31449452745E+02  0.11354049020E+03  0.12285514480E+03  0.00000000000E+00 0. -1.
        1    1    3    3  502    0  0.28752203014E+02  0.30025779390E+01  0.48798128393E+02  0.56718268548E+02  0.00000000000E+00 0. -1.
       -2    1    3    3    0  502 -0.14035923755E+02 -0.11961895043E+02 -0.17163341309E+02  0.25192744463E+02  0.00000000000E+00 0.  1.
</event>
<event>
 8   1  0.2279600E-02  0.9597590E+02  0.7546771E-02  0.1289716E+00
       -2   -1    0    0    0  501 -0.00000000000E+00  0.00000000000E+00  0.34307548751E+02  0.34307548751E+02  0.00000000000E+00 0.  1.
        2   -1    0    0  501    0  0.00000000000E+00 -0.00000000000E+00 -0.21675143665E+04  0.21675143665E+04  0.00000000000E+00 0. -1.
      -24    2    1    2    0    0  0.33714129974E+02 -0.39240401443E+02 -0.36041162529E+02  0.10251994496E+03  0.80838864742E+02 0.  0.
       24    2    1    2    0    0 -0.33714129974E+02  0.39240401443E+02 -0.20971656553E+04  0.20993019703E+04  0.79300223032E+02 0.  0.
      -13    1    4    4    0    0 -0.47031597883E+02  0.16611203681E+02 -0.65467328651E+03  0.65657064765E+03  0.00000000000E+00 0.  1.
       14    1    4    4    0    0  0.13317467909E+02  0.22629197762E+02 -0.14424923688E+04  0.14427313227E+04  0.00000000000E+00 0. -1.
        3    1    3    3  502    0  0.33938964174E+02  0.13243396060E+02 -0.34253191804E+02  0.50005219500E+02  0.00000000000E+00 0. -1.
       -4    1    3    3    0  502 -0.22483420035E+00 -0.52483797503E+02 -0.17879707245E+01  0.52514725460E+02  0.00000000000E+00 0.  1.
</event>
<event>
 8   1  0.2279600E-02  0.9009754E+02  0.7546771E-02  0.1304891E+00
       -2   -1    0    0    0  501 -0.00000000000E+00  0.00000000000E+00  0.25977862235E+02  0.25977862235E+02  0.00000000000E+00 0.  1.
        2   -1    0    0  501    0  0.00000000000E+00 -0.00000000000E+00 -0.11532147387E+04  0.11532147387E+04  0.00000000000E+00 0. -1.
      -24    2    1    2    0    0 -0.52965188657E+01  0.28399955781E+02 -0.53406871846E+02  0.10158949911E+03  0.81446434960E+02 0.  0.
       24    2    1    2    0    0  0.52965188657E+01 -0.28399955781E+02 -0.10738300046E+04  0.10776031018E+04  0.85340234650E+02 0.  0.
      -13    1    4    4    0    0  0.34450968790E+01  0.29500602110E+02 -0.25439563925E+03  0.25612359417E+03  0.00000000000E+00 0.  1.
       14    1    4    4    0    0  0.18514219867E+01 -0.57900557891E+02 -0.81943436532E+03  0.82147950762E+03  0.00000000000E+00 0. -1.
        1    1    3    3  502    0 -0.29845776951E+02  0.13115699882E+02 -0.63154552901E+02  0.71072424592E+02  0.00000000000E+00 0. -1.
       -2    1    3    3    0  502  0.24549258086E+02  0.15284255898E+02  0.97476810550E+01  0.30517074514E+02  0.00000000000E+00 0.  1.
</event>
<event>
 8   1  0.2279600E-02  0.9501267E+02  0.7546771E-02  0.1292147E+00
       -2   -1    0    0    0  501 -0.00000000000E+00  0.00000000000E+00  0.83938736755E+02  0.83938736755E+02  0.00000000000E+00 0.  1.
        2   -1    0    0  501    0  0.00000000000E+00 -0.00000000000E+00 -0.11839886122E+04  0.11839886122E+04  0.00000000000E+00 0. -1.
       24    2    1    2    0    0  0.18761498187E+02 -0.45764852712E+02 -0.11555213017E+04  0.11594209267E+04  0.81123307911E+02 0.  0.
      -24    2    1    2    0    0 -0.18761498187E+02  0.45764852712E+02  0.55471426240E+02  0.10850642225E+03  0.79057883739E+02 0.  0.
      -13    1    3    3    0    0  0.23321635707E+02 -0.25171867551E+02 -0.15829911553E+03  0.16197571295E+03  0.00000000000E+00 0.  1.
       14    1    3    3    0    0 -0.45601375199E+01 -0.20592985161E+02 -0.99722218617E+03  0.99744521378E+03  0.00000000000E+00 0. -1.
        1    1    4    4  502    0 -0.42622283474E+02  0.48148137711E+02  0.23328194421E+02  0.68403997460E+02  0.00000000000E+00 0. -1.
       -2    1    4    4    0  502  0.23860785286E+02 -0.23832849988E+01  0.32143231819E+02  0.40102424785E+02  0.00000000000E+00 0.  1.
</event>
<event>
 8   1  0.2279600E-02  0.9852832E+02  0.7546771E-02  0.1291752E+00
       -1   -1    0    0    0  501 -0.00000000000E+00  0.00000000000E+00  0.13519573809E+02  0.13519573809E+02  0.00000000000E+00 0.  1.
        1   -1    0    0  501    0  0.00000000000E+00 -0.00000000000E+00 -0.72045207358E+03  0.72045207358E+03  0.00000000000E+00 0. -1.
       24    2    1    2    0    0  0.14130614483E+02  0.77069255033E+01 -0.23894202626E+03  0.25845912946E+03  0.97204725836E+02 0.  0.
      -24    2    1    2    0    0 -0.14130614483E+02 -0.77069255033E+01 -0.46799047352E+03  0.47551251793E+03  0.82692203001E+02 0.  0.
      -13    1    3    3    0    0  0.16104337772E+02 -0.20625520339E+02 -0.10399546625E+02  0.28158699443E+02  0.00000000000E+00 0.  1.
       14    1    3    3    0    0 -0.19737232891E+01  0.28332445843E+02 -0.22854247963E+03  0.23030043002E+03  0.00000000000E+00 0. -1.
        1    1    4    4  502    0 -0.29573828959E+02 -0.32077979600E+02 -0.38860438553E+03  0.39104600316E+03  0.00000000000E+00 0. -1.
       -2    1    4    4    0  502  0.15443214476E+02  0.24371054096E+02 -0.79386087986E+02  0.84466514767E+02  0.00000000000E+00 0.  1.
</event>
<event>
 8   1  0.2279600E-02  0.8724612E+02  0.7546771E-02  0.1309969E+00
        1   -1    0    0  501    0  0.00000000000E+00  0.00000000000E+00  0.11930679852E+03  0.11930679852E+03  0.00000000000E+00 0. -1.
       -1   -1    0    0    0  501 -0.00000000000E+00 -0.00000000000E+00 -0.66901518680E+02  0.66901518680E+02  0.00000000000E+00 0.  1.
       24    2    1    2    0    0 -0.32475612158E+02 -0.68046612491E+01  0.47433542566E+02  0.99306727540E+02  0.80690249564E+02 0.  0.
      -24    2    1    2    0    0  0.32475612158E+02  0.68046612491E+01  0.49717372763E+01  0.86901589662E+02  0.80163578479E+02 0.  0.
      -13    1    3    3    0    0 -0.51157263798E+02 -0.14433939614E+01  0.35367439329E+01  0.51299684044E+02  0.00000000000E+00 0.  1.
       14    1    3    3    0    0  0.18681651640E+02 -0.53612672876E+01  0.43896798633E+02  0.48007043496E+02  0.00000000000E+00 0. -1.
        3    1    4    4  502    0  0.51992137903E+02  0.82076833844E-01 -0.18920098330E+02  0.55327744045E+02  0.00000000000E+00 0. -1.
       -4    1    4    4    0  502 -0.19516525745E+02  0.67225844152E+01  0.23891835607E+02  0.31573845617E+02  0.00000000000E+00 0.  1.
</event>
<event>
 8   1  0.2279600E-02  0.8412281E+02  0.7546771E-02  0.1318980E+00
       -4   -1    0    0    0  501 -0.00000000000E+00  0.00000000000E+00  0.96970716018E+03  0.96970716018E+03  0.00000000000E+00 0.  1.
        4   -1    0    0  501    0  0.00000000000E+00 -0.00000000000E+00 -0.12414571360E+02  0.12414571360E+02  0.00000000000E+00 0. -1.
      -24    2    1    2    0    0 -0.20865738049E+02 -0.72182721411E+01  0.80181112803E+03  0.80621196479E+03  0.81173669762E+02 0.  0.
       24    2    1    2    0    0  0.20865738049E+02  0.72182721411E+01  0.15548146080E+03  0.17590976676E+03  0.79260828357E+02 0.  0.
      -13    1    4    4    0    0 -0.64408196862E+01  0.13689895927E+02  0.14525616118E+03  0.14604194524E+03  0.00000000000E+00 0.  1.
       14    1    4    4    0    0  0.27306557736E+02 -0.64716237858E+01  0.10225299615E+02  0.29867821514E+02  0.00000000000E+00 0. -1.
        1    1    3    3  502    0  0.12808485824E+02 -0.36721573182E+02  0.41508232247E+03  0.41690030663E+03  0.00000000000E+00 0. -1.
       -2    1    3    3    0  502 -0.33674223873E+02  0.29503301041E+02  0.38672880556E+03  0.38931165816E+03  0.00000000000E+00 0.  1.
</event>
<event>
 8   1  0.2279600E-02  0.1032512E+03  0.7546771E-02  0.1273886E+00
        3   -1    0    0  501    0  0.00000000000E+00  0.00000000000E+00  0.31627986272E+02  0.31627986272E+02  0.00000000000E+00 0. -1.
       -3   -1    0    0    0  501 -0.00000000000E+00 -0.00000000000E+00 -0.33571984738E+03  0.33571984738E+03  0.00000000000E+00 0.  1.
       24    2    1    2    0    0 -0.58700608926E+02  0.27503843734E+02 -0.14558166837E+03  0.17847922733E+03  0.80365350211E+02 0.  0.
      -24    2    1    2    0    0  0.58700608926E+02 -0.27503843734E+02 -0.15851019274E+03  0.18886860632E+03  0.79647010890E+02 0.  0.
      -13    1    3    3    0    0 -0.68028570973E+02  0.45020424341E+02 -0.12894501122E+03  0.15258289876E+03  0.00000000000E+00 0.  1.
       14    1    3    3    0    0  0.93279620470E+01 -0.17516580607E+02 -0.16636657152E+02  0.25896328568E+02  0.00000000000E+00 0. -1.
        1    1    4    4  502    0  0.68636991256E+02 -0.24455776940E+02 -0.74465296580E+02  0.10418350152E+03  0.00000000000E+00 0. -1.
       -2    1    4    4    0  502 -0.99363823303E+01 -0.30480667940E+01 -0.84044896156E+02  0.84685104799E+02  0.00000000000E+00 0.  1.
</event>
<event>
 8   1  0.2279600E-02  0.8325874E+02  0.7546771E-02  0.1320162E+00
       -1   -1    0    0    0  501 -0.00000000000E+00  0.00000000000E+00  0.14822149635E+03  0.14822149635E+03  0.00000000000E+00 0.  1.
        1   -1    0    0  501    0  0.00000000000E+00 -0.00000000000E+00 -0.14211716809E+03  0.14211716809E+03  0.00000000000E+00 0. -1.
       24    2    1    2    0    0  0.15892007016E+02  0.17652826210E+02  0.12201692018E+03  0.14762304864E+03  0.79625734032E+02 0.  0.
      -24    2    1    2    0    0 -0.15892007016E+02 -0.17652826210E+02 -0.11591259192E+03  0.14271561580E+03  0.79798746012E+02 0.  0.
      -13    1    3    3    0    0  0.74595899214E+01 -0.30112242102E+01  0.12486486449E+03  0.12512372811E+03  0.00000000000E+00 0.  1.
       14    1    3    3    0    0  0.84324170943E+01  0.20664050420E+02 -0.28479443027E+01  0.22499320535E+02  0.00000000000E+00 0. -1.
        1    1    4    4  502    0  0.19122889745E+01 -0.15152237963E+02 -0.12258922261E+03  0.12353689596E+03  0.00000000000E+00 0. -1.
       -2    1    4    4    0  502 -0.17804295990E+02 -0.25005882471E+01  0.66766306810E+01  0.19178719836E+02  0.00000000000E+00 0.  1.
</event>
<event>
 8   1  0.2279600E-02  0.8820689E+02  0.7546771E-02  0.1307306E+00
        1   -1    0    0  501    0  0.00000000000E+00  0.00000000000E+00  0.30692280062E+03  0.30692280062E+03  0.00000000000E+00 0. -1.
       -1   -1    0    0    0  501 -0.00000000000E+00 -0.00000000000E+00 -0.10986491701E+03  0.10986491701E+03  0.00000000000E+00 0.  1.
       24    2    1    2    0    0 -0.18056414105E+02  0.33010971618E+02 -0.84285943597E+02  0.12194063214E+03  0.79684622988E+02 0.  0.
      -24    2    1    2    0    0  0.18056414105E+02 -0.33010971618E+02  0.28134382720E+03  0.29484708549E+03  0.79779047241E+02 0.  0.
      -13    1    3    3    0    0  0.26846226711E+02  0.22658786370E+02 -0.60801628628E+02  0.70220926598E+02  0.00000000000E+00 0.  1.
       14    1    3    3    0    0 -0.44902640816E+02  0.10352185247E+02 -0.23484314969E+02  0.51719705540E+02  0.00000000000E+00 0. -1.
        1    1    4    4  502    0  0.44127259128E+02 -0.22558889969E+02  0.23865533494E+03  0.24374676903E+03  0.00000000000E+00 0. -1.
       -2    1    4    4    0  502 -0.26070845023E+02 -0.10452081648E+02  0.42688492261E+02  0.51100316462E+02  0.00000000000E+00 0.  1.
</event>
<event>
 8   1  0.2279600E-02  0.8614633E+02  0.7546771E-02  0.1314705E+00
       -1   -1    0    0    0  501 -0.00000000000E+00  0.00000000000E+00  0.65562457121E+01  0.65562457121E+01  0.00000000000E+00 0.  1.
        1   -1    0    0  501    0  0.00000000000E+00 -0.00000000000E+00 -0.11136631613E+04  0.11136631613E+04  0.00000000000E+00 0. -1.
       24    2    1    2    0    0  0.14466348037E+02  0.27499631109E+02 -0.47859573767E+03  0.48628702382E+03  0.80347274278E+02 0.  0.
      -24    2    1    2    0    0 -0.14466348037E+02 -0.27499631109E+02 -0.62851117796E+03  0.63393238324E+03  0.76671120735E+02 0.  0.
      -13    1    3    3    0    0  0.23896265003E+02  0.19295374825E+02 -0.59094115583E+02  0.66599230231E+02  0.00000000000E+00 0.  1.
       14    1    3    3    0    0 -0.94299169668E+01  0.82042562842E+01 -0.41950162209E+03  0.41968779359E+03  0.00000000000E+00 0. -1.
        3    1    4    4  502    0 -0.14031685954E+02  0.19874125752E+02 -0.86543275704E+02  0.89897762234E+02  0.00000000000E+00 0. -1.
       -4    1    4    4    0  502 -0.43466208266E+00 -0.47373756861E+02 -0.54196790226E+03  0.54403462100E+03  0.00000000000E+00 0.  1.
</event>
<event>
 8   1  0.2279600E-02  0.8900313E+02  0.7546771E-02  0.1306246E+00
       -1   -1    0    0    0  501 -0.00000000000E+00  0.00000000000E+00  0.41676417303E+02  0.41676417303E+02  0.00000000000E+00 0.  1.
        1   -1    0    0  501    0  0.00000000000E+00 -0.00000000000E+00 -0.19149665056E+03  0.19149665056E+03  0.00000000000E+00 0. -1.
       24    2    1    2    0    0  0.32698743904E+02 -0.25864890604E+02 -0.57247794282E+02  0.10582469963E+03  0.78634322550E+02 0.  0.
      -24    2    1    2    0    0 -0.32698743904E+02  0.25864890604E+02 -0.92572438975E+02  0.12734836823E+03  0.76874898469E+02 0.  0.
      -13    1    3    3    0    0  0.41255910148E+02 -0.46149743158E+02 -0.24958670745E+02  0.66744169491E+02  0.00000000000E+00 0.  1.
       14    1    3    3    0    0 -0.85571662438E+01  0.20284852554E+02 -0.32289123537E+02  0.39080530140E+02  0.00000000000E+00 0. -1.
        1    1    4    4  502    0 -0.62528486460E+01  0.49712600725E+02 -0.41348775592E+02  0.64962774187E+02  0.00000000000E+00 0. -1.
       -2    1    4    4    0  502 -0.26445895258E+02 -0.23847710121E+02 -0.51223663383E+02  0.62385594045E+02  0.00000000000E+00 0.  1.
</event>
<event>
 8   1  0.2279600E-02  0.1035427E+03  0.7546771E-02  0.1274257E+00
        4   -1    0    0  501    0  0.00000000000E+00  0.00000000000E+00  0.30584321590E+03  0.30584321590E+03  0.00000000000E+00 0. -1.
       -4   -1    0    0    0  501 -0.00000000000E+00 -0.00000000000E+00 -0.90015325531E+02  0.90015325531E+02  0.00000000000E+00 0.  1.
       24    2    1    2    0    0  0.28421582203E+02  0.57602250146E+02  0.26420985775E+03  0.28377446169E+03  0.81211394617E+02 0.  0.
      -24    2    1    2    0    0 -0.28421582203E+02 -0.57602250146E+02 -0.48381967376E+02  0.11208407975E+03  0.78078297942E+02 0.  0.
      -13    1    3    3    0    0 -0.65553580314E+01  0.21808611476E+02  0.10324580200E+02  0.25003703920E+02  0.00000000000E+00 0.  1.
       14    1    3    3    0    0  0.34976940234E+02  0.35793638670E+02  0.25388527755E+03  0.25877075776E+03  0.00000000000E+00 0. -1.
        3    1    4    4  502    0  0.71941642562E+01  0.14369043256E+02 -0.22628540565E+02  0.27753851112E+02  0.00000000000E+00 0. -1.
       -4    1    4    4    0  502 -0.35615746459E+02 -0.71971293402E+02 -0.25753426811E+02  0.84330228639E+02  0.00000000000E+00 0.  1.
</event>
<event>
 8   1  0.2279600E-02  0.1716806E+03  0.7546771E-02  0.1180176E+00
       -2   -1    0    0    0  501 -0.00000000000E+00  0.00000000000E+00  0.52406422290E+02  0.52406422290E+02  0.00000000000E+00 0.  1.
        2   -1    0    0  501    0  0.00000000000E+00 -0.00000000000E+00 -0.16005212971E+04  0.16005212971E+04  0.00000000000E+00 0. -1.
       24    2    1    2    0    0  0.12903197088E+03  0.31389156405E+02 -0.14433133174E+04  0.14517870017E+04  0.83052017284E+02 0.  0.
      -24    2    1    2    0    0 -0.12903197088E+03 -0.31389156405E+02 -0.10480155737E+03  0.20114071762E+03  0.10881035432E+03 0.  0.
      -13    1    3    3    0    0  0.18301268899E+02 -0.24402241336E+02 -0.20098249253E+03  0.20328395935E+03  0.00000000000E+00 0.  1.
       14    1    3    3    0    0  0.11073070198E+03  0.55791397740E+02 -0.12423308249E+04  0.12485030424E+04  0.00000000000E+00 0. -1.
        3    1    4    4  502    0 -0.12069900708E+03 -0.64226497218E+02 -0.92608430325E+02  0.16513514049E+03  0.00000000000E+00 0. -1.
       -4    1    4    4    0  502 -0.83329637974E+01  0.32837340813E+02 -0.12193127047E+02  0.36005577131E+02  0.00000000000E+00 0.  1.
</event>
<event>
 8   1  0.2279600E-02  0.8374150E+02  0.7546771E-02  0.1323213E+00
        2   -1    0    0  501    0  0.00000000000E+00  0.00000000000E+00  0.47205728627E+03  0.47205728627E+03  0.00000000000E+00 0. -1.
       -2   -1    0    0    0  501 -0.00000000000E+00 -0.00000000000E+00 -0.13905206444E+02  0.13905206444E+02  0.00000000000E+00 0.  1.
      -24    2    1    2    0    0  0.68720307161E+01 -0.28427223148E+02  0.26438873439E+03  0.27733381037E+03  0.78468513952E+02 0.  0.
       24    2    1    2    0    0 -0.68720307161E+01  0.28427223148E+02  0.19376334544E+03  0.20862868235E+03  0.71598611987E+02 0.  0.
      -13    1    4    4    0    0  0.23993885305E+02  0.25737047213E+02  0.47461413802E+02  0.59082044069E+02  0.00000000000E+00 0.  1.
       14    1    4    4    0    0 -0.30865916021E+02  0.26901759357E+01  0.14630193164E+03  0.14954663828E+03  0.00000000000E+00 0. -1.
        3    1    3    3  502    0 -0.25815444277E+02 -0.31952175240E+02  0.20836677104E+03  0.21237723498E+03  0.00000000000E+00 0. -1.
       -4    1    3    3    0  502  0.32687474993E+02  0.35249520912E+01  0.56021963346E+02  0.64956575386E+02  0.00000000000E+00 0.  1.
</event>
<event>
 8   1  0.2279600E-02  0.1522113E+03  0.7546771E-02  0.1197790E+00
        2   -1    0    0  501    0  0.00000000000E+00  0.00000000000E+00  0.11847325972E+04  0.11847325972E+04  0.00000000000E+00 0. -1.
       -2   -1    0    0    0  501 -0.00000000000E+00 -0.00000000000E+00 -0.21581666194E+02  0.21581666194E+02  0.00000000000E+00 0.  1.
      -24    2    1    2    0    0  0.84085960727E+02  0.97404571938E+02  0.39656277812E+03  0.42476089564E+03  0.81250735674E+02 0.  0.
       24    2    1    2    0    0 -0.84085960727E+02 -0.97404571938E+02  0.76658815288E+03  0.78155336775E+03  0.81302958604E+02 0.  0.
      -13    1    4    4    0    0  0.32143653933E+01  0.15649222876E+01 -0.11330833117E+00  0.35768653072E+01  0.00000000000E+00 0.  1.
       14    1    4    4    0    0 -0.87300326120E+02 -0.98969494226E+02  0.76670146121E+03  0.77797650244E+03  0.00000000000E+00 0. -1.
        1    1    3    3  502    0  0.41362446641E+02  0.11450686874E+02  0.53853502731E+02  0.68863415384E+02  0.00000000000E+00 0. -1.
       -2    1    3    3    0  502  0.42723514086E+02  0.85953885065E+02  0.34270927539E+03  0.35589748026E+03  0.00000000000E+00 0.  1.
</event>
<event>
 8   1  0.2279600E-02  0.8996800E+02  0.7546771E-02  0.1305176E+00
       -3   -1    0    0    0  501 -0.00000000000E+00  0.00000000000E+00  0.10871113341E+04  0.10871113341E+04  0.00000000000E+00 0.  1.
        3   -1    0    0  501    0  0.00000000000E+00 -0.00000000000E+00 -0.14033888640E+02  0.14033888640E+02  0.00000000000E+00 0. -1.
       24    2    1    2    0    0 -0.13285110057E+02 -0.14842242051E+02  0.91652191062E+03  0.92057978704E+03  0.84011578813E+02 0.  0.
      -24    2    1    2    0    0  0.13285110057E+02  0.14842242051E+02  0.15655553484E+03  0.18056543569E+03  0.87735139937E+02 0.  0.
      -13    1    3    3    0    0 -0.18082206028E+02  0.15763487694E+02  0.80846751408E+02  0.84330604956E+02  0.00000000000E+00 0.  1.
       14    1    3    3    0    0  0.47970959710E+01 -0.30605729745E+02  0.83567515921E+03  0.83624918209E+03  0.00000000000E+00 0. -1.
        1    1    4    4  502    0 -0.23123832756E+02  0.13270149683E+02  0.13627706932E+03  0.13886053484E+03  0.00000000000E+00 0. -1.
       -2    1    4    4    0  502  0.36408942813E+02  0.15720923672E+01  0.20278465519E+02  0.41704900850E+02  0.00000000000E+00 0.  1.
</event>
<event>
 8   1  0.2279600E-02  0.1102194E+03  0.7546771E-02  0.1260425E+00
        2   -1    0    0  501    0  0.00000000000E+00  0.00000000000E+00  0.92756268700E+03  0.92756268700E+03  0.00000000000E+00 0. -1.
       -2   -1    0    0    0  501 -0.00000000000E+00 -0.00000000000E+00 -0.24319982244E+02  0.24319982244E+02  0.00000000000E+00 0.  1.
      -24    2    1    2    0    0 -0.43251912836E+02  0.58320473170E+02  0.12672388389E+03  0.16758056375E+03  0.82172361803E+02 0.  0.
       24    2    1    2    0    0  0.43251912836E+02 -0.58320473170E+02  0.77651882086E+03  0.78430210549E+03  0.82923506729E+02 0.  0.
      -13    1    4    4    0    0 -0.22177955231E+02  0.47136546743E+00  0.14523752425E+03  0.14692182389E+03  0.00000000000E+00 0.  1.
       14    1    4    4    0    0  0.65429868067E+02 -0.58791838637E+02  0.63128129661E+03  0.63738028160E+03  0.00000000000E+00 0. -1.
        1    1    3    3  502    0 -0.15259883571E+01 -0.20425550749E+02  0.25793156786E+02  0.32936586053E+02  0.00000000000E+00 0. -1.
       -2    1    3    3    0  502 -0.41725924479E+02  0.78746023918E+02  0.10093072711E+03  0.13464397770E+03  0.00000000000E+00 0.  1.
</event>
<event>
 8   1  0.2279600E-02  0.9381984E+02  0.7546771E-02  0.1294148E+00
        2   -1    0    0  501    0  0.00000000000E+00  0.00000000000E+00  0.89859384652E+03  0.89859384652E+03  0.00000000000E+00 0. -1.
       -2   -1    0    0    0  501 -0.00000000000E+00 -0.00000000000E+00 -0.10059780165E+02  0.10059780165E+02  0.00000000000E+00 0.  1.
      -24    2    1    2    0    0  0.36017852341E+02 -0.30997713661E+02  0.52610175525E+03  0.53440174017E+03  0.80895111604E+02 0.  0.
       24    2    1    2    0    0 -0.36017852341E+02  0.30997713661E+02  0.36243231111E+03  0.37425188651E+03  0.80306603007E+02 0.  0.
      -13    1    4    4    0    0 -0.10768316279E+02 -0.17205436601E+02  0.23819636993E+02  0.31294708668E+02  0.00000000000E+00 0.  1.
       14    1    4    4    0    0 -0.25249536062E+02  0.48203150263E+02  0.33861267411E+03  0.34295717785E+03  0.00000000000E+00 0. -1.
        3    1    3    3  502    0  0.49433154786E+02 -0.45883721081E+02  0.30370338990E+03  0.31110239743E+03  0.00000000000E+00 0. -1.
       -4    1    3    3    0  502 -0.13415302445E+02  0.14886007419E+02  0.22239836535E+03  0.22329934274E+03  0.00000000000E+00 0.  1.
</event>
<event>
 8   1  0.2279600E-02  0.8744138E+02  0.7546771E-02  0.1310318E+00
       -2   -1    0    0    0  501 -0.00000000000E+00  0.00000000000E+00  0.18894271600E+02  0.18894271600E+02  0.00000000000E+00 0.  1.
        2   -1    0    0  501    0  0.00000000000E+00 -0.00000000000E+00 -0.63670540518E+03  0.63670540518E+03  0.00000000000E+00 0. -1.
      -24    2    1    2    0    0  0.27416481503E+02  0.16538084434E+02 -0.10951911564E+03  0.14014432283E+03  0.81368438821E+02 0.  0.
       24    2    1    2    0    0 -0.27416481503E+02 -0.16538084434E+02 -0.50829201793E+03  0.51545535395E+03  0.79424648065E+02 0.  0.
      -13    1    4    4    0    0 -0.26399188718E+02  0.28097185859E+02 -0.17570599158E+03  0.17988597637E+03  0.00000000000E+00 0.  1.
       14    1    4    4    0    0 -0.10172927850E+01 -0.44635270293E+02 -0.33258602635E+03  0.33556937757E+03  0.00000000000E+00 0. -1.
        3    1    3    3  502    0 -0.21384781840E+02  0.15777576888E+02 -0.77099467096E+02  0.81551018714E+02  0.00000000000E+00 0. -1.
       -4    1    3    3    0  502  0.48801263344E+02  0.76050754666E+00 -0.32419648549E+02  0.58593304120E+02  0.00000000000E+00 0.  1.
</event>
<event>
 8   1  0.2279600E-02  0.1559679E+03  0.7546771E-02  0.1193347E+00
        2   -1    0    0  501    0  0.00000000000E+00  0.00000000000E+00  0.61140380482E+03  0.61140380482E+03  0.00000000000E+00 0. -1.
       -2   -1    0    0    0  501 -0.00000000000E+00 -0.00000000000E+00 -0.40775254971E+02  0.40775254971E+02  0.00000000000E+00 0.  1.
      -24    2    1    2    0    0  0.13188940955E+03  0.23613458842E+02  0.33648742287E+03  0.37084642083E+03  0.79692347827E+02 0.  0.
       24    2    1    2    0    0 -0.13188940955E+03 -0.23613458842E+02  0.23414112698E+03  0.28133263896E+03  0.79834670500E+02 0.  0.
      -13    1    4    4    0    0 -0.88319595715E+02 -0.18616726265E+02  0.78467724171E+02  0.11959982116E+03  0.00000000000E+00 0.  1.
       14    1    4    4    0    0 -0.43569813831E+02 -0.49967325767E+01  0.15567340281E+03  0.16173281781E+03  0.00000000000E+00 0. -1.
        3    1    3    3  502    0  0.10238982403E+03 -0.18848389821E+02  0.21912438071E+03  0.24259932417E+03  0.00000000000E+00 0. -1.
       -4    1    3    3    0  502  0.29499585517E+02  0.42461848662E+02  0.11736304215E+03  0.12824709666E+03  0.00000000000E+00 0.  1.
</event>
<event>
 8   1  0.2279600E-02  0.8338762E+02  0.7546771E-02  0.1321275E+00
        1   -1    0    0  501    0  0.00000000000E+00  0.00000000000E+00  0.30919060114E+03  0.30919060114E+03  0.00000000000E+00 0. -1.
       -1   -1    0    0    0  501 -0.00000000000E+00 -0.00000000000E+00 -0.36264311556E+02  0.36264311556E+02  0.00000000000E+00 0.  1.
       24    2    1    2    0    0 -0.83631238618E+01 -0.21550503216E+02  0.26498073962E+02  0.85300418375E+02  0.77715168543E+02 0.  0.
      -24    2    1    2    0    0  0.83631238618E+01  0.21550503216E+02  0.24642821562E+03  0.26015449432E+03  0.80119469742E+02 0.  0.
      -13    1    3    3    0    0 -0.38220839195E+02 -0.28866142357E+02  0.26122914372E+02  0.54557248635E+02  0.00000000000E+00 0.  1.
       14    1    3    3    0    0  0.29857715333E+02  0.73156391415E+01  0.37515959086E+00  0.30743169740E+02  0.00000000000E+00 0. -1.
        1    1    4    4  502    0  0.12125319754E+01  0.19349545436E+02  0.25076062484E+03  0.25150897819E+03  0.00000000000E+00 0. -1.
       -2    1    4    4    0  502  0.71505918863E+01  0.22009577794E+01 -0.43324092183E+01  0.86455161272E+01  0.00000000000E+00 0.  1.
</event>
<event>
 8   1  0.2279600E-02  0.1186542E+03  0.7546771E-02  0.1247058E+00
        1   -1    0    0  501    0  0.00000000000E+00  0.00000000000E+00  0.56690098121E+03  0.56690098121E+03  0.00000000000E+00 0. -1.
       -1   -1    0    0    0  501 -0.00000000000E+00 -0.00000000000E+00 -0.45710821447E+02  0.45710821447E+02  0.00000000000E+00 0.  1.
       24    2    1    2    0    0  0.23467463878E+02 -0.78026314780E+02  0.47122702761E+02  0.12392092010E+03  0.80604079705E+02 0.  0.
      -24    2    1    2    0    0 -0.23467463878E+02  0.78026314780E+02  0.47406745700E+03  0.48869088255E+03  0.86255418621E+02 0.  0.
      -13    1    3    3    0    0  0.33317076214E+02 -0.91457007427E+02  0.44628389588E+02  0.10707989976E+03  0.00000000000E+00 0.  1.
       14    1    3    3    0    0 -0.98496123357E+01  0.13430692646E+02  0.24943131725E+01  0.16841020347E+02  0.00000000000E+00 0. -1.
        3    1    4    4  502    0 -0.35139391651E+02  0.81207424642E+02  0.26719663305E+03  0.28146662924E+03  0.00000000000E+00 0. -1.
       -4    1    4    4    0  502  0.11671927773E+02 -0.31811098622E+01  0.20687082395E+03  0.20722425331E+03  0.00000000000E+00 0.  1.
</event>
<event>
 8   1  0.2279600E-02  0.8736945E+02  0.7546771E-02  0.1312207E+00
        2   -1    0    0  501    0  0.00000000000E+00  0.00000000000E+00  0.19837265373E+04  0.19837265373E+04  0.00000000000E+00 0. -1.
       -2   -1    0    0    0  501 -0.00000000000E+00 -0.00000000000E+00 -0.45640194481E+01  0.45640194481E+01  0.00000000000E+00 0.  1.
      -24    2    1    2    0    0  0.22648204334E+02 -0.14625027259E+00  0.56685551526E+03  0.57354912302E+03  0.84382810982E+02 0.  0.
       24    2    1    2    0    0 -0.22648204334E+02  0.14625027259E+00  0.14123070026E+04  0.14147414337E+04  0.79807845381E+02 0.  0.
      -13    1    4    4    0    0  0.21112465045E+02  0.89107800486E+01  0.15929560788E+03  0.16093548046E+03  0.00000000000E+00 0.  1.
       14    1    4    4    0    0 -0.43760669379E+02 -0.87645297760E+01  0.12530113947E+04  0.12538059532E+04  0.00000000000E+00 0. -1.
        3    1    3    3  502    0  0.13984619168E+02  0.40428300197E+02  0.36318601272E+03  0.36569672799E+03  0.00000000000E+00 0. -1.
       -4    1    3    3    0  502  0.86635851657E+01 -0.40574550470E+02  0.20366950255E+03  0.20785239503E+03  0.00000000000E+00 0.  1.
</event>
<event>
 8   1  0.2279600E-02  0.1117592E+03  0.7546771E-02  0.1260395E+00
        2   -1    0    0  501    0  0.00000000000E+00  0.00000000000E+00  0.97775312031E+03  0.97775312031E+03  0.00000000000E+00 0. -1.
       -2   -1    0    0    0  501 -0.00000000000E+00 -0.00000000000E+00 -0.12064723770E+02  0.12064723770E+02  0.00000000000E+00 0.  1.
       24    2    1    2    0    0 -0.51481594073E+02  0.45022718546E+02  0.47533198087E+03  0.48829356692E+03  0.88389568046E+02 0.  0.
      -24    2    1    2    0    0  0.51481594073E+02 -0.45022718546E+02  0.49035641566E+03  0.50152427716E+03  0.79998665516E+02 0.  0.
      -13    1    3    3    0    0 -0.47313100511E+02  0.19403901160E+02  0.10239320732E+03  0.11445265294E+03  0.00000000000E+00 0.  1.
       14    1    3    3    0    0 -0.41684935618E+01  0.25618817387E+02  0.37293877356E+03  0.37384091398E+03  0.00000000000E+00 0. -1.
        3    1    4    4  502    0  0.57919931996E+02 -0.32063102973E+02  0.47780202985E+03  0.48236660417E+03  0.00000000000E+00 0. -1.
       -4    1    4    4    0  502 -0.64383379236E+01 -0.12959615573E+02  0.12554385814E+02  0.19157672985E+02  0.00000000000E+00 0.  1.
</event>
<event>
 8   1  0.2279600E-02  0.8523324E+02  0.7546771E-02  0.1316604E+00
       -2   -1    0    0    0  501 -0.00000000000E+00  0.00000000000E+00  0.18591863636E+03  0.18591863636E+03  0.00000000000E+00 0.  1.
        2   -1    0    0  501    0  0.00000000000E+00 -0.00000000000E+00 -0.38048016142E+02  0.38048016142E+02  0.00000000000E+00 0. -1.
      -24    2    1    2    0    0  0.18179992445E+02  0.11136769977E+02  0.64743707535E+02  0.10490872927E+03  0.79746812099E+02 0.  0.
       24    2    1    2    0    0 -0.18179992445E+02 -0.11136769977E+02  0.83126912680E+02  0.11905792323E+03  0.82523728115E+02 0.  0.
      -13    1    4    4    0    0 -0.19071509298E+01  0.35647921342E+02  0.34640217964E+02  0.49742901215E+02  0.00000000000E+00 0.  1.
       14    1    4    4    0    0 -0.16272841515E+02 -0.46784691320E+02  0.48486694715E+02  0.69315022017E+02  0.00000000000E+00 0. -1.
        1    1    3    3  502    0 -0.25961169831E+01  0.94769325098E+00 -0.18399266237E+02  0.18605669672E+02  0.00000000000E+00 0. -1.
       -2    1    3    3    0  502  0.20776109428E+02  0.10189076726E+02  0.83142973772E+02  0.86303059593E+02  0.00000000000E+00 0.  1.
</event>
<event>
 8   1  0.2279600E-02  0.9813498E+02  0.7546771E-02  0.1288687E+00
        2   -1    0    0  501    0  0.00000000000E+00  0.00000000000E+00  0.34637304276E+04  0.34637304276E+04  0.00000000000E+00 0. -1.
       -2   -1    0    0    0  501 -0.00000000000E+00 -0.00000000000E+00 -0.29558396937E+01  0.29558396937E+01  0.00000000000E+00 0.  1.
      -24    2    1    2    0    0 -0.36384524617E+02  0.20702766710E+02  0.10363240450E+04  0.10402504224E+04  0.80006104564E+02 0.  0.
       24    2    1    2    0    0  0.36384524617E+02 -0.20702766710E+02  0.24244505428E+04  0.24264358449E+04  0.88758303619E+02 0.  0.
      -13    1    4    4    0    0  0.89589635438E+01  0.30798497360E+02  0.45897386664E+03  0.46009327394E+03  0.00000000000E+00 0.  1.
       14    1    4    4    0    0  0.27425561073E+02 -0.51501264070E+02  0.19654766762E+04  0.19663425709E+04  0.00000000000E+00 0. -1.
        3    1    3    3  502    0  0.13175704415E+02 -0.18735755140E+02  0.43434915512E+03  0.43495265979E+03  0.00000000000E+00 0. -1.
       -4    1    3    3    0  502 -0.49560229031E+02  0.39438521850E+02  0.60197488993E+03  0.60529776260E+03  0.00000000000E+00 0.  1.
</event>
<event>
 8   1  0.2279600E-02  0.1062730E+03  0.7546771E-02  0.1271139E+00
       -1   -1    0    0    0  501 -0.00000000000E+00  0.00000000000E+00  0.51903830981E+01  0.51903830981E+01  0.00000000000E+00 0.  1.
        1   -1    0    0  501    0  0.00000000000E+00 -0.00000000000E+00 -0.21273573709E+04  0.21273573709E+04  0.00000000000E+00 0. -1.
       24    2    1    2    0    0  0.55933616539E+02 -0.42790383850E+02 -0.13170260363E+04  0.13213067535E+04  0.79588755810E+02 0.  0.
      -24    2    1    2    0    0 -0.55933616539E+02  0.42790383850E+02 -0.80514095150E+03  0.81124100053E+03  0.70003019587E+02 0.  0.
      -13    1    3    3    0    0 -0.10293687758E+02 -0.37849090011E+02 -0.42119490974E+03  0.42301733489E+03  0.00000000000E+00 0.  1.
       14    1    3    3    0    0  0.66227304297E+02 -0.49412938388E+01 -0.89583112660E+03  0.89828941862E+03  0.00000000000E+00 0. -1.
        3    1    4    4  502    0 -0.42016621857E+02  0.62363584441E+02 -0.62417681302E+03  0.62869015190E+03  0.00000000000E+00 0. -1.
       -4    1    4    4    0  502 -0.13916994682E+02 -0.19573200591E+02 -0.18096413848E+03  0.18255084863E+03  0.00000000000E+00 0.  1.
</event>
<event>
 8   1  0.2279600E-02  0.9286507E+02  0.7546771E-02  0.1296745E+00
        1   -1    0    0  501    0  0.00000000000E+00  0.00000000000E+00  0.29982578848E+03  0.29982578848E+03  0.00000000000E+00 0. -1.
       -1   -1    0    0    0  501 -0.00000000000E+00 -0.00000000000E+00 -0.60957090078E+02  0.60957090078E+02  0.00000000000E+00 0.  1.
       24    2    1    2    0    0  0.71506912296E+01 -0.42715614192E+02 -0.12043459377E+02  0.93642762152E+02  0.82147220944E+02 0.  0.
      -24    2    1    2    0    0 -0.71506912296E+01  0.42715614192E+02  0.25091215777E+03  0.26714011640E+03  0.80815684068E+02 0.  0.
      -13    1    3    3    0    0 -0.66757109249E+01 -0.43361090199E+02 -0.41942451588E+02  0.60695292279E+02  0.00000000000E+00 0.  1.
       14    1    3    3    0    0  0.13826402155E+02  0.64547600726E+00  0.29898992211E+02  0.32947469873E+02  0.00000000000E+00 0. -1.
        1    1    4    4  502    0  0.97219610122E+01  0.59761315623E+02  0.12413070192E+03  0.13810996536E+03  0.00000000000E+00 0. -1.
       -2    1    4    4    0  502 -0.16872652242E+02 -0.17045701431E+02  0.12678145585E+03  0.12903015105E+03  0.00000000000E+00 0.  1.
</event>
<event>
 8   1  0.2279600E-02  0.1140486E+03  0.7546771E-02  0.1253627E+00
       -4   -1    0    0    0  501 -0.00000000000E+00  0.00000000000E+00  0.14986051570E+02  0.14986051570E+02  0.00000000000E+00 0.  1.
        4   -1    0    0  501    0  0.00000000000E+00 -0.00000000000E+00 -0.91772520247E+03  0.91772520247E+03  0.00000000000E+00 0. -1.
      -24    2    1    2    0    0  0.81262139561E+02  0.11894271420E+01 -0.56839279990E+03  0.57972188470E+03  0.80013364883E+02 0.  0.
       24    2    1    2    0    0 -0.81262139561E+02 -0.11894271420E+01 -0.33434635100E+03  0.35298936934E+03  0.78797603877E+02 0.  0.
      -13    1    4    4    0    0 -0.47619957356E+02  0.18253043418E+02 -0.28813350846E+03  0.29261194889E+03  0.00000000000E+00 0.  1.
       14    1    4    4    0    0 -0.33642182205E+02 -0.19442470560E+02 -0.46212842534E+02  0.60377420449E+02  0.00000000000E+00 0. -1.
        3    1    3    3  502    0  0.96166711388E+02  0.29632743135E+01 -0.43649685950E+03  0.44697463656E+03  0.00000000000E+00 0. -1.
       -4    1    3    3    0  502 -0.14904571827E+02 -0.17738471715E+01 -0.13189594041E+03  0.13274724815E+03  0.00000000000E+00 0.  1.
</event>
<event>
 8   1  0.2279600E-02  0.8729412E+02  0.7546771E-02  0.1311119E+00
       -1   -1    0    0    0  501 -0.00000000000E+00  0.00000000000E+00  0.13760904641E+03  0.13760904641E+03  0.00000000000E+00 0.  1.
        1   -1    0    0  501    0  0.00000000000E+00 -0.00000000000E+00 -0.55540824265E+02  0.55540824265E+02  0.00000000000E+00 0. -1.
       24    2    1    2    0    0 -0.21741601812E+02  0.16091597991E+02  0.57446199892E+02  0.10244977227E+03  0.80400579480E+02 0.  0.
      -24    2    1    2    0    0  0.21741601812E+02 -0.16091597991E+02  0.24622022259E+02  0.90700098410E+02  0.82997753561E+02 0.  0.
      -13    1    3    3    0    0 -0.35158073624E+02  0.37525753184E+02  0.57531056700E+02  0.77162781041E+02  0.00000000000E+00 0.  1.
       14    1    3    3    0    0  0.13416471812E+02 -0.21434155193E+02 -0.84856808207E-01  0.25286991229E+02  0.00000000000E+00 0. -1.
        3    1    4    4  502    0  0.47819470343E+02  0.17215738313E+01  0.32878728599E+02  0.58057526253E+02  0.00000000000E+00 0. -1.
       -4    1    4    4    0  502 -0.26077868531E+02 -0.17813171822E+02 -0.82567063400E+01  0.32642572157E+02  0.00000000000E+00 0.  1.
</event>
<event>
 8   1  0.2279600E-02  0.8422468E+02  0.7546771E-02  0.1319049E+00
        2   -1    0    0  501    0  0.00000000000E+00  0.00000000000E+00  0.98051921052E+03  0.98051921052E+03  0.00000000000E+00 0. -1.
       -2   -1    0    0    0  501 -0.00000000000E+00 -0.00000000000E+00 -0.11171013323E+02  0.11171013323E+02  0.00000000000E+00 0.  1.
      -24    2    1    2    0    0 -0.23903107248E+01 -0.20632435017E+02  0.18727913499E+03  0.20534670869E+03  0.81623436634E+02 0.  0.
       24    2    1    2    0    0  0.23903107248E+01  0.20632435017E+02  0.78206906221E+03  0.78634351516E+03  0.79200345950E+02 0.  0.
      -13    1    4    4    0    0  0.18273588907E+02 -0.15165676482E+02  0.58161051442E+03  0.58209510587E+03  0.00000000000E+00 0.  1.
       14    1    4    4    0    0 -0.15883278183E+02  0.35798111499E+02  0.20045854780E+03  0.20424840929E+03  0.00000000000E+00 0. -1.
        1    1    3    3  502    0 -0.39040594253E+02  0.38234410182E+01  0.10357118309E+03  0.11075096689E+03  0.00000000000E+00 0. -1.
       -2    1    3    3    0  502  0.36650283528E+02 -0.24455876035E+02  0.83707951897E+02  0.94595741797E+02  0.00000000000E+00 0.  1.
</event>
<event>
 8   1  0.2279600E-02  0.9673550E+02  0.7546771E-02  0.1287445E+00
       -1   -1    0    0    0  501 -0.00000000000E+00  0.00000000000E+00  0.57928975983E+01  0.57928975983E+01  0.00000000000E+00 0.  1.
        1   -1    0    0  501    0  0.00000000000E+00 -0.00000000000E+00 -0.16433666192E+04  0.16433666192E+04  0.00000000000E+00 0. -1.
       24    2    1    2    0    0  0.29997909721E+02 -0.45949614888E+02 -0.93278153281E+03  0.93775963862E+03  0.79375753005E+02 0.  0.
      -24    2    1    2    0    0 -0.29997909721E+02  0.45949614888E+02 -0.70479218876E+03  0.71139987815E+03  0.79665021202E+02 0.  0.
      -13    1    3    3    0    0  0.50138425466E+02 -0.36891839166E+02 -0.42882203594E+03  0.43331652174E+03  0.00000000000E+00 0.  1.
       14    1    3    3    0    0 -0.20140515744E+02 -0.90577757224E+01 -0.50395949687E+03  0.50444311688E+03  0.00000000000E+00 0. -1.
        3    1    4    4  502    0 -0.32540993652E+02  0.18860937695E+01 -0.53409799148E+03  0.53509171001E+03  0.00000000000E+00 0. -1.
       -4    1    4    4    0  502  0.25430839308E+01  0.44063521119E+02 -0.17069419728E+03  0.17630816815E+03  0.00000000000E+00 0.  1.
</event>
<event>
 8   1  0.2279600E-02  0.8195628E+02  0.7546771E-02  0.1326251E+00
       -2   -1    0    0    0  501 -0.00000000000E+00  0.00000000000E+00  0.81630054539E+02  0.81630054539E+02  0.00000000000E+00 0.  1.
        2   -1    0    0  501    0  0.00000000000E+00 -0.00000000000E+00 -0.25580573344E+03  0.25580573344E+03  0.00000000000E+00 0. -1.
       24    2    1    2    0    0 -0.13070828816E+02  0.83503654819E+01 -0.22815754252E+03  0.24243080698E+03  0.80475193636E+02 0.  0.
      -24    2    1    2    0    0  0.13070828816E+02 -0.83503654819E+01  0.53981863623E+02  0.95004981003E+02  0.76624602091E+02 0.  0.
      -13    1    3    3    0    0 -0.26272219254E+02  0.26951035700E+02 -0.48797041792E+02  0.61625799122E+02  0.00000000000E+00 0.  1.
       14    1    3    3    0    0  0.13201390438E+02 -0.18600670218E+02 -0.17936050073E+03  0.18080500785E+03  0.00000000000E+00 0. -1.
        3    1    4    4  502    0  0.19452566228E+02 -0.39409179414E+02  0.19259412353E+02  0.47983442135E+02  0.00000000000E+00 0. -1.
       -4    1    4    4    0  502 -0.63817374122E+01  0.31058813932E+02  0.34722451271E+02  0.47021538868E+02  0.00000000000E+00 0.  1.
</event>
<event>
 8   1  0.2279600E-02  0.1252278E+03  0.7546771E-02  0.1235168E+00
        1   -1    0    0  501    0  0.00000000000E+00  0.00000000000E+00  0.85217386950E+03  0.85217386950E+03  0.00000000000E+00 0. -1.
       -1   -1    0    0    0  501 -0.00000000000E+00 -0.00000000000E+00 -0.54349380762E+02  0.54349380762E+02  0.00000000000E+00 0.  1.
       24    2    1    2    0    0  0.90431095842E+02 -0.15997452424E+02  0.28797116769E+02  0.12736658464E+03  0.83422247453E+02 0.  0.
      -24    2    1    2    0    0 -0.90431095842E+02  0.15997452424E+02  0.76902737197E+03  0.77915666562E+03  0.85137002310E+02 0.  0.
      -13    1    3    3    0    0  0.66145859580E+02 -0.43026441618E+02 -0.31668607681E+01  0.78972010390E+02  0.00000000000E+00 0.  1.
       14    1    3    3    0    0  0.24285236261E+02  0.27028989194E+02  0.31963977537E+02  0.48394574253E+02  0.00000000000E+00 0. -1.
        1    1    4    4  502    0 -0.77846154789E+02  0.30041563737E+02  0.73902000847E+03  0.74371573352E+03  0.00000000000E+00 0. -1.
       -2    1    4    4    0  502 -0.12584941053E+02 -0.14044111313E+02  0.30007363500E+02  0.35440932100E+02  0.00000000000E+00 0.  1.
</event>
<event>
 8   1  0.2279600E-02  0.9190607E+02  0.7546771E-02  0.1298912E+00
        2   -1    0    0  501    0  0.00000000000E+00  0.00000000000E+00  0.16812765132E+04  0.16812765132E+04  0.00000000000E+00 0. -1.
       -2   -1    0    0    0  501 -0.00000000000E+00 -0.00000000000E+00 -0.60420902487E+01  0.60420902487E+01  0.00000000000E+00 0.  1.
      -24    2    1    2    0    0 -0.33772104748E+02 -0.87698551766E+00  0.48575998446E+03  0.49437788065E+03  0.85471645635E+02 0.  0.
       24    2    1    2    0    0  0.33772104748E+02  0.87698551766E+00  0.11894744385E+04  0.11929407228E+04  0.84361152983E+02 0.  0.
      -13    1    4    4    0    0  0.30315206644E+02  0.39502226988E+02  0.79737921201E+03  0.79893244109E+03  0.00000000000E+00 0.  1.
       14    1    4    4    0    0  0.34568981038E+01 -0.38625241470E+02  0.39209522650E+03  0.39400828173E+03  0.00000000000E+00 0. -1.
        3    1    3    3  502    0 -0.45983747320E+02 -0.16479388228E+02  0.45610401394E+03  0.45871227015E+03  0.00000000000E+00 0. -1.
       -4    1    3    3    0  502  0.12211642573E+02  0.15602402710E+02  0.29655970522E+02  0.35665610499E+02  0.00000000000E+00 0.  1.
</event>
<event>
 8   1  0.2279600E-02  0.9352398E+02  0.7546771E-02  0.1295381E+00
       -2   -1    0    0    0  501 -0.00000000000E+00  0.00000000000E+00  0.18688754419E+03  0.18688754419E+03  0.00000000000E+00 0.  1.
        2   -1    0    0  501    0  0.00000000000E+00 -0.00000000000E+00 -0.46124968167E+02  0.46124968167E+02  0.00000000000E+00 0. -1.
      -24    2    1    2    0    0  0.19388433466E+02 -0.42453562792E+02  0.74757662474E+02  0.11973071097E+03  0.81046398474E+02 0.  0.
       24    2    1    2    0    0 -0.19388433466E+02  0.42453562792E+02  0.66004913548E+02  0.11328180138E+03  0.79359319339E+02 0.  0.
      -13    1    4    4    0    0 -0.45544994427E+02  0.42540801086E+02  0.31064022160E+02  0.69635046831E+02  0.00000000000E+00 0.  1.
       14    1    4    4    0    0  0.26156560961E+02 -0.87238293830E-01  0.34940891388E+02  0.43646754551E+02  0.00000000000E+00 0. -1.
        3    1    3    3  502    0  0.25854149271E+02 -0.22917975448E+02 -0.71466577572E+01  0.35280948829E+02  0.00000000000E+00 0. -1.
       -4    1    3    3    0  502 -0.64657158051E+01 -0.19535587344E+02  0.81904320231E+02  0.84449762144E+02  0.00000000000E+00 0.  1.
</event>
<event>
 8   1  0.2279600E-02  0.8498439E+02  0.7546771E-02  0.1317519E+00
       -2   -1    0    0    0  501 -0.00000000000E+00  0.00000000000E+00  0.10731569763E+02  0.10731569763E+02  0.00000000000E+00 0.  1.
        2   -1    0    0  501    0  0.00000000000E+00 -0.00000000000E+00 -0.80018044341E+03  0.80018044341E+03  0.00000000000E+00 0. -1.
      -24    2    1    2    0    0 -0.17078632989E+02  0.35032598166E+01 -0.22435334315E+03  0.23990991706E+03  0.83176878936E+02 0.  0.
       24    2    1    2    0    0  0.17078632989E+02 -0.35032598166E+01 -0.56509553049E+03  0.57100209610E+03  0.80040506227E+02 0.  0.
      -13    1    4    4    0    0 -0.23111755515E+02 -0.26686693919E+02 -0.26492022054E+03  0.26726214869E+03  0.00000000000E+00 0.  1.
       14    1    4    4    0    0  0.40190388504E+02  0.23183434102E+02 -0.30017530996E+03  0.30373994741E+03  0.00000000000E+00 0. -1.
        1    1    3    3  502    0 -0.25779605639E+02 -0.11287744008E+02 -0.22054327969E+03  0.22233159795E+03  0.00000000000E+00 0. -1.
       -2    1    3    3    0  502  0.87009726495E+01  0.14791003824E+02 -0.38100634565E+01  0.17578319110E+02  0.00000000000E+00 0.  1.
</event>
<event>
 8   1  0.2279600E-02  0.1059908E+03  0.7546771E-02  0.1268208E+00
        2   -1    0    0  501    0  0.00000000000E+00  0.00000000000E+00  0.20009988265E+03  0.20009988265E+03  0.00000000000E+00 0. -1.
       -2   -1    0    0    0  501 -0.00000000000E+00 -0.00000000000E+00 -0.18133183445E+03  0.18133183445E+03  0.00000000000E+00 0.  1.
      -24    2    1    2    0    0 -0.44944636519E+02  0.50240093607E+02 -0.14910149305E+03  0.18290152438E+03  0.81716736564E+02 0.  0.
       24    2    1    2    0    0  0.44944636519E+02 -0.50240093607E+02  0.16786954125E+03  0.19853019271E+03  0.81792219568E+02 0.  0.
      -13    1    4    4    0    0 -0.10175373803E+02 -0.33920209776E+02  0.21872620332E+02  0.41623675756E+02  0.00000000000E+00 0.  1.
       14    1    4    4    0    0  0.55120010321E+02 -0.16319883831E+02  0.14599692091E+03  0.15690651695E+03  0.00000000000E+00 0. -1.
        1    1    3    3  502    0  0.18635689545E+02  0.43196362786E+01 -0.65879847393E+01  0.20232392971E+02  0.00000000000E+00 0. -1.
       -2    1    3    3    0  502 -0.63580326064E+02  0.45920457328E+02 -0.14251350831E+03  0.16266913141E+03  0.00000000000E+00 0.  1.
</event>
<event>
 8   1  0.2279600E-02  0.9282144E+02  0.7546771E-02  0.1296895E+00
       -1   -1    0    0    0  501 -0.00000000000E+00  0.00000000000E+00  0.57677370856E+02  0.57677370856E+02  0.00000000000E+00 0.  1.
        1   -1    0    0  501    0  0.00000000000E+00 -0.00000000000E+00 -0.18294977100E+03  0.18294977100E+03  0.00000000000E+00 0. -1.
       24    2    1    2    0    0 -0.28506770499E+02 -0.33420785950E+02 -0.92315524039E+01  0.92029369574E+02  0.80340515350E+02 0.  0.
      -24    2    1    2    0    0  0.28506770499E+02  0.33420785950E+02 -0.11604084774E+03  0.14859777228E+03  0.81769399441E+02 0.  0.
      -13    1    3    3    0    0  0.13277334469E+02  0.12232135061E+02  0.17013397077E+02  0.24806620464E+02  0.00000000000E+00 0.  1.
       14    1    3    3    0    0 -0.41784104968E+02 -0.45652921010E+02 -0.26244949481E+02  0.67222749111E+02  0.00000000000E+00 0. -1.
        1    1    4    4  502    0 -0.92725748211E+01  0.53336816302E+01  0.96335432083E+01  0.14395622887E+02  0.00000000000E+00 0. -1.
       -2    1    4    4    0  502  0.37779345320E+02  0.28087104320E+02 -0.12567439095E+03  0.13420214940E+03  0.00000000000E+00 0.  1.
</event>
<event>
 8   1  0.2279600E-02  0.1032335E+03  0.7546771E-02  0.1275182E+00
       -1   -1    0    0    0  501 -0.00000000000E+00  0.00000000000E+00  0.66091533091E+02  0.66091533091E+02  0.00000000000E+00 0.  1.
        1   -1    0    0  501    0  0.00000000000E+00 -0.00000000000E+00 -0.19934832229E+03  0.19934832229E+03  0.00000000000E+00 0. -1.
       24    2    1    2    0    0 -0.12706876777E+01  0.60302352276E+02 -0.43827727619E+01  0.10031663761E+03  0.80038932692E+02 0.  0.
      -24    2    1    2    0    0  0.12706876777E+01 -0.60302352276E+02 -0.12887401644E+03  0.16512321778E+03  0.83780526370E+02 0.  0.
      -13    1    3    3    0    0  0.31377159262E+02  0.56319105404E+01  0.12815549083E+02  0.34358155334E+02  0.00000000000E+00 0.  1.
       14    1    3    3    0    0 -0.32647846940E+02  0.54670441735E+02 -0.17198321845E+02  0.65958482272E+02  0.00000000000E+00 0. -1.
        1    1    4    4  502    0  0.94776745964E+00 -0.80451082123E+02 -0.86104703140E+02  0.11784436678E+03  0.00000000000E+00 0. -1.
       -2    1    4    4    0  502  0.32292021810E+00  0.20148729848E+02 -0.42769313301E+02  0.47278851003E+02  0.00000000000E+00 0.  1.
</event>
<event>
 8   1  0.2279600E-02  0.1181489E+03  0.7546771E-02  0.1246513E+00
        1   -1    0    0  501    0  0.00000000000E+00  0.00000000000E+00  0.26791156417E+04  0.26791156417E+04  0.00000000000E+00 0. -1.
       -1   -1    0    0    0  501 -0.00000000000E+00 -0.00000000000E+00 -0.52058922775E+01  0.52058922775E+01  0.00000000000E+00 0.  1.
       24    2    1    2    0    0 -0.59212841956E+02  0.61152963270E+02  0.12394457611E+04  0.12450642407E+04  0.81934871662E+02 0.  0.
      -24    2    1    2    0    0  0.59212841956E+02 -0.61152963270E+02  0.14344639883E+04  0.14392572932E+04  0.80800847064E+02 0.  0.
      -13    1    3    3    0    0 -0.69150717421E+02  0.19937695279E+02  0.92119569069E+03  0.92400261577E+03  0.00000000000E+00 0.  1.
       14    1    3    3    0    0  0.99378754645E+01  0.41215267992E+02  0.31825007045E+03  0.32106162497E+03  0.00000000000E+00 0. -1.
        1    1    4    4  502    0  0.70309000411E+02 -0.56273980791E+02  0.13965975231E+04  0.13994980378E+04  0.00000000000E+00 0. -1.
       -2    1    4    4    0  502 -0.11096158455E+02 -0.48789824791E+01  0.37866465188E+02  0.39759255379E+02  0.00000000000E+00 0.  1.
</event>
<event>
 8   1  0.2279600E-02  0.8873504E+02  0.7546771E-02  0.1306032E+00
       -2   -1    0    0    0  501 -0.00000000000E+00  0.00000000000E+00  0.14192291060E+02  0.14192291060E+02  0.00000000000E+00 0.  1.
        2   -1    0    0  501    0  0.00000000000E+00 -0.00000000000E+00 -0.55456180812E+03  0.55456180812E+03  0.00000000000E+00 0. -1.
       24    2    1    2    0    0 -0.35056694994E+02  0.13880101550E+02 -0.26020603880E+03  0.27487405265E+03  0.80168155208E+02 0.  0.
      -24    2    1    2    0    0  0.35056694994E+02 -0.13880101550E+02 -0.28016347826E+03  0.29388004653E+03  0.80326073691E+02 0.  0.
      -13    1    3    3    0    0 -0.43262776599E+02  0.41252273800E+02 -0.18522960178E+03  0.19463664431E+03  0.00000000000E+00 0.  1.
       14    1    3    3    0    0  0.82060816043E+01 -0.27372172249E+02 -0.74976437019E+02  0.80237408339E+02  0.00000000000E+00 0. -1.
        3    1    4    4  502    0  0.41457135628E+02  0.19062868677E+02 -0.22277151965E+03  0.22739665131E+03  0.00000000000E+00 0. -1.
       -4    1    4    4    0  502 -0.64004406333E+01 -0.32942970227E+02 -0.57391958604E+02  0.66483395220E+02  0.00000000000E+00 0.  1.
</event>
<event>
 8   1  0.2279600E-02  0.8398663E+02  0.7546771E-02  0.1318525E+00
        1   -1    0    0  501    0  0.00000000000E+00  0.00000000000E+00  0.54555131809E+03  0.54555131809E+03  0.00000000000E+00 0. -1.
       -1   -1    0    0    0  501 -0.00000000000E+00 -0.00000000000E+00 -0.14134828667E+02  0.14134828667E+02  0.00000000000E+00 0.  1.
       24    2    1    2    0    0 -0.66794052863E+01  0.17575526550E+02  0.18168043009E+03  0.20015377231E+03  0.81854995585E+02 0.  0.
      -24    2    1    2    0    0  0.66794052863E+01 -0.17575526550E+02  0.34973605933E+03  0.35953237445E+03  0.81207779751E+02 0.  0.
      -13    1    3    3    0    0 -0.41371575919E+02  0.33220356360E+01  0.61012651706E+02  0.73791509559E+02  0.00000000000E+00 0.  1.
       14    1    3    3    0    0  0.34692170633E+02  0.14253490914E+02  0.12066777838E+03  0.12636226275E+03  0.00000000000E+00 0. -1.
        1    1    4    4  502    0  0.15394991601E+02  0.26586813844E+02  0.22160058594E+03  0.22372010220E+03  0.00000000000E+00 0. -1.
       -2    1    4    4    0  502 -0.87155863148E+01 -0.44162340394E+02  0.12813547339E+03  0.13581227225E+03  0.00000000000E+00 0.  1.
</event>
<event>
 8   1  0.2279600E-02  0.1184465E+03  0.7546771E-02  0.1246580E+00
        1   -1    0    0  501    0  0.00000000000E+00  0.00000000000E+00  0.10106401489E+03  0.10106401489E+03  0.00000000000E+00 0. -1.
       -1   -1    0    0    0  501 -0.00000000000E+00 -0.00000000000E+00 -0.15241419685E+03  0.15241419685E+03  0.00000000000E+00 0.  1.
       24    2    1    2    0    0  0.82241240004E+02  0.31716787111E+02 -0.66618545079E+02  0.13405172682E+03  0.75909543366E+02 0.  0.
      -24    2    1    2    0    0 -0.82241240004E+02 -0.31716787111E+02  0.15268363116E+02  0.11942648492E+03  0.79120074857E+02 0.  0.
      -13    1    3    3    0    0  0.34099816945E+02  0.53454045493E+02 -0.39110413148E+02  0.74496690610E+02  0.00000000000E+00 0.  1.
       14    1    3    3    0    0  0.48141423059E+02 -0.21737258382E+02 -0.27508131931E+02  0.59555036214E+02  0.00000000000E+00 0. -1.
        3    1    4    4  502    0 -0.97475280562E+02 -0.30737551250E+02  0.18382156612E+02  0.10384667091E+03  0.00000000000E+00 0. -1.
       -4    1    4    4    0  502  0.15234040557E+02 -0.97923586095E+00 -0.31137934959E+01  0.15579814007E+02  0.00000000000E+00 0.  1.
</event>
<event>
 8   1  0.2279600E-02  0.8414672E+02  0.7546771E-02  0.1321269E+00
       -2   -1    0    0    0  501 -0.00000000000E+00  0.00000000000E+00  0.48130380959E+01  0.48130380959E+01  0.00000000000E+00 0.  1.
        2   -1    0    0  501    0  0.00000000000E+00 -0.00000000000E+00 -0.17958505331E+04  0.17958505331E+04  0.00000000000E+00 0. -1.
       24    2    1    2    0    0  0.21357795438E+02  0.13804103959E+02 -0.13501168527E+04  0.13527365549E+04  0.80211982893E+02 0.  0.
      -24    2    1    2    0    0 -0.21357795438E+02 -0.13804103959E+02 -0.44092064224E+03  0.44792701627E+03  0.74705357507E+02 0.  0.
      -13    1    3    3    0    0  0.10722650522E+01  0.18663448450E+02 -0.70103699065E+02  0.72553447079E+02  0.00000000000E+00 0.  1.
       14    1    3    3    0    0  0.20285530385E+02 -0.48593444913E+01 -0.12800131537E+04  0.12801831078E+04  0.00000000000E+00 0. -1.
        1    1    4    4  502    0  0.18239527238E+02 -0.19369179887E+02 -0.30735290567E+03  0.30850227569E+03  0.00000000000E+00 0. -1.
       -2    1    4    4    0  502 -0.39597322675E+02  0.55650759281E+01 -0.13356773657E+03  0.13942474058E+03  0.00000000000E+00 0.  1.
</event>
<event>
 8   1  0.2279600E-02  0.8414631E+02  0.7546771E-02  0.1318152E+00
        3   -1    0    0  501    0  0.00000000000E+00  0.00000000000E+00  0.21396098435E+02  0.21396098435E+02  0.00000000000E+00 0. -1.
       -3   -1    0    0    0  501 -0.00000000000E+00 -0.00000000000E+00 -0.55761871005E+03  0.55761871005E+03  0.00000000000E+00 0.  1.
       24    2    1    2    0    0 -0.72357834715E+01  0.24989630395E+02 -0.45449703188E+03  0.46222089162E+03  0.80023512023E+02 0.  0.
      -24    2    1    2    0    0  0.72357834715E+01 -0.24989630395E+02 -0.81725579733E+02  0.11679391686E+03  0.79277427070E+02 0.  0.
      -13    1    3    3    0    0 -0.11072784614E+02 -0.29107456434E+01 -0.40583763315E+03  0.40599909296E+03  0.00000000000E+00 0.  1.
       14    1    3    3    0    0  0.38370011429E+01  0.27900376038E+02 -0.48659398728E+02  0.56221798667E+02  0.00000000000E+00 0. -1.
        1    1    4    4  502    0  0.34915100133E+02 -0.26871616898E+02 -0.18567482194E+02  0.47811080380E+02  0.00000000000E+00 0. -1.
       -2    1    4    4    0  502 -0.27679316661E+02  0.18819865037E+01 -0.63158097538E+02  0.68982836479E+02  0.00000000000E+00 0.  1.
</event>
<event>
 8   1  0.2279600E-02  0.1062301E+03  0.7546771E-02  0.1271326E+00
       -2   -1    0    0    0  501 -0.00000000000E+00  0.00000000000E+00  0.11361538167E+02  0.11361538167E+02  0.00000000000E+00 0.  1.
        2   -1    0    0  501    0  0.00000000000E+00 -0.00000000000E+00 -0.12863753596E+04  0.12863753596E+04  0.00000000000E+00 0. -1.
      -24    2    1    2    0    0 -0.30468168302E+02  0.51420258555E+02 -0.31090702699E+03  0.32855442731E+03  0.87820726517E+02 0.  0.
       24    2    1    2    0    0  0.30468168302E+02 -0.51420258555E+02 -0.96410679440E+03  0.96918247041E+03  0.78996187707E+02 0.  0.
      -13    1    4    4    0    0  0.28906136339E+01 -0.36983409135E+02 -0.15135242406E+03  0.15583223180E+03  0.00000000000E+00 0.  1.
       14    1    4    4    0    0  0.27577554668E+02 -0.14436849420E+02 -0.81275437035E+03  0.81335023862E+03  0.00000000000E+00 0. -1.
        3    1    3    3  502    0 -0.10956882964E+02 -0.24782349010E+02 -0.93867333072E+02  0.97700022133E+02  0.00000000000E+00 0. -1.
       -4    1    3    3    0  502 -0.19511285338E+02  0.76202607565E+02 -0.21703969392E+03  0.23085440518E+03  0.00000000000E+00 0.  1.
</event>
<event>
 8   1  0.2279600E-02  0.1219263E+03  0.7546771E-02  0.1240081E+00
       -2   -1    0    0    0  501 -0.00000000000E+00  0.00000000000E+00  0.29337743532E+02  0.29337743532E+02  0.00000000000E+00 0.  1.
        2   -1    0    0  501    0  0.00000000000E+00 -0.00000000000E+00 -0.69916331069E+03  0.69916331069E+03  0.00000000000E+00 0. -1.
       24    2    1    2    0    0  0.88428227763E+02  0.18814808340E+02 -0.52635240219E+03  0.54021783008E+03  0.81332061157E+02 0.  0.
      -24    2    1    2    0    0 -0.88428227763E+02 -0.18814808340E+02 -0.14347316497E+03  0.18828322414E+03  0.81807548232E+02 0.  0.
      -13    1    3    3    0    0 -0.60859034496E+01  0.90057864021E+01 -0.87165368157E+01  0.13932710561E+02  0.00000000000E+00 0.  1.
       14    1    3    3    0    0  0.94514131213E+02  0.98090219381E+01 -0.51763586537E+03  0.52628511952E+03  0.00000000000E+00 0. -1.
        3    1    4    4  502    0 -0.52020470570E+01  0.54399405091E+00  0.10758842236E+02  0.11962855402E+02  0.00000000000E+00 0. -1.
       -4    1    4    4    0  502 -0.83226180706E+02 -0.19358802391E+02 -0.15423200721E+03  0.17632036874E+03  0.00000000000E+00 0.  1.
</event>
<event>
 8   1  0.2279600E-02  0.8427542E+02  0.7546771E-02  0.1319392E+00
        2   -1    0    0  501    0  0.00000000000E+00  0.00000000000E+00  0.13589207030E+04  0.13589207030E+04  0.00000000000E+00 0. -1.
       -2   -1    0    0    0  501 -0.00000000000E+00 -0.00000000000E+00 -0.83698403681E+01  0.83698403681E+01  0.00000000000E+00 0.  1.
      -24    2    1    2    0    0 -0.99458840374E+01  0.15785677220E+02  0.25155296861E+03  0.26529463232E+03  0.82184169458E+02 0.  0.
       24    2    1    2    0    0  0.99458840374E+01 -0.15785677220E+02  0.10989978940E+04  0.11019959110E+04  0.79060158586E+02 0.  0.
      -13    1    4    4    0    0  0.26825153010E+02 -0.13654106073E+02  0.15785054141E+03  0.16069479416E+03  0.00000000000E+00 0.  1.
       14    1    4    4    0    0 -0.16879268972E+02 -0.21315711471E+01  0.94114735260E+03  0.94130111687E+03  0.00000000000E+00 0. -1.
        1    1    3    3  502    0 -0.30791804750E+02 -0.21988939490E+02  0.81517306881E+02  0.89870573721E+02  0.00000000000E+00 0. -1.
       -2    1    3    3    0  502  0.20845920713E+02  0.37774616709E+02  0.17003566173E+03  0.17542405860E+03  0.00000000000E+00 0.  1.
</event>
<event>
 8   1  0.2279600E-02  0.8073297E+02  0.7546771E-02  0.1334002E+00
        2   -1    0    0  501    0  0.00000000000E+00  0.00000000000E+00  0.62097419530E+02  0.62097419530E+02  0.00000000000E+00 0. -1.
       -2   -1    0    0    0  501 -0.00000000000E+00 -0.00000000000E+00 -0.12375439302E+03  0.12375439302E+03  0.00000000000E+00 0.  1.
      -24    2    1    2    0    0 -0.10459112139E+01 -0.17102193739E+02 -0.75558339129E+02  0.10393075309E+03  0.69274525368E+02 0.  0.
       24    2    1    2    0    0  0.10459112139E+01  0.17102193739E+02  0.13901365642E+02  0.81921059457E+02  0.78893808724E+02 0.  0.
      -13    1    4    4    0    0  0.30422653021E+02  0.21417180858E+02 -0.15343759225E+02  0.40245054353E+02  0.00000000000E+00 0.  1.
       14    1    4    4    0    0 -0.29376741807E+02 -0.43149871186E+01  0.29245124866E+02  0.41676005105E+02  0.00000000000E+00 0. -1.
        3    1    3    3  502    0 -0.15515786343E+02 -0.25479385821E+02 -0.35915747763E+01  0.30047265051E+02  0.00000000000E+00 0. -1.
       -4    1    3    3    0  502  0.14469875129E+02  0.83771920817E+01 -0.71966764352E+02  0.73883488039E+02  0.00000000000E+00 0.  1.
</event>
<event>
 8   1  0.2279600E-02  0.8132403E+02  0.7546771E-02  0.1325554E+00
       -1   -1    0    0    0  501 -0.00000000000E+00  0.00000000000E+00  0.13764345206E+02  0.13764345206E+02  0.00000000000E+00 0.  1.
        1   -1    0    0  501    0  0.00000000000E+00 -0.00000000000E+00 -0.72541147998E+03  0.72541147998E+03  0.00000000000E+00 0. -1.
       24    2    1    2    0    0 -0.13597645648E+01 -0.87080525290E+01 -0.14071315963E+03  0.16252320426E+03  0.80845033807E+02 0.  0.
      -24    2    1    2    0    0  0.13597645648E+01  0.87080525290E+01 -0.57093397514E+03  0.57665262093E+03  0.80529262438E+02 0.  0.
      -13    1    3    3    0    0  0.25426617828E+02 -0.28080138091E+02 -0.34332341145E+02  0.51124521493E+02  0.00000000000E+00 0.  1.
       14    1    3    3    0    0 -0.26786382392E+02  0.19372085562E+02 -0.10638081848E+03  0.11139868276E+03  0.00000000000E+00 0. -1.
        1    1    4    4  502    0 -0.30132477687E+02  0.14608396127E+02 -0.45909360849E+03  0.46031327681E+03  0.00000000000E+00 0. -1.
       -2    1    4    4    0  502  0.31492242252E+02 -0.59003435985E+01 -0.11184036665E+03  0.11633934412E+03  0.00000000000E+00 0.  1.
</event>
<event>
 8   1  0.2279600E-02  0.9484107E+02  0.7546771E-02  0.1295419E+00
        2   -1    0    0  501    0  0.00000000000E+00  0.00000000000E+00  0.13917981130E+02  0.13917981130E+02  0.00000000000E+00 0. -1.
       -2   -1    0    0    0  501 -0.00000000000E+00 -0.00000000000E+00 -0.60485273333E+03  0.60485273333E+03  0.00000000000E+00 0.  1.
      -24    2    1    2    0    0  0.12625783939E+02  0.46886833561E+02 -0.26340656989E+03  0.27778751957E+03  0.73655273979E+02 0.  0.
       24    2    1    2    0    0 -0.12625783939E+02 -0.46886833561E+02 -0.32752818231E+03  0.34098319489E+03  0.81468051467E+02 0.  0.
      -13    1    4    4    0    0  0.30817999813E+02 -0.21540862504E+02 -0.20690584544E+03  0.21029452381E+03  0.00000000000E+00 0.  1.
       14    1    4    4    0    0 -0.43443783752E+02 -0.25345971057E+02 -0.12062233687E+03  0.13068867108E+03  0.00000000000E+00 0. -1.
        1    1    3    3  502    0 -0.10252754943E+02  0.47575226149E+02 -0.24061138733E+03  0.24548393194E+03  0.00000000000E+00 0. -1.
       -2    1    3    3    0  502  0.22878538882E+02 -0.68839258749E+00 -0.22795182557E+02  0.32303587627E+02  0.00000000000E+00 0.  1.
</event>
<event>
 8   1  0.2279600E-02  0.3081432E+03  0.7546771E-02  0.1081423E+00
       -2   -1    0    0    0  501 -0.00000000000E+00  0.00000000000E+00  0.16410186028E+03  0.16410186028E+03  0.00000000000E+00 0.  1.
        2   -1    0    0  501    0  0.00000000000E+00 -0.00000000000E+00 -0.14111964465E+04  0.14111964465E+04  0.00000000000E+00 0. -1.
       24    2    1    2    0    0 -0.13002617368E+03 -0.26540798714E+03 -0.12302061815E+04  0.12682111237E+04  0.87200915207E+02 0.  0.
      -24    2    1    2    0    0  0.13002617368E+03  0.26540798714E+03 -0.16888404701E+02  0.30708718312E+03  0.81664645638E+02 0.  0.
      -13    1    3    3    0    0 -0.63381689210E+02 -0.77646286546E+02 -0.28155820333E+03  0.29886653577E+03  0.00000000000E+00 0.  1.
       14    1    3    3    0    0 -0.66644484471E+02 -0.18776170059E+03 -0.94864797820E+03  0.96934458789E+03  0.00000000000E+00 0. -1.
        3    1    4    4  502    0 -0.65097119193E+01  0.57626515187E+02 -0.37086324365E+01  0.58111492465E+02  0.00000000000E+00 0. -1.
       -4    1    4    4    0  502  0.13653588560E+03  0.20778147195E+03 -0.13179772264E+02  0.24897569066E+03  0.00000000000E+00 0.  1.
</event>
<event>
 8   1  0.2279600E-02  0.1142974E+03  0.7546771E-02  0.1264645E+00
       -4   -1    0    0    0  501 -0.00000000000E+00  0.00000000000E+00  0.21390367893E+02  0.21390367893E+02  0.00000000000E+00 0.  1.
        4   -1    0    0  501    0  0.00000000000E+00 -0.00000000000E+00 -0.67299323579E+03  0.67299323579E+03  0.00000000000E+00 0. -1.
      -24    2    1    2    0    0  0.23277974201E+02 -0.33252322382E+02 -0.11829369442E+03  0.14896398276E+03  0.80927677549E+02 0.  0.
       24    2    1    2    0    0 -0.23277974201E+02  0.33252322382E+02 -0.53330917347E+03  0.54541962092E+03  0.10684712138E+03 0.  0.
      -13    1    4    4    0    0  0.26134809699E+01 -0.29037722437E+02 -0.32841874195E+03  0.32971031175E+03  0.00000000000E+00 0.  1.
       14    1    4    4    0    0 -0.25891455171E+02  0.62290044820E+02 -0.20489043152E+03  0.21570930917E+03  0.00000000000E+00 0. -1.
        1    1    3    3  502    0  0.83713166118E+01  0.57250059397E+01 -0.10453200993E+03  0.10502283435E+03  0.00000000000E+00 0. -1.
       -2    1    3    3    0  502  0.14906657589E+02 -0.38977328322E+02 -0.13761684490E+02  0.43941148410E+02  0.00000000000E+00 0.  1.
</event>
<event>
 8   1  0.2279600E-02  0.8564039E+02  0.7546771E-02  0.1313927E+00
        2   -1    0    0  501    0  0.00000000000E+00  0.00000000000E+00  0.37566591154E+03  0.37566591154E+03  0.00000000000E+00 0. -1.
       -2   -1    0    0    0  501 -0.00000000000E+00 -0.00000000000E+00 -0.19470787699E+02  0.19470787699E+02  0.00000000000E+00 0.  1.
      -24    2    1    2    0    0 -0.13856695134E+02 -0.27631806838E+01  0.18062756880E+03  0.19979535202E+03  0.84215324676E+02 0.  0.
       24    2    1    2    0    0  0.13856695134E+02  0.27631806838E+01  0.17556755504E+03  0.19534134722E+03  0.84466753125E+02 0.  0.
      -13    1    4    4    0    0  0.18141009083E+02 -0.22118818767E+02  0.14065287849E+02  0.31877432087E+02  0.00000000000E+00 0.  1.
       14    1    4    4    0    0 -0.42843139493E+01  0.24881999451E+02  0.16150226719E+03  0.16346391513E+03  0.00000000000E+00 0. -1.
        1    1    3    3  502    0 -0.33121897634E+02 -0.46867443754E+01  0.17695496739E+03  0.18008910616E+03  0.00000000000E+00 0. -1.
       -2    1    3    3    0  502  0.19265202500E+02  0.19235636917E+01  0.36726014153E+01  0.19706245858E+02  0.00000000000E+00 0.  1.
</event>
<event>
 8   1  0.2279600E-02  0.8308231E+02  0.7546771E-02  0.1321504E+00
        2   -1    0    0  501    0  0.00000000000E+00  0.00000000000E+00  0.37469274989E+02  0.37469274989E+02  0.00000000000E+00 0. -1.
       -2   -1    0    0    0  501 -0.00000000000E+00 -0.00000000000E+00 -0.18327184234E+03  0.18327184234E+03  0.00000000000E+00 0.  1.
      -24    2    1    2    0    0  0.53998112868E+00 -0.87310697259E+01 -0.85686870817E+02  0.11935203981E+03  0.82620496354E+02 0.  0.
       24    2    1    2    0    0 -0.53998112868E+00  0.87310697259E+01 -0.60115696533E+02  0.10138907752E+03  0.81174656835E+02 0.  0.
      -13    1    4    4    0    0 -0.36011734740E+02 -0.15859313514E+01 -0.52478964021E+02  0.63666332405E+02  0.00000000000E+00 0.  1.
       14    1    4    4    0    0  0.35471753611E+02  0.10317001077E+02 -0.76367325119E+01  0.37722745114E+02  0.00000000000E+00 0. -1.
        1    1    3    3  502    0  0.26691035476E+02 -0.31147201693E+02 -0.21036263160E+02  0.46098632472E+02  0.00000000000E+00 0. -1.
       -2    1    3    3    0  502 -0.26151054347E+02  0.22416131967E+02 -0.64650607658E+02  0.73253407336E+02  0.00000000000E+00 0.  1.
</event>
<event>
 8   1  0.2279600E-02  0.9897727E+02  0.7546771E-02  0.1284183E+00
        1   -1    0    0  501    0  0.00000000000E+00  0.00000000000E+00  0.14117332797E+04  0.14117332797E+04  0.00000000000E+00 0. -1.
       -1   -1    0    0    0  501 -0.00000000000E+00 -0.00000000000E+00 -0.13691445924E+02  0.13691445924E+02  0.00000000000E+00 0.  1.
       24    2    1    2    0    0 -0.26082965189E+02  0.42951089283E+02  0.19602225148E+03  0.21959331362E+03  0.85272405665E+02 0.  0.
      -24    2    1    2    0    0  0.26082965189E+02 -0.42951089283E+02  0.12020195823E+04  0.12058314120E+04  0.81567155187E+02 0.  0.
      -13    1    3    3    0    0 -0.57008241940E+02  0.23745512517E+02  0.10929385883E+03  0.12553460317E+03  0.00000000000E+00 0.  1.
       14    1    3    3    0    0  0.30925276751E+02  0.19205576766E+02  0.86728392646E+02  0.94058710452E+02  0.00000000000E+00 0. -1.
        3    1    4    4  502    0  0.45693194004E+00 -0.57794050126E+02  0.52644556748E+03  0.52960862582E+03  0.00000000000E+00 0. -1.
       -4    1    4    4    0  502  0.25626033249E+02  0.14842960843E+02  0.67557401480E+03  0.67622278618E+03  0.00000000000E+00 0.  1.
</event>
<event>
 8   1  0.2279600E-02  0.8252832E+02  0.7546771E-02  0.1323039E+00
       -1   -1    0    0    0  501 -0.00000000000E+00  0.00000000000E+00  0.36696928121E+03  0.36696928121E+03  0.00000000000E+00 0.  1.
        1   -1    0    0  501    0  0.00000000000E+00 -0.00000000000E+00 -0.20917662560E+02  0.20917662560E+02  0.00000000000E+00 0. -1.
       24    2    1    2    0    0  0.78174244304E+01  0.12400744031E+02  0.10486509035E+03  0.13344515771E+03  0.81215961275E+02 0.  0.
      -24    2    1    2    0    0 -0.78174244304E+01 -0.12400744031E+02  0.24118652830E+03  0.25444178606E+03  0.79716939738E+02 0.  0.
      -13    1    3    3    0    0  0.11934744601E+02  0.20819939291E+02  0.11624871229E+03  0.11869992043E+03  0.00000000000E+00 0.  1.
       14    1    3    3    0    0 -0.41173201710E+01 -0.84191952601E+01 -0.11383621937E+02  0.14745237286E+02  0.00000000000E+00 0. -1.
        3    1    4    4  502    0 -0.33579707041E+02 -0.13676476370E+02  0.21367574833E+03  0.21673017362E+03  0.00000000000E+00 0. -1.
       -4    1    4    4    0  502  0.25762282611E+02  0.12757323395E+01  0.27510779965E+02  0.37711612437E+02  0.00000000000E+00 0.  1.
</event>
<event>
 8   1  0.2279600E-02  0.8897673E+02  0.7546771E-02  0.1307727E+00
       -1   -1    0    0    0  501 -0.00000000000E+00  0.00000000000E+00  0.19235715976E+03  0.19235715976E+03  0.00000000000E+00 0.  1.
        1   -1    0    0  501    0  0.00000000000E+00 -0.00000000000E+00 -0.66125446743E+02  0.66125446743E+02  0.00000000000E+00 0. -1.
       24    2    1    2    0    0  0.25901492754E+01  0.32636849053E+02  0.14604195128E+03  0.17101201938E+03  0.82734433267E+02 0.  0.
      -24    2    1    2    0    0 -0.25901492754E+01 -0.32636849053E+02 -0.19810238265E+02  0.87470587125E+02  0.78656120439E+02 0.  0.
      -13    1    3    3    0    0  0.69894590388E+00  0.53245275378E+02  0.13948394264E+03  0.14930277335E+03  0.00000000000E+00 0.  1.
       14    1    3    3    0    0  0.18912033715E+01 -0.20608426326E+02  0.65580086437E+01  0.21709246030E+02  0.00000000000E+00 0. -1.
        3    1    4    4  502    0  0.17947285153E+01 -0.40245623913E+02 -0.45234117536E+02  0.60572738785E+02  0.00000000000E+00 0. -1.
       -4    1    4    4    0  502 -0.43848777907E+01  0.76087748609E+01  0.25423879271E+02  0.26897848340E+02  0.00000000000E+00 0.  1.
</event>
<event>
 8   1  0.2279600E-02  0.1280855E+03  0.7546771E-02  0.1230510E+00
        1   -1    0    0  501    0  0.00000000000E+00  0.00000000000E+00  0.38472085396E+02  0.38472085396E+02  0.00000000000E+00 0. -1.
       -1   -1    0    0    0  501 -0.00000000000E+00 -0.00000000000E+00 -0.10591339868E+04  0.10591339868E+04  0.00000000000E+00 0.  1.
       24    2    1    2    0    0 -0.66101597371E+02 -0.71969755697E+02 -0.93543884542E+03  0.94416720854E+03  0.82805901067E+02 0.  0.
      -24    2    1    2    0    0  0.66101597371E+02  0.71969755697E+02 -0.85223055979E+02  0.15343886365E+03  0.82045406320E+02 0.  0.
      -13    1    3    3    0    0 -0.72359562261E+02 -0.78523616184E+02 -0.92065917738E+03  0.92683072103E+03  0.00000000000E+00 0.  1.
       14    1    3    3    0    0  0.62579648891E+01  0.65538604869E+01 -0.14779668037E+02  0.17336487508E+02  0.00000000000E+00 0. -1.
        3    1    4    4  502    0  0.18963215035E+02  0.69927779184E+02 -0.24380877666E+02  0.76445569014E+02  0.00000000000E+00 0. -1.
       -4    1    4    4    0  502  0.47138382336E+02  0.20419765130E+01 -0.60842178313E+02  0.76993294638E+02  0.00000000000E+00 0.  1.
</event>
<event>
 8   1  0.2279600E-02  0.8361364E+02  0.7546771E-02  0.1321235E+00
       -2   -1    0    0    0  501 -0.00000000000E+00  0.00000000000E+00  0.14841391717E+02  0.14841391717E+02  0.00000000000E+00 0.  1.
        2   -1    0    0  501    0  0.00000000000E+00 -0.00000000000E+00 -0.50310158944E+03  0.50310158944E+03  0.00000000000E+00 0. -1.
      -24    2    1    2    0    0 -0.10180982048E+02  0.18089309370E+02 -0.15870445898E+03  0.17794558940E+03  0.77760221041E+02 0.  0.
       24    2    1    2    0    0  0.10180982048E+02 -0.18089309370E+02 -0.32955573874E+03  0.33999739176E+03  0.80996086064E+02 0.  0.
      -13    1    4    4    0    0  0.21193056778E+02  0.25234008797E+02 -0.80870668138E+02  0.87326776081E+02  0.00000000000E+00 0.  1.
       14    1    4    4    0    0 -0.11012074730E+02 -0.43323318167E+02 -0.24868507061E+03  0.25267061568E+03  0.00000000000E+00 0. -1.
        1    1    3    3  502    0  0.22629976313E+01  0.23064334300E+02 -0.16239882151E+03  0.16404408524E+03  0.00000000000E+00 0. -1.
       -2    1    3    3    0  502 -0.12443979680E+02 -0.49750249305E+01  0.36943625274E+01  0.13901504156E+02  0.00000000000E+00 0.  1.
</event>
<event>
 8   1  0.2279600E-02  0.1036658E+03  0.7546771E-02  0.1273135E+00
        2   -1    0    0  501    0  0.00000000000E+00  0.00000000000E+00  0.69415269777E+03  0.69415269777E+03  0.00000000000E+00 0. -1.
       -2   -1    0    0    0  501 -0.00000000000E+00 -0.00000000000E+00 -0.21742375235E+02  0.21742375235E+02  0.00000000000E+00 0.  1.
      -24    2    1    2    0    0  0.12515440969E+02 -0.63667818221E+02  0.14331186063E+03  0.17687534147E+03  0.80847818063E+02 0.  0.
       24    2    1    2    0    0 -0.12515440969E+02  0.63667818221E+02  0.52909846191E+03  0.53901973154E+03  0.79917840602E+02 0.  0.
      -13    1    4    4    0    0 -0.17935446917E+01 -0.11773859669E+01 -0.25451486470E+01  0.33287868528E+01  0.00000000000E+00 0.  1.
       14    1    4    4    0    0 -0.10721896278E+02  0.64845204188E+02  0.53164361056E+03  0.53569094468E+03  0.00000000000E+00 0. -1.
        1    1    3    3  502    0  0.12121877741E+02 -0.29279565088E+02  0.13858441291E+03  0.14216143061E+03  0.00000000000E+00 0. -1.
       -2    1    3    3    0  502  0.39356322817E+00 -0.34388253133E+02  0.47274477183E+01  0.34713910865E+02  0.00000000000E+00 0.  1.
</event>
<event>
 8   1  0.2279600E-02  0.8843557E+02  0.7546771E-02  0.1306691E+00
        4   -1    0    0  501    0  0.00000000000E+00  0.00000000000E+00  0.40273953461E+03  0.40273953461E+03  0.00000000000E+00 0. -1.
       -4   -1    0    0    0  501 -0.00000000000E+00 -0.00000000000E+00 -0.67115720131E+02  0.67115720131E+02  0.00000000000E+00 0.  1.
      -24    2    1    2    0    0  0.26607801363E+02  0.29169951332E+02 -0.30235674522E+02  0.93461466981E+02  0.79132728010E+02 0.  0.
       24    2    1    2    0    0 -0.26607801363E+02 -0.29169951332E+02  0.36585948900E+03  0.37639378776E+03  0.79121783459E+02 0.  0.
      -13    1    4    4    0    0 -0.20551197205E+02 -0.56650423690E+02  0.24538094800E+03  0.25267257836E+03  0.00000000000E+00 0.  1.
       14    1    4    4    0    0 -0.60566041585E+01  0.27480472358E+02  0.12047854100E+03  0.12372120940E+03  0.00000000000E+00 0. -1.
        3    1    3    3  502    0 -0.22138545855E+02 -0.99473464845E+01 -0.56964016977E+00  0.24277343442E+02  0.00000000000E+00 0. -1.
       -4    1    3    3    0  502  0.48746347219E+02  0.39117297817E+02 -0.29666034352E+02  0.69184123539E+02  0.00000000000E+00 0.  1.
</event>
<event>
 8   1  0.2279600E-02  0.8484315E+02  0.7546771E-02  0.1316498E+00
        2   -1    0    0  501    0  0.00000000000E+00  0.00000000000E+00  0.68809929601E+03  0.68809929601E+03  0.00000000000E+00 0. -1.
       -2   -1    0    0    0  501 -0.00000000000E+00 -0.00000000000E+00 -0.10685636815E+02  0.10685636815E+02  0.00000000000E+00 0.  1.
      -24    2    1    2    0    0  0.24880324136E+02  0.84778342817E+01  0.27772115095E+03  0.29039180086E+03  0.80668805133E+02 0.  0.
       24    2    1    2    0    0 -0.24880324136E+02 -0.84778342817E+01  0.39969250825E+03  0.40839313196E+03  0.79623770835E+02 0.  0.
      -13    1    4    4    0    0 -0.36865202212E+02  0.74099095161E+01  0.83514460044E+02  0.91589382188E+02  0.00000000000E+00 0.  1.
       14    1    4    4    0    0  0.11984878076E+02 -0.15887743798E+02  0.31617804820E+03  0.31680374977E+03  0.00000000000E+00 0. -1.
        1    1    3    3  502    0  0.23505556429E+02 -0.19942099034E+02  0.37736021864E+02  0.48725823164E+02  0.00000000000E+00 0. -1.
       -2    1    3    3    0  502  0.13747677069E+01  0.28419933316E+02  0.23998512908E+03  0.24166597770E+03  0.00000000000E+00 0.  1.
</event>
<event>
 8   1  0.2279600E-02  0.1132420E+03  0.7546771E-02  0.1254727E+00
        2   -1    0    0  501    0  0.00000000000E+00  0.00000000000E+00  0.60772627091E+03  0.60772627091E+03  0.00000000000E+00 0. -1.
       -2   -1    0    0    0  501 -0.00000000000E+00 -0.00000000000E+00 -0.23601028969E+02  0.23601028969E+02  0.00000000000E+00 0.  1.
      -24    2    1    2    0    0 -0.54611523515E+02 -0.57373185681E+02  0.39507216607E+03  0.41095303356E+03  0.80785385139E+02 0.  0.
       24    2    1    2    0    0  0.54611523515E+02  0.57373185681E+02  0.18905307587E+03  0.22037426632E+03  0.80929913037E+02 0.  0.
      -13    1    4    4    0    0  0.54928377683E+02  0.28552789896E+02  0.17971274261E+03  0.19007645394E+03  0.00000000000E+00 0.  1.
       14    1    4    4    0    0 -0.31685416795E+00  0.28820395785E+02  0.93403332632E+01  0.30297812383E+02  0.00000000000E+00 0. -1.
        1    1    3    3  502    0 -0.74299158743E+02 -0.55195187309E+02  0.30531464315E+03  0.31903589926E+03  0.00000000000E+00 0. -1.
       -2    1    3    3    0  502  0.19687635228E+02 -0.21779983715E+01  0.89757522919E+02  0.91917134302E+02  0.00000000000E+00 0.  1.
</event>
<event>
 8   1  0.2279600E-02  0.1231111E+03  0.7546771E-02  0.1248936E+00
        1   -1    0    0  501    0  0.00000000000E+00  0.00000000000E+00  0.16286371279E+04  0.16286371279E+04  0.00000000000E+00 0. -1.
       -1   -1    0    0    0  501 -0.00000000000E+00 -0.00000000000E+00 -0.21686181703E+02  0.21686181703E+02  0.00000000000E+00 0.  1.
       24    2    1    2    0    0 -0.24504355656E+02 -0.49385586534E+02  0.10823906983E+03  0.14656347879E+03  0.82010715596E+02 0.  0.
      -24    2    1    2    0    0  0.24504355656E+02  0.49385586534E+02  0.14987118764E+04  0.15037598308E+04  0.11007697677E+03 0.  0.
      -13    1    3    3    0    0 -0.26807955434E+02 -0.69896808752E+02  0.67077135247E+02  0.10051652810E+03  0.00000000000E+00 0.  1.
       14    1    3    3    0    0  0.23035997778E+01  0.20511222218E+02  0.41161934586E+02  0.46046950688E+02  0.00000000000E+00 0. -1.
        3    1    4    4  502    0 -0.27126285730E+02  0.59627995523E+02  0.10347791592E+04  0.10368506360E+04  0.00000000000E+00 0. -1.
       -4    1    4    4    0  502  0.51630641386E+02 -0.10242408989E+02  0.46393271720E+03  0.46690919477E+03  0.00000000000E+00 0.  1.
</event>
<event>
 8   1  0.2279600E-02  0.8647693E+02  0.7546771E-02  0.1312682E+00
       -1   -1    0    0    0  501 -0.00000000000E+00  0.00000000000E+00  0.55137285956E+02  0.55137285956E+02  0.00000000000E+00 0.  1.
        1   -1    0    0  501    0  0.00000000000E+00 -0.00000000000E+00 -0.13334165278E+03  0.13334165278E+03  0.00000000000E+00 0. -1.
       24    2    1    2    0    0  0.11197095975E+02  0.31103129267E+02 -0.35073408656E+02  0.93318822492E+02  0.79909192388E+02 0.  0.
      -24    2    1    2    0    0 -0.11197095975E+02 -0.31103129267E+02 -0.43130958166E+02  0.95160116243E+02  0.78117786467E+02 0.  0.
      -13    1    3    3    0    0 -0.34725848929E+02  0.14759103433E+02 -0.15368579614E+02  0.40741980283E+02  0.00000000000E+00 0.  1.
       14    1    3    3    0    0  0.45922944904E+02  0.16344025833E+02 -0.19704829042E+02  0.52576842209E+02  0.00000000000E+00 0. -1.
        1    1    4    4  502    0  0.14777178726E+02  0.85925099134E+01  0.13140364640E+02  0.21560737941E+02  0.00000000000E+00 0. -1.
       -2    1    4    4    0  502 -0.25974274700E+02 -0.39695639180E+02 -0.56271322805E+02  0.73599378301E+02  0.00000000000E+00 0.  1.
</event>
<event>
 8   1  0.2279600E-02  0.8850542E+02  0.7546771E-02  0.1314966E+00
       -2   -1    0    0    0  501 -0.00000000000E+00  0.00000000000E+00  0.69621327776E+02  0.69621327776E+02  0.00000000000E+00 0.  1.
        2   -1    0    0  501    0  0.00000000000E+00 -0.00000000000E+00 -0.17126768188E+03  0.17126768188E+03  0.00000000000E+00 0. -1.
      -24    2    1    2    0    0 -0.29323206851E+02 -0.10620259192E+02  0.30512554931E+02  0.81831828529E+02  0.69229991959E+02 0.  0.
       24    2    1    2    0    0  0.29323206851E+02  0.10620259192E+02 -0.13215890904E+03  0.15905718113E+03  0.82828553442E+02 0.  0.
      -13    1    4    4    0    0 -0.22819153623E+02  0.11372593335E+02 -0.12222392721E+02  0.28274308746E+02  0.00000000000E+00 0.  1.
       14    1    4    4    0    0  0.52142360474E+02 -0.75233414281E+00 -0.11993651632E+03  0.13078287238E+03  0.00000000000E+00 0. -1.
        1    1    3    3  502    0 -0.29832983748E+01  0.21232415060E+02 -0.10263522236E+02  0.23770894118E+02  0.00000000000E+00 0. -1.
       -2    1    3    3    0  502 -0.26339908476E+02 -0.31852674252E+02  0.40776077167E+02  0.58060934411E+02  0.00000000000E+00 0.  1.
</event>
<event>
 8   1  0.2279600E-02  0.8935107E+02  0.7546771E-02  0.1309435E+00
       -2   -1    0    0    0  501 -0.00000000000E+00  0.00000000000E+00  0.13004740309E+02  0.13004740309E+02  0.00000000000E+00 0.  1.
        2   -1    0    0  501    0  0.00000000000E+00 -0.00000000000E+00 -0.19004467301E+04  0.19004467301E+04  0.00000000000E+00 0. -1.
      -24    2    1    2    0    0 -0.31922644280E+01 -0.42332601678E+02 -0.12821271613E+03  0.15195459232E+03  0.69638048761E+02 0.  0.
       24    2    1    2    0    0  0.31922644280E+01  0.42332601678E+02 -0.17592292737E+04  0.17614968781E+04  0.78621717486E+02 0.  0.
      -13    1    4    4    0    0 -0.25401391119E+02  0.85903976749E+01 -0.21939821229E+03  0.22103076971E+03  0.00000000000E+00 0.  1.
       14    1    4    4    0    0  0.28593655547E+02  0.33742204003E+02 -0.15398310614E+04  0.15404661084E+04  0.00000000000E+00 0. -1.
        1    1    3    3  502    0  0.50758916259E+01 -0.42894749240E+02 -0.13468350227E+03  0.14144034068E+03  0.00000000000E+00 0. -1.
       -2    1    3    3    0  502 -0.82681560540E+01  0.56214756193E+00  0.64707861412E+01  0.10514251647E+02  0.00000000000E+00 0.  1.
</event>
<event>
 8   1  0.2279600E-02  0.8024448E+02  0.7546771E-02  0.1329586E+00
       -1   -1    0    0    0  501 -0.00000000000E+00  0.00000000000E+00  0.11754538978E+02  0.11754538978E+02  0.00000000000E+00 0.  1.
        1   -1    0    0  501    0  0.00000000000E+00 -0.00000000000E+00 -0.54204839736E+03  0.54204839736E+03  0.00000000000E+00 0. -1.
       24    2    1    2    0    0  0.48881481931E+01  0.83895961432E+01 -0.23341839512E+03  0.24627372236E+03  0.77925091153E+02 0.  0.
      -24    2    1    2    0    0 -0.48881481931E+01 -0.83895961432E+01 -0.29687546327E+03  0.30752921398E+03  0.79654864528E+02 0.  0.
      -13    1    3    3    0    0  0.40693099823E+02  0.89865663450E+01 -0.10534983897E+03  0.11329287409E+03  0.00000000000E+00 0.  1.
       14    1    3    3    0    0 -0.35804951629E+02 -0.59697020174E+00 -0.12806855615E+03  0.13298084827E+03  0.00000000000E+00 0. -1.
        1    1    4    4  502    0 -0.14560358652E+02 -0.14711291786E+02 -0.29511619405E+03  0.29584116371E+03  0.00000000000E+00 0. -1.
       -2    1    4    4    0  502  0.96722104586E+01  0.63216956426E+01 -0.17592692122E+01  0.11688050270E+02  0.00000000000E+00 0.  1.
</event>
<event>
 8   1  0.2279600E-02  0.8805636E+02  0.7546771E-02  0.1316147E+00
        1   -1    0    0  501    0  0.00000000000E+00  0.00000000000E+00  0.48958756911E+01  0.48958756911E+01  0.00000000000E+00 0. -1.
       -1   -1    0    0    0  501 -0.00000000000E+00 -0.00000000000E+00 -0.14590293800E+04  0.14590293800E+04  0.00000000000E+00 0.  1.
       24    2    1    2    0    0 -0.33251914110E+02 -0.64947529238E+01 -0.85943874678E+03  0.86274659955E+03  0.67445266338E+02 0.  0.
      -24    2    1    2    0    0  0.33251914110E+02  0.64947529238E+01 -0.59469475756E+03  0.60117865618E+03  0.81277612948E+02 0.  0.
      -13    1    3    3    0    0 -0.30315753316E+02  0.26382690428E+02 -0.57411687767E+03  0.57552174631E+03  0.00000000000E+00 0.  1.
       14    1    3    3    0    0 -0.29361607940E+01 -0.32877443352E+02 -0.28532186911E+03  0.28722485324E+03  0.00000000000E+00 0. -1.
        1    1    4    4  502    0 -0.18852945880E+02 -0.21434302576E+02 -0.16798680244E+03  0.17039491978E+03  0.00000000000E+00 0. -1.
       -2    1    4    4    0  502  0.52104859990E+02  0.27929055500E+02 -0.42670795513E+03  0.43078373640E+03  0.00000000000E+00 0.  1.
</event>
<event>
 8   1  0.2279600E-02  0.8360045E+02  0.7546771E-02  0.1320548E+00
        4   -1    0    0  501    0  0.00000000000E+00  0.00000000000E+00  0.17207135448E+03  0.17207135448E+03  0.00000000000E+00 0. -1.
       -4   -1    0    0    0  501 -0.00000000000E+00 -0.00000000000E+00 -0.44102701612E+02  0.44102701612E+02  0.00000000000E+00 0.  1.
      -24    2    1    2    0    0 -0.36047661848E+01 -0.16666896386E+02  0.28759907370E+02  0.86438129810E+02  0.79709712324E+02 0.  0.
       24    2    1    2    0    0  0.36047661848E+01  0.16666896386E+02  0.99208745496E+02  0.12973592628E+03  0.81842871470E+02 0.  0.
      -13    1    4    4    0    0 -0.37595639291E+02  0.12206102368E+02  0.32360744141E+02  0.51084623813E+02  0.00000000000E+00 0.  1.
       14    1    4    4    0    0  0.41200405476E+02  0.44607940175E+01  0.66848001356E+02  0.78651302468E+02  0.00000000000E+00 0. -1.
        1    1    3    3  502    0  0.15629835691E+02  0.13292637811E+02  0.43351159208E+02  0.47961536552E+02  0.00000000000E+00 0. -1.
       -2    1    3    3    0  502 -0.19234601876E+02 -0.29959534196E+02 -0.14591251839E+02  0.38476593259E+02  0.00000000000E+00 0.  1.
</event>
<event>
 8   1  0.2279600E-02  0.8508783E+02  0.7546771E-02  0.1316009E+00
       -2   -1    0    0    0  501 -0.00000000000E+00  0.00000000000E+00  0.18999467072E+01  0.18999467072E+01  0.00000000000E+00 0.  1.
        2   -1    0    0  501    0  0.00000000000E+00 -0.00000000000E+00 -0.37938482926E+04  0.37938482926E+04  0.00000000000E+00 0. -1.
      -24    2    1    2    0    0  0.22085257903E+02  0.81000740805E+01 -0.17199213607E+04  0.17220248040E+04  0.81771442127E+02 0.  0.
       24    2    1    2    0    0 -0.22085257903E+02 -0.81000740805E+01 -0.20720269852E+04  0.20737234353E+04  0.80496515454E+02 0.  0.
      -13    1    4    4    0    0  0.50561829894E+01  0.32422822401E+02 -0.60868528037E+03  0.60956917158E+03  0.00000000000E+00 0.  1.
       14    1    4    4    0    0 -0.27141440893E+02 -0.40522896482E+02 -0.14633417048E+04  0.14641542637E+04  0.00000000000E+00 0. -1.
        3    1    3    3  502    0  0.10487762689E+02 -0.31653449293E+02 -0.11977129487E+04  0.11981770493E+04  0.00000000000E+00 0. -1.
       -4    1    3    3    0  502  0.11597495214E+02  0.39753523374E+02 -0.52220841203E+03  0.52384775471E+03  0.00000000000E+00 0.  1.
</event>
<event>
 8   1  0.2279600E-02  0.8344816E+02  0.7546771E-02  0.1320923E+00
        2   -1    0    0  501    0  0.00000000000E+00  0.00000000000E+00  0.15568832715E+04  0.15568832715E+04  0.00000000000E+00 0. -1.
       -2   -1    0    0    0  501 -0.00000000000E+00 -0.00000000000E+00 -0.70741464792E+01  0.70741464792E+01  0.00000000000E+00 0.  1.
      -24    2    1    2    0    0  0.18303354597E+02  0.70379715814E+01  0.29685254763E+03  0.30835860578E+03  0.81111336379E+02 0.  0.
       24    2    1    2    0    0 -0.18303354597E+02 -0.70379715814E+01  0.12529565773E+04  0.12555988122E+04  0.79016748490E+02 0.  0.
      -13    1    4    4    0    0 -0.82782211083E+01 -0.32910209015E+02  0.25399458292E+03  0.25625155405E+03  0.00000000000E+00 0.  1.
       14    1    4    4    0    0 -0.10025133488E+02  0.25872237434E+02  0.99896199443E+03  0.99934725811E+03  0.00000000000E+00 0. -1.
        1    1    3    3  502    0 -0.27617128997E+02  0.19011954741E+02  0.16105136944E+03  0.16450441890E+03  0.00000000000E+00 0. -1.
       -2    1    3    3    0  502  0.45920483594E+02 -0.11973983160E+02  0.13580117819E+03  0.14385418689E+03  0.00000000000E+00 0.  1.
</event>
<event>
 8   1  0.2279600E-02  0.8996142E+02  0.7546771E-02  0.1302982E+00
       -2   -1    0    0    0  501 -0.00000000000E+00  0.00000000000E+00  0.48712631487E+02  0.48712631487E+02  0.00000000000E+00 0.  1.
        2   -1    0    0  501    0  0.00000000000E+00 -0.00000000000E+00 -0.16681306498E+03  0.16681306498E+03  0.00000000000E+00 0. -1.
      -24    2    1    2    0    0  0.16692174632E+02  0.37382817660E+02 -0.66476936337E+02  0.11185812520E+03  0.80105888413E+02 0.  0.
       24    2    1    2    0    0 -0.16692174632E+02 -0.37382817660E+02 -0.51623497160E+02  0.10366757127E+03  0.80036717348E+02 0.  0.
      -13    1    4    4    0    0 -0.46788822912E+02 -0.26674953163E+02 -0.16814886185E+02  0.56422402228E+02  0.00000000000E+00 0.  1.
       14    1    4    4    0    0  0.30096648280E+02 -0.10707864497E+02 -0.34808610975E+02  0.47245169042E+02  0.00000000000E+00 0. -1.
        3    1    3    3  502    0  0.36568981683E+02 -0.16241986980E+01 -0.55900804515E+02  0.66819371354E+02  0.00000000000E+00 0. -1.
       -4    1    3    3    0  502 -0.19876807050E+02  0.39007016358E+02 -0.10576131822E+02  0.45038753846E+02  0.00000000000E+00 0.  1.
</event>
<event>
 8   1  0.2279600E-02  0.8961577E+02  0.7546771E-02  0.1303823E+00
       -2   -1    0    0    0  501 -0.00000000000E+00  0.00000000000E+00  0.36416285985E+01  0.36416285985E+01  0.00000000000E+00 0.  1.
        2   -1    0    0  501    0  0.00000000000E+00 -0.00000000000E+00 -0.24145268597E+04  0.24145268597E+04  0.00000000000E+00 0. -1.
      -24    2    1    2    0    0  0.35062556761E+02 -0.53372367463E+01 -0.84863644543E+03  0.85335502769E+03  0.82298953763E+02 0.  0.
       24    2    1    2    0    0 -0.35062556761E+02  0.53372367463E+01 -0.15622487856E+04  0.15648134606E+04  0.82231558324E+02 0.  0.
      -13    1    4    4    0    0  0.25245706027E+02 -0.59046499870E+01 -0.31892929900E+03  0.31998141872E+03  0.00000000000E+00 0.  1.
       14    1    4    4    0    0 -0.60308262788E+02  0.11241886733E+02 -0.12433194866E+04  0.12448320419E+04  0.00000000000E+00 0. -1.
        1    1    3    3  502    0  0.45386919612E+02 -0.20384389417E+02 -0.79766868884E+03  0.79921888926E+03  0.00000000000E+00 0. -1.
       -2    1    3    3    0  502 -0.10324362851E+02  0.15047152671E+02 -0.50967756598E+02  0.54136138433E+02  0.00000000000E+00 0.  1.
</event>
<event>
 8   1  0.2279600E-02  0.9059275E+02  0.7546771E-02  0.1301664E+00
       -2   -1    0    0    0  501 -0.00000000000E+00  0.00000000000E+00  0.32719380792E+03  0.32719380792E+03  0.00000000000E+00 0.  1.
        2   -1    0    0  501    0  0.00000000000E+00 -0.00000000000E+00 -0.29078305105E+02  0.29078305105E+02  0.00000000000E+00 0. -1.
      -24    2    1    2    0    0 -0.99059804159E+01  0.39741476099E+02  0.21628374626E+03  0.23449030896E+03  0.80805524124E+02 0.  0.
       24    2    1    2    0    0  0.99059804159E+01 -0.39741476099E+02  0.81831756551E+02  0.12178180406E+03  0.80354577032E+02 0.  0.
      -13    1    4    4    0    0  0.31104192296E+02 -0.33686830663E+02  0.87705067809E+02  0.98966925070E+02  0.00000000000E+00 0.  1.
       14    1    4    4    0    0 -0.21198211881E+02 -0.60546454358E+01 -0.58733112582E+01  0.22814878992E+02  0.00000000000E+00 0. -1.
        3    1    3    3  502    0 -0.14291374639E+02  0.60790784925E+02  0.19274806356E+03  0.20261189236E+03  0.00000000000E+00 0. -1.
       -4    1    3    3    0  502  0.43853942230E+01 -0.21049308826E+02  0.23535682704E+02  0.31878416600E+02  0.00000000000E+00 0.  1.
</event>
<event>
 8   1  0.2279600E-02  0.9697883E+02  0.7546771E-02  0.1293077E+00
        4   -1    0    0  501    0  0.00000000000E+00  0.00000000000E+00  0.44514845435E+02  0.44514845435E+02  0.00000000000E+00 0. -1.
       -4   -1    0    0    0  501 -0.00000000000E+00 -0.00000000000E+00 -0.19485183476E+03  0.19485183476E+03  0.00000000000E+00 0.  1.
      -24    2    1    2    0    0 -0.60253730393E+01 -0.19393247025E+02 -0.10115210751E+03  0.14013080647E+03  0.94828745216E+02 0.  0.
       24    2    1    2    0    0  0.60253730393E+01  0.19393247025E+02 -0.49184881819E+02  0.99235873723E+02  0.83762777434E+02 0.  0.
      -13    1    4    4    0    0  0.27635279346E+02  0.35241434199E+02 -0.55882033504E+02  0.71613329887E+02  0.00000000000E+00 0.  1.
       14    1    4    4    0    0 -0.21609906307E+02 -0.15848187173E+02  0.66971516853E+01  0.27622543836E+02  0.00000000000E+00 0. -1.
        3    1    3    3  502    0  0.26698621508E+02 -0.41813407202E+02 -0.82567726982E+02  0.96325525958E+02  0.00000000000E+00 0. -1.
       -4    1    3    3    0  502 -0.32723994548E+02  0.22420160176E+02 -0.18584380527E+02  0.43805280516E+02  0.00000000000E+00 0.  1.
</event>
<event>
 8   1  0.2279600E-02  0.1384542E+03  0.7546771E-02  0.1215783E+00
        1   -1    0    0  501    0  0.00000000000E+00  0.00000000000E+00  0.40425255252E+03  0.40425255252E+03  0.00000000000E+00 0. -1.
       -1   -1    0    0    0  501 -0.00000000000E+00 -0.00000000000E+00 -0.51739291437E+02  0.51739291437E+02  0.00000000000E+00 0.  1.
       24    2    1    2    0    0 -0.50627718098E+02 -0.99700668787E+02  0.10709638674E+03  0.17421353152E+03  0.79858182521E+02 0.  0.
      -24    2    1    2    0    0  0.50627718098E+02  0.99700668787E+02  0.24541687434E+03  0.28177831244E+03  0.81646714275E+02 0.  0.
      -13    1    3    3    0    0 -0.66178620020E+02 -0.83344581794E+02  0.60447769446E+02  0.12239224605E+03  0.00000000000E+00 0.  1.
       14    1    3    3    0    0  0.15550901922E+02 -0.16356086993E+02  0.46648617294E+02  0.51821285470E+02  0.00000000000E+00 0. -1.
        1    1    4    4  502    0  0.48958474456E+02  0.11269279447E+03  0.20204455201E+03  0.23647113808E+03  0.00000000000E+00 0. -1.
       -2    1    4    4    0  502  0.16692436418E+01 -0.12992125683E+02  0.43372322332E+02  0.45307174361E+02  0.00000000000E+00 0.  1.
</event>
<event>
 8   1  0.2279600E-02  0.8570813E+02  0.7546771E-02  0.1316143E+00
       -2   -1    0    0    0  501 -0.00000000000E+00  0.00000000000E+00  0.47513989831E+02  0.47513989831E+02  0.00000000000E+00 0.  1.
        2   -1    0    0  501    0  0.00000000000E+00 -0.00000000000E+00 -0.14796625284E+03  0.14796625284E+03  0.00000000000E+00 0. -1.
      -24    2    1    2    0    0 -0.11843345300E+02 -0.85087752434E+01 -0.52920707761E+02  0.97474466645E+02  0.80548161082E+02 0.  0.
       24    2    1    2    0    0  0.11843345300E+02  0.85087752434E+01 -0.47531555250E+02  0.98005776028E+02  0.84458388017E+02 0.  0.
      -13    1    4    4    0    0 -0.21421460140E+02  0.17439962106E+02  0.11290738600E+02  0.29841447869E+02  0.00000000000E+00 0.  1.
       14    1    4    4    0    0  0.33264805439E+02 -0.89311868629E+01 -0.58822293850E+02  0.68164328159E+02  0.00000000000E+00 0. -1.
        1    1    3    3  502    0  0.12941731870E+02 -0.43962273119E+00 -0.66731426338E+02  0.67976208728E+02  0.00000000000E+00 0. -1.
       -2    1    3    3    0  502 -0.24785077169E+02 -0.80691525122E+01  0.13810718576E+02  0.29498257917E+02  0.00000000000E+00 0.  1.
</event>
<event>
 8   1  0.2279600E-02  0.1036669E+03  0.7546771E-02  0.1273231E+00
       -2   -1    0    0    0  501 -0.00000000000E+00  0.00000000000E+00  0.36513913405E+02  0.36513913405E+02  0.00000000000E+00 0.  1.
        2   -1    0    0  501    0  0.00000000000E+00 -0.00000000000E+00 -0.49307363193E+03  0.49307363193E+03  0.00000000000E+00 0. -1.
      -24    2    1    2    0    0 -0.54094439728E+02 -0.31130903551E+02 -0.59669710128E+02  0.11961308557E+03  0.82773633292E+02 0.  0.
       24    2    1    2    0    0  0.54094439728E+02  0.31130903551E+02 -0.39689000840E+03  0.40997445976E+03  0.81621304362E+02 0.  0.
      -13    1    4    4    0    0  0.18741805991E+02  0.52018306408E+02 -0.29472143600E+03  0.29986310932E+03  0.00000000000E+00 0.  1.
       14    1    4    4    0    0  0.35352633737E+02 -0.20887402857E+02 -0.10216857240E+03  0.11011135044E+03  0.00000000000E+00 0. -1.
        3    1    3    3  502    0 -0.54468598773E+02 -0.56389825159E+02 -0.44641232673E+02  0.90219068319E+02  0.00000000000E+00 0. -1.
       -4    1    3    3    0  502  0.37415904471E+00  0.25258921608E+02 -0.15028477456E+02  0.29394017256E+02  0.00000000000E+00 0.  1.
</event>
<event>
 8   1  0.2279600E-02  0.1243987E+03  0.7546771E-02  0.1236380E+00
        2   -1    0    0  501    0  0.00000000000E+00  0.00000000000E+00  0.21306236388E+04  0.21306236388E+04  0.00000000000E+00 0. -1.
       -2   -1    0    0    0  501 -0.00000000000E+00 -0.00000000000E+00 -0.82862841630E+01  0.82862841630E+01  0.00000000000E+00 0.  1.
      -24    2    1    2    0    0  0.45321054017E+02  0.82497617913E+02  0.67204943484E+03  0.68329662090E+03  0.79899777005E+02 0.  0.
       24    2    1    2    0    0 -0.45321054017E+02 -0.82497617913E+02  0.14502879198E+04  0.14556133021E+04  0.81333756441E+02 0.  0.
      -13    1    4    4    0    0 -0.12801322374E+02  0.13466837471E+02  0.11548659781E+03  0.11697172239E+03  0.00000000000E+00 0.  1.
       14    1    4    4    0    0 -0.32519731643E+02 -0.95964455384E+02  0.13348013220E+04  0.13386415797E+04  0.00000000000E+00 0. -1.
        3    1    3    3  502    0  0.12088073314E+01 -0.71570024229E+00  0.28321283335E+03  0.28321631735E+03  0.00000000000E+00 0. -1.
       -4    1    3    3    0  502  0.44112246685E+02  0.83213318155E+02  0.38883660150E+03  0.40008030355E+03  0.00000000000E+00 0.  1.
</event>
<event>
 8   1  0.2279600E-02  0.9340412E+02  0.7546771E-02  0.1295180E+00
       -2   -1    0    0    0  501 -0.00000000000E+00  0.00000000000E+00  0.24464245430E+02  0.24464245430E+02  0.00000000000E+00 0.  1.
        2   -1    0    0  501    0  0.00000000000E+00 -0.00000000000E+00 -0.44702830693E+03  0.44702830693E+03  0.00000000000E+00 0. -1.
       24    2    1    2    0    0  0.46351496666E+01  0.47068383545E+02 -0.31814392821E+03  0.33139296915E+03  0.79804909651E+02 0.  0.
      -24    2    1    2    0    0 -0.46351496666E+01 -0.47068383545E+02 -0.10442013328E+03  0.14009958320E+03  0.80544469932E+02 0.  0.
      -13    1    3    3    0    0  0.12784293286E+02 -0.19400412418E+02 -0.12029329382E+03  0.12251649152E+03  0.00000000000E+00 0.  1.
       14    1    3    3    0    0 -0.81491436190E+01  0.66468795964E+02 -0.19785063440E+03  0.20887647764E+03  0.00000000000E+00 0. -1.
        1    1    4    4  502    0 -0.40779183253E+02 -0.10908569970E+02 -0.49823243645E+02  0.65301564246E+02  0.00000000000E+00 0. -1.
       -2    1    4    4    0  502  0.36144033586E+02 -0.36159813575E+02 -0.54596889638E+02  0.74798018957E+02  0.00000000000E+00 0.  1.
</event>
<event>
 8   1  0.2279600E-02  0.9959092E+02  0.7546771E-02  0.1281226E+00
       -1   -1    0    0    0  501 -0.00000000000E+00  0.00000000000E+00  0.87092673478E+03  0.87092673478E+03  0.00000000000E+00 0.  1.
        1   -1    0    0  501    0  0.00000000000E+00 -0.00000000000E+00 -0.31201760742E+02  0.31201760742E+02  0.00000000000E+00 0. -1.
       24    2    1    2    0    0  0.20715458622E+02  0.54265748123E+02  0.77933913908E+03  0.78566047405E+03  0.80740232472E+02 0.  0.
      -24    2    1    2    0    0 -0.20715458622E+02 -0.54265748123E+02  0.60385834962E+02  0.11646802147E+03  0.80897770777E+02 0.  0.
      -13    1    3    3    0    0 -0.25079081925E+02  0.44480691997E+02  0.47548300673E+03  0.47821708669E+03  0.00000000000E+00 0.  1.
       14    1    3    3    0    0  0.45794540546E+02  0.97850561261E+01  0.30385613234E+03  0.30744338736E+03  0.00000000000E+00 0. -1.
        3    1    4    4  502    0  0.46309174020E+01 -0.68906414486E+02  0.33645237569E+02  0.76821490251E+02  0.00000000000E+00 0. -1.
       -4    1    4    4    0  502 -0.25346376024E+02  0.14640666363E+02  0.26740597393E+02  0.39646531223E+02  0.00000000000E+00 0.  1.
</event>
<event>
 8   1  0.2279600E-02  0.9617028E+02  0.7546771E-02  0.1291514E+00
       -2   -1    0    0    0  501 -0.00000000000E+00  0.00000000000E+00  0.81638187016E+02  0.81638187016E+02  0.00000000000E+00 0.  1.
        2   -1    0    0  501    0  0.00000000000E+00 -0.00000000000E+00 -0.11047511749E+03  0.11047511749E+03  0.00000000000E+00 0. -1.
      -24    2    1    2    0    0 -0.41827624565E+02  0.92114170259E+01 -0.31142382820E+02  0.10108694232E+03  0.86106454579E+02 0.  0.
       24    2    1    2    0    0  0.41827624565E+02 -0.92114170259E+01  0.23054523455E+01  0.91026362183E+02  0.80287502897E+02 0.  0.
      -13    1    4    4    0    0  0.61819643582E+02 -0.23620164675E+02 -0.83561446468E+00  0.66183674448E+02  0.00000000000E+00 0.  1.
       14    1    4    4    0    0 -0.19992019017E+02  0.14408747649E+02  0.31410668102E+01  0.24842687735E+02  0.00000000000E+00 0. -1.
        3    1    3    3  502    0 -0.48053816415E+02 -0.29864375639E+02 -0.19429744911E+02  0.59821109917E+02  0.00000000000E+00 0. -1.
       -4    1    3    3    0  502  0.62261918506E+01  0.39075792665E+02 -0.11712637909E+02  0.41265832406E+02  0.00000000000E+00 0.  1.
</event>
<event>
 8   1  0.2279600E-02  0.1079742E+03  0.7546771E-02  0.1264664E+00
       -2   -1    0    0    0  501 -0.00000000000E+00  0.00000000000E+00  0.72365458272E+01  0.72365458272E+01  0.00000000000E+00 0.  1.
        2   -1    0    0  501    0  0.00000000000E+00 -0.00000000000E+00 -0.33182619136E+04  0.33182619136E+04  0.00000000000E+00 0. -1.
      -24    2    1    2    0    0  0.70637149502E+02 -0.15404692926E+02 -0.45731497683E+03  0.46974612014E+03  0.79356902029E+02 0.  0.
       24    2    1    2    0    0 -0.70637149502E+02  0.15404692926E+02 -0.28537103910E+04  0.28557523393E+04  0.80196736322E+02 0.  0.
      -13    1    4    4    0    0  0.43606437773E+00  0.26224055511E+02 -0.14185300755E+04  0.14187725210E+04  0.00000000000E+00 0.  1.
       14    1    4    4    0    0 -0.71073213879E+02 -0.10819362585E+02 -0.14351803154E+04  0.14369798183E+04  0.00000000000E+00 0. -1.
        3    1    3    3  502    0 -0.15332513042E+02  0.84556645154E+01 -0.95605711086E+02  0.97195865194E+02  0.00000000000E+00 0. -1.
       -4    1    3    3    0  502  0.85969662544E+02 -0.23860357441E+02 -0.36170926575E+03  0.37255025495E+03  0.00000000000E+00 0.  1.
</event>
<event>
 8   1  0.2279600E-02  0.9933901E+02  0.7546771E-02  0.1281892E+00
       -1   -1    0    0    0  501 -0.00000000000E+00  0.00000000000E+00  0.13825501538E+02  0.13825501538E+02  0.00000000000E+00 0.  1.
        1   -1    0    0  501    0  0.00000000000E+00 -0.00000000000E+00 -0.87801519909E+03  0.87801519909E+03  0.00000000000E+00 0. -1.
       24    2    1    2    0    0  0.35623241806E+02  0.43732019035E+02 -0.23831451131E+03  0.25818994113E+03  0.81772455960E+02 0.  0.
      -24    2    1    2    0    0 -0.35623241806E+02 -0.43732019035E+02 -0.62587518624E+03  0.63365075950E+03  0.81314398574E+02 0.  0.
      -13    1    3    3    0    0  0.63243709106E+00 -0.11872033836E+02 -0.13651522779E+03  0.13703194001E+03  0.00000000000E+00 0.  1.
       14    1    3    3    0    0  0.34990804715E+02  0.55604052872E+02 -0.10179928352E+03  0.12115800112E+03  0.00000000000E+00 0. -1.
        1    1    4    4  502    0 -0.15382469412E+02  0.18295550326E+02 -0.70194455156E+02  0.74152606573E+02  0.00000000000E+00 0. -1.
       -2    1    4    4    0  502 -0.20240772395E+02 -0.62027569361E+02 -0.55568073109E+03  0.55949815293E+03  0.00000000000E+00 0.  1.
</event>
<event>
 8   1  0.2279600E-02  0.9621179E+02  0.7546771E-02  0.1290228E+00
        2   -1    0    0  501    0  0.00000000000E+00  0.00000000000E+00  0.16120789256E+04  0.16120789256E+04  0.00000000000E+00 0. -1.
       -2   -1    0    0    0  501 -0.00000000000E+00 -0.00000000000E+00 -0.11960151706E+02  0.11960151706E+02  0.00000000000E+00 0.  1.
       24    2    1    2    0    0  0.21147125239E+02 -0.48208322588E+02  0.14002766550E+04  0.14035780770E+04  0.80532382898E+02 0.  0.
      -24    2    1    2    0    0 -0.21147125239E+02  0.48208322588E+02  0.19984211889E+03  0.22046100021E+03  0.76778492148E+02 0.  0.
      -13    1    3    3    0    0 -0.77550127694E+01 -0.58916697758E+02  0.66311849960E+03  0.66577583466E+03  0.00000000000E+00 0.  1.
       14    1    3    3    0    0  0.28902138008E+02  0.10708375170E+02  0.73715815535E+03  0.73780224239E+03  0.00000000000E+00 0. -1.
        1    1    4    4  502    0 -0.29475038685E+02  0.53273072900E+02  0.81562010342E+02  0.10177995742E+03  0.00000000000E+00 0. -1.
       -2    1    4    4    0  502  0.83279134467E+01 -0.50647503118E+01  0.11828010855E+03  0.11868104279E+03  0.00000000000E+00 0.  1.
</event>
<event>
 8   1  0.2279600E-02  0.1288911E+03  0.7546771E-02  0.1229598E+00
       -1   -1    0    0    0  501 -0.00000000000E+00  0.00000000000E+00  0.15602265188E+02  0.15602265188E+02  0.00000000000E+00 0.  1.
        1   -1    0    0  501    0  0.00000000000E+00 -0.00000000000E+00 -0.12597969336E+04  0.12597969336E+04  0.00000000000E+00 0. -1.
       24    2    1    2    0    0 -0.25061129675E+01  0.98918670405E+02 -0.36181578507E+03  0.38365629830E+03  0.80562453677E+02 0.  0.
      -24    2    1    2    0    0  0.25061129675E+01 -0.98918670405E+02 -0.88237888337E+03  0.89174290052E+03  0.82593721600E+02 0.  0.
      -13    1    3    3    0    0 -0.28682703432E+02  0.94956064810E+02 -0.30976388453E+03  0.32525838326E+03  0.00000000000E+00 0.  1.
       14    1    3    3    0    0  0.26176590464E+02  0.39626055952E+01 -0.52051900539E+02  0.58397915041E+02  0.00000000000E+00 0. -1.
        3    1    4    4  502    0  0.16653499070E+02 -0.10977800918E+03 -0.76589856378E+03  0.77390513652E+03  0.00000000000E+00 0. -1.
       -4    1    4    4    0  502 -0.14147386102E+02  0.10859338774E+02 -0.11648031959E+03  0.11783776400E+03  0.00000000000E+00 0.  1.
</event>
<event>
 8   1  0.2279600E-02  0.1035496E+03  0.7546771E-02  0.1283357E+00
        2   -1    0    0  501    0  0.00000000000E+00  0.00000000000E+00  0.26451241219E+04  0.26451241219E+04  0.00000000000E+00 0. -1.
       -2   -1    0    0    0  501 -0.00000000000E+00 -0.00000000000E+00 -0.34161448717E+02  0.34161448717E+02  0.00000000000E+00 0.  1.
      -24    2    1    2    0    0 -0.54880454800E+02 -0.29398037372E+02  0.21375414134E+02  0.87628822532E+02  0.57842832646E+02 0.  0.
       24    2    1    2    0    0  0.54880454800E+02  0.29398037372E+02  0.25895872591E+04  0.25916567481E+04  0.82743088841E+02 0.  0.
      -13    1    4    4    0    0  0.75706632238E+02  0.23952174285E+02  0.17601343934E+04  0.17619245965E+04  0.00000000000E+00 0.  1.
       14    1    4    4    0    0 -0.20826177438E+02  0.54458630872E+01  0.82945286567E+03  0.82973215164E+03  0.00000000000E+00 0. -1.
        1    1    3    3  502    0  0.59567799858E+01  0.45364297961E+01  0.16114429834E+02  0.17768997495E+02  0.00000000000E+00 0. -1.
       -2    1    3    3    0  502 -0.60837234785E+02 -0.33934467168E+02  0.52609842993E+01  0.69859825036E+02  0.00000000000E+00 0.  1.
</event>
<event>
 8   1  0.2279600E-02  0.8833836E+02  0.7546771E-02  0.1309068E+00
        2   -1    0    0  501    0  0.00000000000E+00  0.00000000000E+00  0.12632007898E+04  0.12632007898E+04  0.00000000000E+00 0. -1.
       -2   -1    0    0    0  501 -0.00000000000E+00 -0.00000000000E+00 -0.73801030255E+01  0.73801030255E+01  0.00000000000E+00 0.  1.
      -24    2    1    2    0    0  0.14827955086E+02 -0.27868795005E+02  0.33782474767E+03  0.34834436663E+03  0.78877751221E+02 0.  0.
       24    2    1    2    0    0 -0.14827955086E+02  0.27868795005E+02  0.91799593908E+03  0.92223652617E+03  0.82505321340E+02 0.  0.
      -13    1    4    4    0    0  0.26319518643E+02 -0.78983924249E+01  0.16528216377E+03  0.16755087384E+03  0.00000000000E+00 0.  1.
       14    1    4    4    0    0 -0.41147473728E+02  0.35767187430E+02  0.75271377531E+03  0.75468565233E+03  0.00000000000E+00 0. -1.
        1    1    3    3  502    0  0.17119144128E+02  0.22519196697E+02  0.19131609331E+03  0.19339603635E+03  0.00000000000E+00 0. -1.
       -2    1    3    3    0  502 -0.22911890418E+01 -0.50387991702E+02  0.14650865436E+03  0.15494833028E+03  0.00000000000E+00 0.  1.
</event>
<event>
 8   1  0.2279600E-02  0.1227190E+03  0.7546771E-02  0.1239265E+00
        1   -1    0    0  501    0  0.00000000000E+00  0.00000000000E+00  0.11169847007E+03  0.11169847007E+03  0.00000000000E+00 0. -1.
       -1   -1    0    0    0  501 -0.00000000000E+00 -0.00000000000E+00 -0.20086734605E+03  0.20086734605E+03  0.00000000000E+00 0.  1.
       24    2    1    2    0    0 -0.80910169146E+02  0.39222698567E+02 -0.13544808063E+03  0.18277342416E+03  0.83516863445E+02 0.  0.
      -24    2    1    2    0    0  0.80910169146E+02 -0.39222698567E+02  0.46279204650E+02  0.12979239196E+03  0.81359846817E+02 0.  0.
      -13    1    3    3    0    0 -0.66473241546E+02  0.26600748854E+02 -0.14472783102E+03  0.16146961557E+03  0.00000000000E+00 0.  1.
       14    1    3    3    0    0 -0.14436927600E+02  0.12621949713E+02  0.92797503913E+01  0.21303808590E+02  0.00000000000E+00 0. -1.
        3    1    4    4  502    0  0.11416906954E+02  0.22673102836E+02  0.22059966591E+02  0.33631198055E+02  0.00000000000E+00 0. -1.
       -4    1    4    4    0  502  0.69493262192E+02 -0.61895801404E+02  0.24219238059E+02  0.96161193907E+02  0.00000000000E+00 0.  1.
</event>
<event>
 8   1  0.2279600E-02  0.1000885E+03  0.7546771E-02  0.1281273E+00
        2   -1    0    0  501    0  0.00000000000E+00  0.00000000000E+00  0.11932190923E+04  0.11932190923E+04  0.00000000000E+00 0. -1.
       -2   -1    0    0    0  501 -0.00000000000E+00 -0.00000000000E+00 -0.10679349125E+02  0.10679349125E+02  0.00000000000E+00 0.  1.
       24    2    1    2    0    0 -0.91863124545E+01 -0.55453343416E+02  0.88555992062E+03  0.89119811577E+03  0.82814533183E+02 0.  0.
      -24    2    1    2    0    0  0.91863124545E+01  0.55453343416E+02  0.29697982255E+03  0.31270032566E+03  0.80156203933E+02 0.  0.
      -13    1    3    3    0    0  0.22092432829E+02  0.51904285139E+01  0.42557687415E+03  0.42618152464E+03  0.00000000000E+00 0.  1.
       14    1    3    3    0    0 -0.31278745284E+02 -0.60643771930E+02  0.45998304648E+03  0.46501659113E+03  0.00000000000E+00 0. -1.
        3    1    4    4  502    0 -0.35389943466E+02  0.19260770872E+02  0.13213760494E+03  0.13814402641E+03  0.00000000000E+00 0. -1.
       -4    1    4    4    0  502  0.44576255921E+02  0.36192572543E+02  0.16484221762E+03  0.17455629925E+03  0.00000000000E+00 0.  1.
</event>
<event>
 8   1  0.2279600E-02  0.8112511E+02  0.7546771E-02  0.1332658E+00
        1   -1    0    0  501    0  0.00000000000E+00  0.00000000000E+00  0.36846450485E+03  0.36846450485E+03  0.00000000000E+00 0. -1.
       -1   -1    0    0    0  501 -0.00000000000E+00 -0.00000000000E+00 -0.37173431380E+02  0.37173431380E+02  0.00000000000E+00 0.  1.
       24    2    1    2    0    0 -0.91098283666E+01 -0.19263146958E+02  0.81475625904E+01  0.72466790393E+02  0.68782229755E+02 0.  0.
      -24    2    1    2    0    0  0.91098283666E+01  0.19263146958E+02  0.32314351088E+03  0.33317114584E+03  0.78276599255E+02 0.  0.
      -13    1    3    3    0    0 -0.94529950050E+01 -0.20594413967E+02 -0.28153264009E+02  0.36139940171E+02  0.00000000000E+00 0.  1.
       14    1    3    3    0    0  0.34316663842E+00  0.13312670094E+01  0.36300826600E+02  0.36326850221E+02  0.00000000000E+00 0. -1.
        1    1    4    4  502    0  0.28258010642E+02  0.34356252574E+02  0.11025232314E+03  0.11888835945E+03  0.00000000000E+00 0. -1.
       -2    1    4    4    0  502 -0.19148182276E+02 -0.15093105617E+02  0.21289118775E+03  0.21428278639E+03  0.00000000000E+00 0.  1.
</event>
<event>
 8   1  0.2279600E-02  0.1235312E+03  0.7546771E-02  0.1237625E+00
       -2   -1    0    0    0  501 -0.00000000000E+00  0.00000000000E+00  0.33608564712E+03  0.33608564712E+03  0.00000000000E+00 0.  1.
        2   -1    0    0  501    0  0.00000000000E+00 -0.00000000000E+00 -0.93303869557E+02  0.93303869557E+02  0.00000000000E+00 0. -1.
      -24    2    1    2    0    0  0.86769222628E+02  0.33477362995E+02  0.27543135949E+03  0.30161641970E+03  0.80376607373E+02 0.  0.
       24    2    1    2    0    0 -0.86769222628E+02 -0.33477362995E+02 -0.32649581930E+02  0.12777309698E+03  0.81303980727E+02 0.  0.
      -13    1    4    4    0    0 -0.59590071033E+02 -0.30550911135E+02  0.18763667005E+02  0.69544301969E+02  0.00000000000E+00 0.  1.
       14    1    4    4    0    0 -0.27179151594E+02 -0.29264518600E+01 -0.51413248935E+02  0.58228795007E+02  0.00000000000E+00 0. -1.
        3    1    3    3  502    0  0.34160158061E+02  0.31968626419E+02  0.43826092307E+02  0.64106441492E+02  0.00000000000E+00 0. -1.
       -4    1    3    3    0  502  0.52609064567E+02  0.15087365754E+01  0.23160526719E+03  0.23750997821E+03  0.00000000000E+00 0.  1.
</event>
<event>
 8   1  0.2279600E-02  0.9041279E+02  0.7546771E-02  0.1303525E+00
       -2   -1    0    0    0  501 -0.00000000000E+00  0.00000000000E+00  0.90648054725E+02  0.90648054725E+02  0.00000000000E+00 0.  1.
        2   -1    0    0  501    0  0.00000000000E+00 -0.00000000000E+00 -0.11572280413E+03  0.11572280413E+03  0.00000000000E+00 0. -1.
      -24    2    1    2    0    0 -0.12330047314E+01 -0.40443445316E+02  0.38583024561E+02  0.95796063421E+02  0.77788452955E+02 0.  0.
       24    2    1    2    0    0  0.12330047314E+01  0.40443445316E+02 -0.63657773963E+02  0.11057479543E+03  0.80853451560E+02 0.  0.
      -13    1    4    4    0    0  0.13961448763E+01 -0.21717240709E+02 -0.37028894273E+02  0.42950282602E+02  0.00000000000E+00 0.  1.
       14    1    4    4    0    0 -0.16314014489E+00  0.62160686025E+02 -0.26628879690E+02  0.67624512829E+02  0.00000000000E+00 0. -1.
        3    1    3    3  502    0  0.30572504610E+01 -0.61947983258E+01 -0.23646571006E+02  0.24634987863E+02  0.00000000000E+00 0. -1.
       -4    1    3    3    0  502 -0.42902551924E+01 -0.34248646990E+02  0.62229595567E+02  0.71161075558E+02  0.00000000000E+00 0.  1.
</event>
<event>
 8   1  0.2279600E-02  0.9078854E+02  0.7546771E-02  0.1301114E+00
        2   -1    0    0  501    0  0.00000000000E+00  0.00000000000E+00  0.23909478719E+04  0.23909478719E+04  0.00000000000E+00 0. -1.
       -2   -1    0    0    0  501 -0.00000000000E+00 -0.00000000000E+00 -0.87720205966E+01  0.87720205966E+01  0.00000000000E+00 0.  1.
      -24    2    1    2    0    0 -0.86589173660E+01 -0.41133954006E+02  0.25607188146E+03  0.27168983648E+03  0.80470986993E+02 0.  0.
       24    2    1    2    0    0  0.86589173660E+01  0.41133954006E+02  0.21261039698E+04  0.21280300560E+04  0.80167635133E+02 0.  0.
      -13    1    4    4    0    0 -0.11666073026E+02 -0.15241297581E+02  0.11065231296E+04  0.11066895819E+04  0.00000000000E+00 0.  1.
       14    1    4    4    0    0  0.20324990392E+02  0.56375251587E+02  0.10195808403E+04  0.10213404741E+04  0.00000000000E+00 0. -1.
        1    1    3    3  502    0  0.18786701754E+02 -0.16972403161E+02  0.21585637271E+03  0.21733609059E+03  0.00000000000E+00 0. -1.
       -2    1    3    3    0  502 -0.27445619120E+02 -0.24161550845E+02  0.40215508749E+02  0.54353745888E+02  0.00000000000E+00 0.  1.
</event>
<event>
 8   1  0.2279600E-02  0.8451814E+02  0.7546771E-02  0.1317445E+00
       -1   -1    0    0    0  501 -0.00000000000E+00  0.00000000000E+00  0.24948021688E+02  0.24948021688E+02  0.00000000000E+00 0.  1.
        1   -1    0    0  501    0  0.00000000000E+00 -0.00000000000E+00 -0.31826741614E+03  0.31826741614E+03  0.00000000000E+00 0. -1.
       24    2    1    2    0    0  0.24727394306E+02  0.17242799518E+02 -0.88280724073E+02  0.12144039001E+03  0.77752967265E+02 0.  0.
      -24    2    1    2    0    0 -0.24727394306E+02 -0.17242799518E+02 -0.20503867037E+03  0.22177504781E+03  0.78959213012E+02 0.  0.
      -13    1    3    3    0    0 -0.78249933154E+01  0.39844250646E+02 -0.61187011073E+02  0.73434631844E+02  0.00000000000E+00 0.  1.
       14    1    3    3    0    0  0.32552387622E+02 -0.22601451129E+02 -0.27093713000E+02  0.48005758167E+02  0.00000000000E+00 0. -1.
        3    1    4    4  502    0 -0.16868598939E+02 -0.28927857319E+02 -0.20497559551E+03  0.20769295923E+03  0.00000000000E+00 0. -1.
       -4    1    4    4    0  502 -0.78587953673E+01  0.11685057801E+02 -0.63074864881E-01  0.14082088584E+02  0.00000000000E+00 0.  1.
</event>
<event>
 8   1  0.2279600E-02  0.8176777E+02  0.7546771E-02  0.1325914E+00
       -2   -1    0    0    0  501 -0.00000000000E+00  0.00000000000E+00  0.34855280663E+01  0.34855280663E+01  0.00000000000E+00 0.  1.
        2   -1    0    0  501    0  0.00000000000E+00 -0.00000000000E+00 -0.19407984813E+04  0.19407984813E+04  0.00000000000E+00 0. -1.
      -24    2    1    2    0    0  0.59640220789E+01 -0.15626258257E+02 -0.75334967035E+03  0.75750053141E+03  0.77405295414E+02 0.  0.
       24    2    1    2    0    0 -0.59640220789E+01  0.15626258257E+02 -0.11839632829E+04  0.11867834780E+04  0.80038858284E+02 0.  0.
      -13    1    4    4    0    0  0.98458199142E-02  0.94224157683E+01 -0.14525178169E+02  0.17313659830E+02  0.00000000000E+00 0.  1.
       14    1    4    4    0    0 -0.59738678989E+01  0.62038424891E+01 -0.11694381047E+04  0.11694698182E+04  0.00000000000E+00 0. -1.
        1    1    3    3  502    0  0.26173183783E+02 -0.11813046778E+02 -0.10589579507E+03  0.10972011227E+03  0.00000000000E+00 0. -1.
       -2    1    3    3    0  502 -0.20209161704E+02 -0.38132114792E+01 -0.64745387528E+03  0.64778041914E+03  0.00000000000E+00 0.  1.
</event>
<event>
 8   1  0.2279600E-02  0.1529045E+03  0.7546771E-02  0.1197020E+00
        2   -1    0    0  501    0  0.00000000000E+00  0.00000000000E+00  0.75493064254E+03  0.75493064254E+03  0.00000000000E+00 0. -1.
       -2   -1    0    0    0  501 -0.00000000000E+00 -0.00000000000E+00 -0.51037889106E+02  0.51037889106E+02  0.00000000000E+00 0.  1.
      -24    2    1    2    0    0  0.72578666298E+02 -0.10786706685E+03  0.99112637801E+02  0.18221718608E+03  0.80478699152E+02 0.  0.
       24    2    1    2    0    0 -0.72578666298E+02  0.10786706685E+03  0.60478011564E+03  0.62375134557E+03  0.80023658507E+02 0.  0.
      -13    1    4    4    0    0 -0.38960083290E+02  0.25866856385E+02  0.90271470292E+02  0.10166573020E+03  0.00000000000E+00 0.  1.
       14    1    4    4    0    0 -0.33618583007E+02  0.82000210466E+02  0.51450864534E+03  0.52208561537E+03  0.00000000000E+00 0. -1.
        1    1    3    3  502    0  0.35501168824E+01 -0.72818624034E+02  0.64786549954E+02  0.97531801947E+02  0.00000000000E+00 0. -1.
       -2    1    3    3    0  502  0.69028549415E+02 -0.35048442817E+02  0.34326087846E+02  0.84685384129E+02  0.00000000000E+00 0.  1.
</event>
<event>
 8   1  0.2279600E-02  0.8310539E+02  0.7546771E-02  0.1321594E+00
       -1   -1    0    0    0  501 -0.00000000000E+00  0.00000000000E+00  0.16054785909E+02  0.16054785909E+02  0.00000000000E+00 0.  1.
        1   -1    0    0  501    0  0.00000000000E+00 -0.00000000000E+00 -0.43375909112E+03  0.43375909112E+03  0.00000000000E+00 0. -1.
       24    2    1    2    0    0 -0.12369820498E+02  0.86933489127E+01 -0.24851012591E+03  0.26203776246E+03  0.81718538270E+02 0.  0.
      -24    2    1    2    0    0  0.12369820498E+02 -0.86933489127E+01 -0.16919417929E+03  0.18777611457E+03  0.80028820569E+02 0.  0.
      -13    1    3    3    0    0 -0.44861285553E+02  0.19401819643E+02 -0.14351547322E+03  0.15161021271E+03  0.00000000000E+00 0.  1.
       14    1    3    3    0    0  0.32491465055E+02 -0.10708470730E+02 -0.10499465270E+03  0.11042754974E+03  0.00000000000E+00 0. -1.
        3    1    4    4  502    0  0.21945771664E+02  0.75098093274E+01 -0.16725441374E+03  0.16885512442E+03  0.00000000000E+00 0. -1.
       -4    1    4    4    0  502 -0.95759511657E+01 -0.16203158240E+02 -0.19397655573E+01  0.18920990146E+02  0.00000000000E+00 0.  1.
</event>
<event>
 8   1  0.2279600E-02  0.1172833E+03  0.7546771E-02  0.1248134E+00
       -1   -1    0    0    0  501 -0.00000000000E+00  0.00000000000E+00  0.84362200259E+02  0.84362200259E+02  0.00000000000E+00 0.  1.
        1   -1    0    0  501    0  0.00000000000E+00 -0.00000000000E+00 -0.42279390198E+03  0.42279390198E+03  0.00000000000E+00 0. -1.
       24    2    1    2    0    0  0.22820437967E+02  0.81499949526E+02  0.29826762267E+02  0.12101658634E+03  0.81193375716E+02 0.  0.
      -24    2    1    2    0    0 -0.22820437967E+02 -0.81499949526E+02 -0.36825846399E+03  0.38613951590E+03  0.79538765890E+02 0.  0.
      -13    1    3    3    0    0  0.38907905771E+02  0.75301435981E+02 -0.20414656748E+01  0.84783836752E+02  0.00000000000E+00 0.  1.
       14    1    3    3    0    0 -0.16087467804E+02  0.61985135445E+01  0.31868227941E+02  0.36232749587E+02  0.00000000000E+00 0. -1.
        1    1    4    4  502    0 -0.98346734524E+01 -0.83453460785E+02 -0.36193997293E+03  0.37156660900E+03  0.00000000000E+00 0. -1.
       -2    1    4    4    0  502 -0.12985764514E+02  0.19535112590E+01 -0.63184910560E+01  0.14572906899E+02  0.00000000000E+00 0.  1.
</event>
<event>
 8   1  0.2279600E-02  0.8038014E+02  0.7546771E-02  0.1328949E+00
       -2   -1    0    0    0  501 -0.00000000000E+00  0.00000000000E+00  0.71364894603E+02  0.71364894603E+02  0.00000000000E+00 0.  1.
        2   -1    0    0  501    0  0.00000000000E+00 -0.00000000000E+00 -0.89001611801E+02  0.89001611801E+02  0.00000000000E+00 0. -1.
      -24    2    1    2    0    0  0.15648682371E+02  0.97671970696E+01 -0.85229812084E+01  0.79471350057E+02  0.76829518238E+02 0.  0.
       24    2    1    2    0    0 -0.15648682371E+02 -0.97671970696E+01 -0.91137359891E+01  0.80895156347E+02  0.78234817941E+02 0.  0.
      -13    1    4    4    0    0  0.22191194398E+01  0.32366124958E+02 -0.13033197390E+02  0.34962190579E+02  0.00000000000E+00 0.  1.
       14    1    4    4    0    0 -0.17867801811E+02 -0.42133322027E+02  0.39194614013E+01  0.45932965769E+02  0.00000000000E+00 0. -1.
        3    1    3    3  502    0 -0.27227094152E+01 -0.77934212888E+01 -0.38956649021E+02  0.39821741108E+02  0.00000000000E+00 0. -1.
       -4    1    3    3    0  502  0.18371391787E+02  0.17560618358E+02  0.30433667812E+02  0.39649608949E+02  0.00000000000E+00 0.  1.
</event>
<event>
 8   1  0.2279600E-02  0.9829756E+02  0.7546771E-02  0.1284296E+00
       -2   -1    0    0    0  501 -0.00000000000E+00  0.00000000000E+00  0.75623630278E+02  0.75623630278E+02  0.00000000000E+00 0.  1.
        2   -1    0    0  501    0  0.00000000000E+00 -0.00000000000E+00 -0.16228697693E+03  0.16228697693E+03  0.00000000000E+00 0. -1.
      -24    2    1    2    0    0 -0.17938081770E+02 -0.51736697021E+02  0.12126596510E+02  0.99042741106E+02  0.81633017993E+02 0.  0.
       24    2    1    2    0    0  0.17938081770E+02  0.51736697021E+02 -0.98789943161E+02  0.13886786610E+03  0.80785956512E+02 0.  0.
      -13    1    4    4    0    0  0.11491517346E+01  0.46494002603E+02 -0.89994040329E+01  0.47370899302E+02  0.00000000000E+00 0.  1.
       14    1    4    4    0    0  0.16788930036E+02  0.52426944183E+01 -0.89790539128E+02  0.91496966799E+02  0.00000000000E+00 0. -1.
        3    1    3    3  502    0 -0.24537792414E+02  0.12222967765E+02 -0.12577313431E+02  0.30161117530E+02  0.00000000000E+00 0. -1.
       -4    1    3    3    0  502  0.65997106440E+01 -0.63959664786E+02  0.24703909940E+02  0.68881623576E+02  0.00000000000E+00 0.  1.
</event>
<event>
 8   1  0.2279600E-02  0.8765944E+02  0.7546771E-02  0.1308635E+00
       -2   -1    0    0    0  501 -0.00000000000E+00  0.00000000000E+00  0.98559946492E+01  0.98559946492E+01  0.00000000000E+00 0.  1.
        2   -1    0    0  501    0  0.00000000000E+00 -0.00000000000E+00 -0.11147151293E+04  0.11147151293E+04  0.00000000000E+00 0. -1.
      -24    2    1    2    0    0 -0.23852425410E+02  0.21955771857E+02 -0.24410752879E+03  0.25936974173E+03  0.81444356426E+02 0.  0.
       24    2    1    2    0    0  0.23852425410E+02 -0.21955771857E+02 -0.86075160589E+03  0.86520138225E+03  0.81419350887E+02 0.  0.
      -13    1    4    4    0    0 -0.17001667471E+02 -0.39320580253E+02 -0.38119935605E+03  0.38359889700E+03  0.00000000000E+00 0.  1.
       14    1    4    4    0    0  0.40854092882E+02  0.17364808395E+02 -0.47955224984E+03  0.48160248525E+03  0.00000000000E+00 0. -1.
        1    1    3    3  502    0 -0.22723773705E+02  0.47184802012E+01 -0.24063294889E+03  0.24174956057E+03  0.00000000000E+00 0. -1.
       -2    1    3    3    0  502 -0.11286517056E+01  0.17237291656E+02 -0.34745799041E+01  0.17620181152E+02  0.00000000000E+00 0.  1.
</event>
<event>
 8   1  0.2279600E-02  0.8456451E+02  0.7546771E-02  0.1316734E+00
        1   -1    0    0  501    0  0.00000000000E+00  0.00000000000E+00  0.63862780929E+03  0.63862780929E+03  0.00000000000E+00 0. -1.
       -1   -1    0    0    0  501 -0.00000000000E+00 -0.00000000000E+00 -0.25230971731E+02  0.25230971731E+02  0.00000000000E+00 0.  1.
       24    2    1    2    0    0  0.23010603358E+02  0.21923419301E+01  0.58675915962E+02  0.10272915519E+03  0.81093291845E+02 0.  0.
      -24    2    1    2    0    0 -0.23010603358E+02 -0.21923419301E+01  0.55472092160E+03  0.56112962583E+03  0.81344095648E+02 0.  0.
      -13    1    3    3    0    0  0.49489957735E+02  0.81559515007E+01  0.56421953798E+02  0.75493127713E+02  0.00000000000E+00 0.  1.
       14    1    3    3    0    0 -0.26479354377E+02 -0.59636095706E+01  0.22539621645E+01  0.27236027478E+02  0.00000000000E+00 0. -1.
        3    1    4    4  502    0  0.16853571486E+02 -0.76787402101E+01  0.42285944253E+03  0.42326482734E+03  0.00000000000E+00 0. -1.
       -4    1    4    4    0  502 -0.39864174844E+02  0.54863982800E+01  0.13186147907E+03  0.13786479849E+03  0.00000000000E+00 0.  1.
</event>
<event>
 8   1  0.2279600E-02  0.8393729E+02  0.7546771E-02  0.1322096E+00
        1   -1    0    0  501    0  0.00000000000E+00  0.00000000000E+00  0.24085983218E+04  0.24085983218E+04  0.00000000000E+00 0. -1.
       -1   -1    0    0    0  501 -0.00000000000E+00 -0.00000000000E+00 -0.39319728678E+01  0.39319728678E+01  0.00000000000E+00 0.  1.
       24    2    1    2    0    0 -0.12333311251E+01  0.53220542872E+00  0.56543730409E+03  0.57163346130E+03  0.83926544537E+02 0.  0.
      -24    2    1    2    0    0  0.12333311251E+01 -0.53220542872E+00  0.18392290448E+04  0.18408968333E+04  0.78331777383E+02 0.  0.
      -13    1    3    3    0    0  0.31429626226E+02  0.18580557678E+02  0.41630511993E+03  0.41790311246E+03  0.00000000000E+00 0.  1.
       14    1    3    3    0    0 -0.32662957351E+02 -0.18048352249E+02  0.14913218416E+03  0.15373034884E+03  0.00000000000E+00 0. -1.
        1    1    4    4  502    0 -0.36062372552E+01 -0.31029097961E+02  0.14838605893E+04  0.14841893607E+04  0.00000000000E+00 0. -1.
       -2    1    4    4    0  502  0.48395683803E+01  0.30496892532E+02  0.35536845551E+03  0.35670747265E+03  0.00000000000E+00 0.  1.
</event>
<event>
 8   1  0.2279600E-02  0.8477769E+02  0.7546771E-02  0.1320716E+00
        2   -1    0    0  501    0  0.00000000000E+00  0.00000000000E+00  0.21815451063E+04  0.21815451063E+04  0.00000000000E+00 0. -1.
       -2   -1    0    0    0  501 -0.00000000000E+00 -0.00000000000E+00 -0.16292673026E+03  0.16292673026E+03  0.00000000000E+00 0.  1.
      -24    2    1    2    0    0 -0.83309352329E+01 -0.43282022059E+01 -0.15115129419E+03  0.17330311514E+03  0.84256264853E+02 0.  0.
       24    2    1    2    0    0  0.83309352329E+01  0.43282022059E+01  0.21697696702E+04  0.21711687214E+04  0.77363151872E+02 0.  0.
      -13    1    4    4    0    0 -0.30071955393E+02  0.19482781045E+02  0.11658947899E+04  0.11664452676E+04  0.00000000000E+00 0.  1.
       14    1    4    4    0    0  0.38402890626E+02 -0.15154578839E+02  0.10038748803E+04  0.10047234538E+04  0.00000000000E+00 0. -1.
        1    1    3    3  502    0 -0.39913860927E+01 -0.42838101026E+02 -0.10206728066E+03  0.11076445208E+03  0.00000000000E+00 0. -1.
       -2    1    3    3    0  502 -0.43395491402E+01  0.38509898820E+02 -0.49084013523E+02  0.62538663061E+02  0.00000000000E+00 0.  1.
</event>
<event>
 8   1  0.2279600E-02  0.9686059E+02  0.7546771E-02  0.1287664E+00
       -1   -1    0    0    0  501 -0.00000000000E+00  0.00000000000E+00  0.52103665942E+01  0.52103665942E+01  0.00000000000E+00 0.  1.
        1   -1    0    0  501    0  0.00000000000E+00 -0.00000000000E+00 -0.17883362213E+04  0.17883362213E+04  0.00000000000E+00 0. -1.
       24    2    1    2    0    0  0.43705680634E+02  0.25901310994E+02 -0.83438832391E+03  0.83999157726E+03  0.82467632179E+02 0.  0.
      -24    2    1    2    0    0 -0.43705680634E+02 -0.25901310994E+02 -0.94873753081E+03  0.95355501065E+03  0.81136869159E+02 0.  0.
      -13    1    3    3    0    0  0.24079898329E+02  0.10241112150E+02 -0.63310115863E+02  0.68504690731E+02  0.00000000000E+00 0.  1.
       14    1    3    3    0    0  0.19625782306E+02  0.15660198844E+02 -0.77107820804E+03  0.77148688652E+03  0.00000000000E+00 0. -1.
        1    1    4    4  502    0 -0.21971947831E+02  0.19781466283E+02 -0.13282082213E+03  0.13607146539E+03  0.00000000000E+00 0. -1.
       -2    1    4    4    0  502 -0.21733732804E+02 -0.45682777277E+02 -0.81591670868E+03  0.81748354527E+03  0.00000000000E+00 0.  1.
</event>
<event>
 8   1  0.2279600E-02  0.1426471E+03  0.7546771E-02  0.1209884E+00
        2   -1    0    0  501    0  0.00000000000E+00  0.00000000000E+00  0.32834447573E+04  0.32834447573E+04  0.00000000000E+00 0. -1.
       -2   -1    0    0    0  501 -0.00000000000E+00 -0.00000000000E+00 -0.75815093822E+01  0.75815093822E+01  0.00000000000E+00 0.  1.
      -24    2    1    2    0    0  0.70744860112E+02 -0.94430029517E+02  0.93130598087E+03  0.94213355456E+03  0.79768031949E+02 0.  0.
       24    2    1    2    0    0 -0.70744860112E+02  0.94430029517E+02  0.23445572671E+04  0.23488927121E+04  0.80164386584E+02 0.  0.
      -13    1    4    4    0    0  0.51073272883E+01 -0.54098830178E+01  0.51060108656E+03  0.51065528610E+03  0.00000000000E+00 0.  1.
       14    1    4    4    0    0 -0.75852187401E+02  0.99839912535E+02  0.18339561805E+04  0.18382374260E+04  0.00000000000E+00 0. -1.
        3    1    3    3  502    0 -0.95238259457E+01 -0.12155522426E+02  0.30344874831E+03  0.30384141067E+03  0.00000000000E+00 0. -1.
       -4    1    3    3    0  502  0.80268686058E+02 -0.82274507091E+02  0.62785723256E+03  0.63829214389E+03  0.00000000000E+00 0.  1.
</event>
<event>
 8   1  0.2279600E-02  0.8789570E+02  0.7546771E-02  0.1308391E+00
       -2   -1    0    0    0  501 -0.00000000000E+00  0.00000000000E+00  0.41483201070E+02  0.41483201070E+02  0.00000000000E+00 0.  1.
        2   -1    0    0  501    0  0.00000000000E+00 -0.00000000000E+00 -0.75400775562E+03  0.75400775562E+03  0.00000000000E+00 0. -1.
       24    2    1    2    0    0 -0.33734452185E+02  0.52544225444E+01 -0.70206848541E+03  0.70754915932E+03  0.80994027149E+02 0.  0.
      -24    2    1    2    0    0  0.33734452185E+02 -0.52544225444E+01 -0.10456069140E+02  0.87941797366E+02  0.80366710282E+02 0.  0.
      -13    1    3    3    0    0 -0.27269283709E+02  0.32147005125E+02 -0.60901161980E+03  0.61046883362E+03  0.00000000000E+00 0.  1.
       14    1    3    3    0    0 -0.64651684754E+01 -0.26892582580E+02 -0.93056865612E+02  0.97080325704E+02  0.00000000000E+00 0. -1.
        1    1    4    4  502    0  0.47620607746E+02 -0.31336221127E+02 -0.12367131131E+02  0.58332040672E+02  0.00000000000E+00 0. -1.
       -2    1    4    4    0  502 -0.13886155561E+02  0.26081798582E+02  0.19110619909E+01  0.29609756694E+02  0.00000000000E+00 0.  1.
</event>
<event>
 8   1  0.2279600E-02  0.8683321E+02  0.7546771E-02  0.1317732E+00
        1   -1    0    0  501    0  0.00000000000E+00  0.00000000000E+00  0.26320086668E+03  0.26320086668E+03  0.00000000000E+00 0. -1.
       -1   -1    0    0    0  501 -0.00000000000E+00 -0.00000000000E+00 -0.27359381314E+02  0.27359381314E+02  0.00000000000E+00 0.  1.
       24    2    1    2    0    0  0.93067672528E+01 -0.28948949728E+02  0.85439802135E+02  0.12181939766E+03  0.81334791147E+02 0.  0.
      -24    2    1    2    0    0 -0.93067672528E+01  0.28948949728E+02  0.15040168323E+03  0.16874085033E+03  0.70200788063E+02 0.  0.
      -13    1    3    3    0    0  0.44284950284E+02 -0.79891214970E+01  0.54231621760E+02  0.70470218409E+02  0.00000000000E+00 0.  1.
       14    1    3    3    0    0 -0.34978183031E+02 -0.20959828231E+02  0.31208180376E+02  0.51349179253E+02  0.00000000000E+00 0. -1.
        1    1    4    4  502    0  0.39267520159E+01  0.49002373341E+02  0.12204753548E+03  0.13157603464E+03  0.00000000000E+00 0. -1.
       -2    1    4    4    0  502 -0.13233519269E+02 -0.20053423613E+02  0.28354147756E+02  0.37164815697E+02  0.00000000000E+00 0.  1.
</event>
<event>
 8   1  0.2279600E-02  0.1599982E+03  0.7546771E-02  0.1188894E+00
        1   -1    0    0  501    0  0.00000000000E+00  0.00000000000E+00  0.26471291093E+04  0.26471291093E+04  0.00000000000E+00 0. -1.
       -1   -1    0    0    0  501 -0.00000000000E+00 -0.00000000000E+00 -0.10420637693E+02  0.10420637693E+02  0.00000000000E+00 0.  1.
       24    2    1    2    0    0  0.13792821060E+03  0.37138050328E+01  0.95473821305E+03  0.96805189913E+03  0.81002717919E+02 0.  0.
      -24    2    1    2    0    0 -0.13792821060E+03 -0.37138050328E+01  0.16819702586E+04  0.16894978479E+04  0.79630670351E+02 0.  0.
      -13    1    3    3    0    0  0.54259905033E+02  0.31129287363E+02  0.24443140659E+03  0.25230910081E+03  0.00000000000E+00 0.  1.
       14    1    3    3    0    0  0.83668305571E+02 -0.27415482330E+02  0.71030680647E+03  0.71574279832E+03  0.00000000000E+00 0. -1.
        3    1    4    4  502    0 -0.13206978644E+03  0.14418971750E+02  0.12357787202E+04  0.12428995858E+04  0.00000000000E+00 0. -1.
       -4    1    4    4    0  502 -0.58584241646E+01 -0.18132776783E+02  0.44619153842E+03  0.44659826207E+03  0.00000000000E+00 0.  1.
</event>
<event>
 8   1  0.2279600E-02  0.9302806E+02  0.7546771E-02  0.1296770E+00
        2   -1    0    0  501    0  0.00000000000E+00  0.00000000000E+00  0.80847223739E+03  0.80847223739E+03  0.00000000000E+00 0. -1.
       -2   -1    0    0    0  501 -0.00000000000E+00 -0.00000000000E+00 -0.19868076842E+02  0.19868076842E+02  0.00000000000E+00 0.  1.
      -24    2    1    2    0    0 -0.15303772666E+02  0.42154437028E+02  0.10767700495E+03  0.14108780548E+03  0.79373984666E+02 0.  0.
       24    2    1    2    0    0  0.15303772666E+02 -0.42154437028E+02  0.68092715560E+03  0.68725250875E+03  0.81504708662E+02 0.  0.
      -13    1    4    4    0    0 -0.19709693921E+02  0.11730732303E+02  0.91429315695E+02  0.94262409705E+02  0.00000000000E+00 0.  1.
       14    1    4    4    0    0  0.35013466588E+02 -0.53885169331E+02  0.58949783990E+03  0.59299009905E+03  0.00000000000E+00 0. -1.
        1    1    3    3  502    0 -0.88818485317E+01  0.46499807833E+02  0.11859615199E+03  0.12769560144E+03  0.00000000000E+00 0. -1.
       -2    1    3    3    0  502 -0.64219241347E+01 -0.43453708046E+01 -0.10919147036E+02  0.13392204039E+02  0.00000000000E+00 0.  1.
</event>
<event>
 8   1  0.2279600E-02  0.8932625E+02  0.7546771E-02  0.1307182E+00
       -1   -1    0    0    0  501 -0.00000000000E+00  0.00000000000E+00  0.40281526014E+01  0.40281526014E+01  0.00000000000E+00 0.  1.
        1   -1    0    0  501    0  0.00000000000E+00 -0.00000000000E+00 -0.22563311900E+04  0.22563311900E+04  0.00000000000E+00 0. -1.
       24    2    1    2    0    0 -0.22317729789E+02  0.30740362902E+02 -0.69215516856E+03  0.69789537625E+03  0.80846322426E+02 0.  0.
      -24    2    1    2    0    0  0.22317729789E+02 -0.30740362902E+02 -0.15601478688E+04  0.15624639663E+04  0.76086940646E+02 0.  0.
      -13    1    3    3    0    0 -0.28303764444E+02  0.37207378909E+02 -0.19013535283E+03  0.19579822400E+03  0.00000000000E+00 0.  1.
       14    1    3    3    0    0  0.59860346545E+01 -0.64670160068E+01 -0.50201981573E+03  0.50209715225E+03  0.00000000000E+00 0. -1.
        1    1    4    4  502    0  0.45564112744E+02  0.11305374172E+01 -0.82090268748E+03  0.82216700785E+03  0.00000000000E+00 0. -1.
       -2    1    4    4    0  502 -0.23246382954E+02 -0.31870900319E+02 -0.73924518133E+03  0.74029695848E+03  0.00000000000E+00 0.  1.
</event>
<event>
 8   1  0.2279600E-02  0.8111295E+02  0.7546771E-02  0.1326159E+00
        1   -1    0    0  501    0  0.00000000000E+00  0.00000000000E+00  0.79024039194E+02  0.79024039194E+02  0.00000000000E+00 0. -1.
       -1   -1    0    0    0  501 -0.00000000000E+00 -0.00000000000E+00 -0.87013769901E+02  0.87013769901E+02  0.00000000000E+00 0.  1.
       24    2    1    2    0    0 -0.48523501608E+01 -0.81718357389E+01  0.14042217421E+02  0.81985938350E+02  0.80213378034E+02 0.  0.
      -24    2    1    2    0    0  0.48523501608E+01  0.81718357389E+01 -0.22031948128E+02  0.84051870745E+02  0.80554242818E+02 0.  0.
      -13    1    3    3    0    0 -0.18632603212E+02  0.32294729983E+02  0.12079649140E+02  0.39192364186E+02  0.00000000000E+00 0.  1.
       14    1    3    3    0    0  0.13780253051E+02 -0.40466565722E+02  0.19625682810E+01  0.42793574164E+02  0.00000000000E+00 0. -1.
        1    1    4    4  502    0 -0.19332837632E+02 -0.25014812588E+02  0.86666025210E+01  0.32781236385E+02  0.00000000000E+00 0. -1.
       -2    1    4    4    0  502  0.24185187792E+02  0.33186648326E+02 -0.30698550649E+02  0.51270634360E+02  0.00000000000E+00 0.  1.
</event>
<event>
 8   1  0.2279600E-02  0.1004194E+03  0.7546771E-02  0.1280746E+00
        1   -1    0    0  501    0  0.00000000000E+00  0.00000000000E+00  0.14757637174E+02  0.14757637174E+02  0.00000000000E+00 0. -1.
       -1   -1    0    0    0  501 -0.00000000000E+00 -0.00000000000E+00 -0.77112102848E+03  0.77112102848E+03  0.00000000000E+00 0.  1.
       24    2    1    2    0    0 -0.52985363528E+02 -0.23391506459E+02 -0.51888130679E+03  0.52803802911E+03  0.78941360055E+02 0.  0.
      -24    2    1    2    0    0  0.52985363528E+02  0.23391506459E+02 -0.23748208451E+03  0.25784063654E+03  0.82033176610E+02 0.  0.
      -13    1    3    3    0    0 -0.65591285685E+02  0.59841589968E+01 -0.33917831567E+03  0.34551404709E+03  0.00000000000E+00 0.  1.
       14    1    3    3    0    0  0.12605922157E+02 -0.29375665456E+02 -0.17970299112E+03  0.18252398202E+03  0.00000000000E+00 0. -1.
        3    1    4    4  502    0 -0.10311964457E+02  0.13361169463E+02 -0.64230902762E+01  0.18058614263E+02  0.00000000000E+00 0. -1.
       -4    1    4    4    0  502  0.63297327985E+02  0.10030336996E+02 -0.23105899423E+03  0.23978202228E+03  0.00000000000E+00 0.  1.
</event>
<event>
 8   1  0.2279600E-02  0.8771369E+02  0.7546771E-02  0.1311766E+00
       -2   -1    0    0    0  501 -0.00000000000E+00  0.00000000000E+00  0.61114248884E+01  0.61114248884E+01  0.00000000000E+00 0.  1.
        2   -1    0    0  501    0  0.00000000000E+00 -0.00000000000E+00 -0.12085395232E+04  0.12085395232E+04  0.00000000000E+00 0. -1.
      -24    2    1    2    0    0 -0.53900451424E+01  0.22838382823E+02 -0.53809085850E+03  0.54519305215E+03  0.84516553347E+02 0.  0.
       24    2    1    2    0    0  0.53900451424E+01 -0.22838382823E+02 -0.66433723977E+03  0.66945789590E+03  0.79241794041E+02 0.  0.
      -13    1    4    4    0    0  0.35028108771E+02 -0.33654196094E+02 -0.47875130997E+03  0.48120929970E+03  0.00000000000E+00 0.  1.
       14    1    4    4    0    0 -0.29638063629E+02  0.10815813272E+02 -0.18558592979E+03  0.18824859620E+03  0.00000000000E+00 0. -1.
        1    1    3    3  502    0 -0.29914721998E+02  0.52879049020E+01 -0.46678005944E+03  0.46776754529E+03  0.00000000000E+00 0. -1.
       -2    1    3    3    0  502  0.24524676855E+02  0.17550477921E+02 -0.71310799058E+02  0.77425506859E+02  0.00000000000E+00 0.  1.
</event>
<event>
 8   1  0.2279600E-02  0.8624282E+02  0.7546771E-02  0.1314730E+00
        1   -1    0    0  501    0  0.00000000000E+00  0.00000000000E+00  0.30103022505E+03  0.30103022505E+03  0.00000000000E+00 0. -1.
       -1   -1    0    0    0  501 -0.00000000000E+00 -0.00000000000E+00 -0.29080737617E+02  0.29080737617E+02  0.00000000000E+00 0.  1.
       24    2    1    2    0    0 -0.38521383639E+01  0.18838818688E+02  0.20997208385E+03  0.22699361385E+03  0.84071901794E+02 0.  0.
      -24    2    1    2    0    0  0.38521383639E+01 -0.18838818688E+02  0.61977403582E+02  0.10311734882E+03  0.80138935689E+02 0.  0.
      -13    1    3    3    0    0  0.37011971030E+02  0.70985712441E+01  0.57858970114E+02  0.69050243562E+02  0.00000000000E+00 0.  1.
       14    1    3    3    0    0 -0.40864109394E+02  0.11740247444E+02  0.15211311373E+03  0.15794337028E+03  0.00000000000E+00 0. -1.
        3    1    4    4  502    0 -0.27745801204E+02 -0.36770465352E+02  0.33576531634E+02  0.57002456817E+02  0.00000000000E+00 0. -1.
       -4    1    4    4    0  502  0.31597939568E+02  0.17931646664E+02  0.28400871948E+02  0.46114892003E+02  0.00000000000E+00 0.  1.
</event>
<event>
 8   1  0.2279600E-02  0.9523581E+02  0.7546771E-02  0.1290931E+00
       -1   -1    0    0    0  501 -0.00000000000E+00  0.00000000000E+00  0.24819490067E+02  0.24819490067E+02  0.00000000000E+00 0.  1.
        1   -1    0    0  501    0  0.00000000000E+00 -0.00000000000E+00 -0.39323085079E+03  0.39323085079E+03  0.00000000000E+00 0. -1.
       24    2    1    2    0    0  0.22265029088E+02 -0.44128494494E+02 -0.12717751045E+03  0.15888353802E+03  0.81405183750E+02 0.  0.
      -24    2    1    2    0    0 -0.22265029088E+02  0.44128494494E+02 -0.24123385027E+03  0.25916680284E+03  0.80812162645E+02 0.  0.
      -13    1    3    3    0    0  0.42918604580E+02 -0.52115215858E+02 -0.68551897044E+02  0.96215201145E+02  0.00000000000E+00 0.  1.
       14    1    3    3    0    0 -0.20653575493E+02  0.79867213640E+01 -0.58625613410E+02  0.62668336873E+02  0.00000000000E+00 0. -1.
        1    1    4    4  502    0  0.10567963943E+02  0.38116818346E+02 -0.20918862065E+03  0.21289540322E+03  0.00000000000E+00 0. -1.
       -2    1    4    4    0  502 -0.32832993031E+02  0.60116761473E+01 -0.32045229625E+02  0.46271399624E+02  0.00000000000E+00 0.  1.
</event>
<event>
 8   1  0.2279600E-02  0.8451740E+02  0.7546771E-02  0.1318382E+00
       -2   -1    0    0    0  501 -0.00000000000E+00  0.00000000000E+00  0.22006106006E+02  0.22006106006E+02  0.00000000000E+00 0.  1.
        2   -1    0    0  501    0  0.00000000000E+00 -0.00000000000E+00 -0.31655743653E+03  0.31655743653E+03  0.00000000000E+00 0. -1.
      -24    2    1    2    0    0  0.75102192801E+01  0.23505630360E+02 -0.13769161460E+03  0.16156166297E+03  0.80834844938E+02 0.  0.
       24    2    1    2    0    0 -0.75102192801E+01 -0.23505630360E+02 -0.15685971592E+03  0.17700187957E+03  0.78203432404E+02 0.  0.
      -13    1    4    4    0    0  0.20023091073E+02 -0.40654933134E+02 -0.11787898583E+03  0.12629015427E+03  0.00000000000E+00 0.  1.
       14    1    4    4    0    0 -0.27533310353E+02  0.17149302774E+02 -0.38980730086E+02  0.50711725298E+02  0.00000000000E+00 0. -1.
        1    1    3    3  502    0  0.51818484827E+00  0.46274814775E+02 -0.40509444636E+02  0.61503187744E+02  0.00000000000E+00 0. -1.
       -2    1    3    3    0  502  0.69920344319E+01 -0.22769184414E+02 -0.97182169966E+02  0.10005847522E+03  0.00000000000E+00 0.  1.
</event>
<event>
 8   1  0.2279600E-02  0.9527308E+02  0.7546771E-02  0.1291094E+00
        2   -1    0    0  501    0  0.00000000000E+00  0.00000000000E+00  0.69696918963E+03  0.69696918963E+03  0.00000000000E+00 0. -1.
       -2   -1    0    0    0  501 -0.00000000000E+00 -0.00000000000E+00 -0.47324177677E+02  0.47324177677E+02  0.00000000000E+00 0.  1.
      -24    2    1    2    0    0  0.40914318824E+02 -0.29693909360E+02  0.69623142983E+01  0.94587272806E+02  0.79640244968E+02 0.  0.
       24    2    1    2    0    0 -0.40914318824E+02  0.29693909360E+02  0.64268269766E+03  0.64970609450E+03  0.80754254554E+02 0.  0.
      -13    1    4    4    0    0  0.14040052342E+02  0.28348649812E-01  0.23446357659E+02  0.27328658234E+02  0.00000000000E+00 0.  1.
       14    1    4    4    0    0 -0.54954371165E+02  0.29665560710E+02  0.61923634000E+03  0.62237743627E+03  0.00000000000E+00 0. -1.
        3    1    3    3  502    0  0.46576189799E+02 -0.58707584750E+01  0.34109510903E+02  0.58028148302E+02  0.00000000000E+00 0. -1.
       -4    1    3    3    0  502 -0.56618709751E+01 -0.23823150885E+02 -0.27147196605E+02  0.36559124505E+02  0.00000000000E+00 0.  1.
</event>
<event>
 8   1  0.2279600E-02  0.1054817E+03  0.7546771E-02  0.1269428E+00
        1   -1    0    0  501    0  0.00000000000E+00  0.00000000000E+00  0.10064547233E+03  0.10064547233E+03  0.00000000000E+00 0. -1.
       -1   -1    0    0    0  501 -0.00000000000E+00 -0.00000000000E+00 -0.11956483379E+03  0.11956483379E+03  0.00000000000E+00 0.  1.
       24    2    1    2    0    0 -0.65937980741E+02 -0.14293239001E+02  0.21649082282E+02  0.10768042234E+03  0.81081912937E+02 0.  0.
      -24    2    1    2    0    0  0.65937980741E+02  0.14293239001E+02 -0.40568443741E+02  0.11252988378E+03  0.80405610071E+02 0.  0.
      -13    1    3    3    0    0 -0.49269389678E+02 -0.20474322938E+02 -0.24140102063E+02  0.58561208889E+02  0.00000000000E+00 0.  1.
       14    1    3    3    0    0 -0.16668591064E+02  0.61810839377E+01  0.45789184345E+02  0.49119213447E+02  0.00000000000E+00 0. -1.
        1    1    4    4  502    0  0.71281047358E+02 -0.69888451484E+01 -0.51304045627E+02  0.88101854502E+02  0.00000000000E+00 0. -1.
       -2    1    4    4    0  502 -0.53430666165E+01  0.21282084149E+02  0.10735601887E+02  0.24428029279E+02  0.00000000000E+00 0.  1.
</event>
<event>
 8   1  0.2279600E-02  0.9507249E+02  0.7546771E-02  0.1293069E+00
        2   -1    0    0  501    0  0.00000000000E+00  0.00000000000E+00  0.23336830264E+03  0.23336830264E+03  0.00000000000E+00 0. -1.
       -2   -1    0    0    0  501 -0.00000000000E+00 -0.00000000000E+00 -0.14901909373E+03  0.14901909373E+03  0.00000000000E+00 0.  1.
      -24    2    1    2    0    0  0.88979486920E+01 -0.47271741915E+02 -0.12316986167E+03  0.15559432339E+03  0.82006021558E+02 0.  0.
       24    2    1    2    0    0 -0.88979486920E+01  0.47271741915E+02  0.20751907059E+03  0.22679307298E+03  0.77827644327E+02 0.  0.
      -13    1    4    4    0    0  0.27964731987E+02 -0.38759778270E+01  0.57207933531E+02  0.63794961385E+02  0.00000000000E+00 0.  1.
       14    1    4    4    0    0 -0.36862680679E+02  0.51147719742E+02  0.15031113706E+03  0.16299811160E+03  0.00000000000E+00 0. -1.
        1    1    3    3  502    0 -0.95952104367E+01  0.19281458761E+02 -0.11841257600E+02  0.24577593390E+02  0.00000000000E+00 0. -1.
       -2    1    3    3    0  502  0.18493159129E+02 -0.66553200676E+02 -0.11132860407E+03  0.13101673000E+03  0.00000000000E+00 0.  1.
</event>
<event>
 8   1  0.2279600E-02  0.8792552E+02  0.7546771E-02  0.1311955E+00
       -1   -1    0    0    0  501 -0.00000000000E+00  0.00000000000E+00  0.13988939548E+03  0.13988939548E+03  0.00000000000E+00 0.  1.
        1   -1    0    0  501    0  0.00000000000E+00 -0.00000000000E+00 -0.39028391652E+03  0.39028391652E+03  0.00000000000E+00 0. -1.
       24    2    1    2    0    0 -0.87218275654E+01 -0.14214575242E+02  0.12117450650E+03  0.14971358733E+03  0.86329443312E+02 0.  0.
      -24    2    1    2    0    0  0.87218275654E+01  0.14214575242E+02 -0.37156902753E+03  0.38045972466E+03  0.80049581155E+02 0.  0.
      -13    1    3    3    0    0 -0.42832998124E+02  0.11614903641E+02  0.71485608810E+02  0.84141333373E+02  0.00000000000E+00 0.  1.
       14    1    3    3    0    0  0.34111170559E+02 -0.25829478883E+02  0.49688897687E+02  0.65572253962E+02  0.00000000000E+00 0. -1.
        3    1    4    4  502    0 -0.84120346272E+01  0.42629465620E+02 -0.27348474498E+03  0.27691504004E+03  0.00000000000E+00 0. -1.
       -4    1    4    4    0  502  0.17133862193E+02 -0.28414890378E+02 -0.98084282551E+02  0.10354468462E+03  0.00000000000E+00 0.  1.
</event>
<event>
 8   1  0.2279600E-02  0.8559647E+02  0.7546771E-02  0.1317066E+00
        1   -1    0    0  501    0  0.00000000000E+00  0.00000000000E+00  0.99654987269E+03  0.99654987269E+03  0.00000000000E+00 0. -1.
       -1   -1    0    0    0  501 -0.00000000000E+00 -0.00000000000E+00 -0.11404577659E+02  0.11404577659E+02  0.00000000000E+00 0.  1.
       24    2    1    2    0    0 -0.18596752259E+01 -0.27523969095E+02  0.18621315466E+03  0.20494412358E+03  0.81029177195E+02 0.  0.
      -24    2    1    2    0    0  0.18596752259E+01  0.27523969095E+02  0.79893214037E+03  0.80301032677E+03  0.75973631635E+02 0.  0.
      -13    1    3    3    0    0  0.28862275349E+02 -0.21100439593E+01  0.23098930727E+02  0.37027608950E+02  0.00000000000E+00 0.  1.
       14    1    3    3    0    0 -0.30721950575E+02 -0.25413925136E+02  0.16311422393E+03  0.16791651463E+03  0.00000000000E+00 0. -1.
        1    1    4    4  502    0 -0.10519999301E+02  0.44736013987E+02  0.71379856117E+03  0.71527642717E+03  0.00000000000E+00 0. -1.
       -2    1    4    4    0  502  0.12379674527E+02 -0.17212044892E+02  0.85133579199E+02  0.87733899594E+02  0.00000000000E+00 0.  1.
</event>
<event>
 8   1  0.2279600E-02  0.8083260E+02  0.7546771E-02  0.1327812E+00
        2   -1    0    0  501    0  0.00000000000E+00  0.00000000000E+00  0.54709807206E+03  0.54709807206E+03  0.00000000000E+00 0. -1.
       -2   -1    0    0    0  501 -0.00000000000E+00 -0.00000000000E+00 -0.13200210229E+02  0.13200210229E+02  0.00000000000E+00 0.  1.
      -24    2    1    2    0    0  0.46739950075E+01 -0.65846670715E+00  0.17059123575E+03  0.18810798976E+03  0.79126268018E+02 0.  0.
       24    2    1    2    0    0 -0.46739950075E+01  0.65846670715E+00  0.36330662608E+03  0.37219029252E+03  0.80694668276E+02 0.  0.
      -13    1    4    4    0    0  0.13642852975E+02 -0.10432293956E+02  0.13809311435E+02  0.22037633194E+02  0.00000000000E+00 0.  1.
       14    1    4    4    0    0 -0.18316847983E+02  0.11090760664E+02  0.34949731464E+03  0.35015265933E+03  0.00000000000E+00 0. -1.
        3    1    3    3  502    0 -0.24264876556E+02 -0.24444165226E+02  0.12191296520E+03  0.12668493412E+03  0.00000000000E+00 0. -1.
       -4    1    3    3    0  502  0.28938871564E+02  0.23785698519E+02  0.48678270546E+02  0.61423055645E+02  0.00000000000E+00 0.  1.
</event>
<event>
 8   1  0.2279600E-02  0.8450427E+02  0.7546771E-02  0.1317256E+00
       -4   -1    0    0    0  501 -0.00000000000E+00  0.00000000000E+00  0.44480128953E+02  0.44480128953E+02  0.00000000000E+00 0.  1.
        4   -1    0    0  501    0  0.00000000000E+00 -0.00000000000E+00 -0.16079284834E+03  0.16079284834E+03  0.00000000000E+00 0. -1.
      -24    2    1    2    0    0 -0.31430678673E+01 -0.24575973351E+02 -0.47739146315E+02  0.97056675568E+02  0.80790561575E+02 0.  0.
       24    2    1    2    0    0  0.31430678673E+01  0.24575973351E+02 -0.68573573068E+02  0.10821630172E+03  0.79966090895E+02 0.  0.
      -13    1    4    4    0    0  0.33774095158E+02  0.31191035289E+02 -0.19384439885E+02  0.49893152795E+02  0.00000000000E+00 0.  1.
       14    1    4    4    0    0 -0.30631027291E+02 -0.66150619384E+01 -0.49189133183E+02  0.58323148926E+02  0.00000000000E+00 0. -1.
        3    1    3    3  502    0 -0.38156399007E+02  0.20829116286E+01 -0.33456989270E+02  0.50789954096E+02  0.00000000000E+00 0. -1.
       -4    1    3    3    0  502  0.35013331140E+02 -0.26658884980E+02 -0.14282157044E+02  0.46266721472E+02  0.00000000000E+00 0.  1.
</event>
<event>
 8   1  0.2279600E-02  0.8805292E+02  0.7546771E-02  0.1312223E+00
        2   -1    0    0  501    0  0.00000000000E+00  0.00000000000E+00  0.93330020015E+03  0.93330020015E+03  0.00000000000E+00 0. -1.
       -2   -1    0    0    0  501 -0.00000000000E+00 -0.00000000000E+00 -0.83278762068E+01  0.83278762068E+01  0.00000000000E+00 0.  1.
      -24    2    1    2    0    0  0.14365857401E+02 -0.89283422340E+01  0.57830639658E+03  0.58395422822E+03  0.79234835666E+02 0.  0.
       24    2    1    2    0    0 -0.14365857401E+02  0.89283422340E+01  0.34666592736E+03  0.35767384813E+03  0.86413096742E+02 0.  0.
      -13    1    4    4    0    0  0.22038342833E+02 -0.25402128932E+02  0.87885702746E+02  0.94100230905E+02  0.00000000000E+00 0.  1.
       14    1    4    4    0    0 -0.36404200234E+02  0.34330471166E+02  0.25878022461E+03  0.26357361722E+03  0.00000000000E+00 0. -1.
        3    1    3    3  502    0 -0.15402349566E+02  0.21368879002E+02  0.39127037058E+03  0.39215604580E+03  0.00000000000E+00 0. -1.
       -4    1    3    3    0  502  0.29768206967E+02 -0.30297221236E+02  0.18703602600E+03  0.19179818243E+03  0.00000000000E+00 0.  1.
</event>
<event>
 8   1  0.2279600E-02  0.9488168E+02  0.7546771E-02  0.1293684E+00
        1   -1    0    0  501    0  0.00000000000E+00  0.00000000000E+00  0.10002372695E+03  0.10002372695E+03  0.00000000000E+00 0. -1.
       -1   -1    0    0    0  501 -0.00000000000E+00 -0.00000000000E+00 -0.95911777287E+02  0.95911777287E+02  0.00000000000E+00 0.  1.
       24    2    1    2    0    0 -0.32683071976E+02 -0.23141749734E+02 -0.28820983590E+02  0.99162403901E+02  0.86016332623E+02 0.  0.
      -24    2    1    2    0    0  0.32683071976E+02  0.23141749734E+02  0.32932933255E+02  0.96773100337E+02  0.81711266552E+02 0.  0.
      -13    1    3    3    0    0 -0.62296095472E+02 -0.13550187542E+02 -0.19120053268E+02  0.66558151495E+02  0.00000000000E+00 0.  1.
       14    1    3    3    0    0  0.29613023496E+02 -0.95915621923E+01 -0.97009303214E+01  0.32604252406E+02  0.00000000000E+00 0. -1.
        1    1    4    4  502    0  0.42735600978E+02  0.45248170755E+02  0.93787563772E+01  0.62941954361E+02  0.00000000000E+00 0. -1.
       -2    1    4    4    0  502 -0.10052529001E+02 -0.22106421021E+02  0.23554176878E+02  0.33831145976E+02  0.00000000000E+00 0.  1.
</event>
<event>
 8   1  0.2279600E-02  0.9247703E+02  0.7546771E-02  0.1298383E+00
       -4   -1    0    0    0  501 -0.00000000000E+00  0.00000000000E+00  0.40256795151E+02  0.40256795151E+02  0.00000000000E+00 0.  1.
        4   -1    0    0  501    0  0.00000000000E+00 -0.00000000000E+00 -0.20755316022E+03  0.20755316022E+03  0.00000000000E+00 0. -1.
      -24    2    1    2    0    0  0.12384568424E+02  0.39269042287E+02 -0.78108671013E+02  0.12104943089E+03  0.82804377994E+02 0.  0.
       24    2    1    2    0    0 -0.12384568424E+02 -0.39269042287E+02 -0.89187694055E+02  0.12676052448E+03  0.80114609015E+02 0.  0.
      -13    1    4    4    0    0  0.10874125526E+02 -0.31138317015E+02  0.12704009540E+01  0.33006897932E+02  0.00000000000E+00 0.  1.
       14    1    4    4    0    0 -0.23258693950E+02 -0.81307252721E+01 -0.90458095009E+02  0.93753626545E+02  0.00000000000E+00 0. -1.
        3    1    3    3  502    0  0.24243236190E+02 -0.18411039701E+02 -0.42350876196E+02  0.52156472258E+02  0.00000000000E+00 0. -1.
       -4    1    3    3    0  502 -0.11858667766E+02  0.57680081988E+02 -0.35757794816E+02  0.68892958635E+02  0.00000000000E+00 0.  1.
</event>
<event>
 8   1  0.2279600E-02  0.8179089E+02  0.7546771E-02  0.1324878E+00
       -2   -1    0    0    0  501 -0.00000000000E+00  0.00000000000E+00  0.31230790563E+02  0.31230790563E+02  0.00000000000E+00 0.  1.
        2   -1    0    0  501    0  0.00000000000E+00 -0.00000000000E+00 -0.28074532345E+03  0.28074532345E+03  0.00000000000E+00 0. -1.
       24    2    1    2    0    0 -0.90988761176E+01 -0.92517622330E+01 -0.20177109788E+03  0.21727032861E+03  0.79538890510E+02 0.  0.
      -24    2    1    2    0    0  0.90988761176E+01  0.92517622330E+01 -0.47743435007E+02  0.94705785402E+02  0.80754972301E+02 0.  0.
      -13    1    3    3    0    0 -0.19909789202E+02 -0.39470725581E+02 -0.80676263250E+02  0.91994550577E+02  0.00000000000E+00 0.  1.
       14    1    3    3    0    0  0.10810913084E+02  0.30218963349E+02 -0.12109483463E+03  0.12527577803E+03  0.00000000000E+00 0. -1.
        3    1    4    4  502    0  0.20581694352E+02  0.41770133204E+02 -0.33647328309E+02  0.57449916210E+02  0.00000000000E+00 0. -1.
       -4    1    4    4    0  502 -0.11482818234E+02 -0.32518370971E+02 -0.14096106698E+02  0.37255869192E+02  0.00000000000E+00 0.  1.
</event>
<event>
 8   1  0.2279600E-02  0.9485461E+02  0.7546771E-02  0.1291648E+00
       -1   -1    0    0    0  501 -0.00000000000E+00  0.00000000000E+00  0.17632928487E+02  0.17632928487E+02  0.00000000000E+00 0.  1.
        1   -1    0    0  501    0  0.00000000000E+00 -0.00000000000E+00 -0.53916488731E+03  0.53916488731E+03  0.00000000000E+00 0. -1.
       24    2    1    2    0    0  0.30271018696E+02 -0.40090459589E+02 -0.19445885733E+03  0.21624794915E+03  0.80158273405E+02 0.  0.
      -24    2    1    2    0    0 -0.30271018696E+02  0.40090459589E+02 -0.32707310149E+03  0.34054986664E+03  0.80460042440E+02 0.  0.
      -13    1    3    3    0    0  0.53509236306E+02 -0.26917813523E+02 -0.87735171910E+02  0.10623213942E+03  0.00000000000E+00 0.  1.
       14    1    3    3    0    0 -0.23238217610E+02 -0.13172646066E+02 -0.10672368542E+03  0.11001580974E+03  0.00000000000E+00 0. -1.
        3    1    4    4  502    0 -0.95450465404E+01  0.57003408355E+02 -0.13830735236E+03  0.14989803265E+03  0.00000000000E+00 0. -1.
       -4    1    4    4    0  502 -0.20725972155E+02 -0.16912948766E+02 -0.18876574913E+03  0.19065183399E+03  0.00000000000E+00 0.  1.
</event>
<event>
 8   1  0.2279600E-02  0.9352401E+02  0.7546771E-02  0.1295903E+00
        2   -1    0    0  501    0  0.00000000000E+00  0.00000000000E+00  0.83625322051E+02  0.83625322051E+02  0.00000000000E+00 0. -1.
       -2   -1    0    0    0  501 -0.00000000000E+00 -0.00000000000E+00 -0.10199111008E+03  0.10199111008E+03  0.00000000000E+00 0.  1.
      -24    2    1    2    0    0 -0.43702599792E+02  0.16184190668E+02 -0.96725480738E+01  0.91689261022E+02  0.78367832331E+02 0.  0.
       24    2    1    2    0    0  0.43702599792E+02 -0.16184190668E+02 -0.86932399541E+01  0.93927171109E+02  0.81085731146E+02 0.  0.
      -13    1    4    4    0    0  0.41502349387E+02 -0.35191959961E+02 -0.32502048700E+02  0.63382191665E+02  0.00000000000E+00 0.  1.
       14    1    4    4    0    0  0.22002504050E+01  0.19007769293E+02  0.23808808746E+02  0.30544979444E+02  0.00000000000E+00 0. -1.
        3    1    3    3  502    0  0.11713037738E+02  0.23467470267E+02 -0.22255651575E+02  0.34398131356E+02  0.00000000000E+00 0. -1.
       -4    1    3    3    0  502 -0.55415637530E+02 -0.72832795984E+01  0.12583103502E+02  0.57291129665E+02  0.00000000000E+00 0.  1.
</event>
<event>
 8   1  0.2279600E-02  0.9200078E+02  0.7546771E-02  0.1298292E+00
        1   -1    0    0  501    0  0.00000000000E+00  0.00000000000E+00  0.24068294045E+02  0.24068294045E+02  0.00000000000E+00 0. -1.
       -1   -1    0    0    0  501 -0.00000000000E+00 -0.00000000000E+00 -0.42135064223E+03  0.42135064223E+03  0.00000000000E+00 0.  1.
       24    2    1    2    0    0 -0.27169267704E+02 -0.35624049441E+02 -0.28977797736E+03  0.30392217651E+03  0.79938546464E+02 0.  0.
      -24    2    1    2    0    0  0.27169267704E+02  0.35624049441E+02 -0.10750437083E+03  0.14149675976E+03  0.80354845960E+02 0.  0.
      -13    1    3    3    0    0 -0.39429942594E+02 -0.38540176835E+02 -0.28525129330E+03  0.29053117893E+03  0.00000000000E+00 0.  1.
       14    1    3    3    0    0  0.12260674890E+02  0.29161273940E+01 -0.45266840601E+01  0.13390997585E+02  0.00000000000E+00 0. -1.
        1    1    4    4  502    0  0.70363360677E+01  0.53801286575E+02 -0.99301962545E+02  0.11315903953E+03  0.00000000000E+00 0. -1.
       -2    1    4    4    0  502  0.20132931636E+02 -0.18177237134E+02 -0.82024082821E+01  0.28337720228E+02  0.00000000000E+00 0.  1.
</event>
<event>
 8   1  0.2279600E-02  0.9040803E+02  0.7546771E-02  0.1303526E+00
       -1   -1    0    0    0  501 -0.00000000000E+00  0.00000000000E+00  0.10866468345E+03  0.10866468345E+03  0.00000000000E+00 0.  1.
        1   -1    0    0  501    0  0.00000000000E+00 -0.00000000000E+00 -0.12068294482E+03  0.12068294482E+03  0.00000000000E+00 0. -1.
       24    2    1    2    0    0 -0.29248175139E+02 -0.12796060546E+02  0.66027643464E+02  0.11195204692E+03  0.84583782091E+02 0.  0.
      -24    2    1    2    0    0  0.29248175139E+02  0.12796060546E+02 -0.78045904832E+02  0.11739558135E+03  0.81678420313E+02 0.  0.
      -13    1    3    3    0    0 -0.23105058383E+02  0.23307512994E+02  0.67759121012E+02  0.75288660270E+02  0.00000000000E+00 0.  1.
       14    1    3    3    0    0 -0.61431167561E+01 -0.36103573540E+02 -0.17314775484E+01  0.36663386646E+02  0.00000000000E+00 0. -1.
        1    1    4    4  502    0  0.36882759732E+02 -0.55218829698E+00 -0.90422052221E+02  0.97656491875E+02  0.00000000000E+00 0. -1.
       -2    1    4    4    0  502 -0.76345845936E+01  0.13348248843E+02  0.12376147389E+02  0.19739089475E+02  0.00000000000E+00 0.  1.
</event>
<event>
 8   1  0.2279600E-02  0.1150103E+03  0.7546771E-02  0.1251801E+00
       -2   -1    0    0    0  501 -0.00000000000E+00  0.00000000000E+00  0.34843816404E+02  0.34843816404E+02  0.00000000000E+00 0.  1.
        2   -1    0    0  501    0  0.00000000000E+00 -0.00000000000E+00 -0.68716651619E+03  0.68716651619E+03  0.00000000000E+00 0. -1.
      -24    2    1    2    0    0  0.65726828127E+00 -0.81375768478E+02 -0.83522247572E+02  0.14169893826E+03  0.80499537689E+02 0.  0.
       24    2    1    2    0    0 -0.65726828127E+00  0.81375768478E+02 -0.56880045221E+03  0.58031139433E+03  0.81270611260E+02 0.  0.
      -13    1    4    4    0    0 -0.65133386908E+00  0.66028380777E+01 -0.17788808244E-01  0.66349094140E+01  0.00000000000E+00 0.  1.
       14    1    4    4    0    0 -0.59344121859E-02  0.74772930400E+02 -0.56878266341E+03  0.57367648492E+03  0.00000000000E+00 0. -1.
        1    1    3    3  502    0  0.37161139521E+02 -0.37390223651E+02 -0.60053269098E+02  0.79908536743E+02  0.00000000000E+00 0. -1.
       -2    1    3    3    0  502 -0.36503871240E+02 -0.43985544827E+02 -0.23468978474E+02  0.61790401519E+02  0.00000000000E+00 0.  1.
</event>
<event>
 8   1  0.2279600E-02  0.8914871E+02  0.7546771E-02  0.1305016E+00
       -3   -1    0    0    0  501 -0.00000000000E+00  0.00000000000E+00  0.38910110243E+03  0.38910110243E+03  0.00000000000E+00 0.  1.
        3   -1    0    0  501    0  0.00000000000E+00 -0.00000000000E+00 -0.20520798134E+02  0.20520798134E+02  0.00000000000E+00 0. -1.
       24    2    1    2    0    0 -0.55380739319E+01  0.29471628541E+02  0.16819751648E+03  0.19036254312E+03  0.83953833258E+02 0.  0.
      -24    2    1    2    0    0  0.55380739319E+01 -0.29471628541E+02  0.20038278781E+03  0.21925935745E+03  0.83798311589E+02 0.  0.
      -13    1    3    3    0    0 -0.93117602581E+01 -0.23896664030E+02  0.10237740301E+03  0.10554094977E+03  0.00000000000E+00 0.  1.
       14    1    3    3    0    0  0.37736863262E+01  0.53368292571E+02  0.65820113476E+02  0.84821593350E+02  0.00000000000E+00 0. -1.
        1    1    4    4  502    0  0.36990919141E+02  0.93963092498E+01  0.72131451871E+02  0.81606158318E+02  0.00000000000E+00 0. -1.
       -2    1    4    4    0  502 -0.31452845209E+02 -0.38867937791E+02  0.12825133594E+03  0.13765319913E+03  0.00000000000E+00 0.  1.
</event>
<event>
 8   1  0.2279600E-02  0.9058855E+02  0.7546771E-02  0.1302445E+00
       -2   -1    0    0    0  501 -0.00000000000E+00  0.00000000000E+00  0.43590483284E+02  0.43590483284E+02  0.00000000000E+00 0.  1.
        2   -1    0    0  501    0  0.00000000000E+00 -0.00000000000E+00 -0.18817410435E+03  0.18817410435E+03  0.00000000000E+00 0. -1.
      -24    2    1    2    0    0 -0.34778012904E+02 -0.13927701336E+02 -0.57444966849E+02  0.10726699935E+03  0.82479051199E+02 0.  0.
       24    2    1    2    0    0  0.34778012904E+02  0.13927701336E+02 -0.87138654217E+02  0.12449758829E+03  0.80641263533E+02 0.  0.
      -13    1    4    4    0    0 -0.66639784892E+01 -0.19854577733E+02  0.14840322474E+01  0.20995599967E+02  0.00000000000E+00 0.  1.
       14    1    4    4    0    0  0.41441991393E+02  0.33782279069E+02 -0.88622686464E+02  0.10350198832E+03  0.00000000000E+00 0. -1.
        3    1    3    3  502    0  0.21261581482E+02  0.15084725375E+02 -0.85459508453E+01  0.27434231584E+02  0.00000000000E+00 0. -1.
       -4    1    3    3    0  502 -0.56039594386E+02 -0.29012426711E+02 -0.48899016003E+02  0.79832767763E+02  0.00000000000E+00 0.  1.
</event>
<event>
 8   1  0.2279600E-02  0.9288845E+02  0.7546771E-02  0.1296301E+00
        2   -1    0    0  501    0  0.00000000000E+00  0.00000000000E+00  0.43229796604E+02  0.43229796604E+02  0.00000000000E+00 0. -1.
       -2   -1    0    0    0  501 -0.00000000000E+00 -0.00000000000E+00 -0.23236969151E+03  0.23236969151E+03  0.00000000000E+00 0.  1.
       24    2    1    2    0    0  0.30547489312E+02  0.33435595437E+02 -0.42179897958E+02  0.10201670249E+03  0.81099788218E+02 0.  0.
      -24    2    1    2    0    0 -0.30547489312E+02 -0.33435595437E+02 -0.14695999695E+03  0.17358278563E+03  0.80514934127E+02 0.  0.
      -13    1    3    3    0    0  0.27182923644E+02  0.44963875810E+02 -0.60487862454E+02  0.80121426410E+02  0.00000000000E+00 0.  1.
       14    1    3    3    0    0  0.33645656686E+01 -0.11528280373E+02  0.18307964496E+02  0.21895276077E+02  0.00000000000E+00 0. -1.
        1    1    4    4  502    0 -0.20139897096E+02 -0.58816107174E+02 -0.80705917294E+02  0.10187440799E+03  0.00000000000E+00 0. -1.
       -2    1    4    4    0  502 -0.10407592217E+02  0.25380511737E+02 -0.66254079652E+02  0.71708377630E+02  0.00000000000E+00 0.  1.
</event>
<event>
 8   1  0.2279600E-02  0.9112574E+02  0.7546771E-02  0.1301988E+00
       -2   -1    0    0    0  501 -0.00000000000E+00  0.00000000000E+00  0.17617841320E+03  0.17617841320E+03  0.00000000000E+00 0.  1.
        2   -1    0    0  501    0  0.00000000000E+00 -0.00000000000E+00 -0.38584364909E+03  0.38584364909E+03  0.00000000000E+00 0. -1.
      -24    2    1    2    0    0  0.99181701597E+01 -0.41514066244E+02  0.15926510114E+03  0.18200430754E+03  0.77061064927E+02 0.  0.
       24    2    1    2    0    0 -0.99181701597E+01  0.41514066244E+02 -0.36893033702E+03  0.38001775475E+03  0.80511567803E+02 0.  0.
      -13    1    4    4    0    0  0.12607565643E+02  0.22799359864E+02 -0.29626348651E+02  0.39452275676E+02  0.00000000000E+00 0.  1.
       14    1    4    4    0    0 -0.22525735802E+02  0.18714706381E+02 -0.33930398837E+03  0.34056547907E+03  0.00000000000E+00 0. -1.
        3    1    3    3  502    0  0.36164477229E+02 -0.50457089656E+01  0.38080915702E+02  0.52758740820E+02  0.00000000000E+00 0. -1.
       -4    1    3    3    0  502 -0.26246307069E+02 -0.36468357279E+02  0.12118418544E+03  0.12924556672E+03  0.00000000000E+00 0.  1.
</event>
<event>
 8   1  0.2279600E-02  0.8279178E+02  0.7546771E-02  0.1321953E+00
       -2   -1    0    0    0  501 -0.00000000000E+00  0.00000000000E+00  0.27988278646E+02  0.27988278646E+02  0.00000000000E+00 0.  1.
        2   -1    0    0  501    0  0.00000000000E+00 -0.00000000000E+00 -0.68982075293E+03  0.68982075293E+03  0.00000000000E+00 0. -1.
      -24    2    1    2    0    0  0.12377858441E+02  0.45752844334E+01 -0.42446720799E+02  0.93038720348E+02  0.81733314935E+02 0.  0.
       24    2    1    2    0    0 -0.12377858441E+02 -0.45752844334E+01 -0.61938575349E+03  0.62477031123E+03  0.80778001733E+02 0.  0.
      -13    1    4    4    0    0 -0.66476426955E+01 -0.32298844893E+02 -0.11618921659E+03  0.12077806335E+03  0.00000000000E+00 0.  1.
       14    1    4    4    0    0 -0.57302157454E+01  0.27723560460E+02 -0.50319653690E+03  0.50399224788E+03  0.00000000000E+00 0. -1.
        1    1    3    3  502    0 -0.29592918947E+02 -0.18379008369E+02 -0.15439590889E+02  0.38103933750E+02  0.00000000000E+00 0. -1.
       -2    1    3    3    0  502  0.41970777388E+02  0.22954292802E+02 -0.27007129910E+02  0.54934786598E+02  0.00000000000E+00 0.  1.
</event>
<event>
 8   1  0.2279600E-02  0.9826439E+02  0.7546771E-02  0.1284111E+00
       -2   -1    0    0    0  501 -0.00000000000E+00  0.00000000000E+00  0.19087069974E+04  0.19087069974E+04  0.00000000000E+00 0.  1.
        2   -1    0    0  501    0  0.00000000000E+00 -0.00000000000E+00 -0.75132286953E+01  0.75132286953E+01  0.00000000000E+00 0. -1.
      -24    2    1    2    0    0  0.33558060709E+02  0.44127885840E+02  0.15002401681E+04  0.15034548387E+04  0.81132461870E+02 0.  0.
       24    2    1    2    0    0 -0.33558060709E+02 -0.44127885840E+02  0.40095360063E+03  0.41276538739E+03  0.80858279868E+02 0.  0.
      -13    1    4    4    0    0 -0.34534129886E+02 -0.30112455039E+01  0.32087955211E+03  0.32274658897E+03  0.00000000000E+00 0.  1.
       14    1    4    4    0    0  0.97606917721E+00 -0.41116640337E+02  0.80074048513E+02  0.90018798419E+02  0.00000000000E+00 0. -1.
        1    1    3    3  502    0 -0.12565926899E+02  0.49949496943E+02  0.73283553373E+03  0.73464329730E+03  0.00000000000E+00 0. -1.
       -2    1    3    3    0  502  0.46123987608E+02 -0.58216111023E+01  0.76740463434E+03  0.76881154140E+03  0.00000000000E+00 0.  1.
</event>
<event>
 8   1  0.2279600E-02  0.1013315E+03  0.7546771E-02  0.1277769E+00
       -2   -1    0    0    0  501 -0.00000000000E+00  0.00000000000E+00  0.10392241995E+02  0.10392241995E+02  0.00000000000E+00 0.  1.
        2   -1    0    0  501    0  0.00000000000E+00 -0.00000000000E+00 -0.10382129196E+04  0.10382129196E+04  0.00000000000E+00 0. -1.
       24    2    1    2    0    0  0.15190999770E+01  0.61111139327E+02 -0.63556021052E+03  0.64358749376E+03  0.80815851820E+02 0.  0.
      -24    2    1    2    0    0 -0.15190999770E+01 -0.61111139327E+02 -0.39226046710E+03  0.40501766785E+03  0.80213204717E+02 0.  0.
      -13    1    3    3    0    0  0.31650475805E+02  0.22046325911E+02 -0.12934213423E+03  0.13497103686E+03  0.00000000000E+00 0.  1.
       14    1    3    3    0    0 -0.30131375828E+02  0.39064813417E+02 -0.50621807630E+03  0.50861645690E+03  0.00000000000E+00 0. -1.
        1    1    4    4  502    0  0.27001192282E+01 -0.75068105774E+02 -0.22679541211E+03  0.23891142731E+03  0.00000000000E+00 0. -1.
       -2    1    4    4    0  502 -0.42192192051E+01  0.13956966446E+02 -0.16546505499E+03  0.16610624054E+03  0.00000000000E+00 0.  1.
</event>
<event>
 8   1  0.2279600E-02  0.8202694E+02  0.7546771E-02  0.1324281E+00
       -1   -1    0    0    0  501 -0.00000000000E+00  0.00000000000E+00  0.10569492858E+02  0.10569492858E+02  0.00000000000E+00 0.  1.
        1   -1    0    0  501    0  0.00000000000E+00 -0.00000000000E+00 -0.13538868864E+04  0.13538868864E+04  0.00000000000E+00 0. -1.
       24    2    1    2    0    0  0.31995866174E+01 -0.26250700086E+01 -0.16923299412E+03  0.18751007776E+03  0.80641767198E+02 0.  0.
      -24    2    1    2    0    0 -0.31995866174E+01  0.26250700086E+01 -0.11740843995E+04  0.11769463015E+04  0.81922471199E+02 0.  0.
      -13    1    3    3    0    0 -0.35262813804E+02 -0.88099847096E+01 -0.48239567188E+02  0.60399815483E+02  0.00000000000E+00 0.  1.
       14    1    3    3    0    0  0.38462400422E+02  0.61849147010E+01 -0.12099342693E+03  0.12711026228E+03  0.00000000000E+00 0. -1.
        3    1    4    4  502    0  0.17904924110E+02 -0.17153553070E+02 -0.10118467969E+04  0.10121505674E+04  0.00000000000E+00 0. -1.
       -4    1    4    4    0  502 -0.21104510727E+02  0.19778623078E+02 -0.16223760257E+03  0.16479573415E+03  0.00000000000E+00 0.  1.
</event>
<event>
 8   1  0.2279600E-02  0.9331177E+02  0.7546771E-02  0.1298575E+00
        2   -1    0    0  501    0  0.00000000000E+00  0.00000000000E+00  0.71473479342E+03  0.71473479342E+03  0.00000000000E+00 0. -1.
       -2   -1    0    0    0  501 -0.00000000000E+00 -0.00000000000E+00 -0.43696479022E+02  0.43696479022E+02  0.00000000000E+00 0.  1.
       24    2    1    2    0    0  0.18647739380E+02  0.46586556799E+02  0.65851156322E+03  0.66428241926E+03  0.71523479897E+02 0.  0.
      -24    2    1    2    0    0 -0.18647739380E+02 -0.46586556799E+02  0.12526751175E+02  0.94148853186E+02  0.78670462073E+02 0.  0.
      -13    1    3    3    0    0  0.99423435664E+01 -0.18587886167E+02  0.13032214602E+03  0.13201598938E+03  0.00000000000E+00 0.  1.
       14    1    3    3    0    0  0.87053958133E+01  0.65174442966E+02  0.52818941720E+03  0.53226642988E+03  0.00000000000E+00 0. -1.
        1    1    4    4  502    0  0.18981037379E+02  0.52067127590E+01 -0.14714768263E+02  0.24574662618E+02  0.00000000000E+00 0. -1.
       -2    1    4    4    0  502 -0.37628776759E+02 -0.51793269558E+02  0.27241519438E+02  0.69574190568E+02  0.00000000000E+00 0.  1.
</event>
<event>
 8   1  0.2279600E-02  0.8266547E+02  0.7546771E-02  0.1323233E+00
        2   -1    0    0  501    0  0.00000000000E+00  0.00000000000E+00  0.19448357131E+04  0.19448357131E+04  0.00000000000E+00 0. -1.
       -2   -1    0    0    0  501 -0.00000000000E+00 -0.00000000000E+00 -0.37940627023E+01  0.37940627023E+01  0.00000000000E+00 0.  1.
      -24    2    1    2    0    0 -0.31738901797E+01  0.10937624315E+02  0.67565478821E+03  0.68069300866E+03  0.81877188524E+02 0.  0.
       24    2    1    2    0    0  0.31738901797E+01 -0.10937624315E+02  0.12653868622E+04  0.12679367672E+04  0.79561481096E+02 0.  0.
      -13    1    4    4    0    0  0.18728715092E+01 -0.45623440393E+02  0.72088771723E+03  0.72233240743E+03  0.00000000000E+00 0.  1.
       14    1    4    4    0    0  0.13010186705E+01  0.34685816078E+02  0.54449914498E+03  0.54560435975E+03  0.00000000000E+00 0. -1.
        3    1    3    3  502    0 -0.21391670150E+02  0.32654702992E+02  0.56893637199E+03  0.57027408195E+03  0.00000000000E+00 0. -1.
       -4    1    3    3    0  502  0.18217779971E+02 -0.21717078677E+02  0.10671841623E+03  0.11041892671E+03  0.00000000000E+00 0.  1.
</event>
<event>
 8   1  0.2279600E-02  0.1013795E+03  0.7546771E-02  0.1278015E+00
       -2   -1    0    0    0  501 -0.00000000000E+00  0.00000000000E+00  0.11529912783E+03  0.11529912783E+03  0.00000000000E+00 0.  1.
        2   -1    0    0  501    0  0.00000000000E+00 -0.00000000000E+00 -0.88172687445E+02  0.88172687445E+02  0.00000000000E+00 0. -1.
      -24    2    1    2    0    0 -0.32387928680E+02 -0.50970856195E+02  0.15509849027E+02  0.10142897683E+03  0.80001723852E+02 0.  0.
       24    2    1    2    0    0  0.32387928680E+02  0.50970856195E+02  0.11616591357E+02  0.10204283844E+03  0.81429660303E+02 0.  0.
      -13    1    4    4    0    0  0.31905851504E+02  0.13903908359E+02  0.41690108820E+02  0.54308076760E+02  0.00000000000E+00 0.  1.
       14    1    4    4    0    0  0.48207717561E+00  0.37066947835E+02 -0.30073517463E+02  0.47734761682E+02  0.00000000000E+00 0. -1.
        3    1    3    3  502    0  0.95369244590E+01 -0.25346517546E+02 -0.25673679184E+02  0.37316707822E+02  0.00000000000E+00 0. -1.
       -4    1    3    3    0  502 -0.41924853139E+02 -0.25624338649E+02  0.41183528211E+02  0.64112269012E+02  0.00000000000E+00 0.  1.
</event>
<event>
 8   1  0.2279600E-02  0.9882521E+02  0.7546771E-02  0.1290687E+00
       -2   -1    0    0    0  501 -0.00000000000E+00  0.00000000000E+00  0.20330459099E+02  0.20330459099E+02  0.00000000000E+00 0.  1.
        2   -1    0    0  501    0  0.00000000000E+00 -0.00000000000E+00 -0.43155807422E+03  0.43155807422E+03  0.00000000000E+00 0. -1.
      -24    2    1    2    0    0  0.28589177258E+01  0.36778677488E+02 -0.14849239794E+03  0.17118189430E+03  0.76761996840E+02 0.  0.
       24    2    1    2    0    0 -0.28589177258E+01 -0.36778677488E+02 -0.26273521717E+03  0.28070663902E+03  0.91681941073E+02 0.  0.
      -13    1    4    4    0    0 -0.44819027916E+02 -0.21092186870E+02 -0.17917749265E+03  0.18589835794E+03  0.00000000000E+00 0.  1.
       14    1    4    4    0    0  0.41960110190E+02 -0.15686490618E+02 -0.83557724520E+02  0.94808281084E+02  0.00000000000E+00 0. -1.
        1    1    3    3  502    0 -0.19903909067E+02 -0.54942969702E+01 -0.10296931905E+03  0.10501920568E+03  0.00000000000E+00 0. -1.
       -2    1    3    3    0  502  0.22762826793E+02  0.42272974458E+02 -0.45523078894E+02  0.66162688618E+02  0.00000000000E+00 0.  1.
</event>
<event>
 8   1  0.2279600E-02  0.1237589E+03  0.7546771E-02  0.1237379E+00
        1   -1    0    0  501    0  0.00000000000E+00  0.00000000000E+00  0.21362817980E+03  0.21362817980E+03  0.00000000000E+00 0. -1.
       -1   -1    0    0    0  501 -0.00000000000E+00 -0.00000000000E+00 -0.76562356720E+02  0.76562356720E+02  0.00000000000E+00 0.  1.
       24    2    1    2    0    0  0.84886478198E+02  0.38614981784E+02  0.30281151049E+02  0.12740961586E+03  0.81359886340E+02 0.  0.
      -24    2    1    2    0    0 -0.84886478198E+02 -0.38614981784E+02  0.10678467203E+03  0.16278092066E+03  0.79986442303E+02 0.  0.
      -13    1    3    3    0    0  0.13484267202E+02  0.45159708336E+02  0.29696818200E+02  0.55705706442E+02  0.00000000000E+00 0.  1.
       14    1    3    3    0    0  0.71402210996E+02 -0.65447265522E+01  0.58433284931E+00  0.71703909417E+02  0.00000000000E+00 0. -1.
        1    1    4    4  502    0 -0.50243130614E+02 -0.62702751049E+02  0.64381323334E+02  0.10296097298E+03  0.00000000000E+00 0. -1.
       -2    1    4    4    0  502 -0.34643347584E+02  0.24087769265E+02  0.42403348698E+02  0.59819947683E+02  0.00000000000E+00 0.  1.
</event>
<event>
 8   1  0.2279600E-02  0.8344626E+02  0.7546771E-02  0.1320578E+00
       -2   -1    0    0    0  501 -0.00000000000E+00  0.00000000000E+00  0.56379996527E+01  0.56379996527E+01  0.00000000000E+00 0.  1.
        2   -1    0    0  501    0  0.00000000000E+00 -0.00000000000E+00 -0.13148998681E+04  0.13148998681E+04  0.00000000000E+00 0. -1.
      -24    2    1    2    0    0 -0.19295711715E+02 -0.69825749176E+01 -0.84434826827E+03  0.84846171156E+03  0.80883848950E+02 0.  0.
       24    2    1    2    0    0  0.19295711715E+02  0.69825749176E+01 -0.46491360015E+03  0.47207615616E+03  0.79310533765E+02 0.  0.
      -13    1    4    4    0    0 -0.24714677034E+02 -0.13731501431E+02 -0.99486475822E+02  0.10342595547E+03  0.00000000000E+00 0.  1.
       14    1    4    4    0    0  0.44010388748E+02  0.20714076348E+02 -0.36542712433E+03  0.36865020069E+03  0.00000000000E+00 0. -1.
        3    1    3    3  502    0  0.17649973331E+02 -0.26963828476E+02 -0.57064807402E+03  0.57155734095E+03  0.00000000000E+00 0. -1.
       -4    1    3    3    0  502 -0.36945685045E+02  0.19981253558E+02 -0.27370019424E+03  0.27690437061E+03  0.00000000000E+00 0.  1.
</event>
<event>
 8   1  0.2279600E-02  0.8372960E+02  0.7546771E-02  0.1326761E+00
       -2   -1    0    0    0  501 -0.00000000000E+00  0.00000000000E+00  0.31339696572E+01  0.31339696572E+01  0.00000000000E+00 0.  1.
        2   -1    0    0  501    0  0.00000000000E+00 -0.00000000000E+00 -0.29012423851E+04  0.29012423851E+04  0.00000000000E+00 0. -1.
      -24    2    1    2    0    0 -0.62093708708E+01 -0.21618989264E+02 -0.68833499224E+03  0.69340875970E+03  0.80651779240E+02 0.  0.
       24    2    1    2    0    0  0.62093708708E+01  0.21618989264E+02 -0.22097734232E+04  0.22109675951E+04  0.69088259088E+02 0.  0.
      -13    1    4    4    0    0 -0.29229776960E+02  0.81581914070E+00 -0.65684533471E+03  0.65749588528E+03  0.00000000000E+00 0.  1.
       14    1    4    4    0    0  0.35439147830E+02  0.20803170123E+02 -0.15529280885E+04  0.15534717098E+04  0.00000000000E+00 0. -1.
        3    1    3    3  502    0  0.10692101324E+02  0.27678904890E+02 -0.32559229454E+03  0.32694156217E+03  0.00000000000E+00 0. -1.
       -4    1    3    3    0  502 -0.16901472195E+02 -0.49297894154E+02 -0.36274269770E+03  0.36646719753E+03  0.00000000000E+00 0.  1.
</event>
<event>
 8   1  0.2279600E-02  0.1507570E+03  0.7546771E-02  0.1199627E+00
       -4   -1    0    0    0  501 -0.00000000000E+00  0.00000000000E+00  0.32782069967E+03  0.32782069967E+03  0.00000000000E+00 0.  1.
        4   -1    0    0  501    0  0.00000000000E+00 -0.00000000000E+00 -0.80069919831E+02  0.80069919831E+02  0.00000000000E+00 0. -1.
      -24    2    1    2    0    0 -0.12480750321E+03  0.26673197347E+02  0.19889950590E+03  0.24941625886E+03  0.79743867626E+02 0.  0.
       24    2    1    2    0    0  0.12480750321E+03 -0.26673197347E+02  0.48851273941E+02  0.15847436064E+03  0.80245272147E+02 0.  0.
      -13    1    4    4    0    0 -0.14222252479E+01  0.16874169687E+02  0.87004366492E+01  0.19038327794E+02  0.00000000000E+00 0.  1.
       14    1    4    4    0    0  0.12622972845E+03 -0.43547367034E+02  0.40150837292E+02  0.13943603285E+03  0.00000000000E+00 0. -1.
        1    1    3    3  502    0  0.17572916477E+01  0.23478670372E+02  0.25381294621E+02  0.34620025318E+02  0.00000000000E+00 0. -1.
       -2    1    3    3    0  502 -0.12656479485E+03  0.31945269743E+01  0.17351821128E+03  0.21479623355E+03  0.00000000000E+00 0.  1.
</event>
<event>
 8   1  0.2279600E-02  0.8373762E+02  0.7546771E-02  0.1319535E+00
       -2   -1    0    0    0  501 -0.00000000000E+00  0.00000000000E+00  0.24239132145E+03  0.24239132145E+03  0.00000000000E+00 0.  1.
        2   -1    0    0  501    0  0.00000000000E+00 -0.00000000000E+00 -0.44316201510E+02  0.44316201510E+02  0.00000000000E+00 0. -1.
      -24    2    1    2    0    0  0.12468720851E+02  0.15837771053E+02  0.18414402617E+03  0.20181898285E+03  0.80097287540E+02 0.  0.
       24    2    1    2    0    0 -0.12468720851E+02 -0.15837771053E+02  0.13931093767E+02  0.84888540111E+02  0.81275364515E+02 0.  0.
      -13    1    4    4    0    0  0.34582348031E+02 -0.90047314691E+01  0.16021454981E+01  0.35771369199E+02  0.00000000000E+00 0.  1.
       14    1    4    4    0    0 -0.47051068883E+02 -0.68330395836E+01  0.12328948268E+02  0.49117170911E+02  0.00000000000E+00 0. -1.
        3    1    3    3  502    0 -0.15672095466E+02  0.41479414061E+02  0.92364493505E+02  0.10245660558E+03  0.00000000000E+00 0. -1.
       -4    1    3    3    0  502  0.28140816317E+02 -0.25641643009E+02  0.91779532665E+02  0.99362377263E+02  0.00000000000E+00 0.  1.
</event>
<event>
 8   1  0.2279600E-02  0.9400467E+02  0.7546771E-02  0.1295380E+00
       -1   -1    0    0    0  501 -0.00000000000E+00  0.00000000000E+00  0.20991550667E+04  0.20991550667E+04  0.00000000000E+00 0.  1.
        1   -1    0    0  501    0  0.00000000000E+00 -0.00000000000E+00 -0.79188251468E+01  0.79188251468E+01  0.00000000000E+00 0. -1.
       24    2    1    2    0    0 -0.33847486063E+01  0.42811154717E+02  0.17905637660E+04  0.17930296924E+04  0.83621924474E+02 0.  0.
      -24    2    1    2    0    0  0.33847486063E+01 -0.42811154717E+02  0.30067247558E+03  0.31404419947E+03  0.79847167485E+02 0.  0.
      -13    1    3    3    0    0 -0.17436884783E+02  0.64148985213E+02  0.14415872191E+04  0.14431191384E+04  0.00000000000E+00 0.  1.
       14    1    3    3    0    0  0.14052136177E+02 -0.21337830496E+02  0.34897654690E+03  0.34991055404E+03  0.00000000000E+00 0. -1.
        3    1    4    4  502    0 -0.25977369432E+02 -0.46223712796E+02  0.12318288147E+03  0.13410994607E+03  0.00000000000E+00 0. -1.
       -4    1    4    4    0  502  0.29362118038E+02  0.34125580796E+01  0.17748959411E+03  0.17993425340E+03  0.00000000000E+00 0.  1.
</event>
<event>
 8   1  0.2279600E-02  0.9225417E+02  0.7546771E-02  0.1297840E+00
       -2   -1    0    0    0  501 -0.00000000000E+00  0.00000000000E+00  0.35851761578E+01  0.35851761578E+01  0.00000000000E+00 0.  1.
        2   -1    0    0  501    0  0.00000000000E+00 -0.00000000000E+00 -0.24087564497E+04  0.24087564497E+04  0.00000000000E+00 0. -1.
      -24    2    1    2    0    0  0.38901404143E+02 -0.17738354623E+02 -0.10241339685E+04  0.10282264323E+04  0.81063198610E+02 0.  0.
       24    2    1    2    0    0 -0.38901404143E+02  0.17738354623E+02 -0.13810373051E+04  0.13841151936E+04  0.81748777726E+02 0.  0.
      -13    1    4    4    0    0 -0.34482998109E+02  0.43908218184E+02 -0.59073738137E+03  0.59336975195E+03  0.00000000000E+00 0.  1.
       14    1    4    4    0    0 -0.44184060338E+01 -0.26169863561E+02 -0.79029992371E+03  0.79074544165E+03  0.00000000000E+00 0. -1.
        3    1    3    3  502    0 -0.18556386300E+02 -0.17846493728E+02 -0.55343403414E+03  0.55403255045E+03  0.00000000000E+00 0. -1.
       -4    1    3    3    0  502  0.57457790443E+02  0.10813910495E+00 -0.47069993434E+03  0.47419388183E+03  0.00000000000E+00 0.  1.
</event>
<event>
 8   1  0.2279600E-02  0.1052581E+03  0.7546771E-02  0.1271297E+00
       -1   -1    0    0    0  501 -0.00000000000E+00  0.00000000000E+00  0.54591244291E+03  0.54591244291E+03  0.00000000000E+00 0.  1.
        1   -1    0    0  501    0  0.00000000000E+00 -0.00000000000E+00 -0.20309271869E+02  0.20309271869E+02  0.00000000000E+00 0. -1.
       24    2    1    2    0    0 -0.55832417371E+02 -0.35624036845E+02  0.30966323377E+03  0.32599406343E+03  0.77424028645E+02 0.  0.
      -24    2    1    2    0    0  0.55832417371E+02  0.35624036845E+02  0.21593993727E+03  0.24022765135E+03  0.81810373018E+02 0.  0.
      -13    1    3    3    0    0  0.33537092540E+01 -0.41471179094E+02  0.14803146349E+03  0.15376742257E+03  0.00000000000E+00 0.  1.
       14    1    3    3    0    0 -0.59186126625E+02  0.58471422486E+01  0.16163177028E+03  0.17222664086E+03  0.00000000000E+00 0. -1.
        1    1    4    4  502    0  0.25592962690E+01  0.38563782831E+02  0.37005792103E+02  0.53508354420E+02  0.00000000000E+00 0. -1.
       -2    1    4    4    0  502  0.53273121102E+02 -0.29397459853E+01  0.17893414517E+03  0.18671929693E+03  0.00000000000E+00 0.  1.
</event>
<event>
 8   1  0.2279600E-02  0.1153084E+03  0.7546771E-02  0.1263556E+00
       -2   -1    0    0    0  501 -0.00000000000E+00  0.00000000000E+00  0.12574405523E+02  0.12574405523E+02  0.00000000000E+00 0.  1.
        2   -1    0    0  501    0  0.00000000000E+00 -0.00000000000E+00 -0.11449468044E+04  0.11449468044E+04  0.00000000000E+00 0. -1.
       24    2    1    2    0    0 -0.25184483139E+02  0.30842354201E+02 -0.91484910884E+03  0.92208726677E+03  0.10821518648E+03 0.  0.
      -24    2    1    2    0    0  0.25184483139E+02 -0.30842354201E+02 -0.21752329007E+03  0.23543394319E+03  0.80791403500E+02 0.  0.
      -13    1    3    3    0    0  0.49009857966E+01  0.65139802747E+02 -0.40886434072E+03  0.41404983115E+03  0.00000000000E+00 0.  1.
       14    1    3    3    0    0 -0.30085468936E+02 -0.34297448546E+02 -0.50598476812E+03  0.50803743562E+03  0.00000000000E+00 0. -1.
        1    1    4    4  502    0 -0.11491532302E+01 -0.37127897395E+02 -0.19945637166E+03  0.20288579427E+03  0.00000000000E+00 0. -1.
       -2    1    4    4    0  502  0.26333636369E+02  0.62855431945E+01 -0.18066918409E+02  0.32548148926E+02  0.00000000000E+00 0.  1.
</event>
<event>
 8   1  0.2279600E-02  0.1532235E+03  0.7546771E-02  0.1198615E+00
       -2   -1    0    0    0  501 -0.00000000000E+00  0.00000000000E+00  0.33453970634E+02  0.33453970634E+02  0.00000000000E+00 0.  1.
        2   -1    0    0  501    0  0.00000000000E+00 -0.00000000000E+00 -0.32065491757E+04  0.32065491757E+04  0.00000000000E+00 0. -1.
       24    2    1    2    0    0  0.59181318627E+02  0.10745411464E+03 -0.30343253716E+04  0.30381915537E+04  0.91807629086E+02 0.  0.
      -24    2    1    2    0    0 -0.59181318627E+02 -0.10745411464E+03 -0.13876983344E+03  0.20181159265E+03  0.80137613066E+02 0.  0.
      -13    1    3    3    0    0  0.42268891892E+02  0.34477093498E+02 -0.54139057090E+03  0.54413149097E+03  0.00000000000E+00 0.  1.
       14    1    3    3    0    0  0.16912426735E+02  0.72977021139E+02 -0.24929348007E+04  0.24940600627E+04  0.00000000000E+00 0. -1.
        3    1    4    4  502    0 -0.39546417486E+02 -0.23619492837E+02 -0.94194527556E+02  0.10485422547E+03  0.00000000000E+00 0. -1.
       -4    1    4    4    0  502 -0.19634901141E+02 -0.83834621800E+02 -0.44575305880E+02  0.96957367175E+02  0.00000000000E+00 0.  1.
</event>
<event>
 8   1  0.2279600E-02  0.8573281E+02  0.7546771E-02  0.1315798E+00
        2   -1    0    0  501    0  0.00000000000E+00  0.00000000000E+00  0.15498235566E+03  0.15498235566E+03  0.00000000000E+00 0. -1.
       -2   -1    0    0    0  501 -0.00000000000E+00 -0.00000000000E+00 -0.66312348457E+02  0.66312348457E+02  0.00000000000E+00 0.  1.
      -24    2    1    2    0    0 -0.17853432338E+02  0.39594019922E+01 -0.16956042392E+02  0.87393489175E+02  0.83759731770E+02 0.  0.
       24    2    1    2    0    0  0.17853432338E+02 -0.39594019922E+01  0.10562604959E+03  0.13390121494E+03  0.80238713223E+02 0.  0.
      -13    1    4    4    0    0 -0.24134385590E+02 -0.12105947974E+02  0.79079145156E+02  0.83561556608E+02  0.00000000000E+00 0.  1.
       14    1    4    4    0    0  0.41987817929E+02  0.81465459820E+01  0.26546904437E+02  0.50339658332E+02  0.00000000000E+00 0. -1.
        1    1    3    3  502    0 -0.45114860021E+00 -0.31580102959E+02  0.16446656023E+02  0.35608972638E+02  0.00000000000E+00 0. -1.
       -2    1    3    3    0  502 -0.17402283738E+02  0.35539504952E+02 -0.33402698415E+02  0.51784516537E+02  0.00000000000E+00 0.  1.
</event>
<event>
 8   1  0.2279600E-02  0.9552628E+02  0.7546771E-02  0.1299845E+00
       -1   -1    0    0    0  501 -0.00000000000E+00  0.00000000000E+00  0.10283456960E+03  0.10283456960E+03  0.00000000000E+00 0.  1.
        1   -1    0    0  501    0  0.00000000000E+00 -0.00000000000E+00 -0.58770989963E+03  0.58770989963E+03  0.00000000000E+00 0. -1.
       24    2    1    2    0    0  0.11687575394E+02 -0.71019422334E+01  0.82840142613E+02  0.11484825699E+03  0.78361954440E+02 0.  0.
      -24    2    1    2    0    0 -0.11687575394E+02  0.71019422334E+01 -0.56771547264E+03  0.57569621225E+03  0.94542233498E+02 0.  0.
      -13    1    3    3    0    0  0.11920081949E+02  0.21134036968E+02  0.83141484527E+02  0.86609712629E+02  0.00000000000E+00 0.  1.
       14    1    3    3    0    0 -0.23250655564E+00 -0.28235979201E+02 -0.30134191427E+00  0.28238544362E+02  0.00000000000E+00 0. -1.
        1    1    4    4  502    0 -0.18454149787E+02 -0.41971043877E+02 -0.28848338332E+03  0.29210406814E+03  0.00000000000E+00 0. -1.
       -2    1    4    4    0  502  0.67665743938E+01  0.49072986111E+02 -0.27923208932E+03  0.28359214411E+03  0.00000000000E+00 0.  1.
</event>
<event>
 8   1  0.2279600E-02  0.1712244E+03  0.7546771E-02  0.1176588E+00
       -2   -1    0    0    0  501 -0.00000000000E+00  0.00000000000E+00  0.41780030845E+03  0.41780030845E+03  0.00000000000E+00 0.  1.
        2   -1    0    0  501    0  0.00000000000E+00 -0.00000000000E+00 -0.10124175322E+03  0.10124175322E+03  0.00000000000E+00 0. -1.
       24    2    1    2    0    0  0.14703188876E+03  0.33015455012E+02  0.14455680882E+02  0.17179009780E+03  0.81206369282E+02 0.  0.
      -24    2    1    2    0    0 -0.14703188876E+03 -0.33015455012E+02  0.30210287435E+03  0.34725196387E+03  0.81298112780E+02 0.  0.
      -13    1    3    3    0    0  0.77897619878E+02 -0.18581549264E+02  0.27224845640E+02  0.84584309276E+02  0.00000000000E+00 0.  1.
       14    1    3    3    0    0  0.69134268880E+02  0.51597004276E+02 -0.12769164757E+02  0.87205788526E+02  0.00000000000E+00 0. -1.
        1    1    4    4  502    0 -0.37666668116E+02 -0.63984808089E+01  0.19157194960E+02  0.42740104847E+02  0.00000000000E+00 0. -1.
       -2    1    4    4    0  502 -0.10936522064E+03 -0.26616974203E+02  0.28294567939E+03  0.30451185902E+03  0.00000000000E+00 0.  1.
</event>
<event>
 8   1  0.2279600E-02  0.7934642E+02  0.7546771E-02  0.1331670E+00
       -2   -1    0    0    0  501 -0.00000000000E+00  0.00000000000E+00  0.64844271026E+01  0.64844271026E+01  0.00000000000E+00 0.  1.
        2   -1    0    0  501    0  0.00000000000E+00 -0.00000000000E+00 -0.95831695682E+03  0.95831695682E+03  0.00000000000E+00 0. -1.
      -24    2    1    2    0    0 -0.19908746491E+01 -0.17373345036E+02 -0.48425091188E+03  0.49070846669E+03  0.77395458023E+02 0.  0.
       24    2    1    2    0    0  0.19908746491E+01  0.17373345036E+02 -0.46758161784E+03  0.47409291724E+03  0.76326457624E+02 0.  0.
      -13    1    4    4    0    0 -0.57380704044E+01 -0.21736349157E+02 -0.52625843735E+02  0.57226512697E+02  0.00000000000E+00 0.  1.
       14    1    4    4    0    0  0.77289450535E+01  0.39109694193E+02 -0.41495577410E+03  0.41686640454E+03  0.00000000000E+00 0. -1.
        3    1    3    3  502    0  0.13212850688E+02 -0.19087068269E+02 -0.46729031123E+03  0.46786657347E+03  0.00000000000E+00 0. -1.
       -4    1    3    3    0  502 -0.15203725337E+02  0.17137232327E+01 -0.16960600646E+02  0.22841893217E+02  0.00000000000E+00 0.  1.
</event>
<event>
 8   1  0.2279600E-02  0.8377202E+02  0.7546771E-02  0.1322959E+00
       -2   -1    0    0    0  501 -0.00000000000E+00  0.00000000000E+00  0.77128944051E+01  0.77128944051E+01  0.00000000000E+00 0.  1.
        2   -1    0    0  501    0  0.00000000000E+00 -0.00000000000E+00 -0.97884655286E+03  0.97884655286E+03  0.00000000000E+00 0. -1.
       24    2    1    2    0    0 -0.22349147025E+02 -0.95746534844E+01 -0.68443513258E+03  0.68954274818E+03  0.80166030775E+02 0.  0.
      -24    2    1    2    0    0  0.22349147025E+02  0.95746534844E+01 -0.28669852587E+03  0.29701669909E+03  0.73700179354E+02 0.  0.
      -13    1    3    3    0    0 -0.29300800660E+01  0.79891009852E+01 -0.55644570000E+01  0.10167314564E+02  0.00000000000E+00 0.  1.
       14    1    3    3    0    0 -0.19419066959E+02 -0.17563754470E+02 -0.67887067558E+03  0.67937543361E+03  0.00000000000E+00 0. -1.
        3    1    4    4  502    0 -0.17219443763E+02 -0.16293914262E+02 -0.16074348634E+03  0.16248221222E+03  0.00000000000E+00 0. -1.
       -4    1    4    4    0  502  0.39568590788E+02  0.25868567747E+02 -0.12595503953E+03  0.13453448687E+03  0.00000000000E+00 0.  1.
</event>
<event>
 8   1  0.2279600E-02  0.8385333E+02  0.7546771E-02  0.1320379E+00
       -2   -1    0    0    0  501 -0.00000000000E+00  0.00000000000E+00  0.93298449804E+01  0.93298449804E+01  0.00000000000E+00 0.  1.
        2   -1    0    0  501    0  0.00000000000E+00 -0.00000000000E+00 -0.92283401794E+03  0.92283401794E+03  0.00000000000E+00 0. -1.
      -24    2    1    2    0    0 -0.17312706319E+01 -0.10283562079E+01 -0.23666069286E+03  0.25014591742E+03  0.80997787894E+02 0.  0.
       24    2    1    2    0    0  0.17312706319E+01  0.10283562079E+01 -0.67684348010E+03  0.68201794549E+03  0.83829151331E+02 0.  0.
      -13    1    4    4    0    0  0.65890957066E+01 -0.20686350086E+01 -0.20558021780E+01  0.72056752373E+01  0.00000000000E+00 0.  1.
       14    1    4    4    0    0 -0.48578250747E+01  0.30969912164E+01 -0.67478767792E+03  0.67481227026E+03  0.00000000000E+00 0. -1.
        3    1    3    3  502    0  0.13593670421E+01  0.38384451793E+02 -0.15090607276E+03  0.15571723352E+03  0.00000000000E+00 0. -1.
       -4    1    3    3    0  502 -0.30906376740E+01 -0.39412808001E+02 -0.85754620100E+02  0.94428683906E+02  0.00000000000E+00 0.  1.
</event>
<event>
 8   1  0.2279600E-02  0.9081708E+02  0.7546771E-02  0.1301205E+00
        2   -1    0    0  501    0  0.00000000000E+00  0.00000000000E+00  0.19473489522E+04  0.19473489522E+04  0.00000000000E+00 0. -1.
       -2   -1    0    0    0  501 -0.00000000000E+00 -0.00000000000E+00 -0.52715190905E+01  0.52715190905E+01  0.00000000000E+00 0.  1.
      -24    2    1    2    0    0  0.39632374536E+02  0.15680803329E+02  0.53532230128E+03  0.54297118566E+03  0.80194323398E+02 0.  0.
       24    2    1    2    0    0 -0.39632374536E+02 -0.15680803329E+02  0.14067551318E+04  0.14096492856E+04  0.79589539794E+02 0.  0.
      -13    1    4    4    0    0  0.15400223404E+02 -0.13643809577E+02  0.83376564310E+03  0.83401946502E+03  0.00000000000E+00 0.  1.
       14    1    4    4    0    0 -0.55032597940E+02 -0.20369937520E+01  0.57298948872E+03  0.57562982060E+03  0.00000000000E+00 0. -1.
        3    1    3    3  502    0  0.42016185800E+02 -0.79951751326E+01  0.48925691884E+03  0.49112281084E+03  0.00000000000E+00 0. -1.
       -4    1    3    3    0  502 -0.23838112635E+01  0.23675978461E+02  0.46065382447E+02  0.51848374828E+02  0.00000000000E+00 0.  1.
</event>
<event>
 8   1  0.2279600E-02  0.8511831E+02  0.7546771E-02  0.1316090E+00
        4   -1    0    0  501    0  0.00000000000E+00  0.00000000000E+00  0.97280237344E+02  0.97280237344E+02  0.00000000000E+00 0. -1.
       -4   -1    0    0    0  501 -0.00000000000E+00 -0.00000000000E+00 -0.83211676394E+02  0.83211676394E+02  0.00000000000E+00 0.  1.
       24    2    1    2    0    0  0.23455028827E+02  0.19431294157E+02  0.38285946156E+02  0.91995534232E+02  0.77907965418E+02 0.  0.
      -24    2    1    2    0    0 -0.23455028827E+02 -0.19431294157E+02 -0.24217385206E+02  0.88496379507E+02  0.79482160701E+02 0.  0.
      -13    1    3    3    0    0 -0.48814361893E+01  0.39086566346E+00 -0.22095242315E+02  0.22631414631E+02  0.00000000000E+00 0.  1.
       14    1    3    3    0    0  0.28336465017E+02  0.19040428493E+02  0.60381188471E+02  0.69364119601E+02  0.00000000000E+00 0. -1.
        3    1    4    4  502    0 -0.42892275305E+02 -0.36098047951E+02 -0.27914909560E+02  0.62626340484E+02  0.00000000000E+00 0. -1.
       -4    1    4    4    0  502  0.19437246478E+02  0.16666753794E+02  0.36975243538E+01  0.25870039022E+02  0.00000000000E+00 0.  1.
</event>
<event>
 8   1  0.2279600E-02  0.1008844E+03  0.7546771E-02  0.1278751E+00
       -2   -1    0    0    0  501 -0.00000000000E+00  0.00000000000E+00  0.33685363647E+02  0.33685363647E+02  0.00000000000E+00 0.  1.
        2   -1    0    0  501    0  0.00000000000E+00 -0.00000000000E+00 -0.33420011618E+03  0.33420011618E+03  0.00000000000E+00 0. -1.
      -24    2    1    2    0    0 -0.51618899193E+02 -0.31093816527E+02 -0.20836780835E+03  0.23125193684E+03  0.80180911413E+02 0.  0.
       24    2    1    2    0    0  0.51618899193E+02  0.31093816527E+02 -0.92146944180E+02  0.13663354299E+03  0.80909391093E+02 0.  0.
      -13    1    4    4    0    0  0.24486043377E+02  0.42001511799E+02 -0.10269582840E+02  0.49690619290E+02  0.00000000000E+00 0.  1.
       14    1    4    4    0    0  0.27132855816E+02 -0.10907695272E+02 -0.81877361339E+02  0.86942923696E+02  0.00000000000E+00 0. -1.
        3    1    3    3  502    0 -0.59901960320E+02 -0.36977170449E+02 -0.99351363907E+02  0.12176308757E+03  0.00000000000E+00 0. -1.
       -4    1    3    3    0  502  0.82830611265E+01  0.58833539222E+01 -0.10901644445E+03  0.10948884927E+03  0.00000000000E+00 0.  1.
</event>
<event>
 8   1  0.2279600E-02  0.9470848E+02  0.7546771E-02  0.1291887E+00
       -2   -1    0    0    0  501 -0.00000000000E+00  0.00000000000E+00  0.18749513953E+03  0.18749513953E+03  0.00000000000E+00 0.  1.
        2   -1    0    0  501    0  0.00000000000E+00 -0.00000000000E+00 -0.50904492482E+02  0.50904492482E+02  0.00000000000E+00 0. -1.
      -24    2    1    2    0    0 -0.41700514917E+02  0.21504248424E+02  0.97737343481E+02  0.13603130176E+03  0.82161798313E+02 0.  0.
       24    2    1    2    0    0  0.41700514917E+02 -0.21504248424E+02  0.38853303569E+02  0.10236833026E+03  0.82269862020E+02 0.  0.
      -13    1    4    4    0    0  0.37429318038E+02  0.66863851788E+01  0.57039018314E+02  0.68550063500E+02  0.00000000000E+00 0.  1.
       14    1    4    4    0    0  0.42711968785E+01 -0.28190633603E+02 -0.18185714745E+02  0.33818266758E+02  0.00000000000E+00 0. -1.
        1    1    3    3  502    0  0.14392238837E+02  0.25731355703E+02  0.63932910692E+02  0.70403524590E+02  0.00000000000E+00 0. -1.
       -2    1    3    3    0  502 -0.56092753754E+02 -0.42271072785E+01  0.33804432789E+02  0.65627777166E+02  0.00000000000E+00 0.  1.
</event>
<event>
 8   1  0.2279600E-02  0.1073012E+03  0.7546771E-02  0.1266289E+00
       -2   -1    0    0    0  501 -0.00000000000E+00  0.00000000000E+00  0.57404079842E+02  0.57404079842E+02  0.00000000000E+00 0.  1.
        2   -1    0    0  501    0  0.00000000000E+00 -0.00000000000E+00 -0.67704703682E+03  0.67704703682E+03  0.00000000000E+00 0. -1.
       24    2    1    2    0    0  0.61832055335E+02  0.33176219374E+02 -0.61924582691E+03  0.62847350212E+03  0.81176869403E+02 0.  0.
      -24    2    1    2    0    0 -0.61832055335E+02 -0.33176219374E+02 -0.39713006723E+00  0.10597761454E+03  0.79418086556E+02 0.  0.
      -13    1    3    3    0    0  0.29009916317E+02 -0.26427801491E+02 -0.23154180244E+03  0.23484379960E+03  0.00000000000E+00 0.  1.
       14    1    3    3    0    0  0.32822139018E+02  0.59604020865E+02 -0.38770402447E+03  0.39362970252E+03  0.00000000000E+00 0. -1.
        3    1    4    4  502    0  0.11332793211E+02  0.11786353452E+02  0.10471167600E+02  0.19416376608E+02  0.00000000000E+00 0. -1.
       -4    1    4    4    0  502 -0.73164848546E+02 -0.44962572826E+02 -0.10868297667E+02  0.86561237931E+02  0.00000000000E+00 0.  1.
</event>
<event>
 8   1  0.2279600E-02  0.9745626E+02  0.7546771E-02  0.1286526E+00
       -2   -1    0    0    0  501 -0.00000000000E+00  0.00000000000E+00  0.41008807798E+02  0.41008807798E+02  0.00000000000E+00 0.  1.
        2   -1    0    0  501    0  0.00000000000E+00 -0.00000000000E+00 -0.25879687144E+03  0.25879687144E+03  0.00000000000E+00 0. -1.
       24    2    1    2    0    0 -0.48350884970E+02 -0.28713652125E+02 -0.15972369084E+03  0.18636320792E+03  0.77828696231E+02 0.  0.
      -24    2    1    2    0    0  0.48350884970E+02  0.28713652125E+02 -0.58064372811E+02  0.11344247132E+03  0.79595483626E+02 0.  0.
      -13    1    3    3    0    0 -0.29004223094E+02 -0.52192804806E+02 -0.13331834298E+03  0.14607913747E+03  0.00000000000E+00 0.  1.
       14    1    3    3    0    0 -0.19346661875E+02  0.23479152682E+02 -0.26405347860E+02  0.40284070449E+02  0.00000000000E+00 0. -1.
        3    1    4    4  502    0 -0.21480812573E+02  0.10763174592E+02 -0.67886006560E+01  0.24967105057E+02  0.00000000000E+00 0. -1.
       -4    1    4    4    0  502  0.69831697542E+02  0.17950477533E+02 -0.51275772155E+02  0.88475366263E+02  0.00000000000E+00 0.  1.
</event>
<event>
 8   1  0.2279600E-02  0.9299876E+02  0.7546771E-02  0.1303876E+00
        2   -1    0    0  501    0  0.00000000000E+00  0.00000000000E+00  0.28601767308E+03  0.28601767308E+03  0.00000000000E+00 0. -1.
       -2   -1    0    0    0  501 -0.00000000000E+00 -0.00000000000E+00 -0.26713959413E+02  0.26713959413E+02  0.00000000000E+00 0.  1.
      -24    2    1    2    0    0  0.41333201050E+02 -0.14308922442E+02  0.11702822397E+03  0.14948034707E+03  0.82070641417E+02 0.  0.
       24    2    1    2    0    0 -0.41333201050E+02  0.14308922442E+02  0.14227548969E+03  0.16325128542E+03  0.67048403820E+02 0.  0.
      -13    1    4    4    0    0  0.78456295953E+01  0.23186555796E+02  0.78504173129E+02  0.82231839771E+02  0.00000000000E+00 0.  1.
       14    1    4    4    0    0 -0.49178830646E+02 -0.88776333547E+01  0.63771316563E+02  0.81019445653E+02  0.00000000000E+00 0. -1.
        3    1    3    3  502    0  0.60055687385E+02 -0.11489559968E+01  0.11035352889E+03  0.12564197955E+03  0.00000000000E+00 0. -1.
       -4    1    3    3    0  502 -0.18722486335E+02 -0.13159966445E+02  0.66746950842E+01  0.23838367517E+02  0.00000000000E+00 0.  1.
</event>
<event>
 8   1  0.2279600E-02  0.8986939E+02  0.7546771E-02  0.1304954E+00
        3   -1    0    0  501    0  0.00000000000E+00  0.00000000000E+00  0.11997678800E+03  0.11997678800E+03  0.00000000000E+00 0. -1.
       -3   -1    0    0    0  501 -0.00000000000E+00 -0.00000000000E+00 -0.18964955152E+03  0.18964955152E+03  0.00000000000E+00 0.  1.
       24    2    1    2    0    0  0.12430882561E+02  0.33854839510E+02 -0.16005981634E+03  0.18216526236E+03  0.79147716364E+02 0.  0.
      -24    2    1    2    0    0 -0.12430882561E+02 -0.33854839510E+02  0.90387052819E+02  0.12746107716E+03  0.82315429131E+02 0.  0.
      -13    1    3    3    0    0  0.27443373634E+02  0.48975744081E+02 -0.14655114507E+03  0.15693629404E+03  0.00000000000E+00 0.  1.
       14    1    3    3    0    0 -0.15012491073E+02 -0.15120904571E+02 -0.13508671267E+02  0.25228968324E+02  0.00000000000E+00 0. -1.
        1    1    4    4  502    0 -0.19042899074E+02 -0.19314499501E+02  0.10337495056E+03  0.10687404877E+03  0.00000000000E+00 0. -1.
       -2    1    4    4    0  502  0.66120165135E+01 -0.14540340009E+02 -0.12987897745E+02  0.20587028387E+02  0.00000000000E+00 0.  1.
</event>
<event>
 8   1  0.2279600E-02  0.1453266E+03  0.7546771E-02  0.1206837E+00
       -2   -1    0    0    0  501 -0.00000000000E+00  0.00000000000E+00  0.35272419632E+02  0.35272419632E+02  0.00000000000E+00 0.  1.
        2   -1    0    0  501    0  0.00000000000E+00 -0.00000000000E+00 -0.80233047683E+03  0.80233047683E+03  0.00000000000E+00 0. -1.
      -24    2    1    2    0    0  0.67005167632E+01  0.11899224529E+03 -0.17081713405E+03  0.22427287720E+03  0.83161161600E+02 0.  0.
       24    2    1    2    0    0 -0.67005167632E+01 -0.11899224529E+03 -0.59624092315E+03  0.61333001926E+03  0.80414070420E+02 0.  0.
      -13    1    4    4    0    0 -0.35096060803E+02 -0.31410127737E+02 -0.13474261964E+03  0.14273718211E+03  0.00000000000E+00 0.  1.
       14    1    4    4    0    0  0.28395544040E+02 -0.87582117557E+02 -0.46149830351E+03  0.47059283716E+03  0.00000000000E+00 0. -1.
        3    1    3    3  502    0 -0.34094151726E+02  0.83347336223E+02 -0.92976444914E+02  0.12943650546E+03  0.00000000000E+00 0. -1.
       -4    1    3    3    0  502  0.40794668489E+02  0.35644909072E+02 -0.77840689131E+02  0.94836371737E+02  0.00000000000E+00 0.  1.
</event>
<event>
 8   1  0.2279600E-02  0.1131187E+03  0.7546771E-02  0.1256280E+00
       -1   -1    0    0    0  501 -0.00000000000E+00  0.00000000000E+00  0.20894224410E+03  0.20894224410E+03  0.00000000000E+00 0.  1.
        1   -1    0    0  501    0  0.00000000000E+00 -0.00000000000E+00 -0.14754299682E+03  0.14754299682E+03  0.00000000000E+00 0. -1.
       24    2    1    2    0    0 -0.64787411773E+02  0.36725341304E+02  0.16813383925E+03  0.20095997567E+03  0.81054083818E+02 0.  0.
      -24    2    1    2    0    0  0.64787411773E+02 -0.36725341304E+02 -0.10673459197E+03  0.15552526525E+03  0.85145026810E+02 0.  0.
      -13    1    3    3    0    0 -0.55382089409E+02  0.12298365787E+02  0.16514162063E+03  0.17461437654E+03  0.00000000000E+00 0.  1.
       14    1    3    3    0    0 -0.94053223641E+01  0.24426975517E+02  0.29922186198E+01  0.26345599138E+02  0.00000000000E+00 0. -1.
        1    1    4    4  502    0  0.57666475033E+00 -0.89255594087E+01 -0.80192753975E+02  0.80689999027E+02  0.00000000000E+00 0. -1.
       -2    1    4    4    0  502  0.64210747023E+02 -0.27799781896E+02 -0.26541837995E+02  0.74835266224E+02  0.00000000000E+00 0.  1.
</event>
<event>
 8   1  0.2279600E-02  0.1009464E+03  0.7546771E-02  0.1280881E+00
       -3   -1    0    0    0  501 -0.00000000000E+00  0.00000000000E+00  0.22191384139E+02  0.22191384139E+02  0.00000000000E+00 0.  1.
        3   -1    0    0  501    0  0.00000000000E+00 -0.00000000000E+00 -0.46083150577E+03  0.46083150577E+03  0.00000000000E+00 0. -1.
       24    2    1    2    0    0  0.54682817517E+02  0.11425361598E+02 -0.16001080418E+03  0.18667094720E+03  0.78242160344E+02 0.  0.
      -24    2    1    2    0    0 -0.54682817517E+02 -0.11425361598E+02 -0.27862931745E+03  0.29635194271E+03  0.84079890488E+02 0.  0.
      -13    1    3    3    0    0  0.46998542890E+02 -0.22400731586E+02 -0.53491168486E+02  0.74645568626E+02  0.00000000000E+00 0.  1.
       14    1    3    3    0    0  0.76842746264E+01  0.33826093184E+02 -0.10651963569E+03  0.11202537857E+03  0.00000000000E+00 0. -1.
        3    1    4    4  502    0 -0.62581990551E+02  0.20053214505E+02 -0.15137615010E+03  0.16502537917E+03  0.00000000000E+00 0. -1.
       -4    1    4    4    0  502  0.78991730342E+01 -0.31478576103E+02 -0.12725316735E+03  0.13132656353E+03  0.00000000000E+00 0.  1.
</event>
<event>
 8   1  0.2279600E-02  0.8699883E+02  0.7546771E-02  0.1311125E+00
       -1   -1    0    0    0  501 -0.00000000000E+00  0.00000000000E+00  0.13017989018E+03  0.13017989018E+03  0.00000000000E+00 0.  1.
        1   -1    0    0  501    0  0.00000000000E+00 -0.00000000000E+00 -0.98619786573E+02  0.98619786573E+02  0.00000000000E+00 0. -1.
       24    2    1    2    0    0  0.29208222824E+02 -0.10280254662E+02  0.89787912499E+02  0.12411312109E+03  0.79896143081E+02 0.  0.
      -24    2    1    2    0    0 -0.29208222824E+02  0.10280254662E+02 -0.58227808895E+02  0.10468655566E+03  0.81301865238E+02 0.  0.
      -13    1    3    3    0    0  0.27567214914E+02 -0.38539982200E+02  0.25367039074E+02  0.53747262605E+02  0.00000000000E+00 0.  1.
       14    1    3    3    0    0  0.16410079102E+01  0.28259727538E+02  0.64420873425E+02  0.70365858485E+02  0.00000000000E+00 0. -1.
        3    1    4    4  502    0 -0.11898685417E+02 -0.25194454818E+01 -0.75878913442E+02  0.76847484184E+02  0.00000000000E+00 0. -1.
       -4    1    4    4    0  502 -0.17309537407E+02  0.12799700144E+02  0.17651104547E+02  0.27839071478E+02  0.00000000000E+00 0.  1.
</event>
<event>
 8   1  0.2279600E-02  0.8219214E+02  0.7546771E-02  0.1323698E+00
        2   -1    0    0  501    0  0.00000000000E+00  0.00000000000E+00  0.24234560655E+03  0.24234560655E+03  0.00000000000E+00 0. -1.
       -2   -1    0    0    0  501 -0.00000000000E+00 -0.00000000000E+00 -0.79613200515E+02  0.79613200515E+02  0.00000000000E+00 0.  1.
      -24    2    1    2    0    0 -0.83619480013E+01  0.13769465249E+02 -0.49057274358E+02  0.94779544604E+02  0.79479717918E+02 0.  0.
       24    2    1    2    0    0  0.83619480013E+01 -0.13769465249E+02  0.21178968039E+03  0.22717926246E+03  0.80597941805E+02 0.  0.
      -13    1    4    4    0    0  0.86747858675E+01  0.32828940720E+02  0.67640643824E+02  0.75685189803E+02  0.00000000000E+00 0.  1.
       14    1    4    4    0    0 -0.31283786614E+00 -0.46598405969E+02  0.14414903657E+03  0.15149407266E+03  0.00000000000E+00 0. -1.
        1    1    3    3  502    0  0.17174527978E+02  0.52724879554E+01 -0.62261624671E+02  0.64801801265E+02  0.00000000000E+00 0. -1.
       -2    1    3    3    0  502 -0.25536475979E+02  0.84969772936E+01  0.13204350313E+02  0.29977743340E+02  0.00000000000E+00 0.  1.
</event>
<event>
 8   1  0.2279600E-02  0.9946141E+02  0.7546771E-02  0.1286242E+00
       -1   -1    0    0    0  501 -0.00000000000E+00  0.00000000000E+00  0.54660710874E+02  0.54660710874E+02  0.00000000000E+00 0.  1.
        1   -1    0    0  501    0  0.00000000000E+00 -0.00000000000E+00 -0.36765425922E+03  0.36765425922E+03  0.00000000000E+00 0. -1.
       24    2    1    2    0    0 -0.19874561171E+02  0.38451973522E+02 -0.32298358436E+01  0.99513841856E+02  0.89548983421E+02 0.  0.
      -24    2    1    2    0    0  0.19874561171E+02 -0.38451973522E+02 -0.30976371250E+03  0.32280112824E+03  0.79833942403E+02 0.  0.
      -13    1    3    3    0    0  0.23559091411E+02  0.18769270288E+02  0.29115793877E+02  0.41893266145E+02  0.00000000000E+00 0.  1.
       14    1    3    3    0    0 -0.43433652581E+02  0.19682703235E+02 -0.32345629721E+02  0.57620575710E+02  0.00000000000E+00 0. -1.
        3    1    4    4  502    0  0.34761264687E+01 -0.53680156429E+02 -0.28227514102E+03  0.28735500324E+03  0.00000000000E+00 0. -1.
       -4    1    4    4    0  502  0.16398434702E+02  0.15228182906E+02 -0.27488571485E+02  0.35446125001E+02  0.00000000000E+00 0.  1.
</event>
<event>
 8   1  0.2279600E-02  0.1349796E+03  0.7546771E-02  0.1222081E+00
       -1   -1    0    0    0  501 -0.00000000000E+00  0.00000000000E+00  0.11998936383E+03  0.11998936383E+03  0.00000000000E+00 0.  1.
        1   -1    0    0  501    0  0.00000000000E+00 -0.00000000000E+00 -0.14925567316E+03  0.14925567316E+03  0.00000000000E+00 0. -1.
       24    2    1    2    0    0  0.40817863241E+02 -0.92950052904E+02  0.44290086661E+01  0.13505225365E+03  0.88958893895E+02 0.  0.
      -24    2    1    2    0    0 -0.40817863241E+02  0.92950052904E+02 -0.33695318004E+02  0.13419278334E+03  0.81034056742E+02 0.  0.
      -13    1    3    3    0    0 -0.26256891664E+02 -0.40283423087E+02  0.11619084375E+02  0.49468996929E+02  0.00000000000E+00 0.  1.
       14    1    3    3    0    0  0.67074754905E+02 -0.52666629817E+02 -0.71900757091E+01  0.85583256718E+02  0.00000000000E+00 0. -1.
        3    1    4    4  502    0  0.14698311830E+02  0.19094705125E+02 -0.34152488965E+02  0.41797615206E+02  0.00000000000E+00 0. -1.
       -4    1    4    4    0  502 -0.55516175071E+02  0.73855347779E+02  0.45717096103E+00  0.92395168138E+02  0.00000000000E+00 0.  1.
</event>
<event>
 8   1  0.2279600E-02  0.9853224E+02  0.7546771E-02  0.1283442E+00
        2   -1    0    0  501    0  0.00000000000E+00  0.00000000000E+00  0.50023386198E+03  0.50023386198E+03  0.00000000000E+00 0. -1.
       -2   -1    0    0    0  501 -0.00000000000E+00 -0.00000000000E+00 -0.58488773500E+02  0.58488773500E+02  0.00000000000E+00 0.  1.
      -24    2    1    2    0    0  0.55531168589E+02 -0.97741202164E+01 -0.75330760851E+01  0.98766691170E+02  0.80739506677E+02 0.  0.
       24    2    1    2    0    0 -0.55531168589E+02  0.97741202164E+01  0.44927816456E+03  0.45995594431E+03  0.80804439487E+02 0.  0.
      -13    1    4    4    0    0  0.90476281471E+00 -0.15587224020E+02  0.16270593054E+02  0.22550218330E+02  0.00000000000E+00 0.  1.
       14    1    4    4    0    0 -0.56435931403E+02  0.25361344236E+02  0.43300757151E+03  0.43740572598E+03  0.00000000000E+00 0. -1.
        3    1    3    3  502    0  0.25808075038E+02 -0.45195399399E+02 -0.89456104034E+00  0.52052676237E+02  0.00000000000E+00 0. -1.
       -4    1    3    3    0  502  0.29723093551E+02  0.35421279182E+02 -0.66385150447E+01  0.46714014933E+02  0.00000000000E+00 0.  1.
</event>
<event>
 8   1  0.2279600E-02  0.1043680E+03  0.7546771E-02  0.1271823E+00
       -1   -1    0    0    0  501 -0.00000000000E+00  0.00000000000E+00  0.88511621357E+03  0.88511621357E+03  0.00000000000E+00 0.  1.
        1   -1    0    0  501    0  0.00000000000E+00 -0.00000000000E+00 -0.12985716455E+02  0.12985716455E+02  0.00000000000E+00 0. -1.
       24    2    1    2    0    0 -0.73615870768E+01 -0.64957635710E+02  0.54834530546E+03  0.55818927078E+03  0.81357240595E+02 0.  0.
      -24    2    1    2    0    0  0.73615870768E+01  0.64957635710E+02  0.32378519166E+03  0.33991265924E+03  0.80187768242E+02 0.  0.
      -13    1    3    3    0    0 -0.38894545964E+02 -0.61282049116E+02  0.37441546014E+03  0.38138590960E+03  0.00000000000E+00 0.  1.
       14    1    3    3    0    0  0.31532958887E+02 -0.36755865940E+01  0.17392984532E+03  0.17680336118E+03  0.00000000000E+00 0. -1.
        3    1    4    4  502    0  0.23084999434E+02  0.78352940012E+02  0.23621169530E+03  0.24993612265E+03  0.00000000000E+00 0. -1.
       -4    1    4    4    0  502 -0.15723412357E+02 -0.13395304302E+02  0.87573496354E+02  0.89976536593E+02  0.00000000000E+00 0.  1.
</event>
<event>
 8   1  0.2279600E-02  0.9796298E+02  0.7546771E-02  0.1284750E+00
        1   -1    0    0  501    0  0.00000000000E+00  0.00000000000E+00  0.88157954944E+02  0.88157954944E+02  0.00000000000E+00 0. -1.
       -1   -1    0    0    0  501 -0.00000000000E+00 -0.00000000000E+00 -0.13167795022E+03  0.13167795022E+03  0.00000000000E+00 0.  1.
       24    2    1    2    0    0  0.47943225263E+02  0.32995861707E+02 -0.67727595413E+02  0.11892627444E+03  0.78543948416E+02 0.  0.
      -24    2    1    2    0    0 -0.47943225263E+02 -0.32995861707E+02  0.24207600140E+02  0.10090963072E+03  0.78800164530E+02 0.  0.
      -13    1    3    3    0    0  0.27471492813E+02  0.51276911038E+02 -0.70429792822E+02  0.91347469805E+02  0.00000000000E+00 0.  1.
       14    1    3    3    0    0  0.20471732450E+02 -0.18281049330E+02  0.27021974085E+01  0.27578804632E+02  0.00000000000E+00 0. -1.
        3    1    4    4  502    0 -0.20879104990E+02 -0.17576673948E+02  0.52281673710E+02  0.58976689447E+02  0.00000000000E+00 0. -1.
       -4    1    4    4    0  502 -0.27064120273E+02 -0.15419187760E+02 -0.28074073570E+02  0.41932941277E+02  0.00000000000E+00 0.  1.
</event>
<event>
 8   1  0.2279600E-02  0.1359953E+03  0.7546771E-02  0.1219026E+00
       -2   -1    0    0    0  501 -0.00000000000E+00  0.00000000000E+00  0.12108346995E+02  0.12108346995E+02  0.00000000000E+00 0.  1.
        2   -1    0    0  501    0  0.00000000000E+00 -0.00000000000E+00 -0.17659720208E+04  0.17659720208E+04  0.00000000000E+00 0. -1.
       24    2    1    2    0    0 -0.10899673165E+03 -0.21231345269E+01 -0.12064993288E+04  0.12140746411E+04  0.80323152099E+02 0.  0.
      -24    2    1    2    0    0  0.10899673165E+03  0.21231345269E+01 -0.54736434507E+03  0.56400572667E+03  0.81301526779E+02 0.  0.
      -13    1    3    3    0    0 -0.77286268422E+02 -0.38890395513E+02 -0.81324419500E+03  0.81783357161E+03  0.00000000000E+00 0.  1.
       14    1    3    3    0    0 -0.31710463227E+02  0.36767260986E+02 -0.39325513376E+03  0.39624106953E+03  0.00000000000E+00 0. -1.
        1    1    4    4  502    0  0.76380539789E+02 -0.74423479358E+01 -0.49914873399E+03  0.50501369689E+03  0.00000000000E+00 0. -1.
       -2    1    4    4    0  502  0.32616191861E+02  0.95654824627E+01 -0.48215611073E+02  0.58992029779E+02  0.00000000000E+00 0.  1.
</event>
<event>
 8   1  0.2279600E-02  0.8289815E+02  0.7546771E-02  0.1332397E+00
        2   -1    0    0  501    0  0.00000000000E+00  0.00000000000E+00  0.27056340470E+03  0.27056340470E+03  0.00000000000E+00 0. -1.
       -2   -1    0    0    0  501 -0.00000000000E+00 -0.00000000000E+00 -0.26318996938E+02  0.26318996938E+02  0.00000000000E+00 0.  1.
      -24    2    1    2    0    0 -0.21635031962E+02 -0.84171956680E+01  0.65305562102E+02  0.10553160340E+03  0.79581273443E+02 0.  0.
       24    2    1    2    0    0  0.21635031962E+02  0.84171956680E+01  0.17893884566E+03  0.19135079824E+03  0.63695319379E+02 0.  0.
      -13    1    4    4    0    0 -0.18632850849E+02 -0.74404907946E+01  0.28804880733E+02  0.35103634970E+02  0.00000000000E+00 0.  1.
       14    1    4    4    0    0  0.40267882811E+02  0.15857686463E+02  0.15013396492E+03  0.15624716327E+03  0.00000000000E+00 0. -1.
        3    1    3    3  502    0 -0.30465631782E+02 -0.12161102968E+02  0.80858430752E+02  0.87258999358E+02  0.00000000000E+00 0. -1.
       -4    1    3    3    0  502  0.88305998201E+01  0.37439073004E+01 -0.15552868650E+02  0.18272604037E+02  0.00000000000E+00 0.  1.
</event>
<event>
 8   1  0.2279600E-02  0.9920064E+02  0.7546771E-02  0.1282091E+00
        1   -1    0    0  501    0  0.00000000000E+00  0.00000000000E+00  0.44781654260E+03  0.44781654260E+03  0.00000000000E+00 0. -1.
       -1   -1    0    0    0  501 -0.00000000000E+00 -0.00000000000E+00 -0.33130451857E+02  0.33130451857E+02  0.00000000000E+00 0.  1.
       24    2    1    2    0    0  0.12065280960E+02 -0.55851750909E+02  0.67393170467E+02  0.11976402089E+03  0.80849194124E+02 0.  0.
      -24    2    1    2    0    0 -0.12065280960E+02  0.55851750909E+02  0.34729292028E+03  0.36118297356E+03  0.81091176055E+02 0.  0.
      -13    1    3    3    0    0  0.33886611781E+02 -0.32644650185E+02  0.20826066727E+01  0.47098969142E+02  0.00000000000E+00 0.  1.
       14    1    3    3    0    0 -0.21821330821E+02 -0.23207100724E+02  0.65310563794E+02  0.72665051751E+02  0.00000000000E+00 0. -1.
        3    1    4    4  502    0 -0.26105492962E+02 -0.11316258857E+02  0.13886450258E+03  0.14174944287E+03  0.00000000000E+00 0. -1.
       -4    1    4    4    0  502  0.14040212002E+02  0.67168009766E+02  0.20842841770E+03  0.21943353069E+03  0.00000000000E+00 0.  1.
</event>
<event>
 8   1  0.2279600E-02  0.1126899E+03  0.7546771E-02  0.1258728E+00
        1   -1    0    0  501    0  0.00000000000E+00  0.00000000000E+00  0.42049855612E+03  0.42049855612E+03  0.00000000000E+00 0. -1.
       -1   -1    0    0    0  501 -0.00000000000E+00 -0.00000000000E+00 -0.38433119763E+02  0.38433119763E+02  0.00000000000E+00 0.  1.
       24    2    1    2    0    0 -0.68453463397E+02 -0.19986409513E+02  0.78425680918E+02  0.13729384422E+03  0.87256398148E+02 0.  0.
      -24    2    1    2    0    0  0.68453463397E+02  0.19986409513E+02  0.30363975544E+03  0.32163783166E+03  0.78539547083E+02 0.  0.
      -13    1    3    3    0    0 -0.87478880605E+02 -0.28134994036E+02  0.61712839024E+02  0.11069149444E+03  0.00000000000E+00 0.  1.
       14    1    3    3    0    0  0.19025417209E+02  0.81485845238E+01  0.16712841894E+02  0.26602349781E+02  0.00000000000E+00 0. -1.
        3    1    4    4  502    0  0.72573595455E+02  0.40274398422E+02  0.26640342083E+03  0.27903357604E+03  0.00000000000E+00 0. -1.
       -4    1    4    4    0  502 -0.41201320579E+01 -0.20287988910E+02  0.37236334603E+02  0.42604255619E+02  0.00000000000E+00 0.  1.
</event>
<event>
 8   1  0.2279600E-02  0.9443453E+02  0.7546771E-02  0.1292977E+00
        2   -1    0    0  501    0  0.00000000000E+00  0.00000000000E+00  0.19604517725E+03  0.19604517725E+03  0.00000000000E+00 0. -1.
       -2   -1    0    0    0  501 -0.00000000000E+00 -0.00000000000E+00 -0.88608955418E+02  0.88608955418E+02  0.00000000000E+00 0.  1.
      -24    2    1    2    0    0 -0.22632649594E+02  0.42032156689E+02 -0.46205679233E+02  0.10431080818E+03  0.80416670444E+02 0.  0.
       24    2    1    2    0    0  0.22632649594E+02 -0.42032156689E+02  0.15364190107E+03  0.18034332449E+03  0.81479702394E+02 0.  0.
      -13    1    4    4    0    0 -0.26068832028E+02 -0.28380374131E+02  0.37982537591E+02  0.54108250766E+02  0.00000000000E+00 0.  1.
       14    1    4    4    0    0  0.48701481622E+02 -0.13651782558E+02  0.11565936348E+03  0.12623507373E+03  0.00000000000E+00 0. -1.
        3    1    3    3  502    0 -0.14470656702E+02 -0.85243523731E+01  0.16368727236E+02  0.23452072831E+02  0.00000000000E+00 0. -1.
       -4    1    3    3    0  502 -0.81619928913E+01  0.50556509062E+02 -0.62574406469E+02  0.80858735344E+02  0.00000000000E+00 0.  1.
</event>
<event>
 8   1  0.2279600E-02  0.8281763E+02  0.7546771E-02  0.1326783E+00
       -4   -1    0    0    0  501 -0.00000000000E+00  0.00000000000E+00  0.12307062542E+04  0.12307062542E+04  0.00000000000E+00 0.  1.
        4   -1    0    0  501    0  0.00000000000E+00 -0.00000000000E+00 -0.10285492872E+02  0.10285492872E+02  0.00000000000E+00 0. -1.
      -24    2    1    2    0    0 -0.18845140185E+02 -0.22439192768E+02  0.10373278035E+04  0.10400395364E+04  0.69098544022E+02 0.  0.
       24    2    1    2    0    0  0.18845140185E+02  0.22439192768E+02  0.18309295788E+03  0.20095221068E+03  0.77460332228E+02 0.  0.
      -13    1    4    4    0    0 -0.39317288476E+01  0.12357650414E+02  0.17392880851E+03  0.17441158346E+03  0.00000000000E+00 0.  1.
       14    1    4    4    0    0  0.22776869033E+02  0.10081542354E+02  0.91641493696E+01  0.26540627213E+02  0.00000000000E+00 0. -1.
        1    1    3    3  502    0  0.14413313613E+02  0.16458980815E+02  0.21181778778E+03  0.21294463337E+03  0.00000000000E+00 0. -1.
       -2    1    3    3    0  502 -0.33258453798E+02 -0.38898173583E+02  0.82551001569E+03  0.82709490306E+03  0.00000000000E+00 0.  1.
</event>
<event>
 8   1  0.2279600E-02  0.8641516E+02  0.7546771E-02  0.1326416E+00
       -2   -1    0    0    0  501 -0.00000000000E+00  0.00000000000E+00  0.69246861801E+01  0.69246861801E+01  0.00000000000E+00 0.  1.
        2   -1    0    0  501    0  0.00000000000E+00 -0.00000000000E+00 -0.91363299997E+03  0.91363299997E+03  0.00000000000E+00 0. -1.
      -24    2    1    2    0    0 -0.34773188347E+02 -0.24414091143E+01 -0.27285570973E+03  0.28084157501E+03  0.56626997212E+02 0.  0.
       24    2    1    2    0    0  0.34773188347E+02  0.24414091143E+01 -0.63385260406E+03  0.63971611114E+03  0.79072397697E+02 0.  0.
      -13    1    4    4    0    0  0.68058759021E+01 -0.24401915510E+02 -0.68472520054E+02  0.73008625723E+02  0.00000000000E+00 0.  1.
       14    1    4    4    0    0  0.27967312445E+02  0.26843324625E+02 -0.56538008400E+03  0.56670748542E+03  0.00000000000E+00 0. -1.
        3    1    3    3  502    0  0.47135663402E+01 -0.19373456420E+02 -0.49020131372E+02  0.52919956548E+02  0.00000000000E+00 0. -1.
       -4    1    3    3    0  502 -0.39486754687E+02  0.16932047306E+02 -0.22383557836E+03  0.22792161846E+03  0.00000000000E+00 0.  1.
</event>
<event>
 8   1  0.2279600E-02  0.8184512E+02  0.7546771E-02  0.1324277E+00
       -2   -1    0    0    0  501 -0.00000000000E+00  0.00000000000E+00  0.42596689423E+02  0.42596689423E+02  0.00000000000E+00 0.  1.
        2   -1    0    0  501    0  0.00000000000E+00 -0.00000000000E+00 -0.16388609412E+03  0.16388609412E+03  0.00000000000E+00 0. -1.
      -24    2    1    2    0    0  0.30004893815E+01  0.67008596932E+01 -0.38086815002E+02  0.89772483935E+02  0.80960415870E+02 0.  0.
       24    2    1    2    0    0 -0.30004893815E+01 -0.67008596932E+01 -0.83202589690E+02  0.11671029960E+03  0.81515143656E+02 0.  0.
      -13    1    4    4    0    0 -0.20546294202E+02 -0.38825513472E+02 -0.34889671651E+02  0.56096879500E+02  0.00000000000E+00 0.  1.
       14    1    4    4    0    0  0.17545804820E+02  0.32124653778E+02 -0.48312918040E+02  0.60613420104E+02  0.00000000000E+00 0. -1.
        1    1    3    3  502    0 -0.35034840079E+02  0.18681387648E+02 -0.98436298331E+01  0.40906372512E+02  0.00000000000E+00 0. -1.
       -2    1    3    3    0  502  0.38035329460E+02 -0.11980527954E+02 -0.28243185169E+02  0.48866111424E+02  0.00000000000E+00 0.  1.
</event>
<event>
 8   1  0.2279600E-02  0.1205364E+03  0.7546771E-02  0.1243126E+00
       -1   -1    0    0    0  501 -0.00000000000E+00  0.00000000000E+00  0.43861595074E+03  0.43861595074E+03  0.00000000000E+00 0.  1.
        1   -1    0    0  501    0  0.00000000000E+00 -0.00000000000E+00 -0.63913470559E+02  0.63913470559E+02  0.00000000000E+00 0. -1.
       24    2    1    2    0    0 -0.84257174862E+02 -0.23015465472E+02  0.36431631623E+03  0.38373870795E+03  0.83066446539E+02 0.  0.
      -24    2    1    2    0    0  0.84257174862E+02  0.23015465472E+02  0.10386163948E+02  0.11879071335E+03  0.79839701962E+02 0.  0.
      -13    1    3    3    0    0 -0.31248824374E+02  0.11677371842E+02  0.25670950608E+03  0.25886795968E+03  0.00000000000E+00 0.  1.
       14    1    3    3    0    0 -0.53008350488E+02 -0.34692837314E+02  0.10760681015E+03  0.12487074827E+03  0.00000000000E+00 0. -1.
        3    1    4    4  502    0  0.79978632553E+02  0.23834545281E+02  0.37382890919E+02  0.91444779771E+02  0.00000000000E+00 0. -1.
       -4    1    4    4    0  502  0.42785423088E+01 -0.81907980941E+00 -0.26996726971E+02  0.27345933576E+02  0.00000000000E+00 0.  1.
</event>
<event>
 8   1  0.2279600E-02  0.8654274E+02  0.7546771E-02  0.1313602E+00
       -1   -1    0    0    0  501 -0.00000000000E+00  0.00000000000E+00  0.49126934356E+02  0.49126934356E+02  0.00000000000E+00 0.  1.
        1   -1    0    0  501    0  0.00000000000E+00 -0.00000000000E+00 -0.23610466828E+03  0.23610466828E+03  0.00000000000E+00 0. -1.
       24    2    1    2    0    0  0.15682098380E+02  0.25232901178E+02 -0.68634832460E+01  0.86814473160E+02  0.81283564368E+02 0.  0.
      -24    2    1    2    0    0 -0.15682098380E+02 -0.25232901178E+02 -0.18011425068E+03  0.19841712948E+03  0.77753369452E+02 0.  0.
      -13    1    3    3    0    0  0.47849677684E+02  0.62310762472E+01  0.24313858716E+01  0.48314900423E+02  0.00000000000E+00 0.  1.
       14    1    3    3    0    0 -0.32167579304E+02  0.19001824931E+02 -0.92948691176E+01  0.38499572737E+02  0.00000000000E+00 0. -1.
        3    1    4    4  502    0 -0.72100768588E+00 -0.13817052719E+02 -0.17903325163E+03  0.17956707936E+03  0.00000000000E+00 0. -1.
       -4    1    4    4    0  502 -0.14961090694E+02 -0.11415848459E+02 -0.10809990492E+01  0.18850050125E+02  0.00000000000E+00 0.  1.
</event>
<event>
 8   1  0.2279600E-02  0.8940685E+02  0.7546771E-02  0.1308273E+00
       -2   -1    0    0    0  501 -0.00000000000E+00  0.00000000000E+00  0.31015589752E+02  0.31015589752E+02  0.00000000000E+00 0.  1.
        2   -1    0    0  501    0  0.00000000000E+00 -0.00000000000E+00 -0.31897795427E+03  0.31897795427E+03  0.00000000000E+00 0. -1.
       24    2    1    2    0    0  0.52573174895E-01 -0.20654912518E+02 -0.22708861427E+03  0.24183071191E+03  0.80537111436E+02 0.  0.
      -24    2    1    2    0    0 -0.52573174895E-01  0.20654912518E+02 -0.60873750250E+02  0.10816283211E+03  0.86988255562E+02 0.  0.
      -13    1    3    3    0    0 -0.20964605283E+02  0.24428902092E+02 -0.11001679677E+03  0.11462975836E+03  0.00000000000E+00 0.  1.
       14    1    3    3    0    0  0.21017178458E+02 -0.45083814610E+02 -0.11707181751E+03  0.12720095355E+03  0.00000000000E+00 0. -1.
        1    1    4    4  502    0  0.30035363979E+02 -0.21697819828E+02 -0.20338427931E+02  0.42267837955E+02  0.00000000000E+00 0. -1.
       -2    1    4    4    0  502 -0.30087937154E+02  0.42352732346E+02 -0.40535322319E+02  0.65894994156E+02  0.00000000000E+00 0.  1.
</event>
<event>
 8   1  0.2279600E-02  0.9551408E+02  0.7546771E-02  0.1291154E+00
       -2   -1    0    0    0  501 -0.00000000000E+00  0.00000000000E+00  0.15152890904E+03  0.15152890904E+03  0.00000000000E+00 0.  1.
        2   -1    0    0  501    0  0.00000000000E+00 -0.00000000000E+00 -0.10181483732E+03  0.10181483732E+03  0.00000000000E+00 0. -1.
       24    2    1    2    0    0  0.36523106357E+02 -0.32789864674E+02 -0.57483176509E+02  0.10976732529E+03  0.79595462155E+02 0.  0.
      -24    2    1    2    0    0 -0.36523106357E+02  0.32789864674E+02  0.10719724823E+03  0.14357642108E+03  0.81937940774E+02 0.  0.
      -13    1    3    3    0    0  0.36584307201E+02 -0.43174610552E+02 -0.72212719028E+02  0.91744947104E+02  0.00000000000E+00 0.  1.
       14    1    3    3    0    0 -0.61200844074E-01  0.10384745878E+02  0.14729542519E+02  0.18022378182E+02  0.00000000000E+00 0. -1.
        1    1    4    4  502    0 -0.34332703612E+02  0.33302664598E+02  0.13291032323E+02  0.49643262855E+02  0.00000000000E+00 0. -1.
       -2    1    4    4    0  502 -0.21904027454E+01 -0.51279992429E+00  0.93906215907E+02  0.93933158224E+02  0.00000000000E+00 0.  1.
</event>
<event>
 8   1  0.2279600E-02  0.1019804E+03  0.7546771E-02  0.1276394E+00
        2   -1    0    0  501    0  0.00000000000E+00  0.00000000000E+00  0.20604478980E+03  0.20604478980E+03  0.00000000000E+00 0. -1.
       -2   -1    0    0    0  501 -0.00000000000E+00 -0.00000000000E+00 -0.83473850379E+02  0.83473850379E+02  0.00000000000E+00 0.  1.
       24    2    1    2    0    0  0.62465998226E+02  0.51631065356E+01  0.15250529182E+03  0.18323565232E+03  0.79929854530E+02 0.  0.
      -24    2    1    2    0    0 -0.62465998226E+02 -0.51631065356E+01 -0.29934352400E+02  0.10628298786E+03  0.80444698087E+02 0.  0.
      -13    1    3    3    0    0  0.33212174232E+02  0.42531076662E+02  0.76070763946E+02  0.93266832940E+02  0.00000000000E+00 0.  1.
       14    1    3    3    0    0  0.29253823994E+02 -0.37367970127E+02  0.76434527871E+02  0.89968819380E+02  0.00000000000E+00 0. -1.
        1    1    4    4  502    0 -0.29319744944E+02 -0.42475653801E+02 -0.10179300636E+02  0.52606527835E+02  0.00000000000E+00 0. -1.
       -2    1    4    4    0  502 -0.33146253282E+02  0.37312547266E+02 -0.19755051764E+02  0.53676460020E+02  0.00000000000E+00 0.  1.
</event>
<event>
 8   1  0.2279600E-02  0.9044803E+02  0.7546771E-02  0.1302269E+00
       -1   -1    0    0    0  501 -0.00000000000E+00  0.00000000000E+00  0.15670951097E+03  0.15670951097E+03  0.00000000000E+00 0.  1.
        1   -1    0    0  501    0  0.00000000000E+00 -0.00000000000E+00 -0.17567837470E+03  0.17567837470E+03  0.00000000000E+00 0. -1.
       24    2    1    2    0    0  0.36279291326E+02 -0.24834858720E+02  0.13010040352E+03  0.15845176481E+03  0.79043592961E+02 0.  0.
      -24    2    1    2    0    0 -0.36279291326E+02  0.24834858720E+02 -0.14906926726E+03  0.17393612085E+03  0.78097186315E+02 0.  0.
      -13    1    3    3    0    0  0.37731902572E+02 -0.35351798059E+02  0.13656237554E+03  0.14602304103E+03  0.00000000000E+00 0.  1.
       14    1    3    3    0    0 -0.14526112457E+01  0.10516939339E+02 -0.64619720188E+01  0.12428723782E+02  0.00000000000E+00 0. -1.
        3    1    4    4  502    0  0.17187965438E+01  0.45180917257E+02 -0.61475336118E+02  0.76311771678E+02  0.00000000000E+00 0. -1.
       -4    1    4    4    0  502 -0.37998087870E+02 -0.20346058536E+02 -0.87593931139E+02  0.97624349176E+02  0.00000000000E+00 0.  1.
</event>
<event>
 8   1  0.2279600E-02  0.8940275E+02  0.7546771E-02  0.1306096E+00
        1   -1    0    0  501    0  0.00000000000E+00  0.00000000000E+00  0.13645178428E+04  0.13645178428E+04  0.00000000000E+00 0. -1.
       -1   -1    0    0    0  501 -0.00000000000E+00 -0.00000000000E+00 -0.92537160861E+01  0.92537160861E+01  0.00000000000E+00 0.  1.
       24    2    1    2    0    0  0.38434547819E+02 -0.11460905956E+02  0.24343579475E+03  0.25835455561E+03  0.76665007717E+02 0.  0.
      -24    2    1    2    0    0 -0.38434547819E+02  0.11460905956E+02  0.11118283320E+04  0.11154170033E+04  0.79901718413E+02 0.  0.
      -13    1    3    3    0    0  0.17763949421E+02 -0.40113498179E+02  0.80966317698E+02  0.92087975528E+02  0.00000000000E+00 0.  1.
       14    1    3    3    0    0  0.20670598397E+02  0.28652592223E+02  0.16246947705E+03  0.16626658008E+03  0.00000000000E+00 0. -1.
        1    1    4    4  502    0 -0.53302955779E+02  0.14005246337E+02  0.44251549312E+03  0.44593420330E+03  0.00000000000E+00 0. -1.
       -2    1    4    4    0  502  0.14868407960E+02 -0.25443403807E+01  0.66931283888E+03  0.66948280001E+03  0.00000000000E+00 0.  1.
</event>
<event>
 8   1  0.2279600E-02  0.9687146E+02  0.7546771E-02  0.1289379E+00
       -4   -1    0    0    0  501 -0.00000000000E+00  0.00000000000E+00  0.35869448406E+03  0.35869448406E+03  0.00000000000E+00 0.  1.
        4   -1    0    0  501    0  0.00000000000E+00 -0.00000000000E+00 -0.47940365356E+02  0.47940365356E+02  0.00000000000E+00 0. -1.
      -24    2    1    2    0    0 -0.30218264785E+02  0.35481261222E+02  0.29408604702E+03  0.30833986567E+03  0.80092485792E+02 0.  0.
       24    2    1    2    0    0  0.30218264785E+02 -0.35481261222E+02  0.16668071681E+02  0.98294983751E+02  0.84923587963E+02 0.  0.
      -13    1    4    4    0    0  0.34933814176E+02 -0.33541306298E+01  0.43697864546E+02  0.56045739633E+02  0.00000000000E+00 0.  1.
       14    1    4    4    0    0 -0.47155493909E+01 -0.32127130593E+02 -0.27029792865E+02  0.42249244118E+02  0.00000000000E+00 0. -1.
        3    1    3    3  502    0 -0.43113013318E+02 -0.10683846250E+02  0.15419899085E+03  0.16046870494E+03  0.00000000000E+00 0. -1.
       -4    1    3    3    0  502  0.12894748533E+02  0.46165107472E+02  0.13988705618E+03  0.14787116072E+03  0.00000000000E+00 0.  1.
</event>
<event>
 8   1  0.2279600E-02  0.8455623E+02  0.7546771E-02  0.1317635E+00
       -2   -1    0    0    0  501 -0.00000000000E+00  0.00000000000E+00  0.46937814438E+01  0.46937814438E+01  0.00000000000E+00 0.  1.
        2   -1    0    0  501    0  0.00000000000E+00 -0.00000000000E+00 -0.17525165121E+04  0.17525165121E+04  0.00000000000E+00 0. -1.
      -24    2    1    2    0    0 -0.85991655883E+01  0.21608408673E+02 -0.53035777315E+03  0.53681253952E+03  0.79670986391E+02 0.  0.
       24    2    1    2    0    0  0.85991655883E+01 -0.21608408673E+02 -0.12174649575E+04  0.12203977541E+04  0.81295057004E+02 0.  0.
      -13    1    4    4    0    0 -0.12253390433E+02  0.49562693940E+00 -0.10575548380E+04  0.10576259389E+04  0.00000000000E+00 0.  1.
       14    1    4    4    0    0  0.20852556022E+02 -0.22104035612E+02 -0.15991011951E+03  0.16277181515E+03  0.00000000000E+00 0. -1.
        3    1    3    3  502    0 -0.10194764107E+02  0.16860465934E+02 -0.53134257983E+03  0.53170776341E+03  0.00000000000E+00 0. -1.
       -4    1    3    3    0  502  0.15955985188E+01  0.47479427387E+01  0.98480668821E+00  0.51047761064E+01  0.00000000000E+00 0.  1.
</event>
<event>
 8   1  0.2279600E-02  0.1070738E+03  0.7546771E-02  0.1266284E+00
        1   -1    0    0  501    0  0.00000000000E+00  0.00000000000E+00  0.23210620604E+03  0.23210620604E+03  0.00000000000E+00 0. -1.
       -1   -1    0    0    0  501 -0.00000000000E+00 -0.00000000000E+00 -0.49767958000E+02  0.49767958000E+02  0.00000000000E+00 0.  1.
       24    2    1    2    0    0  0.30775343948E+02  0.63051451321E+02  0.10597288274E+03  0.15035814771E+03  0.80341231003E+02 0.  0.
      -24    2    1    2    0    0 -0.30775343948E+02 -0.63051451321E+02  0.76365365302E+02  0.13151601633E+03  0.80883782210E+02 0.  0.
      -13    1    3    3    0    0 -0.84869344156E+01  0.49765929492E+01  0.71618774939E+02  0.72291378856E+02  0.00000000000E+00 0.  1.
       14    1    3    3    0    0  0.39262278363E+02  0.58074858371E+02  0.34354107802E+02  0.78066768858E+02  0.00000000000E+00 0. -1.
        1    1    4    4  502    0 -0.12788450099E+02 -0.64803061196E+02  0.87993292315E+02  0.11002636361E+03  0.00000000000E+00 0. -1.
       -2    1    4    4    0  502 -0.17986893849E+02  0.17516098752E+01 -0.11627927013E+02  0.21489652721E+02  0.00000000000E+00 0.  1.
</event>
<event>
 8   1  0.2279600E-02  0.8256331E+02  0.7546771E-02  0.1322664E+00
       -1   -1    0    0    0  501 -0.00000000000E+00  0.00000000000E+00  0.25920447211E+02  0.25920447211E+02  0.00000000000E+00 0.  1.
        1   -1    0    0  501    0  0.00000000000E+00 -0.00000000000E+00 -0.43029599782E+03  0.43029599782E+03  0.00000000000E+00 0. -1.
       24    2    1    2    0    0 -0.14517729960E+02 -0.98341055092E+01 -0.57716145470E+02  0.99860662090E+02  0.79583442190E+02 0.  0.
      -24    2    1    2    0    0  0.14517729960E+02  0.98341055092E+01 -0.34665940514E+03  0.35635578294E+03  0.80679779066E+02 0.  0.
      -13    1    3    3    0    0  0.31139741331E+02 -0.57097027318E+01 -0.88843171007E+01  0.32881838236E+02  0.00000000000E+00 0.  1.
       14    1    3    3    0    0 -0.45657471291E+02 -0.41244027774E+01 -0.48831828369E+02  0.66978823854E+02  0.00000000000E+00 0. -1.
        1    1    4    4  502    0  0.35051927992E+02  0.34489530225E+02 -0.23947393051E+03  0.24447071142E+03  0.00000000000E+00 0. -1.
       -2    1    4    4    0  502 -0.20534198032E+02 -0.24655424715E+02 -0.10718547464E+03  0.11188507152E+03  0.00000000000E+00 0.  1.
</event>
<event>
 8   1  0.2279600E-02  0.8556882E+02  0.7546771E-02  0.1314095E+00
        1   -1    0    0  501    0  0.00000000000E+00  0.00000000000E+00  0.24441218168E+04  0.24441218168E+04  0.00000000000E+00 0. -1.
       -1   -1    0    0    0  501 -0.00000000000E+00 -0.00000000000E+00 -0.45915343534E+01  0.45915343534E+01  0.00000000000E+00 0.  1.
       24    2    1    2    0    0  0.51325960649E+01  0.27675377696E+02  0.49520786928E+03  0.50250892471E+03  0.80573665322E+02 0.  0.
      -24    2    1    2    0    0 -0.51325960649E+01 -0.27675377696E+02  0.19443224131E+04  0.19462044264E+04  0.80806887658E+02 0.  0.
      -13    1    3    3    0    0 -0.12835420360E+01  0.52918443455E+02  0.41017565511E+03  0.41357717198E+03  0.00000000000E+00 0.  1.
       14    1    3    3    0    0  0.64161381009E+01 -0.25243065759E+02  0.85032214171E+02  0.88931752732E+02  0.00000000000E+00 0. -1.
        1    1    4    4  502    0  0.30993084701E+02 -0.32878884441E+02  0.77792121253E+03  0.77923231789E+03  0.00000000000E+00 0. -1.
       -2    1    4    4    0  502 -0.36125680766E+02  0.52035067455E+01  0.11664012006E+04  0.11669721085E+04  0.00000000000E+00 0.  1.
</event>
<event>
 8   1  0.2279600E-02  0.8083119E+02  0.7546771E-02  0.1327018E+00
       -1   -1    0    0    0  501 -0.00000000000E+00  0.00000000000E+00  0.28253289060E+01  0.28253289060E+01  0.00000000000E+00 0.  1.
        1   -1    0    0  501    0  0.00000000000E+00 -0.00000000000E+00 -0.27491490075E+04  0.27491490075E+04  0.00000000000E+00 0. -1.
       24    2    1    2    0    0 -0.70439082199E-01  0.36593675582E+01 -0.19262182125E+04  0.19278950578E+04  0.80307880682E+02 0.  0.
      -24    2    1    2    0    0  0.70439082199E-01 -0.36593675582E+01 -0.82010546601E+03  0.82407927855E+03  0.80748288007E+02 0.  0.
      -13    1    3    3    0    0  0.26049158354E+02 -0.25734356619E+02 -0.61634355289E+03  0.61743031263E+03  0.00000000000E+00 0.  1.
       14    1    3    3    0    0 -0.26119597436E+02  0.29393724177E+02 -0.13098746597E+04  0.13104647452E+04  0.00000000000E+00 0. -1.
        3    1    4    4  502    0 -0.26923348809E+02  0.28208988364E+02 -0.41337567958E+03  0.41521086957E+03  0.00000000000E+00 0. -1.
       -4    1    4    4    0  502  0.26993787892E+02 -0.31868355922E+02 -0.40672978643E+03  0.40886840899E+03  0.00000000000E+00 0.  1.
</event>
<event>
 8   1  0.2279600E-02  0.1158548E+03  0.7546771E-02  0.1253373E+00
        2   -1    0    0  501    0  0.00000000000E+00  0.00000000000E+00  0.93975949545E+03  0.93975949545E+03  0.00000000000E+00 0. -1.
       -2   -1    0    0    0  501 -0.00000000000E+00 -0.00000000000E+00 -0.22065544443E+02  0.22065544443E+02  0.00000000000E+00 0.  1.
      -24    2    1    2    0    0  0.22242925686E+02 -0.72694775895E+02  0.14838407802E+03  0.18384046051E+03  0.77460971616E+02 0.  0.
       24    2    1    2    0    0 -0.22242925686E+02  0.72694775895E+02  0.76930987299E+03  0.77798457939E+03  0.87424521182E+02 0.  0.
      -13    1    4    4    0    0  0.39766261801E+01  0.37723627328E+02  0.95486941965E+02  0.10274551913E+03  0.00000000000E+00 0.  1.
       14    1    4    4    0    0 -0.26219551866E+02  0.34971148567E+02  0.67382293103E+03  0.67523906027E+03  0.00000000000E+00 0. -1.
        3    1    3    3  502    0  0.25878768157E+02  0.23200905547E+01  0.72758769035E+02  0.77258863136E+02  0.00000000000E+00 0. -1.
       -4    1    3    3    0  502 -0.36358424710E+01 -0.75014866450E+02  0.75625308984E+02  0.10658159737E+03  0.00000000000E+00 0.  1.
</event>
<event>
 8   1  0.2279600E-02  0.1139083E+03  0.7546771E-02  0.1254575E+00
       -1   -1    0    0    0  501 -0.00000000000E+00  0.00000000000E+00  0.18788742768E+03  0.18788742768E+03  0.00000000000E+00 0.  1.
        1   -1    0    0  501    0  0.00000000000E+00 -0.00000000000E+00 -0.78681953396E+02  0.78681953396E+02  0.00000000000E+00 0. -1.
       24    2    1    2    0    0  0.36899443680E+02  0.64711759699E+02  0.10510937205E+03  0.15499378711E+03  0.86173738238E+02 0.  0.
      -24    2    1    2    0    0 -0.36899443680E+02 -0.64711759699E+02  0.40961022302E+01  0.11157559397E+03  0.82964777636E+02 0.  0.
      -13    1    3    3    0    0  0.33690427956E+02 -0.11401988992E+02  0.48202709333E+02  0.59904519661E+02  0.00000000000E+00 0.  1.
       14    1    3    3    0    0  0.32090157240E+01  0.76113748692E+02  0.56906662721E+02  0.95089267448E+02  0.00000000000E+00 0. -1.
        3    1    4    4  502    0 -0.23878175880E+02 -0.28186721999E+01 -0.31008783799E+02  0.39238461604E+02  0.00000000000E+00 0. -1.
       -4    1    4    4    0  502 -0.13021267801E+02 -0.61893087499E+02  0.35104886029E+02  0.72337132363E+02  0.00000000000E+00 0.  1.
</event>
<event>
 8   1  0.2279600E-02  0.1069017E+03  0.7546771E-02  0.1267496E+00
        2   -1    0    0  501    0  0.00000000000E+00  0.00000000000E+00  0.98626528802E+02  0.98626528802E+02  0.00000000000E+00 0. -1.
       -2   -1    0    0    0  501 -0.00000000000E+00 -0.00000000000E+00 -0.11348117176E+03  0.11348117176E+03  0.00000000000E+00 0.  1.
      -24    2    1    2    0    0  0.65619816772E+02  0.10103124792E+02 -0.73550711976E+01  0.10715443378E+03  0.83785094870E+02 0.  0.
       24    2    1    2    0    0 -0.65619816772E+02 -0.10103124792E+02 -0.74995717570E+01  0.10495326678E+03  0.80937699174E+02 0.  0.
      -13    1    4    4    0    0  0.14467432070E+02 -0.18069133288E+02  0.45014088481E+01  0.23580984927E+02  0.00000000000E+00 0.  1.
       14    1    4    4    0    0 -0.80087248843E+02  0.79660084962E+01 -0.12000980605E+02  0.81372281853E+02  0.00000000000E+00 0. -1.
        1    1    3    3  502    0  0.54383582929E+02  0.40958174340E+02  0.11861663333E+02  0.69107490148E+02  0.00000000000E+00 0. -1.
       -2    1    3    3    0  502  0.11236233843E+02 -0.30855049548E+02 -0.19216734531E+02  0.38046943631E+02  0.00000000000E+00 0.  1.
</event>
<event>
 8   1  0.2279600E-02  0.9318547E+02  0.7546771E-02  0.1295818E+00
        2   -1    0    0  501    0  0.00000000000E+00  0.00000000000E+00  0.57636533018E+03  0.57636533018E+03  0.00000000000E+00 0. -1.
       -2   -1    0    0    0  501 -0.00000000000E+00 -0.00000000000E+00 -0.16547704272E+02  0.16547704272E+02  0.00000000000E+00 0.  1.
      -24    2    1    2    0    0  0.40003028653E+02  0.21452705822E+02  0.18594784897E+03  0.20760517998E+03  0.80391836215E+02 0.  0.
       24    2    1    2    0    0 -0.40003028653E+02 -0.21452705822E+02  0.37386977693E+03  0.38530785447E+03  0.81382256793E+02 0.  0.
      -13    1    4    4    0    0 -0.22421600115E+02 -0.49338948518E+02  0.16041045176E+03  0.16931796427E+03  0.00000000000E+00 0.  1.
       14    1    4    4    0    0 -0.17581428538E+02  0.27886242696E+02  0.21345932518E+03  0.21598989019E+03  0.00000000000E+00 0. -1.
        1    1    3    3  502    0 -0.11010259760E+02  0.12940241552E+02  0.13118480237E+03  0.13228049003E+03  0.00000000000E+00 0. -1.
       -2    1    3    3    0  502  0.51013288413E+02  0.85124642704E+01  0.54763046607E+02  0.75324689952E+02  0.00000000000E+00 0.  1.
</event>
<event>
 8   1  0.2279600E-02  0.9170890E+02  0.7546771E-02  0.1299233E+00
       -1   -1    0    0    0  501 -0.00000000000E+00  0.00000000000E+00  0.56234146168E+01  0.56234146168E+01  0.00000000000E+00 0.  1.
        1   -1    0    0  501    0  0.00000000000E+00 -0.00000000000E+00 -0.15898503308E+04  0.15898503308E+04  0.00000000000E+00 0. -1.
       24    2    1    2    0    0  0.40875184290E+02 -0.16488725238E+02 -0.10023065042E+04  0.10064933439E+04  0.80423031830E+02 0.  0.
      -24    2    1    2    0    0 -0.40875184290E+02  0.16488725238E+02 -0.58192041190E+03  0.58898040151E+03  0.79522882408E+02 0.  0.
      -13    1    3    3    0    0  0.60380860817E+01 -0.11075862130E+02 -0.20610937396E+02  0.24164932150E+02  0.00000000000E+00 0.  1.
       14    1    3    3    0    0  0.34837098209E+02 -0.54128631074E+01 -0.98169556684E+03  0.98232841171E+03  0.00000000000E+00 0. -1.
        3    1    4    4  502    0 -0.48485737938E+02  0.41972174353E+02 -0.42841372446E+03  0.43318685288E+03  0.00000000000E+00 0. -1.
       -4    1    4    4    0  502  0.76105536475E+01 -0.25483449116E+02 -0.15350668744E+03  0.15579354863E+03  0.00000000000E+00 0.  1.
</event>
<event>
 8   1  0.2279600E-02  0.8344871E+02  0.7546771E-02  0.1326610E+00
        3   -1    0    0  501    0  0.00000000000E+00  0.00000000000E+00  0.93541055774E+02  0.93541055774E+02  0.00000000000E+00 0. -1.
       -3   -1    0    0    0  501 -0.00000000000E+00 -0.00000000000E+00 -0.84723709573E+02  0.84723709573E+02  0.00000000000E+00 0.  1.
       24    2    1    2    0    0  0.19070547720E+02 -0.14451804038E+02 -0.37314154110E+02  0.91411340602E+02  0.79944647497E+02 0.  0.
      -24    2    1    2    0    0 -0.19070547720E+02  0.14451804038E+02  0.46131500311E+02  0.86853424745E+02  0.69590672066E+02 0.  0.
      -13    1    3    3    0    0 -0.40324666906E+00  0.31397708785E+02 -0.24898044318E+02  0.40073574032E+02  0.00000000000E+00 0.  1.
       14    1    3    3    0    0  0.19473794389E+02 -0.45849512823E+02 -0.12416109792E+02  0.51337766570E+02  0.00000000000E+00 0. -1.
        1    1    4    4  502    0 -0.34506985835E+02  0.71635088178E+01  0.56711534395E+02  0.66770098573E+02  0.00000000000E+00 0. -1.
       -2    1    4    4    0  502  0.15436438115E+02  0.72882952204E+01 -0.10580034084E+02  0.20083326172E+02  0.00000000000E+00 0.  1.
</event>
<event>
 8   1  0.2279600E-02  0.1224168E+03  0.7546771E-02  0.1239932E+00
        1   -1    0    0  501    0  0.00000000000E+00  0.00000000000E+00  0.68664439656E+03  0.68664439656E+03  0.00000000000E+00 0. -1.
       -1   -1    0    0    0  501 -0.00000000000E+00 -0.00000000000E+00 -0.39857651580E+02  0.39857651580E+02  0.00000000000E+00 0.  1.
       24    2    1    2    0    0  0.80589911796E+02  0.39106175005E+02  0.75426799086E+02  0.14217502428E+03  0.80625732252E+02 0.  0.
      -24    2    1    2    0    0 -0.80589911796E+02 -0.39106175005E+02  0.57135994589E+03  0.58432702386E+03  0.83437738682E+02 0.  0.
      -13    1    3    3    0    0 -0.60750040121E+01  0.26687435962E+02  0.38308259883E+02  0.47081288080E+02  0.00000000000E+00 0.  1.
       14    1    3    3    0    0  0.86664915808E+02  0.12418739043E+02  0.37118539202E+02  0.95093736197E+02  0.00000000000E+00 0. -1.
        1    1    4    4  502    0 -0.12343240578E+02 -0.48716064440E+02  0.17726986226E+03  0.18425584003E+03  0.00000000000E+00 0. -1.
       -2    1    4    4    0  502 -0.68246671218E+02  0.96098894351E+01  0.39409008364E+03  0.40007118383E+03  0.00000000000E+00 0.  1.
</event>
<event>
 8   1  0.2279600E-02  0.8507926E+02  0.7546771E-02  0.1317846E+00
        1   -1    0    0  501    0  0.00000000000E+00  0.00000000000E+00  0.65495052024E+03  0.65495052024E+03  0.00000000000E+00 0. -1.
       -1   -1    0    0    0  501 -0.00000000000E+00 -0.00000000000E+00 -0.23218359380E+02  0.23218359380E+02  0.00000000000E+00 0.  1.
       24    2    1    2    0    0  0.15406001732E+02  0.31787648361E+00  0.68802571731E+02  0.10941788892E+03  0.83672185365E+02 0.  0.
      -24    2    1    2    0    0 -0.15406001732E+02 -0.31787648361E+00  0.56292958913E+03  0.56875099070E+03  0.79690157315E+02 0.  0.
      -13    1    3    3    0    0 -0.12980364447E+02 -0.35978192874E+02  0.24031331954E+02  0.45171065287E+02  0.00000000000E+00 0.  1.
       14    1    3    3    0    0  0.28386366178E+02  0.36296069358E+02  0.44771239776E+02  0.64246823632E+02  0.00000000000E+00 0. -1.
        3    1    4    4  502    0 -0.56508504425E+01  0.38668751131E+02  0.33884564371E+03  0.34109173940E+03  0.00000000000E+00 0. -1.
       -4    1    4    4    0  502 -0.97551512891E+01 -0.38986627615E+02  0.22408394542E+03  0.22765925130E+03  0.00000000000E+00 0.  1.
</event>
<event>
 8   1  0.2279600E-02  0.9798764E+02  0.7546771E-02  0.1285490E+00
       -1   -1    0    0    0  501 -0.00000000000E+00  0.00000000000E+00  0.10771297662E+03  0.10771297662E+03  0.00000000000E+00 0.  1.
        1   -1    0    0  501    0  0.00000000000E+00 -0.00000000000E+00 -0.12571772527E+03  0.12571772527E+03  0.00000000000E+00 0. -1.
       24    2    1    2    0    0 -0.21706865663E+02  0.53353720151E+02 -0.73290770323E+02  0.12236467856E+03  0.79270234473E+02 0.  0.
      -24    2    1    2    0    0  0.21706865663E+02 -0.53353720151E+02  0.55286021672E+02  0.11106602333E+03  0.77209519327E+02 0.  0.
      -13    1    3    3    0    0  0.21046924806E+02  0.22334956802E+02 -0.60770866843E+02  0.68080258489E+02  0.00000000000E+00 0.  1.
       14    1    3    3    0    0 -0.42753790469E+02  0.31018763349E+02 -0.12519903481E+02  0.54284420070E+02  0.00000000000E+00 0. -1.
        3    1    4    4  502    0 -0.18739662615E+02 -0.50564138911E+02  0.42165643316E+02  0.68453258323E+02  0.00000000000E+00 0. -1.
       -4    1    4    4    0  502  0.40446528277E+02 -0.27895812399E+01  0.13120378356E+02  0.42612765005E+02  0.00000000000E+00 0.  1.
</event>
<event>
 8   1  0.2279600E-02  0.1141605E+03  0.7546771E-02  0.1254144E+00
       -2   -1    0    0    0  501 -0.00000000000E+00  0.00000000000E+00  0.57596687047E+01  0.57596687047E+01  0.00000000000E+00 0.  1.
        2   -1    0    0  501    0  0.00000000000E+00 -0.00000000000E+00 -0.22572457039E+04  0.22572457039E+04  0.00000000000E+00 0. -1.
      -24    2    1    2    0    0  0.77887714156E+02 -0.81308895546E+01 -0.98206053296E+03  0.98867361530E+03  0.83066357927E+02 0.  0.
       24    2    1    2    0    0 -0.77887714156E+02  0.81308895546E+01 -0.12694255023E+04  0.12743317573E+04  0.79672545828E+02 0.  0.
      -13    1    4    4    0    0 -0.40696098923E+02 -0.34611681136E+02 -0.50810526994E+03  0.51090616191E+03  0.00000000000E+00 0.  1.
       14    1    4    4    0    0 -0.37191615234E+02  0.42742570691E+02 -0.76132023234E+03  0.76342559544E+03  0.00000000000E+00 0. -1.
        1    1    3    3  502    0  0.69867522040E+02  0.25649068992E+02 -0.79017671711E+03  0.79367410795E+03  0.00000000000E+00 0. -1.
       -2    1    3    3    0  502  0.80201921161E+01 -0.33779958547E+02 -0.19188381585E+03  0.19499950735E+03  0.00000000000E+00 0.  1.
</event>
<event>
 8   1  0.2279600E-02  0.9313124E+02  0.7546771E-02  0.1297113E+00
        1   -1    0    0  501    0  0.00000000000E+00  0.00000000000E+00  0.40312837490E+02  0.40312837490E+02  0.00000000000E+00 0. -1.
       -1   -1    0    0    0  501 -0.00000000000E+00 -0.00000000000E+00 -0.21019860074E+03  0.21019860074E+03  0.00000000000E+00 0.  1.
       24    2    1    2    0    0 -0.76076762445E+01 -0.44410157508E+02 -0.75449356565E+02  0.11985839074E+03  0.81506377641E+02 0.  0.
      -24    2    1    2    0    0  0.76076762445E+01  0.44410157508E+02 -0.94436406685E+02  0.13065304749E+03  0.78242220597E+02 0.  0.
      -13    1    3    3    0    0 -0.84631320643E+01 -0.67871235063E+02 -0.47076210234E+02  0.83031913884E+02  0.00000000000E+00 0.  1.
       14    1    3    3    0    0  0.85545581979E+00  0.23461077554E+02 -0.28373146331E+02  0.36826476853E+02  0.00000000000E+00 0. -1.
        1    1    4    4  502    0  0.44521811051E+01  0.67066968572E+02 -0.74124493837E+02  0.10006118517E+03  0.00000000000E+00 0. -1.
       -2    1    4    4    0  502  0.31554951394E+01 -0.22656811064E+02 -0.20311912848E+02  0.30591862328E+02  0.00000000000E+00 0.  1.
</event>
<event>
 8   1  0.2279600E-02  0.1702154E+03  0.7546771E-02  0.1178680E+00
        2   -1    0    0  501    0  0.00000000000E+00  0.00000000000E+00  0.38408946813E+03  0.38408946813E+03  0.00000000000E+00 0. -1.
       -2   -1    0    0    0  501 -0.00000000000E+00 -0.00000000000E+00 -0.74720558799E+02  0.74720558799E+02  0.00000000000E+00 0.  1.
       24    2    1    2    0    0 -0.14694698693E+03 -0.27246391301E+01  0.18009149860E+03  0.24506735374E+03  0.77615844882E+02 0.  0.
      -24    2    1    2    0    0  0.14694698693E+03  0.27246391301E+01  0.12927741073E+03  0.21374267319E+03  0.85862918595E+02 0.  0.
      -13    1    3    3    0    0 -0.10925467679E+03  0.32313408449E+02  0.13493835087E+03  0.17660435811E+03  0.00000000000E+00 0.  1.
       14    1    3    3    0    0 -0.37692310137E+02 -0.35038047579E+02  0.45153147722E+02  0.68462995631E+02  0.00000000000E+00 0. -1.
        1    1    4    4  502    0  0.89974261940E+02 -0.16217437925E+02  0.12317193423E+03  0.15339393236E+03  0.00000000000E+00 0. -1.
       -2    1    4    4    0  502  0.56972724989E+02  0.18942077055E+02  0.61054765072E+01  0.60348740826E+02  0.00000000000E+00 0.  1.
</event>
<event>
 8   1  0.2279600E-02  0.1184245E+03  0.7546771E-02  0.1247192E+00
        2   -1    0    0  501    0  0.00000000000E+00  0.00000000000E+00  0.20904623836E+02  0.20904623836E+02  0.00000000000E+00 0. -1.
       -2   -1    0    0    0  501 -0.00000000000E+00 -0.00000000000E+00 -0.66602585057E+03  0.66602585057E+03  0.00000000000E+00 0.  1.
       24    2    1    2    0    0 -0.81650018431E+02  0.58298461652E+01 -0.26708519575E+03  0.29077949912E+03  0.80731051674E+02 0.  0.
      -24    2    1    2    0    0  0.81650018431E+02 -0.58298461652E+01 -0.37803603098E+03  0.39615097529E+03  0.85578279257E+02 0.  0.
      -13    1    3    3    0    0 -0.50462321055E+02  0.42830199868E+02 -0.16598393402E+03  0.17869397925E+03  0.00000000000E+00 0.  1.
       14    1    3    3    0    0 -0.31187697376E+02 -0.37000353703E+02 -0.10110126173E+03  0.11208551988E+03  0.00000000000E+00 0. -1.
        1    1    4    4  502    0  0.91201992483E+02 -0.27050136226E+02 -0.30688992969E+03  0.32129572398E+03  0.00000000000E+00 0. -1.
       -2    1    4    4    0  502 -0.95519740514E+01  0.21220290061E+02 -0.71146101297E+02  0.74855251307E+02  0.00000000000E+00 0.  1.
</event>
<event>
 8   1  0.2279600E-02  0.8492798E+02  0.7546771E-02  0.1315868E+00
        1   -1    0    0  501    0  0.00000000000E+00  0.00000000000E+00  0.10500836208E+04  0.10500836208E+04  0.00000000000E+00 0. -1.
       -1   -1    0    0    0  501 -0.00000000000E+00 -0.00000000000E+00 -0.72962899868E+01  0.72962899868E+01  0.00000000000E+00 0.  1.
       24    2    1    2    0    0 -0.11098359527E+02 -0.31737117928E+02  0.39002983243E+03  0.39916917722E+03  0.77989381435E+02 0.  0.
      -24    2    1    2    0    0  0.11098359527E+02  0.31737117928E+02  0.65275749842E+03  0.65821073361E+03  0.77579635552E+02 0.  0.
      -13    1    3    3    0    0  0.38262838485E+01  0.84020666256E+01  0.28986763362E+01  0.96766469488E+01  0.00000000000E+00 0.  1.
       14    1    3    3    0    0 -0.14924643375E+02 -0.40139184554E+02  0.38713115610E+03  0.38949253027E+03  0.00000000000E+00 0. -1.
        3    1    4    4  502    0 -0.29799119418E+01 -0.23581373386E+02  0.11490085565E+03  0.11733357438E+03  0.00000000000E+00 0. -1.
       -4    1    4    4    0  502  0.14078271469E+02  0.55318491314E+02  0.53785664277E+03  0.54087715923E+03  0.00000000000E+00 0.  1.
</event>
<event>
 8   1  0.2279600E-02  0.1156538E+03  0.7546771E-02  0.1251134E+00
       -2   -1    0    0    0  501 -0.00000000000E+00  0.00000000000E+00  0.27754005160E+02  0.27754005160E+02  0.00000000000E+00 0.  1.
        2   -1    0    0  501    0  0.00000000000E+00 -0.00000000000E+00 -0.60756826887E+03  0.60756826887E+03  0.00000000000E+00 0. -1.
      -24    2    1    2    0    0 -0.83010943833E+02 -0.66369665376E+01 -0.14017583396E+03  0.18072602553E+03  0.77960026655E+02 0.  0.
       24    2    1    2    0    0  0.83010943833E+02  0.66369665376E+01 -0.43963842975E+03  0.45459624850E+03  0.80255430454E+02 0.  0.
      -13    1    4    4    0    0 -0.20291086510E+01 -0.12684188733E+02 -0.10228160679E+02  0.16420146059E+02  0.00000000000E+00 0.  1.
       14    1    4    4    0    0  0.85040052484E+02  0.19321155270E+02 -0.42941026907E+03  0.43817610244E+03  0.00000000000E+00 0. -1.
        3    1    3    3  502    0 -0.52537783486E+02  0.33948527113E+02 -0.87706540765E+02  0.10772724112E+03  0.00000000000E+00 0. -1.
       -4    1    3    3    0  502 -0.30473160348E+02 -0.40585493651E+02 -0.52469293192E+02  0.72998784404E+02  0.00000000000E+00 0.  1.
</event>
<event>
 8   1  0.2279600E-02  0.1052567E+03  0.7546771E-02  0.1270433E+00
        1   -1    0    0  501    0  0.00000000000E+00  0.00000000000E+00  0.15619149067E+04  0.15619149067E+04  0.00000000000E+00 0. -1.
       -1   -1    0    0    0  501 -0.00000000000E+00 -0.00000000000E+00 -0.15977626512E+02  0.15977626512E+02  0.00000000000E+00 0.  1.
       24    2    1    2    0    0  0.90188730799E+01 -0.64962450704E+02  0.17833445271E+03  0.20624517956E+03  0.80202475007E+02 0.  0.
      -24    2    1    2    0    0 -0.90188730799E+01  0.64962450704E+02  0.13676028275E+04  0.13716473536E+04  0.82325627656E+02 0.  0.
      -13    1    3    3    0    0  0.28378959910E+02 -0.36980497323E+02  0.33336706043E+02  0.57308450665E+02  0.00000000000E+00 0.  1.
       14    1    3    3    0    0 -0.19360086830E+02 -0.27981953381E+02  0.14499774666E+03  0.14893672890E+03  0.00000000000E+00 0. -1.
        1    1    4    4  502    0 -0.35250106340E+02  0.40555461403E+02  0.11377974387E+04  0.11390655499E+04  0.00000000000E+00 0. -1.
       -2    1    4    4    0  502  0.26231233260E+02  0.24406989302E+02  0.22980538878E+03  0.23258180376E+03  0.00000000000E+00 0.  1.
</event>
<event>
 8   1  0.2279600E-02  0.8328742E+02  0.7546771E-02  0.1321546E+00
        2   -1    0    0  501    0  0.00000000000E+00  0.00000000000E+00  0.62160711312E+03  0.62160711312E+03  0.00000000000E+00 0. -1.
       -2   -1    0    0    0  501 -0.00000000000E+00 -0.00000000000E+00 -0.10852860531E+02  0.10852860531E+02  0.00000000000E+00 0.  1.
      -24    2    1    2    0    0  0.14271731432E+02 -0.16111481863E+02  0.31123231355E+03  0.32218371633E+03  0.80458261873E+02 0.  0.
       24    2    1    2    0    0 -0.14271731432E+02  0.16111481863E+02  0.29952193904E+03  0.31027625733E+03  0.78068570674E+02 0.  0.
      -13    1    4    4    0    0  0.12414243970E+02  0.35978849264E+02  0.84242862957E+02  0.92441608634E+02  0.00000000000E+00 0.  1.
       14    1    4    4    0    0 -0.26685975402E+02 -0.19867367401E+02  0.21527907609E+03  0.21783464869E+03  0.00000000000E+00 0. -1.
        1    1    3    3  502    0 -0.26100478891E+02 -0.22281709352E+02  0.75417228244E+02  0.82858119010E+02  0.00000000000E+00 0. -1.
       -2    1    3    3    0  502  0.40372210323E+02  0.61702274893E+01  0.23581508530E+03  0.23932559731E+03  0.00000000000E+00 0.  1.
</event>
<event>
 8   1  0.2279600E-02  0.1137689E+03  0.7546771E-02  0.1254205E+00
       -1   -1    0    0    0  501 -0.00000000000E+00  0.00000000000E+00  0.72287251371E+02  0.72287251371E+02  0.00000000000E+00 0.  1.
        1   -1    0    0  501    0  0.00000000000E+00 -0.00000000000E+00 -0.93013373849E+03  0.93013373849E+03  0.00000000000E+00 0. -1.
       24    2    1    2    0    0  0.60988166921E+02  0.51288656491E+02  0.22327128191E+02  0.11492510125E+03  0.79744563796E+02 0.  0.
      -24    2    1    2    0    0 -0.60988166921E+02 -0.51288656491E+02 -0.88017361531E+03  0.88749588861E+03  0.81198992744E+02 0.  0.
      -13    1    3    3    0    0  0.20268868004E+02  0.14190773663E+02  0.48114126224E+02  0.54103365973E+02  0.00000000000E+00 0.  1.
       14    1    3    3    0    0  0.40719298917E+02  0.37097882828E+02 -0.25786998033E+02  0.60821735278E+02  0.00000000000E+00 0. -1.
        1    1    4    4  502    0 -0.53292585886E+00 -0.52894197752E+02 -0.44775273871E+03  0.45086649375E+03  0.00000000000E+00 0. -1.
       -2    1    4    4    0  502 -0.60455241062E+02  0.16055412606E+01 -0.43242087660E+03  0.43662939486E+03  0.00000000000E+00 0.  1.
</event>
<event>
 8   1  0.2279600E-02  0.8674004E+02  0.7546771E-02  0.1311988E+00
        3   -1    0    0  501    0  0.00000000000E+00  0.00000000000E+00  0.96095988200E+01  0.96095988200E+01  0.00000000000E+00 0. -1.
       -3   -1    0    0    0  501 -0.00000000000E+00 -0.00000000000E+00 -0.84086413951E+03  0.84086413951E+03  0.00000000000E+00 0.  1.
       24    2    1    2    0    0  0.21216991527E+02  0.24121262028E+02 -0.54408227080E+03  0.55095313017E+03  0.80571944492E+02 0.  0.
      -24    2    1    2    0    0 -0.21216991527E+02 -0.24121262028E+02 -0.28717226990E+03  0.29952060816E+03  0.78820594420E+02 0.  0.
      -13    1    3    3    0    0  0.38351607466E+02  0.30700418211E+02 -0.50894894151E+03  0.51131437154E+03  0.00000000000E+00 0.  1.
       14    1    3    3    0    0 -0.17134615940E+02 -0.65791561837E+01 -0.35133329285E+02  0.39638758635E+02  0.00000000000E+00 0. -1.
        1    1    4    4  502    0 -0.47295953223E+02 -0.23001214058E+02 -0.13067503312E+03  0.14086137625E+03  0.00000000000E+00 0. -1.
       -2    1    4    4    0  502  0.26078961697E+02 -0.11200479699E+01 -0.15649723678E+03  0.15865923191E+03  0.00000000000E+00 0.  1.
</event>
<event>
 8   1  0.2279600E-02  0.8951382E+02  0.7546771E-02  0.1305653E+00
       -2   -1    0    0    0  501 -0.00000000000E+00  0.00000000000E+00  0.63981191786E+03  0.63981191786E+03  0.00000000000E+00 0.  1.
        2   -1    0    0  501    0  0.00000000000E+00 -0.00000000000E+00 -0.15006808254E+02  0.15006808254E+02  0.00000000000E+00 0. -1.
      -24    2    1    2    0    0 -0.37344721931E+02  0.19166767531E+01  0.45122601959E+03  0.45951786894E+03  0.78443924036E+02 0.  0.
       24    2    1    2    0    0  0.37344721931E+02 -0.19166767531E+01  0.17357909002E+03  0.19530085718E+03  0.81329099433E+02 0.  0.
      -13    1    4    4    0    0  0.46762757106E+02 -0.14870311847E+02  0.17239390570E+03  0.17924156981E+03  0.00000000000E+00 0.  1.
       14    1    4    4    0    0 -0.94180351750E+01  0.12953635094E+02  0.11851843225E+01  0.16059287362E+02  0.00000000000E+00 0. -1.
        1    1    3    3  502    0 -0.37760204654E+00  0.29228133049E+02  0.30105392177E+03  0.30246965163E+03  0.00000000000E+00 0. -1.
       -2    1    3    3    0  502 -0.36967119884E+02 -0.27311456296E+02  0.15017209782E+03  0.15704821731E+03  0.00000000000E+00 0.  1.
</event>
<event>
 8   1  0.2279600E-02  0.1315193E+03  0.7546771E-02  0.1225564E+00
       -1   -1    0    0    0  501 -0.00000000000E+00  0.00000000000E+00  0.11211353459E+03  0.11211353459E+03  0.00000000000E+00 0.  1.
        1   -1    0    0  501    0  0.00000000000E+00 -0.00000000000E+00 -0.19786459413E+03  0.19786459413E+03  0.00000000000E+00 0. -1.
       24    2    1    2    0    0 -0.43929978437E+02  0.92533948643E+02  0.30896093408E+02  0.13418315836E+03  0.80982570605E+02 0.  0.
      -24    2    1    2    0    0  0.43929978437E+02 -0.92533948643E+02 -0.11664715296E+03  0.17579497036E+03  0.82492052079E+02 0.  0.
      -13    1    3    3    0    0 -0.33010712550E+02  0.40812505433E+02  0.55049862231E+02  0.76064808384E+02  0.00000000000E+00 0.  1.
       14    1    3    3    0    0 -0.10919265887E+02  0.51721443210E+02 -0.24153768823E+02  0.58118349973E+02  0.00000000000E+00 0. -1.
        1    1    4    4  502    0  0.26255756496E+02 -0.10605564249E+03 -0.96154045215E+02  0.14554299868E+03  0.00000000000E+00 0. -1.
       -2    1    4    4    0  502  0.17674221941E+02  0.13521693852E+02 -0.20493107740E+02  0.30251971683E+02  0.00000000000E+00 0.  1.
</event>
<event>
 8   1  0.2279600E-02  0.8463204E+02  0.7546771E-02  0.1316737E+00
        1   -1    0    0  501    0  0.00000000000E+00  0.00000000000E+00  0.34579300968E+03  0.34579300968E+03  0.00000000000E+00 0. -1.
       -1   -1    0    0    0  501 -0.00000000000E+00 -0.00000000000E+00 -0.52116682980E+02  0.52116682980E+02  0.00000000000E+00 0.  1.
       24    2    1    2    0    0  0.34620345505E+01 -0.30528663729E+02 -0.77310291343E+01  0.84984411630E+02  0.78858077686E+02 0.  0.
      -24    2    1    2    0    0 -0.34620345505E+01  0.30528663729E+02  0.30140735584E+03  0.31292528103E+03  0.78306145128E+02 0.  0.
      -13    1    3    3    0    0 -0.14219452786E+01 -0.41229354144E+02 -0.35754888198E+02  0.54592065371E+02  0.00000000000E+00 0.  1.
       14    1    3    3    0    0  0.48839798291E+01  0.10700690415E+02  0.28023859063E+02  0.30392346259E+02  0.00000000000E+00 0. -1.
        1    1    4    4  502    0  0.77096858100E+01  0.22983541131E+02  0.29804773978E+03  0.29903200097E+03  0.00000000000E+00 0. -1.
       -2    1    4    4    0  502 -0.11171720360E+02  0.75451225976E+01  0.33596160598E+01  0.13893280063E+02  0.00000000000E+00 0.  1.
</event>
<event>
 8   1  0.2279600E-02  0.8444286E+02  0.7546771E-02  0.1317117E+00
        2   -1    0    0  501    0  0.00000000000E+00  0.00000000000E+00  0.97845173287E+03  0.97845173287E+03  0.00000000000E+00 0. -1.
       -2   -1    0    0    0  501 -0.00000000000E+00 -0.00000000000E+00 -0.77486947251E+01  0.77486947251E+01  0.00000000000E+00 0.  1.
      -24    2    1    2    0    0  0.11184738450E+02  0.19425767272E+02  0.36226694936E+03  0.37197841154E+03  0.81413372629E+02 0.  0.
       24    2    1    2    0    0 -0.11184738450E+02 -0.19425767272E+02  0.60843608879E+03  0.61422201606E+03  0.81066343610E+02 0.  0.
      -13    1    4    4    0    0 -0.13129506971E+02  0.30190958215E+02  0.18763068026E+03  0.19049711307E+03  0.00000000000E+00 0.  1.
       14    1    4    4    0    0  0.19447685210E+01 -0.49616725487E+02  0.42080540852E+03  0.42372490299E+03  0.00000000000E+00 0. -1.
        1    1    3    3  502    0 -0.19442956486E+02 -0.63319287620E+00  0.20518130614E+02  0.28274072470E+02  0.00000000000E+00 0. -1.
       -2    1    3    3    0  502  0.30627694936E+02  0.20058960148E+02  0.34174881875E+03  0.34370433907E+03  0.00000000000E+00 0.  1.
</event>
<event>
 8   1  0.2279600E-02  0.1315810E+03  0.7546771E-02  0.1225138E+00
       -1   -1    0    0    0  501 -0.00000000000E+00  0.00000000000E+00  0.26677531311E+02  0.26677531311E+02  0.00000000000E+00 0.  1.
        1   -1    0    0  501    0  0.00000000000E+00 -0.00000000000E+00 -0.21708309900E+04  0.21708309900E+04  0.00000000000E+00 0. -1.
       24    2    1    2    0    0 -0.92314679657E+02 -0.48108926315E+02 -0.15210406341E+03  0.20111986406E+03  0.80480337614E+02 0.  0.
      -24    2    1    2    0    0  0.92314679657E+02  0.48108926315E+02 -0.19920493953E+04  0.19963886573E+04  0.80438850680E+02 0.  0.
      -13    1    3    3    0    0 -0.64171945686E+02 -0.63062406998E+02 -0.73080847516E+02  0.11591253626E+03  0.00000000000E+00 0.  1.
       14    1    3    3    0    0 -0.28142733970E+02  0.14953480683E+02 -0.79023215896E+02  0.85207327797E+02  0.00000000000E+00 0. -1.
        3    1    4    4  502    0  0.10734858339E+03  0.41200302729E+02 -0.17277716693E+04  0.17315935217E+04  0.00000000000E+00 0. -1.
       -4    1    4    4    0  502 -0.15033903730E+02  0.69086235858E+01 -0.26427772608E+03  0.26479513561E+03  0.00000000000E+00 0.  1.
</event>
<event>
 8   1  0.2279600E-02  0.8513550E+02  0.7546771E-02  0.1315866E+00
        2   -1    0    0  501    0  0.00000000000E+00  0.00000000000E+00  0.46574832662E+03  0.46574832662E+03  0.00000000000E+00 0. -1.
       -2   -1    0    0    0  501 -0.00000000000E+00 -0.00000000000E+00 -0.15517211589E+02  0.15517211589E+02  0.00000000000E+00 0.  1.
      -24    2    1    2    0    0 -0.24936431148E+02  0.51638675021E+01  0.25211629667E+03  0.26610276315E+03  0.81237690648E+02 0.  0.
       24    2    1    2    0    0  0.24936431148E+02 -0.51638675021E+01  0.19811481836E+03  0.21516277506E+03  0.79981544071E+02 0.  0.
      -13    1    4    4    0    0 -0.20706494547E+02  0.29653020693E+01  0.13688440155E+02  0.24998506488E+02  0.00000000000E+00 0.  1.
       14    1    4    4    0    0  0.45642925695E+02 -0.81291695714E+01  0.18442637820E+03  0.19016426857E+03  0.00000000000E+00 0. -1.
        1    1    3    3  502    0 -0.16178090481E+01  0.27505857272E+02  0.21560535703E+03  0.21735882653E+03  0.00000000000E+00 0. -1.
       -2    1    3    3    0  502 -0.23318622100E+02 -0.22341989770E+02  0.36510939640E+02  0.48743936617E+02  0.00000000000E+00 0.  1.
</event>
<event>
 8   1  0.2279600E-02  0.8734985E+02  0.7546771E-02  0.1309585E+00
       -1   -1    0    0    0  501 -0.00000000000E+00  0.00000000000E+00  0.15899498113E+02  0.15899498113E+02  0.00000000000E+00 0.  1.
        1   -1    0    0  501    0  0.00000000000E+00 -0.00000000000E+00 -0.47849867315E+03  0.47849867315E+03  0.00000000000E+00 0. -1.
       24    2    1    2    0    0  0.31652417642E+02 -0.10447185380E+02 -0.23629308163E+03  0.25181943440E+03  0.80421314895E+02 0.  0.
      -24    2    1    2    0    0 -0.31652417642E+02  0.10447185380E+02 -0.22630609341E+03  0.24257873687E+03  0.80740178607E+02 0.  0.
      -13    1    3    3    0    0 -0.16836111782E+01 -0.81839093501E+01  0.39655339049E+01  0.92485878923E+01  0.00000000000E+00 0.  1.
       14    1    3    3    0    0  0.33336028820E+02 -0.22632760300E+01 -0.24025861553E+03  0.24257084650E+03  0.00000000000E+00 0. -1.
        3    1    4    4  502    0 -0.55762898690E+02  0.17874342725E+02 -0.12286917759E+03  0.13610961685E+03  0.00000000000E+00 0. -1.
       -4    1    4    4    0  502  0.24110481048E+02 -0.74271573448E+01 -0.10343691582E+03  0.10646912002E+03  0.00000000000E+00 0.  1.
</event>
<event>
 8   1  0.2279600E-02  0.1217347E+03  0.7546771E-02  0.1240282E+00
        2   -1    0    0  501    0  0.00000000000E+00  0.00000000000E+00  0.10479070462E+03  0.10479070462E+03  0.00000000000E+00 0. -1.
       -2   -1    0    0    0  501 -0.00000000000E+00 -0.00000000000E+00 -0.14863207463E+03  0.14863207463E+03  0.00000000000E+00 0.  1.
      -24    2    1    2    0    0  0.88206517446E+02  0.23817596661E+02 -0.49945976698E+02  0.13158246151E+03  0.80446727461E+02 0.  0.
       24    2    1    2    0    0 -0.88206517446E+02 -0.23817596661E+02  0.61046066859E+01  0.12184031773E+03  0.80374928750E+02 0.  0.
      -13    1    4    4    0    0 -0.43814175512E+02  0.64748412026E+01 -0.33121207355E+02  0.55304791122E+02  0.00000000000E+00 0.  1.
       14    1    4    4    0    0 -0.44392341934E+02 -0.30292437864E+02  0.39225814041E+02  0.66535526610E+02  0.00000000000E+00 0. -1.
        1    1    3    3  502    0  0.59252848160E+01  0.29040444946E+02  0.81311628854E+01  0.30733894200E+02  0.00000000000E+00 0. -1.
       -2    1    3    3    0  502  0.82281232630E+02 -0.52228482849E+01 -0.58077139583E+02  0.10084856731E+03  0.00000000000E+00 0.  1.
</event>
<event>
 8   1  0.2279600E-02  0.9745209E+02  0.7546771E-02  0.1286694E+00
        2   -1    0    0  501    0  0.00000000000E+00  0.00000000000E+00  0.82812788793E+02  0.82812788793E+02  0.00000000000E+00 0. -1.
       -2   -1    0    0    0  501 -0.00000000000E+00 -0.00000000000E+00 -0.32071069923E+03  0.32071069923E+03  0.00000000000E+00 0.  1.
       24    2    1    2    0    0 -0.51533714870E+02 -0.13517753721E+02  0.43927201557E+02  0.10532505736E+03  0.79531850463E+02 0.  0.
      -24    2    1    2    0    0  0.51533714870E+02  0.13517753721E+02 -0.28182511200E+03  0.29819843066E+03  0.81599368035E+02 0.  0.
      -13    1    3    3    0    0  0.15022650250E+02 -0.14368411149E+02  0.31302941437E+02  0.37576660337E+02  0.00000000000E+00 0.  1.
       14    1    3    3    0    0 -0.66556365120E+02  0.85065742818E+00  0.12624260120E+02  0.67748397026E+02  0.00000000000E+00 0. -1.
        3    1    4    4  502    0  0.77904799530E+01 -0.22477586770E+02 -0.22452664669E+02  0.32711704873E+02  0.00000000000E+00 0. -1.
       -4    1    4    4    0  502  0.43743234917E+02  0.35995340491E+02 -0.25937244733E+03  0.26548672579E+03  0.00000000000E+00 0.  1.
</event>
<event>
 8   1  0.2279600E-02  0.1078623E+03  0.7546771E-02  0.1265126E+00
        1   -1    0    0  501    0  0.00000000000E+00  0.00000000000E+00  0.41428374795E+03  0.41428374795E+03  0.00000000000E+00 0. -1.
       -1   -1    0    0    0  501 -0.00000000000E+00 -0.00000000000E+00 -0.11121310181E+03  0.11121310181E+03  0.00000000000E+00 0.  1.
       24    2    1    2    0    0 -0.56062745207E+02 -0.45891716423E+02 -0.75832291865E+02  0.13185145971E+03  0.79907383279E+02 0.  0.
      -24    2    1    2    0    0  0.56062745207E+02  0.45891716423E+02  0.37890293800E+03  0.39364539004E+03  0.78359272825E+02 0.  0.
      -13    1    3    3    0    0 -0.38169915618E+01 -0.54693228487E+02 -0.40651288147E+02  0.68252808696E+02  0.00000000000E+00 0.  1.
       14    1    3    3    0    0 -0.52245753646E+02  0.88015120634E+01 -0.35181003718E+02  0.63598651017E+02  0.00000000000E+00 0. -1.
        1    1    4    4  502    0  0.49276180258E+02  0.54206068292E+02  0.17839254809E+03  0.19284797379E+03  0.00000000000E+00 0. -1.
       -2    1    4    4    0  502  0.67865649489E+01 -0.83143518689E+01  0.20051038991E+03  0.20079741625E+03  0.00000000000E+00 0.  1.
</event>
<event>
 8   1  0.2279600E-02  0.9624857E+02  0.7546771E-02  0.1290406E+00
        1   -1    0    0  501    0  0.00000000000E+00  0.00000000000E+00  0.13538295612E+02  0.13538295612E+02  0.00000000000E+00 0. -1.
       -1   -1    0    0    0  501 -0.00000000000E+00 -0.00000000000E+00 -0.66101305354E+03  0.66101305354E+03  0.00000000000E+00 0.  1.
       24    2    1    2    0    0 -0.40246157716E+02  0.21794329450E+02 -0.34795284898E+03  0.36101935192E+03  0.84670191591E+02 0.  0.
      -24    2    1    2    0    0  0.40246157716E+02 -0.21794329450E+02 -0.29952190895E+03  0.31353199723E+03  0.80586558051E+02 0.  0.
      -13    1    3    3    0    0 -0.63697500573E+02  0.17637689797E+02 -0.18749395190E+03  0.19880251930E+03  0.00000000000E+00 0.  1.
       14    1    3    3    0    0  0.23451342857E+02  0.41566396530E+01 -0.16045889708E+03  0.16221683263E+03  0.00000000000E+00 0. -1.
        1    1    4    4  502    0 -0.78887421704E+01 -0.12016218593E+02 -0.54287482932E+01  0.15365320379E+02  0.00000000000E+00 0. -1.
       -2    1    4    4    0  502  0.48134899886E+02 -0.97781108565E+01 -0.29409316066E+03  0.29816667685E+03  0.00000000000E+00 0.  1.
</event>
<event>
 8   1  0.2279600E-02  0.1017256E+03  0.7546771E-02  0.1280970E+00
       -2   -1    0    0    0  501 -0.00000000000E+00  0.00000000000E+00  0.62827790617E+01  0.62827790617E+01  0.00000000000E+00 0.  1.
        2   -1    0    0  501    0  0.00000000000E+00 -0.00000000000E+00 -0.18492032543E+04  0.18492032543E+04  0.00000000000E+00 0. -1.
      -24    2    1    2    0    0 -0.26966226038E+02  0.44078575851E+02 -0.50013619683E+03  0.50885404486E+03  0.78269568758E+02 0.  0.
       24    2    1    2    0    0  0.26966226038E+02 -0.44078575851E+02 -0.13427842784E+04  0.13466319885E+04  0.87624174311E+02 0.  0.
      -13    1    4    4    0    0  0.36733165205E+02 -0.37532405188E+02 -0.36320249952E+03  0.36697964865E+03  0.00000000000E+00 0.  1.
       14    1    4    4    0    0 -0.97669391666E+01 -0.65461706625E+01 -0.97958177891E+03  0.97965233987E+03  0.00000000000E+00 0. -1.
        3    1    3    3  502    0 -0.29501144902E+02  0.31164415595E+01 -0.39312809932E+03  0.39424577643E+03  0.00000000000E+00 0. -1.
       -4    1    3    3    0  502  0.25349188636E+01  0.40962134291E+02 -0.10700809751E+03  0.11460826843E+03  0.00000000000E+00 0.  1.
</event>
<event>
 8   1  0.2279600E-02  0.8517234E+02  0.7546771E-02  0.1316986E+00
        1   -1    0    0  501    0  0.00000000000E+00  0.00000000000E+00  0.58318216153E+03  0.58318216153E+03  0.00000000000E+00 0. -1.
       -1   -1    0    0    0  501 -0.00000000000E+00 -0.00000000000E+00 -0.19909621753E+03  0.19909621753E+03  0.00000000000E+00 0.  1.
       24    2    1    2    0    0 -0.48772870128E+01 -0.28764726523E+02 -0.18691035615E+03  0.20540158006E+03  0.80019562821E+02 0.  0.
      -24    2    1    2    0    0  0.48772870128E+01  0.28764726523E+02  0.57099630015E+03  0.57687679901E+03  0.76804095171E+02 0.  0.
      -13    1    3    3    0    0 -0.28588738953E+02 -0.14133005446E+02 -0.16965982588E+03  0.17263115117E+03  0.00000000000E+00 0.  1.
       14    1    3    3    0    0  0.23711451941E+02 -0.14631721077E+02 -0.17250530272E+02  0.32770428887E+02  0.00000000000E+00 0. -1.
        3    1    4    4  502    0 -0.33829404801E+02  0.10855490445E+02  0.35031911685E+03  0.35211610859E+03  0.00000000000E+00 0. -1.
       -4    1    4    4    0  502  0.38706691814E+02  0.17909236078E+02  0.22067718330E+03  0.22476069042E+03  0.00000000000E+00 0.  1.
</event>
<event>
 8   1  0.2279600E-02  0.1394138E+03  0.7546771E-02  0.1214297E+00
        2   -1    0    0  501    0  0.00000000000E+00  0.00000000000E+00  0.22267234039E+03  0.22267234039E+03  0.00000000000E+00 0. -1.
       -2   -1    0    0    0  501 -0.00000000000E+00 -0.00000000000E+00 -0.90887335106E+02  0.90887335106E+02  0.00000000000E+00 0.  1.
       24    2    1    2    0    0 -0.23991696630E+02  0.11007576202E+03  0.33179176625E+02  0.14279867271E+03  0.81230094626E+02 0.  0.
      -24    2    1    2    0    0  0.23991696630E+02 -0.11007576202E+03  0.98605828663E+02  0.17076100279E+03  0.82121469399E+02 0.  0.
      -13    1    3    3    0    0  0.27688635784E+02  0.37704518801E+02 -0.28086034899E+01  0.46863413695E+02  0.00000000000E+00 0.  1.
       14    1    3    3    0    0 -0.51680332414E+02  0.72371243222E+02  0.35987780115E+02  0.95935259011E+02  0.00000000000E+00 0. -1.
        3    1    4    4  502    0  0.10359330517E+02  0.47947985752E+01  0.38988557699E+02  0.40625280967E+02  0.00000000000E+00 0. -1.
       -4    1    4    4    0  502  0.13632366113E+02 -0.11487056060E+03  0.59617270963E+02  0.13013572183E+03  0.00000000000E+00 0.  1.
</event>
<event>
 8   1  0.2279600E-02  0.8685477E+02  0.7546771E-02  0.1313098E+00
       -2   -1    0    0    0  501 -0.00000000000E+00  0.00000000000E+00  0.29658827102E+03  0.29658827102E+03  0.00000000000E+00 0.  1.
        2   -1    0    0  501    0  0.00000000000E+00 -0.00000000000E+00 -0.35159875314E+03  0.35159875314E+03  0.00000000000E+00 0. -1.
      -24    2    1    2    0    0 -0.17023157973E+02  0.98596874639E+01  0.28520310971E+03  0.29706163382E+03  0.80732887716E+02 0.  0.
       24    2    1    2    0    0  0.17023157973E+02 -0.98596874639E+01 -0.34021359182E+03  0.35112539034E+03  0.84597578805E+02 0.  0.
      -13    1    4    4    0    0 -0.15797340839E+02 -0.29706678654E+02 -0.64416775578E+02  0.72674367628E+02  0.00000000000E+00 0.  1.
       14    1    4    4    0    0  0.32820498812E+02  0.19846991190E+02 -0.27579681624E+03  0.27845102272E+03  0.00000000000E+00 0. -1.
        3    1    3    3  502    0 -0.25901584785E+02  0.38460182904E+02  0.22608721211E+03  0.23079320883E+03  0.00000000000E+00 0. -1.
       -4    1    3    3    0  502  0.88784268124E+01 -0.28600495440E+02  0.59115897593E+02  0.66268424987E+02  0.00000000000E+00 0.  1.
</event>
<event>
 8   1  0.2279600E-02  0.8209320E+02  0.7546771E-02  0.1323906E+00
        1   -1    0    0  501    0  0.00000000000E+00  0.00000000000E+00  0.44280435867E+02  0.44280435867E+02  0.00000000000E+00 0. -1.
       -1   -1    0    0    0  501 -0.00000000000E+00 -0.00000000000E+00 -0.18064196456E+03  0.18064196456E+03  0.00000000000E+00 0.  1.
       24    2    1    2    0    0  0.62423016239E+01 -0.10230777455E+01 -0.11389017632E+03  0.13980921038E+03  0.80843243557E+02 0.  0.
      -24    2    1    2    0    0 -0.62423016239E+01  0.10230777455E+01 -0.22471352375E+02  0.85113190043E+02  0.81849132092E+02 0.  0.
      -13    1    3    3    0    0  0.31351415131E+02 -0.41091899845E+01 -0.10970054999E+03  0.11416657716E+03  0.00000000000E+00 0.  1.
       14    1    3    3    0    0 -0.25109113507E+02  0.30861122390E+01 -0.41896263317E+01  0.25642633224E+02  0.00000000000E+00 0. -1.
        3    1    4    4  502    0 -0.89203083424E+01  0.30105238684E+02  0.17238618969E+02  0.35819928547E+02  0.00000000000E+00 0. -1.
       -4    1    4    4    0  502  0.26780067184E+01 -0.29082160939E+02 -0.39709971344E+02  0.49293261497E+02  0.00000000000E+00 0.  1.
</event>
<event>
 8   1  0.2279600E-02  0.8536927E+02  0.7546771E-02  0.1315660E+00
        1   -1    0    0  501    0  0.00000000000E+00  0.00000000000E+00  0.11190032215E+04  0.11190032215E+04  0.00000000000E+00 0. -1.
       -1   -1    0    0    0  501 -0.00000000000E+00 -0.00000000000E+00 -0.65626915707E+01  0.65626915707E+01  0.00000000000E+00 0.  1.
       24    2    1    2    0    0 -0.19352965214E+02 -0.21991004755E+02  0.45539820381E+03  0.46300079826E+03  0.78256460474E+02 0.  0.
      -24    2    1    2    0    0  0.19352965214E+02  0.21991004755E+02  0.65704232613E+03  0.66256511482E+03  0.80185855956E+02 0.  0.
      -13    1    3    3    0    0 -0.39775032101E+02  0.12952325805E+02  0.19136900226E+03  0.19588749564E+03  0.00000000000E+00 0.  1.
       14    1    3    3    0    0  0.20422066887E+02 -0.34943330560E+02  0.26402920155E+03  0.26711330262E+03  0.00000000000E+00 0. -1.
        1    1    4    4  502    0  0.12196073757E+02 -0.26054686450E+02  0.39586628650E+03  0.39691020104E+03  0.00000000000E+00 0. -1.
       -2    1    4    4    0  502  0.71568914570E+01  0.48045691204E+02  0.26117603963E+03  0.26565491378E+03  0.00000000000E+00 0.  1.
</event>
<event>
 8   1  0.2279600E-02  0.9958161E+02  0.7546771E-02  0.1287385E+00
        2   -1    0    0  501    0  0.00000000000E+00  0.00000000000E+00  0.91342092037E+02  0.91342092037E+02  0.00000000000E+00 0. -1.
       -2   -1    0    0    0  501 -0.00000000000E+00 -0.00000000000E+00 -0.18210949829E+03  0.18210949829E+03  0.00000000000E+00 0.  1.
      -24    2    1    2    0    0  0.14157305546E+02 -0.46882357609E+01 -0.13741973603E+03  0.16348370102E+03  0.87294488907E+02 0.  0.
       24    2    1    2    0    0 -0.14157305546E+02  0.46882357609E+01  0.46652329784E+02  0.10996788930E+03  0.98458559549E+02 0.  0.
      -13    1    4    4    0    0  0.12612191713E+00 -0.41846012848E+02 -0.98720632568E+00  0.41857846031E+02  0.00000000000E+00 0.  1.
       14    1    4    4    0    0 -0.14283427463E+02  0.46534248609E+02  0.47639536110E+02  0.68110043271E+02  0.00000000000E+00 0. -1.
        1    1    3    3  502    0 -0.32351586569E+01  0.15744895621E+02  0.63119812781E+01  0.17268731780E+02  0.00000000000E+00 0. -1.
       -2    1    3    3    0  502  0.17392464203E+02 -0.20433131382E+02 -0.14373171731E+03  0.14621496924E+03  0.00000000000E+00 0.  1.
</event>
<event>
 8   1  0.2279600E-02  0.1153871E+03  0.7546771E-02  0.1250979E+00
        1   -1    0    0  501    0  0.00000000000E+00  0.00000000000E+00  0.80262352234E+03  0.80262352234E+03  0.00000000000E+00 0. -1.
       -1   -1    0    0    0  501 -0.00000000000E+00 -0.00000000000E+00 -0.18733422686E+02  0.18733422686E+02  0.00000000000E+00 0.  1.
       24    2    1    2    0    0  0.72494828562E+02  0.41389570726E+02  0.25195840535E+03  0.27705417862E+03  0.79419035061E+02 0.  0.
      -24    2    1    2    0    0 -0.72494828562E+02 -0.41389570726E+02  0.53193169430E+03  0.54430276640E+03  0.79659132444E+02 0.  0.
      -13    1    3    3    0    0  0.82689305912E+02  0.36762440053E+02  0.15523930909E+03  0.17968929127E+03  0.00000000000E+00 0.  1.
       14    1    3    3    0    0 -0.10194477350E+02  0.46271306731E+01  0.96719096261E+02  0.97364887348E+02  0.00000000000E+00 0. -1.
        1    1    4    4  502    0 -0.71982976293E+02 -0.55289529579E+02  0.51208718230E+03  0.52006899853E+03  0.00000000000E+00 0. -1.
       -2    1    4    4    0  502 -0.51185226851E+00  0.13899958853E+02  0.19844512002E+02  0.24233767876E+02  0.00000000000E+00 0.  1.
</event>
<event>
 8   1  0.2279600E-02  0.1586446E+03  0.7546771E-02  0.1190402E+00
       -1   -1    0    0    0  501 -0.00000000000E+00  0.00000000000E+00  0.28366401874E+02  0.28366401874E+02  0.00000000000E+00 0.  1.
        1   -1    0    0  501    0  0.00000000000E+00 -0.00000000000E+00 -0.10487689371E+04  0.10487689371E+04  0.00000000000E+00 0. -1.
       24    2    1    2    0    0  0.47775583133E+02 -0.12820181110E+03 -0.29593572393E+03  0.33550183421E+03  0.79153757631E+02 0.  0.
      -24    2    1    2    0    0 -0.47775583133E+02  0.12820181110E+03 -0.72446681130E+03  0.74163350477E+03  0.80311169879E+02 0.  0.
      -13    1    3    3    0    0  0.30736044622E+02 -0.12151830432E+03 -0.18754129840E+03  0.22557291799E+03  0.00000000000E+00 0.  1.
       14    1    3    3    0    0  0.17039538511E+02 -0.66835067769E+01 -0.10839442553E+03  0.10992891622E+03  0.00000000000E+00 0. -1.
        3    1    4    4  502    0 -0.44730377600E+02  0.55325296249E+02 -0.51367847260E+03  0.51858197837E+03  0.00000000000E+00 0. -1.
       -4    1    4    4    0  502 -0.30452055327E+01  0.72876514851E+02 -0.21078833870E+03  0.22305152639E+03  0.00000000000E+00 0.  1.
</event>
<event>
 8   1  0.2279600E-02  0.8100675E+02  0.7546771E-02  0.1327396E+00
        2   -1    0    0  501    0  0.00000000000E+00  0.00000000000E+00  0.50004509803E+02  0.50004509803E+02  0.00000000000E+00 0. -1.
       -2   -1    0    0    0  501 -0.00000000000E+00 -0.00000000000E+00 -0.19680465490E+03  0.19680465490E+03  0.00000000000E+00 0.  1.
       24    2    1    2    0    0 -0.19801603604E+01 -0.35047226061E+01 -0.12222138813E+01  0.81015972483E+02  0.80906673860E+02 0.  0.
      -24    2    1    2    0    0  0.19801603604E+01  0.35047226061E+01 -0.14557793121E+03  0.16579319222E+03  0.79235373499E+02 0.  0.
      -13    1    3    3    0    0  0.16989208116E+02  0.29963630263E+02 -0.18209503942E+02  0.38962011816E+02  0.00000000000E+00 0.  1.
       14    1    3    3    0    0 -0.18969368476E+02 -0.33468352870E+02  0.16987290061E+02  0.42053960667E+02  0.00000000000E+00 0. -1.
        1    1    4    4  502    0  0.35537649341E+02 -0.12316680644E+02 -0.45338943542E+02  0.58908784950E+02  0.00000000000E+00 0. -1.
       -2    1    4    4    0  502 -0.33557488981E+02  0.15821403250E+02 -0.10023898767E+03  0.10688440727E+03  0.00000000000E+00 0.  1.
</event>
<event>
 8   1  0.2279600E-02  0.1610106E+03  0.7546771E-02  0.1188475E+00
        2   -1    0    0  501    0  0.00000000000E+00  0.00000000000E+00  0.85203231768E+03  0.85203231768E+03  0.00000000000E+00 0. -1.
       -2   -1    0    0    0  501 -0.00000000000E+00 -0.00000000000E+00 -0.35356612461E+02  0.35356612461E+02  0.00000000000E+00 0.  1.
      -24    2    1    2    0    0 -0.67968162116E+02 -0.11688752065E+03  0.22926280595E+03  0.27830903094E+03  0.81314936936E+02 0.  0.
       24    2    1    2    0    0  0.67968162116E+02  0.11688752065E+03  0.58741289927E+03  0.60907989920E+03  0.87418795631E+02 0.  0.
      -13    1    4    4    0    0  0.91886912789E+01  0.11954134617E+02  0.75266597809E+01  0.16851824510E+02  0.00000000000E+00 0.  1.
       14    1    4    4    0    0  0.58779470837E+02  0.10493338603E+03  0.57988623949E+03  0.59222807469E+03  0.00000000000E+00 0. -1.
        1    1    3    3  502    0  0.70570441873E+01 -0.36605391509E+02  0.20875944914E+02  0.42726591676E+02  0.00000000000E+00 0. -1.
       -2    1    3    3    0  502 -0.75025206303E+02 -0.80282129142E+02  0.20838686103E+03  0.23558243927E+03  0.00000000000E+00 0.  1.
</event>
<event>
 8   1  0.2279600E-02  0.8715186E+02  0.7546771E-02  0.1314616E+00
        1   -1    0    0  501    0  0.00000000000E+00  0.00000000000E+00  0.78905775455E+02  0.78905775455E+02  0.00000000000E+00 0. -1.
       -1   -1    0    0    0  501 -0.00000000000E+00 -0.00000000000E+00 -0.97168031943E+02  0.97168031943E+02  0.00000000000E+00 0.  1.
       24    2    1    2    0    0  0.99278053095E+00  0.58144068262E+00  0.17420800451E+02  0.81899890437E+02  0.80017398600E+02 0.  0.
      -24    2    1    2    0    0 -0.99278053095E+00 -0.58144068262E+00 -0.35683056939E+02  0.94173916961E+02  0.87144261985E+02 0.  0.
      -13    1    3    3    0    0  0.20380746204E+02 -0.33789490381E+02  0.15487035409E+02  0.42390479376E+02  0.00000000000E+00 0.  1.
       14    1    3    3    0    0 -0.19387965673E+02  0.34370931063E+02  0.19337650425E+01  0.39509411060E+02  0.00000000000E+00 0. -1.
        3    1    4    4  502    0 -0.26700136041E+02 -0.66838992452E+01 -0.54960450458E+02  0.61467250535E+02  0.00000000000E+00 0. -1.
       -4    1    4    4    0  502  0.25707355510E+02  0.61024585625E+01  0.19277393520E+02  0.32706666426E+02  0.00000000000E+00 0.  1.
</event>
<event>
 8   1  0.2279600E-02  0.8639570E+02  0.7546771E-02  0.1321205E+00
       -4   -1    0    0    0  501 -0.00000000000E+00  0.00000000000E+00  0.95358205088E+01  0.95358205088E+01  0.00000000000E+00 0.  1.
        4   -1    0    0  501    0  0.00000000000E+00 -0.00000000000E+00 -0.71438695763E+03  0.71438695763E+03  0.00000000000E+00 0. -1.
      -24    2    1    2    0    0 -0.63347858095E+01 -0.25914842621E+02 -0.41864707811E+03  0.42496294647E+03  0.67944251309E+02 0.  0.
       24    2    1    2    0    0  0.63347858095E+01  0.25914842621E+02 -0.28620405902E+03  0.29895983167E+03  0.82173651347E+02 0.  0.
      -13    1    4    4    0    0  0.12775116678E+02  0.54532967982E+02 -0.16462312105E+03  0.17389025328E+03  0.00000000000E+00 0.  1.
       14    1    4    4    0    0 -0.64403308688E+01 -0.28618125361E+02 -0.12158093797E+03  0.12506957839E+03  0.00000000000E+00 0. -1.
        1    1    3    3  502    0 -0.98813913732E+01 -0.39077115779E+02 -0.39911027425E+03  0.40114046653E+03  0.00000000000E+00 0. -1.
       -2    1    3    3    0  502  0.35466055637E+01  0.13162273159E+02 -0.19536803856E+02  0.23822479943E+02  0.00000000000E+00 0.  1.
</event>
<event>
 8   1  0.2279600E-02  0.1415948E+03  0.7546771E-02  0.1212570E+00
       -1   -1    0    0    0  501 -0.00000000000E+00  0.00000000000E+00  0.13609351946E+03  0.13609351946E+03  0.00000000000E+00 0.  1.
        1   -1    0    0  501    0  0.00000000000E+00 -0.00000000000E+00 -0.19530733431E+03  0.19530733431E+03  0.00000000000E+00 0. -1.
       24    2    1    2    0    0  0.10789571687E+03 -0.31493742335E+02  0.56363233881E+02  0.14862461428E+03  0.79240900487E+02 0.  0.
      -24    2    1    2    0    0 -0.10789571687E+03  0.31493742335E+02 -0.11557704873E+03  0.18277623950E+03  0.86114795519E+02 0.  0.
      -13    1    3    3    0    0  0.11843318731E+03 -0.17922507723E+02  0.53578704647E+02  0.13121857236E+03  0.00000000000E+00 0.  1.
       14    1    3    3    0    0 -0.10537470442E+02 -0.13571234612E+02  0.27845292342E+01  0.17406041918E+02  0.00000000000E+00 0. -1.
        3    1    4    4  502    0 -0.10273370607E+03  0.47442308844E+00 -0.60144249549E+02  0.11904524432E+03  0.00000000000E+00 0. -1.
       -4    1    4    4    0  502 -0.51620107981E+01  0.31019319247E+02 -0.55432799182E+02  0.63730995184E+02  0.00000000000E+00 0.  1.
</event>
<event>
 8   1  0.2279600E-02  0.9388625E+02  0.7546771E-02  0.1300397E+00
        2   -1    0    0  501    0  0.00000000000E+00  0.00000000000E+00  0.14162175169E+04  0.14162175169E+04  0.00000000000E+00 0. -1.
       -2   -1    0    0    0  501 -0.00000000000E+00 -0.00000000000E+00 -0.67923764413E+01  0.67923764413E+01  0.00000000000E+00 0.  1.
      -24    2    1    2    0    0 -0.35660106100E+02  0.34292529705E+02  0.36175371446E+03  0.37114010849E+03  0.66570334579E+02 0.  0.
       24    2    1    2    0    0  0.35660106100E+02 -0.34292529705E+02  0.10476714260E+04  0.10518697849E+04  0.79793525192E+02 0.  0.
      -13    1    4    4    0    0 -0.21330681423E+02 -0.28856294273E+02  0.47029446058E+03  0.47166149232E+03  0.00000000000E+00 0.  1.
       14    1    4    4    0    0  0.56990787522E+02 -0.54362354322E+01  0.57737696547E+03  0.58020829257E+03  0.00000000000E+00 0. -1.
        3    1    3    3  502    0 -0.25054440209E+02 -0.16631549554E+02  0.15910039016E+03  0.16191747146E+03  0.00000000000E+00 0. -1.
       -4    1    3    3    0  502 -0.10605665891E+02  0.50924079259E+02  0.20265332430E+03  0.20922263703E+03  0.00000000000E+00 0.  1.
</event>
<event>
 8   1  0.2279600E-02  0.9112751E+02  0.7546771E-02  0.1300735E+00
       -1   -1    0    0    0  501 -0.00000000000E+00  0.00000000000E+00  0.22400411862E+02  0.22400411862E+02  0.00000000000E+00 0.  1.
        1   -1    0    0  501    0  0.00000000000E+00 -0.00000000000E+00 -0.53657255898E+03  0.53657255898E+03  0.00000000000E+00 0. -1.
       24    2    1    2    0    0 -0.40636743736E+02  0.34632737493E+01 -0.98879468941E+02  0.13379979165E+03  0.80385917050E+02 0.  0.
      -24    2    1    2    0    0  0.40636743736E+02 -0.34632737493E+01 -0.41529267818E+03  0.42517317920E+03  0.81491622603E+02 0.  0.
      -13    1    3    3    0    0 -0.49884815959E+02 -0.28089018517E+02 -0.61795927892E+02  0.84239091451E+02  0.00000000000E+00 0.  1.
       14    1    3    3    0    0  0.92480722226E+01  0.31552292266E+02 -0.37083541049E+02  0.49560700195E+02  0.00000000000E+00 0. -1.
        1    1    4    4  502    0  0.50720153425E+02  0.17646749613E+02 -0.37295785967E+03  0.37680433494E+03  0.00000000000E+00 0. -1.
       -2    1    4    4    0  502 -0.10083409689E+02 -0.21110023362E+02 -0.42334818507E+02  0.48368844263E+02  0.00000000000E+00 0.  1.
</event>
<event>
 8   1  0.2279600E-02  0.1373154E+03  0.7546771E-02  0.1217099E+00
        4   -1    0    0  501    0  0.00000000000E+00  0.00000000000E+00  0.21748974095E+03  0.21748974095E+03  0.00000000000E+00 0. -1.
       -4   -1    0    0    0  501 -0.00000000000E+00 -0.00000000000E+00 -0.18475917567E+03  0.18475917567E+03  0.00000000000E+00 0.  1.
      -24    2    1    2    0    0  0.41889492805E+02  0.10322625654E+03 -0.13030395870E+03  0.18930038915E+03  0.80281542292E+02 0.  0.
       24    2    1    2    0    0 -0.41889492805E+02 -0.10322625654E+03  0.16303452398E+03  0.21294852747E+03  0.79727220538E+02 0.  0.
      -13    1    4    4    0    0 -0.42633644500E+02 -0.17112342695E+02  0.31394873882E+02  0.55642591797E+02  0.00000000000E+00 0.  1.
       14    1    4    4    0    0  0.74415169493E+00 -0.86113913842E+02  0.13163965010E+03  0.15730593567E+03  0.00000000000E+00 0. -1.
        3    1    3    3  502    0  0.60440176144E+02  0.42682714123E+02 -0.70658066642E+02  0.10231027006E+03  0.00000000000E+00 0. -1.
       -4    1    3    3    0  502 -0.18550683340E+02  0.60543542414E+02 -0.59645892057E+02  0.86990119092E+02  0.00000000000E+00 0.  1.
</event>
<event>
 8   1  0.2279600E-02  0.1671667E+03  0.7546771E-02  0.1181084E+00
       -2   -1    0    0    0  501 -0.00000000000E+00  0.00000000000E+00  0.48967681406E+03  0.48967681406E+03  0.00000000000E+00 0.  1.
        2   -1    0    0  501    0  0.00000000000E+00 -0.00000000000E+00 -0.57571675888E+02  0.57571675888E+02  0.00000000000E+00 0. -1.
       24    2    1    2    0    0  0.59201474116E+02 -0.13288264631E+03  0.18395622032E+03  0.24856509949E+03  0.82353539437E+02 0.  0.
      -24    2    1    2    0    0 -0.59201474116E+02  0.13288264631E+03  0.24814891784E+03  0.29868339046E+03  0.80444204761E+02 0.  0.
      -13    1    3    3    0    0 -0.27449262153E+01  0.74251688486E+01 -0.13385160448E+01  0.80286597612E+01  0.00000000000E+00 0.  1.
       14    1    3    3    0    0  0.61946400331E+02 -0.14030781516E+03  0.18529473637E+03  0.24053643972E+03  0.00000000000E+00 0. -1.
        1    1    4    4  502    0  0.11954366308E+02  0.16390203095E+02  0.77734282562E+02  0.80337813742E+02  0.00000000000E+00 0. -1.
       -2    1    4    4    0  502 -0.71155840424E+02  0.11649244322E+03  0.17041463528E+03  0.21834557672E+03  0.00000000000E+00 0.  1.
</event>
<event>
 8   1  0.2279600E-02  0.8886314E+02  0.7546771E-02  0.1305935E+00
        2   -1    0    0  501    0  0.00000000000E+00  0.00000000000E+00  0.77697816625E+03  0.77697816625E+03  0.00000000000E+00 0. -1.
       -2   -1    0    0    0  501 -0.00000000000E+00 -0.00000000000E+00 -0.16924736915E+02  0.16924736915E+02  0.00000000000E+00 0.  1.
       24    2    1    2    0    0  0.36702087230E+02  0.45812294510E+01  0.63261064341E+03  0.63882147992E+03  0.80799914517E+02 0.  0.
      -24    2    1    2    0    0 -0.36702087230E+02 -0.45812294510E+01  0.12744278593E+03  0.15508142325E+03  0.80253057762E+02 0.  0.
      -13    1    3    3    0    0  0.15305157493E+02 -0.37652805234E+02  0.33724134673E+03  0.33968177391E+03  0.00000000000E+00 0.  1.
       14    1    3    3    0    0  0.21396929737E+02  0.42234034685E+02  0.29536929668E+03  0.29913970601E+03  0.00000000000E+00 0. -1.
        1    1    4    4  502    0 -0.20663836759E+02  0.37493650919E+02  0.70588142120E+02  0.82555761863E+02  0.00000000000E+00 0. -1.
       -2    1    4    4    0  502 -0.16038250471E+02 -0.42074880370E+02  0.56854643810E+02  0.72525661383E+02  0.00000000000E+00 0.  1.
</event>
<event>
 8   1  0.2279600E-02  0.8661987E+02  0.7546771E-02  0.1313379E+00
        2   -1    0    0  501    0  0.00000000000E+00  0.00000000000E+00  0.73228662779E+02  0.73228662779E+02  0.00000000000E+00 0. -1.
       -2   -1    0    0    0  501 -0.00000000000E+00 -0.00000000000E+00 -0.12233208032E+03  0.12233208032E+03  0.00000000000E+00 0.  1.
      -24    2    1    2    0    0  0.19411024266E+01 -0.21461286703E+02 -0.67207181613E+02  0.10706922784E+03  0.80514964965E+02 0.  0.
       24    2    1    2    0    0 -0.19411024266E+01  0.21461286703E+02  0.18103764072E+02  0.88491515264E+02  0.83896646503E+02 0.  0.
      -13    1    4    4    0    0 -0.30209946079E+02  0.36574403715E+02 -0.67691854085E+01  0.47918156479E+02  0.00000000000E+00 0.  1.
       14    1    4    4    0    0  0.28268843652E+02 -0.15113117012E+02  0.24872949481E+02  0.40573358785E+02  0.00000000000E+00 0. -1.
        1    1    3    3  502    0  0.37011335287E+02  0.68478905236E+01 -0.37220452041E+02  0.52934814579E+02  0.00000000000E+00 0. -1.
       -2    1    3    3    0  502 -0.35070232861E+02 -0.28309177227E+02 -0.29986729572E+02  0.54134413256E+02  0.00000000000E+00 0.  1.
</event>
<event>
 8   1  0.2279600E-02  0.1167291E+03  0.7546771E-02  0.1248637E+00
       -2   -1    0    0    0  501 -0.00000000000E+00  0.00000000000E+00  0.52993664970E+02  0.52993664970E+02  0.00000000000E+00 0.  1.
        2   -1    0    0  501    0  0.00000000000E+00 -0.00000000000E+00 -0.32953778225E+03  0.32953778225E+03  0.00000000000E+00 0. -1.
      -24    2    1    2    0    0  0.82324404732E+02  0.82880709217E+01 -0.48419861983E+02  0.12627698755E+03  0.82191208880E+02 0.  0.
       24    2    1    2    0    0 -0.82324404732E+02 -0.82880709217E+01 -0.22812425530E+03  0.25625445966E+03  0.82338766749E+02 0.  0.
      -13    1    4    4    0    0 -0.51994924537E+02  0.61760122854E+01 -0.42007004210E+02  0.67128263109E+02  0.00000000000E+00 0.  1.
       14    1    4    4    0    0 -0.30329480195E+02 -0.14464083207E+02 -0.18611725108E+03  0.18912619655E+03  0.00000000000E+00 0. -1.
        3    1    3    3  502    0 -0.51030949105E+01 -0.14558937130E+02 -0.30462871869E+02  0.34146607306E+02  0.00000000000E+00 0. -1.
       -4    1    3    3    0  502  0.87427499642E+02  0.22847008051E+02 -0.17956990113E+02  0.92130380247E+02  0.00000000000E+00 0.  1.
</event>
<event>
 8   1  0.2279600E-02  0.1050706E+03  0.7546771E-02  0.1273004E+00
       -2   -1    0    0    0  501 -0.00000000000E+00  0.00000000000E+00  0.17774389575E+04  0.17774389575E+04  0.00000000000E+00 0.  1.
        2   -1    0    0  501    0  0.00000000000E+00 -0.00000000000E+00 -0.61295073245E+01  0.61295073245E+01  0.00000000000E+00 0. -1.
      -24    2    1    2    0    0 -0.62031962164E+02 -0.20226292065E+02  0.10464174417E+04  0.10511012204E+04  0.74613980987E+02 0.  0.
       24    2    1    2    0    0  0.62031962164E+02  0.20226292065E+02  0.72489200852E+03  0.73246724440E+03  0.82357591518E+02 0.  0.
      -13    1    4    4    0    0 -0.19255869822E+02  0.10126767175E+02  0.20657975461E+03  0.20772225435E+03  0.00000000000E+00 0.  1.
       14    1    4    4    0    0  0.81287831986E+02  0.10099524890E+02  0.51831225391E+03  0.52474499005E+03  0.00000000000E+00 0. -1.
        3    1    3    3  502    0 -0.26003971797E+02  0.12222742649E+02  0.11909825617E+03  0.12251529133E+03  0.00000000000E+00 0. -1.
       -4    1    3    3    0  502 -0.36027990367E+02 -0.32449034714E+02  0.92731918550E+03  0.92858592911E+03  0.00000000000E+00 0.  1.
</event>
<event>
 8   1  0.2279600E-02  0.8399744E+02  0.7546771E-02  0.1319023E+00
       -1   -1    0    0    0  501 -0.00000000000E+00  0.00000000000E+00  0.23020803491E+03  0.23020803491E+03  0.00000000000E+00 0.  1.
        1   -1    0    0  501    0  0.00000000000E+00 -0.00000000000E+00 -0.54075896066E+02  0.54075896066E+02  0.00000000000E+00 0. -1.
       24    2    1    2    0    0 -0.86925134522E+01 -0.19060344948E+02  0.18305802786E+03  0.20140955968E+03  0.81343178129E+02 0.  0.
      -24    2    1    2    0    0  0.86925134522E+01  0.19060344948E+02 -0.69258890172E+01  0.82874371291E+02  0.79883270705E+02 0.  0.
      -13    1    3    3    0    0  0.31212558442E+02 -0.24194172439E+00  0.12293228414E+03  0.12683307464E+03  0.00000000000E+00 0.  1.
       14    1    3    3    0    0 -0.39905071894E+02 -0.18818403224E+02  0.60125743724E+02  0.74576485042E+02  0.00000000000E+00 0. -1.
        1    1    4    4  502    0 -0.29773734087E+02  0.29178977343E+02  0.32622318381E+01  0.41815429172E+02  0.00000000000E+00 0. -1.
       -2    1    4    4    0  502  0.38466247540E+02 -0.10118632395E+02 -0.10188120855E+02  0.41058942118E+02  0.00000000000E+00 0.  1.
</event>
<event>
 8   1  0.2279600E-02  0.1104367E+03  0.7546771E-02  0.1260203E+00
        2   -1    0    0  501    0  0.00000000000E+00  0.00000000000E+00  0.14674359706E+03  0.14674359706E+03  0.00000000000E+00 0. -1.
       -2   -1    0    0    0  501 -0.00000000000E+00 -0.00000000000E+00 -0.84161817837E+02  0.84161817837E+02  0.00000000000E+00 0.  1.
      -24    2    1    2    0    0 -0.48099195025E+02  0.56566687798E+02  0.14713919838E+02  0.11141263305E+03  0.81749328043E+02 0.  0.
       24    2    1    2    0    0  0.48099195025E+02 -0.56566687798E+02  0.47867859384E+02  0.11949278185E+03  0.80460364286E+02 0.  0.
      -13    1    4    4    0    0  0.36120669335E+02 -0.57252566433E+01 -0.13429092315E+02  0.38959233017E+02  0.00000000000E+00 0.  1.
       14    1    4    4    0    0  0.11978525690E+02 -0.50841431154E+02  0.61296951699E+02  0.80533548830E+02  0.00000000000E+00 0. -1.
        1    1    3    3  502    0  0.10512740904E+02 -0.94410701402E+01  0.18234061685E+02  0.23067998011E+02  0.00000000000E+00 0. -1.
       -2    1    3    3    0  502 -0.58611935929E+02  0.66007757938E+02 -0.35201418475E+01  0.88344635038E+02  0.00000000000E+00 0.  1.
</event>
<event>
 8   1  0.2279600E-02  0.9650663E+02  0.7546771E-02  0.1287837E+00
       -2   -1    0    0    0  501 -0.00000000000E+00  0.00000000000E+00  0.54662620366E+02  0.54662620366E+02  0.00000000000E+00 0.  1.
        2   -1    0    0  501    0  0.00000000000E+00 -0.00000000000E+00 -0.20283456640E+03  0.20283456640E+03  0.00000000000E+00 0. -1.
       24    2    1    2    0    0  0.34961672019E+02  0.39820691881E+02 -0.12562053044E+03  0.15839070187E+03  0.80616938410E+02 0.  0.
      -24    2    1    2    0    0 -0.34961672019E+02 -0.39820691881E+02 -0.22551415599E+02  0.99106484901E+02  0.80656822351E+02 0.  0.
      -13    1    3    3    0    0 -0.12067396381E+02  0.73137473016E+01  0.56587599086E+01  0.15203108850E+02  0.00000000000E+00 0.  1.
       14    1    3    3    0    0  0.47029068400E+02  0.32506944579E+02 -0.13127929035E+03  0.14318759302E+03  0.00000000000E+00 0. -1.
        3    1    4    4  502    0 -0.55371355139E+02 -0.79223007357E+01 -0.24766051584E+02  0.61172764609E+02  0.00000000000E+00 0. -1.
       -4    1    4    4    0  502  0.20409683120E+02 -0.31898391145E+02  0.22146359843E+01  0.37933720293E+02  0.00000000000E+00 0.  1.
</event>
<event>
 8   1  0.2279600E-02  0.1157004E+03  0.7546771E-02  0.1250519E+00
       -1   -1    0    0    0  501 -0.00000000000E+00  0.00000000000E+00  0.94160164702E+02  0.94160164702E+02  0.00000000000E+00 0.  1.
        1   -1    0    0  501    0  0.00000000000E+00 -0.00000000000E+00 -0.14384865739E+03  0.14384865739E+03  0.00000000000E+00 0. -1.
       24    2    1    2    0    0  0.81152235978E+02  0.14607736452E+02 -0.39258769012E+02  0.12183932420E+03  0.80650471844E+02 0.  0.
      -24    2    1    2    0    0 -0.81152235978E+02 -0.14607736452E+02 -0.10429723677E+02  0.11616949789E+03  0.81163426100E+02 0.  0.
      -13    1    3    3    0    0  0.14165365030E+02  0.34351973802E+01 -0.50891777280E+02  0.52937993371E+02  0.00000000000E+00 0.  1.
       14    1    3    3    0    0  0.66986870948E+02  0.11172539072E+02  0.11633008267E+02  0.68901330829E+02  0.00000000000E+00 0. -1.
        3    1    4    4  502    0  0.40460861412E+01  0.30553540509E+01 -0.27105774830E+02  0.27575877693E+02  0.00000000000E+00 0. -1.
       -4    1    4    4    0  502 -0.85198322119E+02 -0.17663090503E+02  0.16676051152E+02  0.88593620200E+02  0.00000000000E+00 0.  1.
</event>
<event>
 8   1  0.2279600E-02  0.1000316E+03  0.7546771E-02  0.1281361E+00
       -2   -1    0    0    0  501 -0.00000000000E+00  0.00000000000E+00  0.17584829818E+04  0.17584829818E+04  0.00000000000E+00 0.  1.
        2   -1    0    0  501    0  0.00000000000E+00 -0.00000000000E+00 -0.96221041802E+01  0.96221041802E+01  0.00000000000E+00 0. -1.
      -24    2    1    2    0    0 -0.23569661260E+02  0.53327470892E+02  0.14535549958E+04  0.14569929479E+04  0.81283308347E+02 0.  0.
       24    2    1    2    0    0  0.23569661260E+02 -0.53327470892E+02  0.29530588184E+03  0.31111213814E+03  0.78650178417E+02 0.  0.
      -13    1    4    4    0    0  0.23686641056E+02 -0.21474477011E+02  0.26572642717E+03  0.26764294167E+03  0.00000000000E+00 0.  1.
       14    1    4    4    0    0 -0.11697979600E+00 -0.31852993880E+02  0.29579454668E+02  0.43469196471E+02  0.00000000000E+00 0. -1.
        1    1    3    3  502    0 -0.33996634196E+02 -0.61159582659E+01  0.77157296359E+03  0.77234578670E+03  0.00000000000E+00 0. -1.
       -2    1    3    3    0  502  0.10426972936E+02  0.59443429158E+02  0.68198203220E+03  0.68464716116E+03  0.00000000000E+00 0.  1.
</event>
<event>
 8   1  0.2279600E-02  0.1061217E+03  0.7546771E-02  0.1268129E+00
        2   -1    0    0  501    0  0.00000000000E+00  0.00000000000E+00  0.18422457408E+03  0.18422457408E+03  0.00000000000E+00 0. -1.
       -2   -1    0    0    0  501 -0.00000000000E+00 -0.00000000000E+00 -0.13153459896E+03  0.13153459896E+03  0.00000000000E+00 0.  1.
      -24    2    1    2    0    0  0.64784831106E+02 -0.20361832465E+02 -0.89334300002E+02  0.13871706774E+03  0.81548324095E+02 0.  0.
       24    2    1    2    0    0 -0.64784831106E+02  0.20361832465E+02  0.14202427511E+03  0.17704210530E+03  0.81002060246E+02 0.  0.
      -13    1    4    4    0    0  0.26571128339E+01  0.35044229116E+02  0.62826833450E+02  0.71988674417E+02  0.00000000000E+00 0.  1.
       14    1    4    4    0    0 -0.67441943940E+02 -0.14682396652E+02  0.79197441665E+02  0.10505343088E+03  0.00000000000E+00 0. -1.
        1    1    3    3  502    0  0.10797971879E+02 -0.37003772891E+01  0.15723807365E+02  0.19430056790E+02  0.00000000000E+00 0. -1.
       -2    1    3    3    0  502  0.53986859227E+02 -0.16661455176E+02 -0.10505810737E+03  0.11928701095E+03  0.00000000000E+00 0.  1.
</event>
<event>
 8   1  0.2279600E-02  0.8656904E+02  0.7546771E-02  0.1313065E+00
       -2   -1    0    0    0  501 -0.00000000000E+00  0.00000000000E+00  0.11899374443E+04  0.11899374443E+04  0.00000000000E+00 0.  1.
        2   -1    0    0  501    0  0.00000000000E+00 -0.00000000000E+00 -0.87039230557E+01  0.87039230557E+01  0.00000000000E+00 0. -1.
      -24    2    1    2    0    0  0.10476770369E+02 -0.27243476757E+02  0.92406813094E+03  0.92811427615E+03  0.81499872581E+02 0.  0.
       24    2    1    2    0    0 -0.10476770369E+02  0.27243476757E+02  0.25716539033E+03  0.27052709124E+03  0.78733089382E+02 0.  0.
      -13    1    4    4    0    0 -0.23913559713E+01  0.10145883356E+02  0.25013127158E+03  0.25034837837E+03  0.00000000000E+00 0.  1.
       14    1    4    4    0    0 -0.80854143973E+01  0.17097593401E+02  0.70341187538E+01  0.20178712861E+02  0.00000000000E+00 0. -1.
        3    1    3    3  502    0 -0.27126153814E+02 -0.46436313297E+01  0.13232458427E+03  0.13515615833E+03  0.00000000000E+00 0. -1.
       -4    1    3    3    0  502  0.37602924183E+02 -0.22599845428E+02  0.79174354667E+03  0.79295811782E+03  0.00000000000E+00 0.  1.
</event>
<event>
 8   1  0.2279600E-02  0.8521160E+02  0.7546771E-02  0.1317509E+00
       -1   -1    0    0    0  501 -0.00000000000E+00  0.00000000000E+00  0.60864956395E+02  0.60864956395E+02  0.00000000000E+00 0.  1.
        1   -1    0    0  501    0  0.00000000000E+00 -0.00000000000E+00 -0.11394219229E+03  0.11394219229E+03  0.00000000000E+00 0. -1.
       24    2    1    2    0    0 -0.15399693366E+02 -0.11281252885E+02 -0.23483620384E+02  0.84602943893E+02  0.79004812934E+02 0.  0.
      -24    2    1    2    0    0  0.15399693366E+02  0.11281252885E+02 -0.29593615509E+02  0.90204204788E+02  0.83045766058E+02 0.  0.
      -13    1    3    3    0    0 -0.26224091675E+02  0.22830101037E+02  0.93828626023E+01  0.36013256006E+02  0.00000000000E+00 0.  1.
       14    1    3    3    0    0  0.10824398308E+02 -0.34111353922E+02 -0.32866482986E+02  0.48589687887E+02  0.00000000000E+00 0. -1.
        1    1    4    4  502    0 -0.11934927260E+02  0.22417726580E+02  0.20111754617E+02  0.32395672975E+02  0.00000000000E+00 0. -1.
       -2    1    4    4    0  502  0.27334620626E+02 -0.11136473696E+02 -0.49705370125E+02  0.57808531813E+02  0.00000000000E+00 0.  1.
</event>
<event>
 8   1  0.2279600E-02  0.8906678E+02  0.7546771E-02  0.1306848E+00
       -1   -1    0    0    0  501 -0.00000000000E+00  0.00000000000E+00  0.84573319397E+02  0.84573319397E+02  0.00000000000E+00 0.  1.
        1   -1    0    0  501    0  0.00000000000E+00 -0.00000000000E+00 -0.27882530725E+03  0.27882530725E+03  0.00000000000E+00 0. -1.
       24    2    1    2    0    0  0.27970125615E+02  0.24398081641E+02  0.52527034310E+02  0.10103861141E+03  0.77923791924E+02 0.  0.
      -24    2    1    2    0    0 -0.27970125615E+02 -0.24398081641E+02 -0.24677902217E+03  0.26236001524E+03  0.80964791731E+02 0.  0.
      -13    1    3    3    0    0  0.41662824592E+02  0.34635010048E+02  0.98535414968E+01  0.55067841379E+02  0.00000000000E+00 0.  1.
       14    1    3    3    0    0 -0.13692698977E+02 -0.10236928407E+02  0.42673492813E+02  0.45970770033E+02  0.00000000000E+00 0. -1.
        3    1    4    4  502    0 -0.33347369506E+02 -0.42818398362E+02 -0.23165432552E+03  0.23792685604E+03  0.00000000000E+00 0. -1.
       -4    1    4    4    0  502  0.53772438905E+01  0.18420316721E+02 -0.15124696646E+02  0.24433159202E+02  0.00000000000E+00 0.  1.
</event>
<event>
 8   1  0.2279600E-02  0.1080932E+03  0.7546771E-02  0.1264522E+00
        2   -1    0    0  501    0  0.00000000000E+00  0.00000000000E+00  0.22256844483E+02  0.22256844483E+02  0.00000000000E+00 0. -1.
       -2   -1    0    0    0  501 -0.00000000000E+00 -0.00000000000E+00 -0.76802158152E+03  0.76802158152E+03  0.00000000000E+00 0.  1.
      -24    2    1    2    0    0 -0.62090187689E+02  0.36975655103E+02 -0.59787170966E+03  0.60756458935E+03  0.80385064127E+02 0.  0.
       24    2    1    2    0    0  0.62090187689E+02 -0.36975655103E+02 -0.14789302737E+03  0.18271383666E+03  0.79307049386E+02 0.  0.
      -13    1    4    4    0    0  0.29717585798E+02 -0.27104326658E+01 -0.12819896363E+03  0.13162619658E+03  0.00000000000E+00 0.  1.
       14    1    4    4    0    0  0.32372601891E+02 -0.34265222437E+02 -0.19694063748E+02  0.51087640078E+02  0.00000000000E+00 0. -1.
        1    1    3    3  502    0  0.17069103121E+02  0.42598088558E+01 -0.18903098519E+03  0.18984786967E+03  0.00000000000E+00 0. -1.
       -2    1    3    3    0  502 -0.79159290810E+02  0.32715846247E+02 -0.40884072447E+03  0.41771671968E+03  0.00000000000E+00 0.  1.
</event>
<event>
 8   1  0.2279600E-02  0.1065591E+03  0.7546771E-02  0.1267960E+00
        4   -1    0    0  501    0  0.00000000000E+00  0.00000000000E+00  0.24960762176E+02  0.24960762176E+02  0.00000000000E+00 0. -1.
       -4   -1    0    0    0  501 -0.00000000000E+00 -0.00000000000E+00 -0.16173957444E+04  0.16173957444E+04  0.00000000000E+00 0.  1.
      -24    2    1    2    0    0  0.60317941182E+02  0.28167094674E+02 -0.14928078095E+04  0.14964783912E+04  0.80875088773E+02 0.  0.
       24    2    1    2    0    0 -0.60317941182E+02 -0.28167094674E+02 -0.99627172761E+02  0.14587811541E+03  0.83205839651E+02 0.  0.
      -13    1    4    4    0    0 -0.63008958731E+02 -0.32383741885E+02 -0.11200425170E+03  0.13252844230E+03  0.00000000000E+00 0.  1.
       14    1    4    4    0    0  0.26910175496E+01  0.42166472102E+01  0.12377078938E+02  0.13349673112E+02  0.00000000000E+00 0. -1.
        3    1    3    3  502    0  0.88514825694E+00 -0.24946616005E+02 -0.38141618295E+03  0.38223215688E+03  0.00000000000E+00 0. -1.
       -4    1    3    3    0  502  0.59432792925E+02  0.53113710680E+02 -0.11113916265E+04  0.11142462343E+04  0.00000000000E+00 0.  1.
</event>
<event>
 8   1  0.2279600E-02  0.1022472E+03  0.7546771E-02  0.1276101E+00
        2   -1    0    0  501    0  0.00000000000E+00  0.00000000000E+00  0.68867174290E+03  0.68867174290E+03  0.00000000000E+00 0. -1.
       -2   -1    0    0    0  501 -0.00000000000E+00 -0.00000000000E+00 -0.22181874461E+02  0.22181874461E+02  0.00000000000E+00 0.  1.
      -24    2    1    2    0    0  0.32514361829E+02 -0.52281295561E+02  0.13267232456E+03  0.16750056254E+03  0.81633174356E+02 0.  0.
       24    2    1    2    0    0 -0.32514361829E+02  0.52281295561E+02  0.53381754388E+03  0.54335305482E+03  0.80503754223E+02 0.  0.
      -13    1    4    4    0    0 -0.26744532033E+02 -0.16948422983E+02  0.18397919679E+03  0.18668386081E+03  0.00000000000E+00 0.  1.
       14    1    4    4    0    0 -0.57698297961E+01  0.69229718544E+02  0.34983834709E+03  0.35666919401E+03  0.00000000000E+00 0. -1.
        1    1    3    3  502    0 -0.28351361209E+01  0.16310231265E+02  0.57260446900E+02  0.59605540178E+02  0.00000000000E+00 0. -1.
       -2    1    3    3    0  502  0.35349497950E+02 -0.68591526826E+02  0.75411877662E+02  0.10789502236E+03  0.00000000000E+00 0.  1.
</event>
<event>
 8   1  0.2279600E-02  0.9102755E+02  0.7546771E-02  0.1300387E+00
        4   -1    0    0  501    0  0.00000000000E+00  0.00000000000E+00  0.62422564239E+02  0.62422564239E+02  0.00000000000E+00 0. -1.
       -4   -1    0    0    0  501 -0.00000000000E+00 -0.00000000000E+00 -0.17399828942E+03  0.17399828942E+03  0.00000000000E+00 0.  1.
      -24    2    1    2    0    0  0.25833527934E+01 -0.42481007306E+02 -0.11335636874E+03  0.14537588555E+03  0.80456025697E+02 0.  0.
       24    2    1    2    0    0 -0.25833527934E+01  0.42481007306E+02  0.17806435658E+01  0.91044968108E+02  0.80465556811E+02 0.  0.
      -13    1    4    4    0    0  0.82448170846E+01  0.47070581681E+01 -0.35579346436E+02  0.36824221624E+02  0.00000000000E+00 0.  1.
       14    1    4    4    0    0 -0.10828169878E+02  0.37773949138E+02  0.37359990002E+02  0.54220746484E+02  0.00000000000E+00 0. -1.
        3    1    3    3  502    0  0.27814078398E+02  0.10862479578E+02 -0.24078023800E+02  0.38358410419E+02  0.00000000000E+00 0. -1.
       -4    1    3    3    0  502 -0.25230725605E+02 -0.53343486883E+02 -0.89278344945E+02  0.10701747513E+03  0.00000000000E+00 0.  1.
</event>
<event>
 8   1  0.2279600E-02  0.8760505E+02  0.7546771E-02  0.1308929E+00
        2   -1    0    0  501    0  0.00000000000E+00  0.00000000000E+00  0.34944553678E+03  0.34944553678E+03  0.00000000000E+00 0. -1.
       -2   -1    0    0    0  501 -0.00000000000E+00 -0.00000000000E+00 -0.29594317393E+02  0.29594317393E+02  0.00000000000E+00 0.  1.
      -24    2    1    2    0    0  0.29179076614E+01 -0.34198957404E+02  0.63067696895E+02  0.10772376080E+03  0.80304367107E+02 0.  0.
       24    2    1    2    0    0 -0.29179076614E+01  0.34198957404E+02  0.25678352250E+03  0.27131609338E+03  0.80601254502E+02 0.  0.
      -13    1    4    4    0    0  0.19976679031E+02  0.31078363476E+02  0.44762710165E+02  0.58039922491E+02  0.00000000000E+00 0.  1.
       14    1    4    4    0    0 -0.22894586692E+02  0.31205939282E+01  0.21202081233E+03  0.21327617089E+03  0.00000000000E+00 0. -1.
        3    1    3    3  502    0  0.36157448046E+01  0.14240280954E+02  0.57044908412E+02  0.58906542827E+02  0.00000000000E+00 0. -1.
       -4    1    3    3    0  502 -0.69783714328E+00 -0.48439238359E+02  0.60227884834E+01  0.48817217972E+02  0.00000000000E+00 0.  1.
</event>
<event>
 8   1  0.2279600E-02  0.8806725E+02  0.7546771E-02  0.1308137E+00
       -2   -1    0    0    0  501 -0.00000000000E+00  0.00000000000E+00  0.26648731356E+02  0.26648731356E+02  0.00000000000E+00 0.  1.
        2   -1    0    0  501    0  0.00000000000E+00 -0.00000000000E+00 -0.29601910729E+03  0.29601910729E+03  0.00000000000E+00 0. -1.
      -24    2    1    2    0    0  0.27568739407E+02  0.17938102577E+02 -0.10785529940E+03  0.13870327450E+03  0.80771417179E+02 0.  0.
       24    2    1    2    0    0 -0.27568739407E+02 -0.17938102577E+02 -0.16151507653E+03  0.18396456414E+03  0.81694736645E+02 0.  0.
      -13    1    4    4    0    0 -0.47806399523E+02  0.12837084112E+02 -0.74168797520E+02  0.89169799201E+02  0.00000000000E+00 0.  1.
       14    1    4    4    0    0  0.20237660117E+02 -0.30775186688E+02 -0.87346279010E+02  0.94794764937E+02  0.00000000000E+00 0. -1.
        3    1    3    3  502    0  0.23631621869E+02 -0.26023781833E+02 -0.77601817207E+02  0.85192328334E+02  0.00000000000E+00 0. -1.
       -4    1    3    3    0  502  0.39371175375E+01  0.43961884409E+02 -0.30253482192E+02  0.53510946171E+02  0.00000000000E+00 0.  1.
</event>
<event>
 8   1  0.2279600E-02  0.9839606E+02  0.7546771E-02  0.1283997E+00
        2   -1    0    0  501    0  0.00000000000E+00  0.00000000000E+00  0.53391211357E+03  0.53391211357E+03  0.00000000000E+00 0. -1.
       -2   -1    0    0    0  501 -0.00000000000E+00 -0.00000000000E+00 -0.91742065249E+02  0.91742065249E+02  0.00000000000E+00 0.  1.
      -24    2    1    2    0    0  0.63163762962E+01  0.55738689364E+02 -0.59194519260E+02  0.11482933109E+03  0.80839879178E+02 0.  0.
       24    2    1    2    0    0 -0.63163762962E+01 -0.55738689364E+02  0.50136456758E+03  0.51082484773E+03  0.80180404926E+02 0.  0.
      -13    1    4    4    0    0  0.12328610867E+02  0.44886637693E+01  0.13219786450E+02  0.18625399382E+02  0.00000000000E+00 0.  1.
       14    1    4    4    0    0 -0.18644987163E+02 -0.60227353133E+02  0.48814478113E+03  0.49219944835E+03  0.00000000000E+00 0. -1.
        1    1    3    3  502    0  0.35842283729E+02  0.10426705181E+02 -0.39789856996E+01  0.37539549958E+02  0.00000000000E+00 0. -1.
       -2    1    3    3    0  502 -0.29525907433E+02  0.45311984183E+02 -0.55215533561E+02  0.77289781127E+02  0.00000000000E+00 0.  1.
</event>
<event>
 8   1  0.2279600E-02  0.1982339E+03  0.7546771E-02  0.1151340E+00
        1   -1    0    0  501    0  0.00000000000E+00  0.00000000000E+00  0.41817612760E+03  0.41817612760E+03  0.00000000000E+00 0. -1.
       -1   -1    0    0    0  501 -0.00000000000E+00 -0.00000000000E+00 -0.26879432466E+03  0.26879432466E+03  0.00000000000E+00 0.  1.
       24    2    1    2    0    0 -0.54777545160E+02  0.17209819036E+03 -0.20246807205E+03  0.28335493052E+03  0.81721049134E+02 0.  0.
      -24    2    1    2    0    0  0.54777545160E+02 -0.17209819036E+03  0.35184987499E+03  0.40361552174E+03  0.80553015369E+02 0.  0.
      -13    1    3    3    0    0 -0.11580776666E+01  0.11385509079E+03 -0.15024646534E+03  0.18851610857E+03  0.00000000000E+00 0.  1.
       14    1    3    3    0    0 -0.53619467493E+02  0.58243099569E+02 -0.52221606709E+02  0.94838821950E+02  0.00000000000E+00 0. -1.
        1    1    4    4  502    0  0.38443870453E+02 -0.17145549685E+03  0.28514263707E+03  0.33493468326E+03  0.00000000000E+00 0. -1.
       -2    1    4    4    0  502  0.16333674707E+02 -0.64269351081E+00  0.66707237915E+02  0.68680838482E+02  0.00000000000E+00 0.  1.
</event>
<event>
 8   1  0.2279600E-02  0.8457222E+02  0.7546771E-02  0.1316684E+00
       -2   -1    0    0    0  501 -0.00000000000E+00  0.00000000000E+00  0.24811653182E+02  0.24811653182E+02  0.00000000000E+00 0.  1.
        2   -1    0    0  501    0  0.00000000000E+00 -0.00000000000E+00 -0.28876533064E+03  0.28876533064E+03  0.00000000000E+00 0. -1.
      -24    2    1    2    0    0  0.22618433237E+02 -0.14759534422E+02 -0.14178016765E+03  0.16498752564E+03  0.79936414095E+02 0.  0.
       24    2    1    2    0    0 -0.22618433237E+02  0.14759534422E+02 -0.12217350981E+03  0.14858945818E+03  0.80143765861E+02 0.  0.
      -13    1    4    4    0    0 -0.35191994329E+02 -0.10353147989E+02 -0.18315994983E+02  0.41001704969E+02  0.00000000000E+00 0.  1.
       14    1    4    4    0    0  0.12573561092E+02  0.25112682411E+02 -0.10385751482E+03  0.10758775322E+03  0.00000000000E+00 0. -1.
        3    1    3    3  502    0  0.20657893853E+02  0.24016101100E+02 -0.11102810421E+03  0.11545891743E+03  0.00000000000E+00 0. -1.
       -4    1    3    3    0  502  0.19605393845E+01 -0.38775635522E+02 -0.30752063444E+02  0.49528608206E+02  0.00000000000E+00 0.  1.
</event>
<event>
 8   1  0.2279600E-02  0.1013327E+03  0.7546771E-02  0.1279513E+00
       -1   -1    0    0    0  501 -0.00000000000E+00  0.00000000000E+00  0.42278984741E+02  0.42278984741E+02  0.00000000000E+00 0.  1.
        1   -1    0    0  501    0  0.00000000000E+00 -0.00000000000E+00 -0.26769246102E+03  0.26769246102E+03  0.00000000000E+00 0. -1.
       24    2    1    2    0    0 -0.55893886086E+02 -0.24088032897E+02 -0.59511137751E+02  0.11751548405E+03  0.81018230328E+02 0.  0.
      -24    2    1    2    0    0  0.55893886086E+02  0.24088032897E+02 -0.16590233852E+03  0.19245596170E+03  0.76232220465E+02 0.  0.
      -13    1    3    3    0    0  0.48266861604E+00 -0.22025008870E+02  0.13049049175E+02  0.25604914940E+02  0.00000000000E+00 0.  1.
       14    1    3    3    0    0 -0.56376554702E+02 -0.20630240270E+01 -0.72560186926E+02  0.91910569114E+02  0.00000000000E+00 0. -1.
        1    1    4    4  502    0  0.15848403506E+02  0.46990652203E+02 -0.10435337684E+03  0.11553752873E+03  0.00000000000E+00 0. -1.
       -2    1    4    4    0  502  0.40045482580E+02 -0.22902619306E+02 -0.61548961689E+02  0.76918432974E+02  0.00000000000E+00 0.  1.
</event>
<event>
 8   1  0.2279600E-02  0.8395867E+02  0.7546771E-02  0.1320138E+00
        2   -1    0    0  501    0  0.00000000000E+00  0.00000000000E+00  0.87064863695E+03  0.87064863695E+03  0.00000000000E+00 0. -1.
       -2   -1    0    0    0  501 -0.00000000000E+00 -0.00000000000E+00 -0.18253372520E+02  0.18253372520E+02  0.00000000000E+00 0.  1.
       24    2    1    2    0    0 -0.20496315392E+01 -0.97398387590E+01  0.76539888140E+03  0.76998993927E+03  0.83366620904E+02 0.  0.
      -24    2    1    2    0    0  0.20496315392E+01  0.97398387590E+01  0.86996383030E+02  0.11891207020E+03  0.80452745945E+02 0.  0.
      -13    1    3    3    0    0 -0.40059817624E+02  0.86736792163E+01  0.32623221652E+03  0.32879702066E+03  0.00000000000E+00 0.  1.
       14    1    3    3    0    0  0.38010186085E+02 -0.18413517975E+02  0.43916666488E+03  0.44119291861E+03  0.00000000000E+00 0. -1.
        1    1    4    4  502    0 -0.32162183520E+02  0.27667892406E+02  0.44357621911E+02  0.61380102155E+02  0.00000000000E+00 0. -1.
       -2    1    4    4    0  502  0.34211815059E+02 -0.17928053647E+02  0.42638761119E+02  0.57531968044E+02  0.00000000000E+00 0.  1.
</event>
<event>
 8   1  0.2279600E-02  0.8968243E+02  0.7546771E-02  0.1306430E+00
        4   -1    0    0  501    0  0.00000000000E+00  0.00000000000E+00  0.44559330839E+02  0.44559330839E+02  0.00000000000E+00 0. -1.
       -4   -1    0    0    0  501 -0.00000000000E+00 -0.00000000000E+00 -0.26478518411E+03  0.26478518411E+03  0.00000000000E+00 0.  1.
      -24    2    1    2    0    0 -0.11566703636E+02  0.35056281574E+02 -0.20002980677E+03  0.21741618464E+03  0.76779829617E+02 0.  0.
       24    2    1    2    0    0  0.11566703636E+02 -0.35056281574E+02 -0.20196046503E+02  0.91928330311E+02  0.81732527850E+02 0.  0.
      -13    1    4    4    0    0 -0.10213156551E+02  0.24314647582E+02 -0.76066228868E+01  0.27447611290E+02  0.00000000000E+00 0.  1.
       14    1    4    4    0    0  0.21779860187E+02 -0.59370929156E+02 -0.12589423616E+02  0.64480719022E+02  0.00000000000E+00 0. -1.
        3    1    3    3  502    0  0.13710222831E+02 -0.12410759890E+02 -0.12484146144E+02  0.22312576634E+02  0.00000000000E+00 0. -1.
       -4    1    3    3    0  502 -0.25276926467E+02  0.47467041464E+02 -0.18754566063E+03  0.19510360801E+03  0.00000000000E+00 0.  1.
</event>
<event>
 8   1  0.2279600E-02  0.8366139E+02  0.7546771E-02  0.1319259E+00
        2   -1    0    0  501    0  0.00000000000E+00  0.00000000000E+00  0.28634702835E+03  0.28634702835E+03  0.00000000000E+00 0. -1.
       -2   -1    0    0    0  501 -0.00000000000E+00 -0.00000000000E+00 -0.36485951812E+02  0.36485951812E+02  0.00000000000E+00 0.  1.
      -24    2    1    2    0    0 -0.17713754188E+02  0.68530950561E+01  0.31927319939E+02  0.89546530482E+02  0.81476900798E+02 0.  0.
       24    2    1    2    0    0  0.17713754188E+02 -0.68530950561E+01  0.21793375660E+03  0.23328644968E+03  0.81035198151E+02 0.  0.
      -13    1    4    4    0    0 -0.19377864997E+02  0.26359793039E+02  0.10186521813E+03  0.10699001358E+03  0.00000000000E+00 0.  1.
       14    1    4    4    0    0  0.37091619185E+02 -0.33212888095E+02  0.11606853847E+03  0.12629643610E+03  0.00000000000E+00 0. -1.
        1    1    3    3  502    0  0.14216032428E+02  0.21004009252E+02  0.45488219863E+02  0.52081111057E+02  0.00000000000E+00 0. -1.
       -2    1    3    3    0  502 -0.31929786616E+02 -0.14150914196E+02 -0.13560899924E+02  0.37465419425E+02  0.00000000000E+00 0.  1.
</event>
<event>
 8   1  0.2279600E-02  0.1083316E+03  0.7546771E-02  0.1265522E+00
       -1   -1    0    0    0  501 -0.00000000000E+00  0.00000000000E+00  0.15858503563E+02  0.15858503563E+02  0.00000000000E+00 0.  1.
        1   -1    0    0  501    0  0.00000000000E+00 -0.00000000000E+00 -0.10100090901E+04  0.10100090901E+04  0.00000000000E+00 0. -1.
       24    2    1    2    0    0  0.62769072869E+02 -0.22490243512E+02 -0.21327949881E+03  0.23751780359E+03  0.80503384094E+02 0.  0.
      -24    2    1    2    0    0 -0.62769072869E+02  0.22490243512E+02 -0.78087108771E+03  0.78834979005E+03  0.85381311121E+02 0.  0.
      -13    1    3    3    0    0  0.74478280252E+02  0.33825587593E+01 -0.13458363407E+03  0.15385451080E+03  0.00000000000E+00 0.  1.
       14    1    3    3    0    0 -0.11709207383E+02 -0.25872802272E+02 -0.78695864738E+02  0.83663292798E+02  0.00000000000E+00 0. -1.
        3    1    4    4  502    0 -0.71907662021E+02  0.25450616171E+02 -0.77029416968E+03  0.77406172464E+03  0.00000000000E+00 0. -1.
       -4    1    4    4    0  502  0.91385891524E+01 -0.29603726590E+01 -0.10576918034E+02  0.14288065407E+02  0.00000000000E+00 0.  1.
</event>
<event>
 8   1  0.2279600E-02  0.1140814E+03  0.7546771E-02  0.1254783E+00
        1   -1    0    0  501    0  0.00000000000E+00  0.00000000000E+00  0.20749945659E+03  0.20749945659E+03  0.00000000000E+00 0. -1.
       -1   -1    0    0    0  501 -0.00000000000E+00 -0.00000000000E+00 -0.68301513718E+02  0.68301513718E+02  0.00000000000E+00 0.  1.
       24    2    1    2    0    0 -0.67123710266E+02  0.39578529449E+02  0.24843747769E+02  0.11675519418E+03  0.83321732411E+02 0.  0.
      -24    2    1    2    0    0  0.67123710266E+02 -0.39578529449E+02  0.11435419510E+03  0.15904577613E+03  0.78400411307E+02 0.  0.
      -13    1    3    3    0    0 -0.54414753050E+02  0.35056385941E+02 -0.21720309977E+02  0.68276550954E+02  0.00000000000E+00 0.  1.
       14    1    3    3    0    0 -0.12708957216E+02  0.45221435070E+01  0.46564057746E+02  0.48478643228E+02  0.00000000000E+00 0. -1.
        1    1    4    4  502    0  0.34711867637E+02 -0.61825639982E+02  0.79284182217E+02  0.10636402147E+03  0.00000000000E+00 0. -1.
       -2    1    4    4    0  502  0.32411842629E+02  0.22247110533E+02  0.35070012888E+02  0.52681754656E+02  0.00000000000E+00 0.  1.
</event>
<event>
 8   1  0.2279600E-02  0.1195101E+03  0.7546771E-02  0.1243930E+00
       -1   -1    0    0    0  501 -0.00000000000E+00  0.00000000000E+00  0.17366317571E+03  0.17366317571E+03  0.00000000000E+00 0.  1.
        1   -1    0    0  501    0  0.00000000000E+00 -0.00000000000E+00 -0.11161962019E+03  0.11161962019E+03  0.00000000000E+00 0. -1.
       24    2    1    2    0    0 -0.53672406905E+02 -0.69489941976E+02  0.10425144464E+03  0.15859078803E+03  0.81074626355E+02 0.  0.
      -24    2    1    2    0    0  0.53672406905E+02  0.69489941976E+02 -0.42207889116E+02  0.12669200788E+03  0.80992466672E+02 0.  0.
      -13    1    3    3    0    0 -0.73479664655E+02 -0.65693435701E+02  0.79277624624E+02  0.12649043591E+03  0.00000000000E+00 0.  1.
       14    1    3    3    0    0  0.19807257750E+02 -0.37965062750E+01  0.24973820016E+02  0.32100352111E+02  0.00000000000E+00 0. -1.
        3    1    4    4  502    0  0.42995005206E+02  0.38745119538E+02 -0.64943697165E+02  0.86991025756E+02  0.00000000000E+00 0. -1.
       -4    1    4    4    0  502  0.10677401699E+02  0.30744822437E+02  0.22735808049E+02  0.39700982121E+02  0.00000000000E+00 0.  1.
</event>
<event>
 8   1  0.2279600E-02  0.2773431E+03  0.7546771E-02  0.1097233E+00
        2   -1    0    0  501    0  0.00000000000E+00  0.00000000000E+00  0.20568138256E+04  0.20568138256E+04  0.00000000000E+00 0. -1.
       -2   -1    0    0    0  501 -0.00000000000E+00 -0.00000000000E+00 -0.40712784615E+02  0.40712784615E+02  0.00000000000E+00 0.  1.
       24    2    1    2    0    0 -0.22581029185E+03 -0.13969001460E+03  0.13120338774E+04  0.13410265077E+04  0.80097508467E+02 0.  0.
      -24    2    1    2    0    0  0.22581029185E+03  0.13969001460E+03  0.70406716358E+03  0.75650010249E+03  0.77963107650E+02 0.  0.
      -13    1    3    3    0    0 -0.22396006581E+01 -0.36474272906E+01  0.13767682501E+01  0.44961125167E+01  0.00000000000E+00 0.  1.
       14    1    3    3    0    0 -0.22357069120E+03 -0.13604258731E+03  0.13106571092E+04  0.13365303952E+04  0.00000000000E+00 0. -1.
        3    1    4    4  502    0  0.27747961352E+02  0.25396334223E+02  0.19262979031E+03  0.19626808010E+03  0.00000000000E+00 0. -1.
       -4    1    4    4    0  502  0.19806233050E+03  0.11429368038E+03  0.51143737327E+03  0.56023202239E+03  0.00000000000E+00 0.  1.
</event>
<event>
 8   1  0.2279600E-02  0.1596438E+03  0.7546771E-02  0.1192340E+00
        1   -1    0    0  501    0  0.00000000000E+00  0.00000000000E+00  0.34452470828E+03  0.34452470828E+03  0.00000000000E+00 0. -1.
       -1   -1    0    0    0  501 -0.00000000000E+00 -0.00000000000E+00 -0.70831627533E+02  0.70831627533E+02  0.00000000000E+00 0.  1.
       24    2    1    2    0    0  0.10565996504E+03 -0.45918997218E+02  0.98333711673E+02  0.17821283828E+03  0.93902685566E+02 0.  0.
      -24    2    1    2    0    0 -0.10565996504E+03  0.45918997218E+02  0.17535936908E+03  0.23714349754E+03  0.11051492019E+03 0.  0.
      -13    1    3    3    0    0  0.10179071340E+02  0.66241863394E+01 -0.16112594322E+02  0.20176943123E+02  0.00000000000E+00 0.  1.
       14    1    3    3    0    0  0.95480893703E+02 -0.52543183557E+02  0.11444630599E+03  0.15803589515E+03  0.00000000000E+00 0. -1.
        1    1    4    4  502    0 -0.17452046456E+02 -0.31975889116E+02  0.71250137910E+02  0.80022581578E+02  0.00000000000E+00 0. -1.
       -2    1    4    4    0  502 -0.88207918587E+02  0.77894886334E+02  0.10410923117E+03  0.15712091596E+03  0.00000000000E+00 0.  1.
</event>
<event>
 8   1  0.2279600E-02  0.8484281E+02  0.7546771E-02  0.1316639E+00
       -2   -1    0    0    0  501 -0.00000000000E+00  0.00000000000E+00  0.29585440411E+01  0.29585440411E+01  0.00000000000E+00 0.  1.
        2   -1    0    0  501    0  0.00000000000E+00 -0.00000000000E+00 -0.24026611322E+04  0.24026611322E+04  0.00000000000E+00 0. -1.
       24    2    1    2    0    0 -0.16247711022E+02  0.12376992901E+02 -0.11594055749E+04  0.11625057372E+04  0.82347578963E+02 0.  0.
      -24    2    1    2    0    0  0.16247711022E+02 -0.12376992901E+02 -0.12402970133E+04  0.12431139391E+04  0.81107375526E+02 0.  0.
      -13    1    3    3    0    0 -0.43123016668E+02  0.30152348233E+02 -0.71519558598E+03  0.71712863900E+03  0.00000000000E+00 0.  1.
       14    1    3    3    0    0  0.26875305646E+02 -0.17775355332E+02 -0.44420998892E+03  0.44537709816E+03  0.00000000000E+00 0. -1.
        1    1    4    4  502    0  0.13597977365E+02  0.91320996457E+01 -0.11546971969E+04  0.11548133688E+04  0.00000000000E+00 0. -1.
       -2    1    4    4    0  502  0.26497336572E+01 -0.21509092547E+02 -0.85599816364E+02  0.88300570283E+02  0.00000000000E+00 0.  1.
</event>
<event>
 8   1  0.2279600E-02  0.1151177E+03  0.7546771E-02  0.1252658E+00
        2   -1    0    0  501    0  0.00000000000E+00  0.00000000000E+00  0.12652697627E+04  0.12652697627E+04  0.00000000000E+00 0. -1.
       -2   -1    0    0    0  501 -0.00000000000E+00 -0.00000000000E+00 -0.19296131817E+02  0.19296131817E+02  0.00000000000E+00 0.  1.
      -24    2    1    2    0    0 -0.29857804177E+02 -0.71441822649E+02  0.18650948256E+03  0.21917543633E+03  0.85186045288E+02 0.  0.
       24    2    1    2    0    0  0.29857804177E+02  0.71441822649E+02  0.10594641484E+04  0.10653904582E+04  0.81222683544E+02 0.  0.
      -13    1    4    4    0    0  0.57709811640E+02  0.44035979736E+02  0.63690359625E+03  0.64102712953E+03  0.00000000000E+00 0.  1.
       14    1    4    4    0    0 -0.27852007463E+02  0.27405842913E+02  0.42256055210E+03  0.42436332869E+03  0.00000000000E+00 0. -1.
        1    1    3    3  502    0  0.60419743863E+01  0.17536149450E+02  0.22468428192E+02  0.29135069203E+02  0.00000000000E+00 0. -1.
       -2    1    3    3    0  502 -0.35899778563E+02 -0.88977972099E+02  0.16404105437E+03  0.19004036713E+03  0.00000000000E+00 0.  1.
</event>
<event>
 8   1  0.2279600E-02  0.1333809E+03  0.7546771E-02  0.1223381E+00
        2   -1    0    0  501    0  0.00000000000E+00  0.00000000000E+00  0.16289345170E+03  0.16289345170E+03  0.00000000000E+00 0. -1.
       -2   -1    0    0    0  501 -0.00000000000E+00 -0.00000000000E+00 -0.17409597748E+03  0.17409597748E+03  0.00000000000E+00 0.  1.
      -24    2    1    2    0    0 -0.74467713377E+02 -0.75118911543E+02 -0.11000885777E+03  0.17289422035E+03  0.81253747203E+02 0.  0.
       24    2    1    2    0    0  0.74467713377E+02  0.75118911543E+02  0.98806331996E+02  0.16409520883E+03  0.77306242388E+02 0.  0.
      -13    1    4    4    0    0 -0.10699282413E+01  0.23809834346E+02 -0.65064867882E+01  0.24706018059E+02  0.00000000000E+00 0.  1.
       14    1    4    4    0    0  0.75537641618E+02  0.51309077198E+02  0.10531281878E+03  0.13938919077E+03  0.00000000000E+00 0. -1.
        3    1    3    3  502    0 -0.31714428197E+02 -0.78222905021E+02 -0.95924684538E+02  0.12777391334E+03  0.00000000000E+00 0. -1.
       -4    1    3    3    0  502 -0.42753285179E+02  0.31039934770E+01 -0.14084173235E+02  0.45120307012E+02  0.00000000000E+00 0.  1.
</event>
<event>
 8   1  0.2279600E-02  0.8079884E+02  0.7546771E-02  0.1327407E+00
        1   -1    0    0  501    0  0.00000000000E+00  0.00000000000E+00  0.58205661285E+03  0.58205661285E+03  0.00000000000E+00 0. -1.
       -1   -1    0    0    0  501 -0.00000000000E+00 -0.00000000000E+00 -0.12460340065E+02  0.12460340065E+02  0.00000000000E+00 0.  1.
       24    2    1    2    0    0  0.44623302659E+01 -0.18506683623E+02  0.18782483855E+03  0.20446667954E+03  0.78524157634E+02 0.  0.
      -24    2    1    2    0    0 -0.44623302659E+01  0.18506683623E+02  0.38177143423E+03  0.39005027338E+03  0.77636190266E+02 0.  0.
      -13    1    3    3    0    0 -0.15265556167E+02 -0.34518281932E+02  0.42092653543E+02  0.56536187304E+02  0.00000000000E+00 0.  1.
       14    1    3    3    0    0  0.19727886433E+02  0.16011598308E+02  0.14573218501E+03  0.14793049223E+03  0.00000000000E+00 0. -1.
        1    1    4    4  502    0 -0.20154928840E+02 -0.25742648956E+02  0.17336928156E+03  0.17642509153E+03  0.00000000000E+00 0. -1.
       -2    1    4    4    0  502  0.15692598575E+02  0.44249332579E+02  0.20840215267E+03  0.21362518185E+03  0.00000000000E+00 0.  1.
</event>
<event>
 8   1  0.2279600E-02  0.1166566E+03  0.7546771E-02  0.1248886E+00
        1   -1    0    0  501    0  0.00000000000E+00  0.00000000000E+00  0.12136003660E+03  0.12136003660E+03  0.00000000000E+00 0. -1.
       -1   -1    0    0    0  501 -0.00000000000E+00 -0.00000000000E+00 -0.29195263401E+03  0.29195263401E+03  0.00000000000E+00 0.  1.
       24    2    1    2    0    0  0.40916731979E+02 -0.73368090362E+02 -0.24770689577E+03  0.27380188740E+03  0.80942644484E+02 0.  0.
      -24    2    1    2    0    0 -0.40916731979E+02  0.73368090362E+02  0.77114298350E+02  0.13951078320E+03  0.80371562017E+02 0.  0.
      -13    1    3    3    0    0  0.53978155792E+02 -0.81474121390E+02 -0.23237415182E+03  0.25209010332E+03  0.00000000000E+00 0.  1.
       14    1    3    3    0    0 -0.13061423813E+02  0.81060310277E+01 -0.15332743945E+02  0.21711784080E+02  0.00000000000E+00 0. -1.
        1    1    4    4  502    0 -0.29426862469E+02  0.88204193997E+02  0.47401876208E+02  0.10436885523E+03  0.00000000000E+00 0. -1.
       -2    1    4    4    0  502 -0.11489869511E+02 -0.14836103634E+02  0.29712422143E+02  0.35141927978E+02  0.00000000000E+00 0.  1.
</event>
<event>
 8   1  0.2279600E-02  0.1497885E+03  0.7546771E-02  0.1200949E+00
       -2   -1    0    0    0  501 -0.00000000000E+00  0.00000000000E+00  0.44804500038E+02  0.44804500038E+02  0.00000000000E+00 0.  1.
        2   -1    0    0  501    0  0.00000000000E+00 -0.00000000000E+00 -0.10676952867E+04  0.10676952867E+04  0.00000000000E+00 0. -1.
       24    2    1    2    0    0 -0.10636574335E+03  0.67305886507E+02 -0.91705163625E+03  0.92909174675E+03  0.79900041318E+02 0.  0.
      -24    2    1    2    0    0  0.10636574335E+03 -0.67305886507E+02 -0.10583915043E+03  0.18340804002E+03  0.81196241667E+02 0.  0.
      -13    1    3    3    0    0 -0.25073946483E+02 -0.16003103091E+02 -0.27205377956E+03  0.27367510130E+03  0.00000000000E+00 0.  1.
       14    1    3    3    0    0 -0.81291796869E+02  0.83308989598E+02 -0.64499785669E+03  0.65541664544E+03  0.00000000000E+00 0. -1.
        1    1    4    4  502    0  0.98230748942E+01  0.18291750911E+02 -0.14903358505E+02  0.25557602518E+02  0.00000000000E+00 0. -1.
       -2    1    4    4    0  502  0.96542668458E+02 -0.85597637419E+02 -0.90935791930E+02  0.15785043750E+03  0.00000000000E+00 0.  1.
</event>
<event>
 8   1  0.2279600E-02  0.9970239E+02  0.7546771E-02  0.1281140E+00
       -1   -1    0    0    0  501 -0.00000000000E+00  0.00000000000E+00  0.50354989017E+02  0.50354989017E+02  0.00000000000E+00 0.  1.
        1   -1    0    0  501    0  0.00000000000E+00 -0.00000000000E+00 -0.19995435288E+03  0.19995435288E+03  0.00000000000E+00 0. -1.
       24    2    1    2    0    0 -0.50778726891E+02  0.29521201626E+02 -0.90859034850E+02  0.13458988818E+03  0.80056813181E+02 0.  0.
      -24    2    1    2    0    0  0.50778726891E+02 -0.29521201626E+02 -0.58740329012E+02  0.11571945371E+03  0.80564168619E+02 0.  0.
      -13    1    3    3    0    0  0.81490981467E+01 -0.15329479080E+02  0.17597247477E-01  0.17360905482E+02  0.00000000000E+00 0.  1.
       14    1    3    3    0    0 -0.58927825038E+02  0.44850680707E+02 -0.90876632097E+02  0.11722898270E+03  0.00000000000E+00 0. -1.
        3    1    4    4  502    0 -0.20620222245E+01 -0.28766160612E+02 -0.55775116064E+02  0.62790186367E+02  0.00000000000E+00 0. -1.
       -4    1    4    4    0  502  0.52840749116E+02 -0.75504101436E+00 -0.29652129474E+01  0.52929267347E+02  0.00000000000E+00 0.  1.
</event>
<event>
 8   1  0.2279600E-02  0.2445062E+03  0.7546771E-02  0.1116861E+00
        4   -1    0    0  501    0  0.00000000000E+00  0.00000000000E+00  0.79956238513E+03  0.79956238513E+03  0.00000000000E+00 0. -1.
       -4   -1    0    0    0  501 -0.00000000000E+00 -0.00000000000E+00 -0.15918174898E+03  0.15918174898E+03  0.00000000000E+00 0.  1.
      -24    2    1    2    0    0  0.15501020424E+03  0.17027952776E+03 -0.28959562526E+02  0.24621520553E+03  0.82219159450E+02 0.  0.
       24    2    1    2    0    0 -0.15501020424E+03 -0.17027952776E+03  0.66934019868E+03  0.71252892858E+03  0.81595903749E+02 0.  0.
      -13    1    4    4    0    0 -0.65871791873E+02 -0.10260741177E+03  0.24480907881E+03  0.27349380063E+03  0.00000000000E+00 0.  1.
       14    1    4    4    0    0 -0.89138412371E+02 -0.67672115992E+02  0.42453111986E+03  0.43903512795E+03  0.00000000000E+00 0. -1.
        1    1    3    3  502    0  0.11367345622E+01  0.21206424940E+02  0.16874558106E+02  0.27124810331E+02  0.00000000000E+00 0. -1.
       -2    1    3    3    0  502  0.15387346968E+03  0.14907310282E+03 -0.45834120632E+02  0.21909039520E+03  0.00000000000E+00 0.  1.
</event>
<event>
 8   1  0.2279600E-02  0.1017305E+03  0.7546771E-02  0.1280976E+00
        1   -1    0    0  501    0  0.00000000000E+00  0.00000000000E+00  0.29274698742E+03  0.29274698742E+03  0.00000000000E+00 0. -1.
       -1   -1    0    0    0  501 -0.00000000000E+00 -0.00000000000E+00 -0.39766817448E+02  0.39766817448E+02  0.00000000000E+00 0.  1.
       24    2    1    2    0    0 -0.76809883934E+01  0.60124256429E+02  0.51909800510E+02  0.10717318161E+03  0.71536981161E+02 0.  0.
      -24    2    1    2    0    0  0.76809883934E+01 -0.60124256429E+02  0.20107036946E+03  0.22534062326E+03  0.81701770001E+02 0.  0.
      -13    1    3    3    0    0  0.22838919867E+02  0.55672433253E+02  0.21611711576E+02  0.63938268370E+02  0.00000000000E+00 0.  1.
       14    1    3    3    0    0 -0.30519908260E+02  0.44518231758E+01  0.30298088934E+02  0.43234913240E+02  0.00000000000E+00 0. -1.
        3    1    4    4  502    0 -0.21115988959E+02  0.80583044335E+01  0.82720712702E+02  0.85752770042E+02  0.00000000000E+00 0. -1.
       -4    1    4    4    0  502  0.28796977353E+02 -0.68182560862E+02  0.11834965676E+03  0.13958785322E+03  0.00000000000E+00 0.  1.
</event>
<event>
 8   1  0.2279600E-02  0.8730094E+02  0.7546771E-02  0.1312728E+00
       -2   -1    0    0    0  501 -0.00000000000E+00  0.00000000000E+00  0.14416297382E+02  0.14416297382E+02  0.00000000000E+00 0.  1.
        2   -1    0    0  501    0  0.00000000000E+00 -0.00000000000E+00 -0.66834281507E+03  0.66834281507E+03  0.00000000000E+00 0. -1.
      -24    2    1    2    0    0  0.24315512369E+02  0.76143965380E+01 -0.16240301164E+03  0.18438056429E+03  0.83499886955E+02 0.  0.
       24    2    1    2    0    0 -0.24315512369E+02 -0.76143965380E+01 -0.49152350605E+03  0.49837854816E+03  0.78336435295E+02 0.  0.
      -13    1    4    4    0    0 -0.51808606503E+00 -0.33616192263E+02 -0.10499872454E+03  0.11024993855E+03  0.00000000000E+00 0.  1.
       14    1    4    4    0    0 -0.23797426304E+02  0.26001795725E+02 -0.38652478151E+03  0.38812860961E+03  0.00000000000E+00 0. -1.
        1    1    3    3  502    0 -0.19200764731E+02 -0.21494828104E+02 -0.28182877985E+02  0.40310936643E+02  0.00000000000E+00 0. -1.
       -2    1    3    3    0  502  0.43516277100E+02  0.29109224642E+02 -0.13422013366E+03  0.14406962765E+03  0.00000000000E+00 0.  1.
</event>
<event>
 8   1  0.2279600E-02  0.9061012E+02  0.7546771E-02  0.1301626E+00
        2   -1    0    0  501    0  0.00000000000E+00  0.00000000000E+00  0.13428433859E+04  0.13428433859E+04  0.00000000000E+00 0. -1.
       -2   -1    0    0    0  501 -0.00000000000E+00 -0.00000000000E+00 -0.25453165656E+02  0.25453165656E+02  0.00000000000E+00 0.  1.
      -24    2    1    2    0    0  0.93009909958E+01  0.41892526854E+02  0.61572311981E+02  0.10921402314E+03  0.79341420513E+02 0.  0.
       24    2    1    2    0    0 -0.93009909958E+01 -0.41892526854E+02  0.12558179082E+04  0.12590825284E+04  0.79804150235E+02 0.  0.
      -13    1    4    4    0    0 -0.23388011446E+02 -0.24769460282E+01  0.10934197360E+03  0.11184275360E+03  0.00000000000E+00 0.  1.
       14    1    4    4    0    0  0.14087020450E+02 -0.39415580826E+02  0.11464759346E+04  0.11472397748E+04  0.00000000000E+00 0. -1.
        3    1    3    3  502    0  0.19314946634E+02  0.88032715233E+01  0.70402469266E+02  0.73532798340E+02  0.00000000000E+00 0. -1.
       -4    1    3    3    0  502 -0.10013955638E+02  0.33089255330E+02 -0.88301572855E+01  0.35681224804E+02  0.00000000000E+00 0.  1.
</event>
<event>
 8   1  0.2279600E-02  0.1149719E+03  0.7546771E-02  0.1253503E+00
       -2   -1    0    0    0  501 -0.00000000000E+00  0.00000000000E+00  0.97083996236E+02  0.97083996236E+02  0.00000000000E+00 0.  1.
        2   -1    0    0  501    0  0.00000000000E+00 -0.00000000000E+00 -0.13893008053E+03  0.13893008053E+03  0.00000000000E+00 0. -1.
      -24    2    1    2    0    0 -0.17507124709E+02 -0.77757193463E+02  0.72372033415E+01  0.11100327624E+03  0.76919891275E+02 0.  0.
       24    2    1    2    0    0  0.17507124709E+02  0.77757193463E+02 -0.49083287640E+02  0.12501080053E+03  0.82860428265E+02 0.  0.
      -13    1    4    4    0    0  0.27040694902E+02  0.70241671351E+01  0.12627186172E+02  0.30659157446E+02  0.00000000000E+00 0.  1.
       14    1    4    4    0    0 -0.95335701929E+01  0.70733026327E+02 -0.61710473812E+02  0.94351643081E+02  0.00000000000E+00 0. -1.
        3    1    3    3  502    0  0.15632043493E+02 -0.74056961694E+01 -0.21944679794E+02  0.27942335099E+02  0.00000000000E+00 0. -1.
       -4    1    3    3    0  502 -0.33139168201E+02 -0.70351497293E+02  0.29181883135E+02  0.83060941144E+02  0.00000000000E+00 0.  1.
</event>
<event>
 8   1  0.2279600E-02  0.8281937E+02  0.7546771E-02  0.1321612E+00
       -1   -1    0    0    0  501 -0.00000000000E+00  0.00000000000E+00  0.33569301140E+02  0.33569301140E+02  0.00000000000E+00 0.  1.
        1   -1    0    0  501    0  0.00000000000E+00 -0.00000000000E+00 -0.21179710408E+03  0.21179710408E+03  0.00000000000E+00 0. -1.
       24    2    1    2    0    0 -0.13914074574E+02 -0.11330712646E+02 -0.64342896766E+02  0.10487638393E+03  0.80852093487E+02 0.  0.
      -24    2    1    2    0    0  0.13914074574E+02  0.11330712646E+02 -0.11388490617E+03  0.14049002129E+03  0.80285040377E+02 0.  0.
      -13    1    3    3    0    0  0.11819280746E+02 -0.41501400472E+02 -0.32590904670E+02  0.54076138043E+02  0.00000000000E+00 0.  1.
       14    1    3    3    0    0 -0.25733355320E+02  0.30170687825E+02 -0.31751992097E+02  0.50800245885E+02  0.00000000000E+00 0. -1.
        3    1    4    4  502    0 -0.82068144240E+01  0.16077803530E+02 -0.11634055537E+03  0.11773263096E+03  0.00000000000E+00 0. -1.
       -4    1    4    4    0  502  0.22120888998E+02 -0.47470908834E+01  0.24556491925E+01  0.22757390335E+02  0.00000000000E+00 0.  1.
</event>
<event>
 8   1  0.2279600E-02  0.8773148E+02  0.7546771E-02  0.1310110E+00
        1   -1    0    0  501    0  0.00000000000E+00  0.00000000000E+00  0.23797165702E+03  0.23797165702E+03  0.00000000000E+00 0. -1.
       -1   -1    0    0    0  501 -0.00000000000E+00 -0.00000000000E+00 -0.48510554609E+02  0.48510554609E+02  0.00000000000E+00 0.  1.
       24    2    1    2    0    0  0.11556484345E+02  0.32510848370E+02  0.10555979566E+02  0.88364258247E+02  0.80661675154E+02 0.  0.
      -24    2    1    2    0    0 -0.11556484345E+02 -0.32510848370E+02  0.17890512284E+03  0.19811795338E+03  0.77802139301E+02 0.  0.
      -13    1    3    3    0    0  0.23117435679E+02  0.66002951017E+01 -0.30264867090E+02  0.38651544701E+02  0.00000000000E+00 0.  1.
       14    1    3    3    0    0 -0.11560951333E+02  0.25910553268E+02  0.40820846656E+02  0.49712713546E+02  0.00000000000E+00 0. -1.
        3    1    4    4  502    0 -0.37266154272E+02 -0.36387475863E+02  0.15211675496E+03  0.16078657218E+03  0.00000000000E+00 0. -1.
       -4    1    4    4    0  502  0.25709669926E+02  0.38766274929E+01  0.26788367881E+02  0.37331381198E+02  0.00000000000E+00 0.  1.
</event>
<event>
 8   1  0.2279600E-02  0.8654688E+02  0.7546771E-02  0.1314165E+00
        2   -1    0    0  501    0  0.00000000000E+00  0.00000000000E+00  0.62152630822E+03  0.62152630822E+03  0.00000000000E+00 0. -1.
       -2   -1    0    0    0  501 -0.00000000000E+00 -0.00000000000E+00 -0.28843575873E+02  0.28843575873E+02  0.00000000000E+00 0.  1.
      -24    2    1    2    0    0  0.47753779173E+01  0.21816938442E+02  0.46964633831E+02  0.98468467719E+02  0.83615664004E+02 0.  0.
       24    2    1    2    0    0 -0.47753779173E+01 -0.21816938442E+02  0.54571809852E+03  0.55190141638E+03  0.79297839252E+02 0.  0.
      -13    1    4    4    0    0  0.33264707040E+02  0.29315050114E+01  0.15498953127E+03  0.15854617391E+03  0.00000000000E+00 0.  1.
       14    1    4    4    0    0 -0.38040084957E+02 -0.24748443454E+02  0.39072856724E+03  0.39335524247E+03  0.00000000000E+00 0. -1.
        3    1    3    3  502    0  0.41409504912E+02  0.55023534745E+01  0.39863644576E+02  0.57741953116E+02  0.00000000000E+00 0. -1.
       -4    1    3    3    0  502 -0.36634126995E+02  0.16314584968E+02  0.71009892553E+01  0.40726514603E+02  0.00000000000E+00 0.  1.
</event>
<event>
 8   1  0.2279600E-02  0.9138498E+02  0.7546771E-02  0.1301541E+00
       -1   -1    0    0    0  501 -0.00000000000E+00  0.00000000000E+00  0.47102178468E+02  0.47102178468E+02  0.00000000000E+00 0.  1.
        1   -1    0    0  501    0  0.00000000000E+00 -0.00000000000E+00 -0.18189634590E+03  0.18189634590E+03  0.00000000000E+00 0. -1.
       24    2    1    2    0    0  0.94093052223E+01 -0.36811040125E+02 -0.38099713482E+02  0.95953299541E+02  0.79447214084E+02 0.  0.
      -24    2    1    2    0    0 -0.94093052223E+01  0.36811040125E+02 -0.96694453955E+02  0.13304522483E+03  0.83112133440E+02 0.  0.
      -13    1    3    3    0    0  0.55929624850E+01 -0.30453857065E+02  0.20339156544E+02  0.37045916488E+02  0.00000000000E+00 0.  1.
       14    1    3    3    0    0  0.38163427373E+01 -0.63571830597E+01 -0.58438870026E+02  0.58907383054E+02  0.00000000000E+00 0. -1.
        1    1    4    4  502    0 -0.28368940049E+02  0.45526518137E+02 -0.98438781457E+02  0.11210554985E+03  0.00000000000E+00 0. -1.
       -2    1    4    4    0  502  0.18959634827E+02 -0.87154780126E+01  0.17443275023E+01  0.20939674978E+02  0.00000000000E+00 0.  1.
</event>
<event>
 8   1  0.2279600E-02  0.8538513E+02  0.7546771E-02  0.1315733E+00
       -1   -1    0    0    0  501 -0.00000000000E+00  0.00000000000E+00  0.40160748255E+03  0.40160748255E+03  0.00000000000E+00 0.  1.
        1   -1    0    0  501    0  0.00000000000E+00 -0.00000000000E+00 -0.11310608991E+03  0.11310608991E+03  0.00000000000E+00 0. -1.
       24    2    1    2    0    0  0.15848915145E+02 -0.23895417879E+02  0.38030332566E+03  0.38934126601E+03  0.78318725761E+02 0.  0.
      -24    2    1    2    0    0 -0.15848915145E+02  0.23895417879E+02 -0.91801933010E+02  0.12537230645E+03  0.80426620057E+02 0.  0.
      -13    1    3    3    0    0  0.75253002642E+01  0.28231276850E+02  0.17136831198E+03  0.17384111564E+03  0.00000000000E+00 0.  1.
       14    1    3    3    0    0  0.83236148804E+01 -0.52126694730E+02  0.20893501368E+03  0.21550015037E+03  0.00000000000E+00 0. -1.
        3    1    4    4  502    0 -0.41582028217E+02  0.18703972286E+02 -0.21658993462E+02  0.50477872852E+02  0.00000000000E+00 0. -1.
       -4    1    4    4    0  502  0.25733113072E+02  0.51914455928E+01 -0.70142939548E+02  0.74894433600E+02  0.00000000000E+00 0.  1.
</event>
<event>
 8   1  0.2279600E-02  0.8227778E+02  0.7546771E-02  0.1324767E+00
       -2   -1    0    0    0  501 -0.00000000000E+00  0.00000000000E+00  0.56456308005E+02  0.56456308005E+02  0.00000000000E+00 0.  1.
        2   -1    0    0  501    0  0.00000000000E+00 -0.00000000000E+00 -0.22985573106E+03  0.22985573106E+03  0.00000000000E+00 0. -1.
      -24    2    1    2    0    0 -0.13503473861E+02 -0.13331407425E+02  0.13405756330E+02  0.83362746158E+02  0.80059745903E+02 0.  0.
       24    2    1    2    0    0  0.13503473861E+02  0.13331407425E+02 -0.18680517939E+03  0.20294929291E+03  0.77020583065E+02 0.  0.
      -13    1    4    4    0    0 -0.14252678248E+02 -0.37517015214E+01 -0.15164868279E+01  0.14815999253E+02  0.00000000000E+00 0.  1.
       14    1    4    4    0    0  0.27756152110E+02  0.17083108946E+02 -0.18528869256E+03  0.18813329365E+03  0.00000000000E+00 0. -1.
        3    1    3    3  502    0  0.26053336228E+02 -0.26363552811E+02 -0.57710872115E+01  0.37511580786E+02  0.00000000000E+00 0. -1.
       -4    1    3    3    0  502 -0.39556810089E+02  0.13032145387E+02  0.19176843542E+02  0.45851165373E+02  0.00000000000E+00 0.  1.
</event>
<event>
 8   1  0.2279600E-02  0.8111356E+02  0.7546771E-02  0.1330786E+00
       -2   -1    0    0    0  501 -0.00000000000E+00  0.00000000000E+00  0.15532129656E+02  0.15532129656E+02  0.00000000000E+00 0.  1.
        2   -1    0    0  501    0  0.00000000000E+00 -0.00000000000E+00 -0.40418538156E+03  0.40418538156E+03  0.00000000000E+00 0. -1.
      -24    2    1    2    0    0 -0.21478552684E+01 -0.75664732643E+01 -0.14630766241E+03  0.16415774539E+03  0.74026809266E+02 0.  0.
       24    2    1    2    0    0  0.21478552684E+01  0.75664732643E+01 -0.24234558950E+03  0.25555976584E+03  0.80731309692E+02 0.  0.
      -13    1    4    4    0    0  0.26379896916E+02 -0.19699792911E+02 -0.18270744901E+03  0.18565018913E+03  0.00000000000E+00 0.  1.
       14    1    4    4    0    0 -0.24232041648E+02  0.27266266176E+02 -0.59638140490E+02  0.69909576703E+02  0.00000000000E+00 0. -1.
        1    1    3    3  502    0  0.47838037999E+01 -0.27126282879E+02 -0.13968491740E+03  0.14237484381E+03  0.00000000000E+00 0. -1.
       -2    1    3    3    0  502 -0.69316590684E+01  0.19559809614E+02 -0.66227450149E+01  0.21782901577E+02  0.00000000000E+00 0.  1.
</event>
<event>
 8   1  0.2279600E-02  0.1146605E+03  0.7546771E-02  0.1253231E+00
       -1   -1    0    0    0  501 -0.00000000000E+00  0.00000000000E+00  0.76417748834E+03  0.76417748834E+03  0.00000000000E+00 0.  1.
        1   -1    0    0  501    0  0.00000000000E+00 -0.00000000000E+00 -0.25051041518E+02  0.25051041518E+02  0.00000000000E+00 0. -1.
       24    2    1    2    0    0  0.57974844562E+02  0.51122790443E+02  0.59275201052E+03  0.60329168522E+03  0.81432727903E+02 0.  0.
      -24    2    1    2    0    0 -0.57974844562E+02 -0.51122790443E+02  0.14637443630E+03  0.18593684464E+03  0.84690095565E+02 0.  0.
      -13    1    3    3    0    0  0.73954878475E+02  0.23025272823E+02  0.47077762842E+03  0.47710697192E+03  0.00000000000E+00 0.  1.
       14    1    3    3    0    0 -0.15980033913E+02  0.28097517621E+02  0.12197438210E+03  0.12618471330E+03  0.00000000000E+00 0. -1.
        3    1    4    4  502    0 -0.91862069536E+01 -0.37740360912E+02  0.94643871481E+01  0.39978692625E+02  0.00000000000E+00 0. -1.
       -4    1    4    4    0  502 -0.48788637609E+02 -0.13382429532E+02  0.13691004915E+03  0.14595815201E+03  0.00000000000E+00 0.  1.
</event>
<event>
 8   1  0.2279600E-02  0.1049099E+03  0.7546771E-02  0.1281871E+00
       -1   -1    0    0    0  501 -0.00000000000E+00  0.00000000000E+00  0.28794939403E+02  0.28794939403E+02  0.00000000000E+00 0.  1.
        1   -1    0    0  501    0  0.00000000000E+00 -0.00000000000E+00 -0.30242897265E+04  0.30242897265E+04  0.00000000000E+00 0. -1.
       24    2    1    2    0    0 -0.24558663630E+01  0.23994443226E+02 -0.35519147373E+02  0.91250458772E+02  0.80518766823E+02 0.  0.
      -24    2    1    2    0    0  0.24558663630E+01 -0.23994443226E+02 -0.29599756397E+04  0.29618342072E+04  0.10209955035E+03 0.  0.
      -13    1    3    3    0    0 -0.18864279720E+02  0.12965959321E+02  0.21190649807E+02  0.31193281163E+02  0.00000000000E+00 0.  1.
       14    1    3    3    0    0  0.16408413357E+02  0.11028483905E+02 -0.56709797180E+02  0.60057177609E+02  0.00000000000E+00 0. -1.
        1    1    4    4  502    0 -0.25769762980E+02 -0.36363876635E+02 -0.26404034572E+04  0.26407795873E+04  0.00000000000E+00 0. -1.
       -2    1    4    4    0  502  0.28225629343E+02  0.12369433409E+02 -0.31957218259E+03  0.32105461984E+03  0.00000000000E+00 0.  1.
</event>
<event>
 8   1  0.2279600E-02  0.1029391E+03  0.7546771E-02  0.1274564E+00
       -1   -1    0    0    0  501 -0.00000000000E+00  0.00000000000E+00  0.79656256999E+02  0.79656256999E+02  0.00000000000E+00 0.  1.
        1   -1    0    0  501    0  0.00000000000E+00 -0.00000000000E+00 -0.37905642565E+03  0.37905642565E+03  0.00000000000E+00 0. -1.
       24    2    1    2    0    0  0.63904257157E+01 -0.63390755586E+02  0.35558699748E+02  0.10829308229E+03  0.80023403513E+02 0.  0.
      -24    2    1    2    0    0 -0.63904257157E+01  0.63390755586E+02 -0.33495886840E+03  0.35041960036E+03  0.80853122150E+02 0.  0.
      -13    1    3    3    0    0 -0.58367333878E-01 -0.70260402375E+02 -0.12763687174E+01  0.70272019081E+02  0.00000000000E+00 0.  1.
       14    1    3    3    0    0  0.64487930495E+01  0.68696467889E+01  0.36835068465E+02  0.38021063210E+02  0.00000000000E+00 0. -1.
        3    1    4    4  502    0  0.47352205879E+01  0.73909960728E+02 -0.32185618934E+03  0.33026733297E+03  0.00000000000E+00 0. -1.
       -4    1    4    4    0  502 -0.11125646304E+02 -0.10519205142E+02 -0.13102679061E+02  0.20152267392E+02  0.00000000000E+00 0.  1.
</event>
<event>
 8   1  0.2279600E-02  0.1443155E+03  0.7546771E-02  0.1207647E+00
       -2   -1    0    0    0  501 -0.00000000000E+00  0.00000000000E+00  0.15334651063E+03  0.15334651063E+03  0.00000000000E+00 0.  1.
        2   -1    0    0  501    0  0.00000000000E+00 -0.00000000000E+00 -0.22002800806E+03  0.22002800806E+03  0.00000000000E+00 0. -1.
       24    2    1    2    0    0  0.11760739403E+03  0.22108231987E+02 -0.14885576464E+03  0.20732823836E+03  0.80664035997E+02 0.  0.
      -24    2    1    2    0    0 -0.11760739403E+03 -0.22108231987E+02  0.82174267209E+02  0.16604628033E+03  0.80613174893E+02 0.  0.
      -13    1    3    3    0    0 -0.35521264215E+01 -0.16636829020E+02 -0.15147913175E+02  0.22778519608E+02  0.00000000000E+00 0.  1.
       14    1    3    3    0    0  0.12115952046E+03  0.38745061007E+02 -0.13370785146E+03  0.18454971875E+03  0.00000000000E+00 0. -1.
        1    1    4    4  502    0 -0.48948543808E+02  0.26779595903E+02  0.13702192469E+02  0.57453083260E+02  0.00000000000E+00 0. -1.
       -2    1    4    4    0  502 -0.68658850227E+02 -0.48887827890E+02  0.68472074741E+02  0.10859319707E+03  0.00000000000E+00 0.  1.
</event>
<event>
 8   1  0.2279600E-02  0.1119952E+03  0.7546771E-02  0.1257304E+00
       -1   -1    0    0    0  501 -0.00000000000E+00  0.00000000000E+00  0.42606244061E+02  0.42606244061E+02  0.00000000000E+00 0.  1.
        1   -1    0    0  501    0  0.00000000000E+00 -0.00000000000E+00 -0.45279804490E+03  0.45279804490E+03  0.00000000000E+00 0. -1.
       24    2    1    2    0    0  0.55177729325E+02 -0.52770519623E+02 -0.58064934515E+02  0.12615251129E+03  0.81936621427E+02 0.  0.
      -24    2    1    2    0    0 -0.55177729325E+02  0.52770519623E+02 -0.35212686632E+03  0.36925177766E+03  0.80772741490E+02 0.  0.
      -13    1    3    3    0    0  0.69293471884E+02 -0.54878850448E+02 -0.27750689630E+02  0.92646501538E+02  0.00000000000E+00 0.  1.
       14    1    3    3    0    0 -0.14115742559E+02  0.21083308259E+01 -0.30314244884E+02  0.33506009756E+02  0.00000000000E+00 0. -1.
        1    1    4    4  502    0  0.18301449555E+01  0.52788611263E+02 -0.14117743671E+03  0.15073505082E+03  0.00000000000E+00 0. -1.
       -2    1    4    4    0  502 -0.57007874280E+02 -0.18091640366E-01 -0.21094942961E+03  0.21851672685E+03  0.00000000000E+00 0.  1.
</event>
<event>
 8   1  0.2279600E-02  0.8609639E+02  0.7546771E-02  0.1313304E+00
       -2   -1    0    0    0  501 -0.00000000000E+00  0.00000000000E+00  0.59353177553E+02  0.59353177553E+02  0.00000000000E+00 0.  1.
        2   -1    0    0  501    0  0.00000000000E+00 -0.00000000000E+00 -0.53435412507E+03  0.53435412507E+03  0.00000000000E+00 0. -1.
      -24    2    1    2    0    0 -0.27957873456E+02 -0.93628284334E+01  0.22508614281E+02  0.88990031400E+02  0.80890560186E+02 0.  0.
       24    2    1    2    0    0  0.27957873456E+02  0.93628284334E+01 -0.49750956180E+03  0.50471727122E+03  0.79714832662E+02 0.  0.
      -13    1    4    4    0    0  0.81561559651E+01 -0.23930768756E+00 -0.15943113740E+01  0.83139627768E+01  0.00000000000E+00 0.  1.
       14    1    4    4    0    0  0.19801717491E+02  0.96021361209E+01 -0.49591525042E+03  0.49640330844E+03  0.00000000000E+00 0. -1.
        1    1    3    3  502    0 -0.97269928353E+00  0.30194372388E+02 -0.91744026418E+01  0.31572391921E+02  0.00000000000E+00 0. -1.
       -2    1    3    3    0  502 -0.26985174172E+02 -0.39557200821E+02  0.31683016923E+02  0.57417639478E+02  0.00000000000E+00 0.  1.
</event>
<event>
 8   1  0.2279600E-02  0.1294532E+03  0.7546771E-02  0.1228368E+00
       -1   -1    0    0    0  501 -0.00000000000E+00  0.00000000000E+00  0.16074997553E+02  0.16074997553E+02  0.00000000000E+00 0.  1.
        1   -1    0    0  501    0  0.00000000000E+00 -0.00000000000E+00 -0.12142584524E+04  0.12142584524E+04  0.00000000000E+00 0. -1.
       24    2    1    2    0    0  0.97756350720E+02 -0.27448332520E+02 -0.83240549679E+03  0.84241144158E+03  0.80301997132E+02 0.  0.
      -24    2    1    2    0    0 -0.97756350720E+02  0.27448332520E+02 -0.36577795802E+03  0.38792200835E+03  0.79876497918E+02 0.  0.
      -13    1    3    3    0    0  0.85827805487E+01 -0.17673485522E+02 -0.36373327386E+02  0.41340478439E+02  0.00000000000E+00 0.  1.
       14    1    3    3    0    0  0.89173570171E+02 -0.97748469984E+01 -0.79603216941E+03  0.80107096314E+03  0.00000000000E+00 0. -1.
        3    1    4    4  502    0 -0.81913006198E+02 -0.12425051870E+02 -0.19568719953E+03  0.21250318247E+03  0.00000000000E+00 0. -1.
       -4    1    4    4    0  502 -0.15843344522E+02  0.39873384390E+02 -0.17009075849E+03  0.17541882588E+03  0.00000000000E+00 0.  1.
</event>
<event>
 8   1  0.2279600E-02  0.1081919E+03  0.7546771E-02  0.1264038E+00
        2   -1    0    0  501    0  0.00000000000E+00  0.00000000000E+00  0.21713897107E+04  0.21713897107E+04  0.00000000000E+00 0. -1.
       -2   -1    0    0    0  501 -0.00000000000E+00 -0.00000000000E+00 -0.66576301043E+01  0.66576301043E+01  0.00000000000E+00 0.  1.
      -24    2    1    2    0    0  0.13370255871E+02  0.71119904924E+02  0.60639180632E+03  0.61596794583E+03  0.80428122585E+02 0.  0.
       24    2    1    2    0    0 -0.13370255871E+02 -0.71119904924E+02  0.15583402742E+04  0.15620793949E+04  0.80192400807E+02 0.  0.
      -13    1    4    4    0    0 -0.17296757927E+02 -0.79025348651E+02  0.88705143173E+03  0.89073252219E+03  0.00000000000E+00 0.  1.
       14    1    4    4    0    0  0.39265020563E+01  0.79054437267E+01  0.67128884252E+03  0.67134687275E+03  0.00000000000E+00 0. -1.
        1    1    3    3  502    0  0.13050957160E+02 -0.11468964772E+02  0.22833777558E+03  0.22899782617E+03  0.00000000000E+00 0. -1.
       -2    1    3    3    0  502  0.31929871081E+00  0.82588869697E+02  0.37805403074E+03  0.38697011965E+03  0.00000000000E+00 0.  1.
</event>
<event>
 8   1  0.2279600E-02  0.1250580E+03  0.7546771E-02  0.1235202E+00
       -1   -1    0    0    0  501 -0.00000000000E+00  0.00000000000E+00  0.49735431162E+03  0.49735431162E+03  0.00000000000E+00 0.  1.
        1   -1    0    0  501    0  0.00000000000E+00 -0.00000000000E+00 -0.11422061602E+04  0.11422061602E+04  0.00000000000E+00 0. -1.
       24    2    1    2    0    0 -0.46811105020E+02  0.83133775449E+02  0.48606333320E+03  0.50175176868E+03  0.79967301558E+02 0.  0.
      -24    2    1    2    0    0  0.46811105020E+02 -0.83133775449E+02 -0.11309151818E+04  0.11378087031E+04  0.80851668825E+02 0.  0.
      -13    1    3    3    0    0 -0.64573439357E+02  0.70043927334E+02  0.30991953791E+03  0.32423140009E+03  0.00000000000E+00 0.  1.
       14    1    3    3    0    0  0.17762334337E+02  0.13089848115E+02  0.17614379529E+03  0.17752036859E+03  0.00000000000E+00 0. -1.
        3    1    4    4  502    0  0.32282788029E+02 -0.81524155268E+02 -0.11012755341E+04  0.11047606837E+04  0.00000000000E+00 0. -1.
       -4    1    4    4    0  502  0.14528316991E+02 -0.16096201816E+01 -0.29639647682E+02  0.33048019403E+02  0.00000000000E+00 0.  1.
</event>
<event>
 8   1  0.2279600E-02  0.8949782E+02  0.7546771E-02  0.1306211E+00
       -1   -1    0    0    0  501 -0.00000000000E+00  0.00000000000E+00  0.14551180523E+03  0.14551180523E+03  0.00000000000E+00 0.  1.
        1   -1    0    0  501    0  0.00000000000E+00 -0.00000000000E+00 -0.16578857559E+03  0.16578857559E+03  0.00000000000E+00 0. -1.
       24    2    1    2    0    0 -0.12358058542E+02  0.35743670875E+02  0.11819829490E+03  0.14825888170E+03  0.81114286447E+02 0.  0.
      -24    2    1    2    0    0  0.12358058542E+02 -0.35743670875E+02 -0.13847506526E+03  0.16304149912E+03  0.77310122995E+02 0.  0.
      -13    1    3    3    0    0 -0.20391576092E+02  0.46180673005E+02  0.12398843463E+03  0.13387159092E+03  0.00000000000E+00 0.  1.
       14    1    3    3    0    0  0.80335175493E+01 -0.10437002131E+02 -0.57901397283E+01  0.14387290772E+02  0.00000000000E+00 0. -1.
        3    1    4    4  502    0 -0.19104416634E+01 -0.55276187786E+02 -0.12148162462E+03  0.13347993049E+03  0.00000000000E+00 0. -1.
       -4    1    4    4    0  502  0.14268500206E+02  0.19532516911E+02 -0.16993440643E+02  0.29561568630E+02  0.00000000000E+00 0.  1.
</event>
<event>
 8   1  0.2279600E-02  0.8299819E+02  0.7546771E-02  0.1322483E+00
        1   -1    0    0  501    0  0.00000000000E+00  0.00000000000E+00  0.92543921217E+03  0.92543921217E+03  0.00000000000E+00 0. -1.
       -1   -1    0    0    0  501 -0.00000000000E+00 -0.00000000000E+00 -0.95170714329E+01  0.95170714329E+01  0.00000000000E+00 0.  1.
       24    2    1    2    0    0 -0.17805805992E+02 -0.52632698213E+01  0.69299783303E+03  0.69795035398E+03  0.80894692653E+02 0.  0.
      -24    2    1    2    0    0  0.17805805992E+02  0.52632698213E+01  0.22292430770E+03  0.23700592962E+03  0.78305906378E+02 0.  0.
      -13    1    3    3    0    0  0.29172506042E+02 -0.25429713524E+01  0.14447716644E+03  0.14741490235E+03  0.00000000000E+00 0.  1.
       14    1    3    3    0    0 -0.46978312035E+02 -0.27202984689E+01  0.54852066659E+03  0.55053545163E+03  0.00000000000E+00 0. -1.
        1    1    4    4  502    0 -0.37362087717E+01  0.34134406811E+02  0.16693177910E+03  0.17042692234E+03  0.00000000000E+00 0. -1.
       -2    1    4    4    0  502  0.21542014764E+02 -0.28871136989E+02  0.55992528604E+02  0.66579007282E+02  0.00000000000E+00 0.  1.
</event>
<event>
 8   1  0.2279600E-02  0.8782449E+02  0.7546771E-02  0.1309082E+00
        1   -1    0    0  501    0  0.00000000000E+00  0.00000000000E+00  0.55210315972E+02  0.55210315972E+02  0.00000000000E+00 0. -1.
       -1   -1    0    0    0  501 -0.00000000000E+00 -0.00000000000E+00 -0.14822125650E+03  0.14822125650E+03  0.00000000000E+00 0.  1.
       24    2    1    2    0    0 -0.35080379049E+02 -0.68553932534E+01 -0.74193865095E+02  0.11496899523E+03  0.80221635709E+02 0.  0.
      -24    2    1    2    0    0  0.35080379049E+02  0.68553932534E+01 -0.18817075434E+02  0.88462577241E+02  0.78701434761E+02 0.  0.
      -13    1    3    3    0    0 -0.32587399476E+02 -0.86988371812E+01 -0.91431761358E+02  0.97454478389E+02  0.00000000000E+00 0.  1.
       14    1    3    3    0    0 -0.24929795737E+01  0.18434439278E+01  0.17237896263E+02  0.17514516843E+02  0.00000000000E+00 0. -1.
        3    1    4    4  502    0  0.58581771326E+02  0.14565428397E+02 -0.20292414164E+02  0.63684831072E+02  0.00000000000E+00 0. -1.
       -4    1    4    4    0  502 -0.23501392277E+02 -0.77100351440E+01  0.14753387305E+01  0.24777746169E+02  0.00000000000E+00 0.  1.
</event>
<event>
 8   1  0.2279600E-02  0.1028254E+03  0.7546771E-02  0.1276588E+00
       -1   -1    0    0    0  501 -0.00000000000E+00  0.00000000000E+00  0.79967756300E+03  0.79967756300E+03  0.00000000000E+00 0.  1.
        1   -1    0    0  501    0  0.00000000000E+00 -0.00000000000E+00 -0.13180262966E+02  0.13180262966E+02  0.00000000000E+00 0. -1.
       24    2    1    2    0    0 -0.86962731165E+01  0.55469210515E+02  0.47855919707E+03  0.48948133364E+03  0.86142976522E+02 0.  0.
      -24    2    1    2    0    0  0.86962731165E+01 -0.55469210515E+02  0.30793810296E+03  0.32337649232E+03  0.81203583963E+02 0.  0.
      -13    1    3    3    0    0 -0.10540789192E+02  0.78011520566E+02  0.33318594804E+03  0.34235914118E+03  0.00000000000E+00 0.  1.
       14    1    3    3    0    0  0.18445160754E+01 -0.22542310051E+02  0.14537324902E+03  0.14712219246E+03  0.00000000000E+00 0. -1.
        3    1    4    4  502    0 -0.94712274384E+01 -0.50057140645E+02  0.81275075166E+02  0.95922152405E+02  0.00000000000E+00 0. -1.
       -4    1    4    4    0  502  0.18167500555E+02 -0.54120698694E+01  0.22666302780E+03  0.22745433992E+03  0.00000000000E+00 0.  1.
</event>
<event>
 8   1  0.2279600E-02  0.8512042E+02  0.7546771E-02  0.1316185E+00
        2   -1    0    0  501    0  0.00000000000E+00  0.00000000000E+00  0.29324985087E+03  0.29324985087E+03  0.00000000000E+00 0. -1.
       -2   -1    0    0    0  501 -0.00000000000E+00 -0.00000000000E+00 -0.33733393902E+02  0.33733393902E+02  0.00000000000E+00 0.  1.
      -24    2    1    2    0    0  0.22024481746E+02 -0.15791465260E+02  0.42134595135E+02  0.93530122385E+02  0.78981716334E+02 0.  0.
       24    2    1    2    0    0 -0.22024481746E+02  0.15791465260E+02  0.21738186183E+03  0.23345312239E+03  0.80691005242E+02 0.  0.
      -13    1    4    4    0    0 -0.47864223915E+02 -0.96061466949E+01  0.12943537791E+03  0.13833574751E+03  0.00000000000E+00 0.  1.
       14    1    4    4    0    0  0.25839742170E+02  0.25397611955E+02  0.87946483925E+02  0.95117374875E+02  0.00000000000E+00 0. -1.
        1    1    3    3  502    0  0.40751001944E+02 -0.12044554484E+02  0.55733673641E+02  0.70085361023E+02  0.00000000000E+00 0. -1.
       -2    1    3    3    0  502 -0.18726520199E+02 -0.37469107762E+01 -0.13599078507E+02  0.23444761362E+02  0.00000000000E+00 0.  1.
</event>
<event>
 8   1  0.2279600E-02  0.7834468E+02  0.7546771E-02  0.1340552E+00
        2   -1    0    0  501    0  0.00000000000E+00  0.00000000000E+00  0.16716000852E+03  0.16716000852E+03  0.00000000000E+00 0. -1.
       -2   -1    0    0    0  501 -0.00000000000E+00 -0.00000000000E+00 -0.53150920736E+02  0.53150920736E+02  0.00000000000E+00 0.  1.
      -24    2    1    2    0    0 -0.30483406598E+01  0.58607090067E+01 -0.13193551046E+02  0.70917486345E+02  0.69365551894E+02 0.  0.
       24    2    1    2    0    0  0.30483406598E+01 -0.58607090067E+01  0.12720263883E+03  0.14939344291E+03  0.78065672153E+02 0.  0.
      -13    1    4    4    0    0 -0.13350100349E+02  0.15611893249E+02  0.12543859432E+01  0.20579841454E+02  0.00000000000E+00 0.  1.
       14    1    4    4    0    0  0.16398441009E+02 -0.21472602256E+02  0.12594825289E+03  0.12881360146E+03  0.00000000000E+00 0. -1.
        1    1    3    3  502    0 -0.23160835056E+02 -0.24198144350E+02 -0.71170677128E+01  0.34243643546E+02  0.00000000000E+00 0. -1.
       -2    1    3    3    0  502  0.20112494396E+02  0.30058853357E+02 -0.60764833330E+01  0.36673842799E+02  0.00000000000E+00 0.  1.
</event>
<event>
 8   1  0.2279600E-02  0.1002025E+03  0.7546771E-02  0.1284821E+00
        2   -1    0    0  501    0  0.00000000000E+00  0.00000000000E+00  0.14901421690E+04  0.14901421690E+04  0.00000000000E+00 0. -1.
       -2   -1    0    0    0  501 -0.00000000000E+00 -0.00000000000E+00 -0.62598890391E+01  0.62598890391E+01  0.00000000000E+00 0.  1.
      -24    2    1    2    0    0 -0.57846241172E+02  0.72015610018E+01  0.60780994932E+03  0.61461791817E+03  0.70172649532E+02 0.  0.
       24    2    1    2    0    0  0.57846241172E+02 -0.72015610018E+01  0.87607233067E+03  0.88178413990E+03  0.81501476767E+02 0.  0.
      -13    1    4    4    0    0 -0.12248118481E+02  0.10574900701E+02  0.50011610034E+02  0.52564304136E+02  0.00000000000E+00 0.  1.
       14    1    4    4    0    0  0.70094359653E+02 -0.17776461703E+02  0.82606072063E+03  0.82921983576E+03  0.00000000000E+00 0. -1.
        1    1    3    3  502    0 -0.68805740220E+02  0.20348536946E+01  0.36060667250E+03  0.36711788675E+03  0.00000000000E+00 0. -1.
       -2    1    3    3    0  502  0.10959499048E+02  0.51667073072E+01  0.24720327682E+03  0.24750003142E+03  0.00000000000E+00 0.  1.
</event>
<event>
 8   1  0.2279600E-02  0.1036485E+03  0.7546771E-02  0.1273794E+00
        1   -1    0    0  501    0  0.00000000000E+00  0.00000000000E+00  0.49904691619E+03  0.49904691619E+03  0.00000000000E+00 0. -1.
       -1   -1    0    0    0  501 -0.00000000000E+00 -0.00000000000E+00 -0.21424791427E+02  0.21424791427E+02  0.00000000000E+00 0.  1.
       24    2    1    2    0    0  0.46829425154E+02 -0.41415460752E+02  0.26743921350E+03  0.28612183563E+03  0.80210575705E+02 0.  0.
      -24    2    1    2    0    0 -0.46829425154E+02  0.41415460752E+02  0.21018291126E+03  0.23434987199E+03  0.82672673031E+02 0.  0.
      -13    1    3    3    0    0  0.36878385814E+02 -0.48828323964E+01  0.36559578409E+02  0.52158030694E+02  0.00000000000E+00 0.  1.
       14    1    3    3    0    0  0.99510393406E+01 -0.36532628355E+02  0.23087963509E+03  0.23396380493E+03  0.00000000000E+00 0. -1.
        3    1    4    4  502    0 -0.50925067600E+02  0.43410938784E+02  0.80909836636E+02  0.10499654176E+03  0.00000000000E+00 0. -1.
       -4    1    4    4    0  502  0.40956424458E+01 -0.19954780327E+01  0.12927307463E+03  0.12935333024E+03  0.00000000000E+00 0.  1.
</event>
<event>
 8   1  0.2279600E-02  0.8320841E+02  0.7546771E-02  0.1321762E+00
        1   -1    0    0  501    0  0.00000000000E+00  0.00000000000E+00  0.20707055364E+02  0.20707055364E+02  0.00000000000E+00 0. -1.
       -1   -1    0    0    0  501 -0.00000000000E+00 -0.00000000000E+00 -0.37046524814E+03  0.37046524814E+03  0.00000000000E+00 0.  1.
       24    2    1    2    0    0  0.99742328905E+01 -0.51433550849E+01 -0.24111738534E+03  0.25432763344E+03  0.80118738092E+02 0.  0.
      -24    2    1    2    0    0 -0.99742328905E+01  0.51433550849E+01 -0.10864080744E+03  0.13684467007E+03  0.82448161059E+02 0.  0.
      -13    1    3    3    0    0 -0.28397600197E+02 -0.53337608103E+01 -0.17897700107E+03  0.18129434523E+03  0.00000000000E+00 0.  1.
       14    1    3    3    0    0  0.38371833087E+02  0.19040572539E+00 -0.62140384271E+02  0.73033288205E+02  0.00000000000E+00 0. -1.
        1    1    4    4  502    0  0.35376169249E+02 -0.29524961146E+01 -0.60973141947E+02  0.70554338087E+02  0.00000000000E+00 0. -1.
       -2    1    4    4    0  502 -0.45350402139E+02  0.80958511995E+01 -0.47667665488E+02  0.66290331979E+02  0.00000000000E+00 0.  1.
</event>
<event>
 8   1  0.2279600E-02  0.8267198E+02  0.7546771E-02  0.1323101E+00
        2   -1    0    0  501    0  0.00000000000E+00  0.00000000000E+00  0.49157224878E+03  0.49157224878E+03  0.00000000000E+00 0. -1.
       -2   -1    0    0    0  501 -0.00000000000E+00 -0.00000000000E+00 -0.13663903404E+02  0.13663903404E+02  0.00000000000E+00 0.  1.
      -24    2    1    2    0    0 -0.12320061112E+02 -0.51291891540E+01  0.25914372919E+03  0.27137163190E+03  0.79429199492E+02 0.  0.
       24    2    1    2    0    0  0.12320061112E+02  0.51291891540E+01  0.21876461618E+03  0.23386452029E+03  0.81587769105E+02 0.  0.
      -13    1    4    4    0    0  0.34156297861E+02  0.74194119621E+01  0.37456100308E+02  0.51231433785E+02  0.00000000000E+00 0.  1.
       14    1    4    4    0    0 -0.21836236749E+02 -0.22902228081E+01  0.18130851587E+03  0.18263308650E+03  0.00000000000E+00 0. -1.
        3    1    3    3  502    0 -0.22719138659E+02 -0.29506465081E+01  0.25972257561E+03  0.26073105273E+03  0.00000000000E+00 0. -1.
       -4    1    3    3    0  502  0.10399077547E+02 -0.21785426459E+01 -0.57884641614E+00  0.10640579169E+02  0.00000000000E+00 0.  1.
</event>
<event>
 8   1  0.2279600E-02  0.1674736E+03  0.7546771E-02  0.1180767E+00
        1   -1    0    0  501    0  0.00000000000E+00  0.00000000000E+00  0.22015243253E+03  0.22015243253E+03  0.00000000000E+00 0. -1.
       -1   -1    0    0    0  501 -0.00000000000E+00 -0.00000000000E+00 -0.24502607834E+03  0.24502607834E+03  0.00000000000E+00 0.  1.
       24    2    1    2    0    0  0.11994373417E+03 -0.85555642135E+02 -0.17411007169E+03  0.24158171372E+03  0.79631275719E+02 0.  0.
      -24    2    1    2    0    0 -0.11994373417E+03  0.85555642135E+02  0.14923642589E+03  0.22359679715E+03  0.77574155592E+02 0.  0.
      -13    1    3    3    0    0  0.13004627944E+03 -0.88017800360E+02 -0.16193605179E+03  0.22557139190E+03  0.00000000000E+00 0.  1.
       14    1    3    3    0    0 -0.10102545272E+02  0.24621582252E+01 -0.12174019902E+02  0.16010321817E+02  0.00000000000E+00 0. -1.
        1    1    4    4  502    0 -0.11901308408E+03  0.62277690215E+02  0.14857245822E+03  0.20029078916E+03  0.00000000000E+00 0. -1.
       -2    1    4    4    0  502 -0.93065008480E+00  0.23277951920E+02  0.66396766696E+00  0.23306007986E+02  0.00000000000E+00 0.  1.
</event>
<event>
 8   1  0.2279600E-02  0.1135432E+03  0.7546771E-02  0.1254723E+00
        4   -1    0    0  501    0  0.00000000000E+00  0.00000000000E+00  0.25388766025E+02  0.25388766025E+02  0.00000000000E+00 0. -1.
       -4   -1    0    0    0  501 -0.00000000000E+00 -0.00000000000E+00 -0.13029976676E+04  0.13029976676E+04  0.00000000000E+00 0.  1.
       24    2    1    2    0    0 -0.57158284514E+02  0.55222132216E+02 -0.11946320037E+03  0.16481354923E+03  0.81089434520E+02 0.  0.
      -24    2    1    2    0    0  0.57158284514E+02 -0.55222132216E+02 -0.11581457012E+04  0.11635728844E+04  0.79270667417E+02 0.  0.
      -13    1    3    3    0    0  0.68439605403E+01 -0.51773024264E+01  0.67717472683E+01  0.10931642940E+02  0.00000000000E+00 0.  1.
       14    1    3    3    0    0 -0.64002245055E+02  0.60399434643E+02 -0.12623494764E+03  0.15388190629E+03  0.00000000000E+00 0. -1.
        1    1    4    4  502    0 -0.18642399790E+02 -0.15693969421E+02 -0.17024690723E+03  0.17198211874E+03  0.00000000000E+00 0. -1.
       -2    1    4    4    0  502  0.75800684305E+02 -0.39528162795E+02 -0.98789879393E+03  0.99159076561E+03  0.00000000000E+00 0.  1.
</event>
<event>
 8   1  0.2279600E-02  0.1143893E+03  0.7546771E-02  0.1252712E+00
       -1   -1    0    0    0  501 -0.00000000000E+00  0.00000000000E+00  0.57693523993E+02  0.57693523993E+02  0.00000000000E+00 0.  1.
        1   -1    0    0  501    0  0.00000000000E+00 -0.00000000000E+00 -0.24162212747E+03  0.24162212747E+03  0.00000000000E+00 0. -1.
       24    2    1    2    0    0  0.26547132672E+02  0.76863969401E+02 -0.54605857632E+02  0.12675451299E+03  0.80449281111E+02 0.  0.
      -24    2    1    2    0    0 -0.26547132672E+02 -0.76863969401E+02 -0.12932274585E+03  0.17256113847E+03  0.80250569295E+02 0.  0.
      -13    1    3    3    0    0  0.22496234169E+02  0.89075524922E+02 -0.62994931468E+02  0.11139520224E+03  0.00000000000E+00 0.  1.
       14    1    3    3    0    0  0.40508985034E+01 -0.12211555521E+02  0.83890738357E+01  0.15359310751E+02  0.00000000000E+00 0. -1.
        1    1    4    4  502    0  0.49619123177E+01  0.30071329234E+01 -0.65049834863E+02  0.65308073298E+02  0.00000000000E+00 0. -1.
       -2    1    4    4    0  502 -0.31509044990E+02 -0.79871102325E+02 -0.64272910982E+02  0.10725306517E+03  0.00000000000E+00 0.  1.
</event>
<event>
 8   1  0.2279600E-02  0.2195774E+03  0.7546771E-02  0.1134721E+00
       -2   -1    0    0    0  501 -0.00000000000E+00  0.00000000000E+00  0.98926545058E+02  0.98926545058E+02  0.00000000000E+00 0.  1.
        2   -1    0    0  501    0  0.00000000000E+00 -0.00000000000E+00 -0.89583578151E+03  0.89583578151E+03  0.00000000000E+00 0. -1.
       24    2    1    2    0    0 -0.19908864985E+03  0.32238359393E+02 -0.73545961502E+03  0.76674849765E+03  0.79541253462E+02 0.  0.
      -24    2    1    2    0    0  0.19908864985E+03 -0.32238359393E+02 -0.61449621431E+02  0.22801382892E+03  0.86825387358E+02 0.  0.
      -13    1    3    3    0    0 -0.63247489073E+02 -0.15539800663E+01 -0.12095415493E+03  0.13650116235E+03  0.00000000000E+00 0.  1.
       14    1    3    3    0    0 -0.13584116078E+03  0.33792339460E+02 -0.61450546010E+03  0.63024733530E+03  0.00000000000E+00 0. -1.
        1    1    4    4  502    0  0.13751465312E+03  0.11842956945E+02 -0.64228784360E+02  0.15223623811E+03  0.00000000000E+00 0. -1.
       -2    1    4    4    0  502  0.61573996729E+02 -0.44081316338E+02  0.27791629286E+01  0.75777590816E+02  0.00000000000E+00 0.  1.
</event>
<event>
 8   1  0.2279600E-02  0.8215397E+02  0.7546771E-02  0.1324477E+00
        2   -1    0    0  501    0  0.00000000000E+00  0.00000000000E+00  0.86585048897E+03  0.86585048897E+03  0.00000000000E+00 0. -1.
       -2   -1    0    0    0  501 -0.00000000000E+00 -0.00000000000E+00 -0.76933266470E+01  0.76933266470E+01  0.00000000000E+00 0.  1.
      -24    2    1    2    0    0  0.43036766274E+01  0.46716509991E+01  0.48236326650E+03  0.48930930439E+03  0.81908049292E+02 0.  0.
       24    2    1    2    0    0 -0.43036766274E+01 -0.46716509991E+01  0.37579389582E+03  0.38423451123E+03  0.79842103706E+02 0.  0.
      -13    1    4    4    0    0  0.29226846143E+02 -0.12003991488E+02  0.73568712442E+02  0.80066596015E+02  0.00000000000E+00 0.  1.
       14    1    4    4    0    0 -0.33530522771E+02  0.73323404887E+01  0.30222518338E+03  0.30416791521E+03  0.00000000000E+00 0. -1.
        3    1    3    3  502    0  0.30586871349E+02  0.28000299349E+02  0.17041356375E+03  0.17538630555E+03  0.00000000000E+00 0. -1.
       -4    1    3    3    0  502 -0.26283194722E+02 -0.23328648350E+02  0.31194970275E+03  0.31392299885E+03  0.00000000000E+00 0.  1.
</event>
<event>
 8   1  0.2279600E-02  0.8336919E+02  0.7546771E-02  0.1320729E+00
        2   -1    0    0  501    0  0.00000000000E+00  0.00000000000E+00  0.57017559193E+03  0.57017559193E+03  0.00000000000E+00 0. -1.
       -2   -1    0    0    0  501 -0.00000000000E+00 -0.00000000000E+00 -0.12118795597E+02  0.12118795597E+02  0.00000000000E+00 0.  1.
      -24    2    1    2    0    0 -0.10596988505E+02 -0.14526777789E+02  0.31257294653E+03  0.32350002944E+03  0.81406994211E+02 0.  0.
       24    2    1    2    0    0  0.10596988505E+02  0.14526777789E+02  0.24548384981E+03  0.25879435809E+03  0.79930443675E+02 0.  0.
      -13    1    4    4    0    0  0.16465770832E+02 -0.25665635838E+02  0.45809698083E+02  0.55030672452E+02  0.00000000000E+00 0.  1.
       14    1    4    4    0    0 -0.58687823272E+01  0.40192413626E+02  0.19967415172E+03  0.20376368564E+03  0.00000000000E+00 0. -1.
        1    1    3    3  502    0  0.93498615877E+01  0.30816347272E+02  0.15555237624E+03  0.15885090156E+03  0.00000000000E+00 0. -1.
       -2    1    3    3    0  502 -0.19946850093E+02 -0.45343125060E+02  0.15702057028E+03  0.16464912788E+03  0.00000000000E+00 0.  1.
</event>
<event>
 8   1  0.2279600E-02  0.8256719E+02  0.7546771E-02  0.1322147E+00
        2   -1    0    0  501    0  0.00000000000E+00  0.00000000000E+00  0.13120450267E+04  0.13120450267E+04  0.00000000000E+00 0. -1.
       -2   -1    0    0    0  501 -0.00000000000E+00 -0.00000000000E+00 -0.53122275889E+01  0.53122275889E+01  0.00000000000E+00 0.  1.
      -24    2    1    2    0    0 -0.14586375750E+02 -0.13078024308E+02  0.54623361699E+03  0.55238905463E+03  0.79866803250E+02 0.  0.
       24    2    1    2    0    0  0.14586375750E+02  0.13078024308E+02  0.76049918216E+03  0.76496819970E+03  0.80209372359E+02 0.  0.
      -13    1    4    4    0    0 -0.21523322745E+02  0.24899553532E+02  0.16456313636E+03  0.16782212916E+03  0.00000000000E+00 0.  1.
       14    1    4    4    0    0  0.36109698494E+02 -0.11821529224E+02  0.59593604580E+03  0.59714607054E+03  0.00000000000E+00 0. -1.
        3    1    3    3  502    0  0.23872822806E+02 -0.31554067784E+02  0.26331532193E+03  0.26627153363E+03  0.00000000000E+00 0. -1.
       -4    1    3    3    0  502 -0.38459198556E+02  0.18476043476E+02  0.28291829507E+03  0.28611752100E+03  0.00000000000E+00 0.  1.
</event>
<event>
 8   1  0.2279600E-02  0.8201426E+02  0.7546771E-02  0.1325167E+00
        1   -1    0    0  501    0  0.00000000000E+00  0.00000000000E+00  0.51452077929E+03  0.51452077929E+03  0.00000000000E+00 0. -1.
       -1   -1    0    0    0  501 -0.00000000000E+00 -0.00000000000E+00 -0.17635238684E+02  0.17635238684E+02  0.00000000000E+00 0.  1.
       24    2    1    2    0    0 -0.73455074427E+01  0.90760424052E+01  0.10465140000E+03  0.13143920980E+03  0.78663964595E+02 0.  0.
      -24    2    1    2    0    0  0.73455074427E+01 -0.90760424052E+01  0.39223414061E+03  0.40071680817E+03  0.81178865901E+02 0.  0.
      -13    1    3    3    0    0 -0.39330710307E+02 -0.10332611518E+02  0.66896920856E+02  0.78287072075E+02  0.00000000000E+00 0.  1.
       14    1    3    3    0    0  0.31985202865E+02  0.19408653923E+02  0.37754479142E+02  0.53152137724E+02  0.00000000000E+00 0. -1.
        3    1    4    4  502    0 -0.15101999825E+02  0.81076039498E+01  0.34668255911E+03  0.34710603629E+03  0.00000000000E+00 0. -1.
       -4    1    4    4    0  502  0.22447507268E+02 -0.17183646355E+02  0.45551581499E+02  0.53610771881E+02  0.00000000000E+00 0.  1.
</event>
<event>
 8   1  0.2279600E-02  0.1096242E+03  0.7546771E-02  0.1261466E+00
        1   -1    0    0  501    0  0.00000000000E+00  0.00000000000E+00  0.89347310542E+02  0.89347310542E+02  0.00000000000E+00 0. -1.
       -1   -1    0    0    0  501 -0.00000000000E+00 -0.00000000000E+00 -0.20542245061E+03  0.20542245061E+03  0.00000000000E+00 0.  1.
       24    2    1    2    0    0 -0.69273026595E+02 -0.25203043914E+02 -0.14488102073E+03  0.18142411186E+03  0.80562103750E+02 0.  0.
      -24    2    1    2    0    0  0.69273026595E+02  0.25203043914E+02  0.28805880657E+02  0.11334564930E+03  0.81138842841E+02 0.  0.
      -13    1    3    3    0    0 -0.55952078608E+02 -0.24246897008E+02 -0.15374385459E+03  0.16539564667E+03  0.00000000000E+00 0.  1.
       14    1    3    3    0    0 -0.13320947988E+02 -0.95614690634E+00  0.88628338598E+01  0.16028465186E+02  0.00000000000E+00 0. -1.
        1    1    4    4  502    0  0.86377684424E+02  0.24565269993E+02  0.33082874249E+02  0.95702839168E+02  0.00000000000E+00 0. -1.
       -2    1    4    4    0  502 -0.17104657829E+02  0.63777392069E+00 -0.42769935920E+01  0.17642810127E+02  0.00000000000E+00 0.  1.
</event>
<event>
 8   1  0.2279600E-02  0.9145405E+02  0.7546771E-02  0.1299549E+00
        1   -1    0    0  501    0  0.00000000000E+00  0.00000000000E+00  0.97610209047E+03  0.97610209047E+03  0.00000000000E+00 0. -1.
       -1   -1    0    0    0  501 -0.00000000000E+00 -0.00000000000E+00 -0.19484204931E+02  0.19484204931E+02  0.00000000000E+00 0.  1.
       24    2    1    2    0    0 -0.40502194597E+02 -0.12621713829E+02  0.10558273264E+03  0.13968377646E+03  0.81019186291E+02 0.  0.
      -24    2    1    2    0    0  0.40502194597E+02  0.12621713829E+02  0.85103515290E+03  0.85590251894E+03  0.80675616093E+02 0.  0.
      -13    1    3    3    0    0 -0.93780012638E+01 -0.46062334624E+01 -0.13082782863E+02  0.16742864207E+02  0.00000000000E+00 0.  1.
       14    1    3    3    0    0 -0.31124193333E+02 -0.80154803662E+01  0.11866551550E+03  0.12294091225E+03  0.00000000000E+00 0. -1.
        1    1    4    4  502    0  0.11901472949E+02 -0.23325581768E+02  0.60802655940E+03  0.60859019443E+03  0.00000000000E+00 0. -1.
       -2    1    4    4    0  502  0.28600721648E+02  0.35947295596E+02  0.24300859351E+03  0.24731232451E+03  0.00000000000E+00 0.  1.
</event>
<event>
 8   1  0.2279600E-02  0.8628784E+02  0.7546771E-02  0.1314662E+00
       -2   -1    0    0    0  501 -0.00000000000E+00  0.00000000000E+00  0.47546729351E+01  0.47546729351E+01  0.00000000000E+00 0.  1.
        2   -1    0    0  501    0  0.00000000000E+00 -0.00000000000E+00 -0.15045432359E+04  0.15045432359E+04  0.00000000000E+00 0. -1.
      -24    2    1    2    0    0 -0.10106004000E+02  0.26659677123E+02 -0.82424243693E+03  0.82874675670E+03  0.81441526300E+02 0.  0.
       24    2    1    2    0    0  0.10106004000E+02 -0.26659677123E+02 -0.67554612607E+03  0.68055115217E+03  0.77294453673E+02 0.  0.
      -13    1    4    4    0    0 -0.32043874192E+02 -0.13130840890E+01 -0.21362419394E+03  0.21601812493E+03  0.00000000000E+00 0.  1.
       14    1    4    4    0    0  0.42149878192E+02 -0.25346593034E+02 -0.46192193213E+03  0.46453302723E+03  0.00000000000E+00 0. -1.
        1    1    3    3  502    0  0.20574905833E+02 -0.20020124311E+02 -0.20687691537E+03  0.20885925941E+03  0.00000000000E+00 0. -1.
       -2    1    3    3    0  502 -0.30680909833E+02  0.46679801433E+02 -0.61736552156E+03  0.61988749730E+03  0.00000000000E+00 0.  1.
</event>
<event>
 8   1  0.2279600E-02  0.9194114E+02  0.7546771E-02  0.1299416E+00
        2   -1    0    0  501    0  0.00000000000E+00  0.00000000000E+00  0.83516023061E+02  0.83516023061E+02  0.00000000000E+00 0. -1.
       -2   -1    0    0    0  501 -0.00000000000E+00 -0.00000000000E+00 -0.10953305634E+03  0.10953305634E+03  0.00000000000E+00 0.  1.
       24    2    1    2    0    0  0.21620839505E+02  0.35106104228E+02  0.16774437388E+02  0.93458845911E+02  0.82178311459E+02 0.  0.
      -24    2    1    2    0    0 -0.21620839505E+02 -0.35106104228E+02 -0.42791470663E+02  0.99590233486E+02  0.79919993677E+02 0.  0.
      -13    1    3    3    0    0  0.22217670480E+02 -0.16992501846E+02 -0.15689300734E+02  0.32070612063E+02  0.00000000000E+00 0.  1.
       14    1    3    3    0    0 -0.59683097492E+00  0.52098606074E+02  0.32463738122E+02  0.61388233848E+02  0.00000000000E+00 0. -1.
        1    1    4    4  502    0 -0.18525926009E+02  0.24182016929E+02 -0.12339447337E+02  0.32867032689E+02  0.00000000000E+00 0. -1.
       -2    1    4    4    0  502 -0.30949134962E+01 -0.59288121157E+02 -0.30452023326E+02  0.66723200796E+02  0.00000000000E+00 0.  1.
</event>
<event>
 8   1  0.2279600E-02  0.8471868E+02  0.7546771E-02  0.1317261E+00
       -3   -1    0    0    0  501 -0.00000000000E+00  0.00000000000E+00  0.12312301256E+03  0.12312301256E+03  0.00000000000E+00 0.  1.
        3   -1    0    0  501    0  0.00000000000E+00 -0.00000000000E+00 -0.57216673068E+02  0.57216673068E+02  0.00000000000E+00 0. -1.
       24    2    1    2    0    0 -0.17497771608E+02  0.13160058461E+02  0.35917264566E+02  0.92017957107E+02  0.81840670735E+02 0.  0.
      -24    2    1    2    0    0  0.17497771608E+02 -0.13160058461E+02  0.29989074926E+02  0.88321728522E+02  0.80137531558E+02 0.  0.
      -13    1    3    3    0    0 -0.36233137542E+02  0.30952686883E+02  0.44086571482E+02  0.64919449061E+02  0.00000000000E+00 0.  1.
       14    1    3    3    0    0  0.18735365934E+02 -0.17792628422E+02 -0.81693069161E+01  0.27098508046E+02  0.00000000000E+00 0. -1.
        1    1    4    4  502    0  0.41693206156E+02  0.13485124219E+02  0.41507200597E+01  0.44015911802E+02  0.00000000000E+00 0. -1.
       -2    1    4    4    0  502 -0.24195434548E+02 -0.26645182680E+02  0.25838354867E+02  0.44305816720E+02  0.00000000000E+00 0.  1.
</event>
<event>
 8   1  0.2279600E-02  0.8653972E+02  0.7546771E-02  0.1313417E+00
        1   -1    0    0  501    0  0.00000000000E+00  0.00000000000E+00  0.52038865401E+03  0.52038865401E+03  0.00000000000E+00 0. -1.
       -1   -1    0    0    0  501 -0.00000000000E+00 -0.00000000000E+00 -0.13929864522E+02  0.13929864522E+02  0.00000000000E+00 0.  1.
       24    2    1    2    0    0 -0.48571389741E+01 -0.16183394330E+02  0.27126753752E+03  0.28473707290E+03  0.84874199382E+02 0.  0.
      -24    2    1    2    0    0  0.48571389741E+01  0.16183394330E+02  0.23519125196E+03  0.24958144562E+03  0.81795347972E+02 0.  0.
      -13    1    3    3    0    0 -0.10561788763E+02 -0.23002210319E+02  0.17402580814E+02  0.30716491994E+02  0.00000000000E+00 0.  1.
       14    1    3    3    0    0  0.57046497887E+01  0.68188159896E+01  0.25386495671E+03  0.25402058091E+03  0.00000000000E+00 0. -1.
        3    1    4    4  502    0  0.77283136473E+01 -0.10235942949E+02 -0.68012188422E-01  0.12825988677E+02  0.00000000000E+00 0. -1.
       -4    1    4    4    0  502 -0.28711746732E+01  0.26419337278E+02  0.23525926415E+03  0.23675545695E+03  0.00000000000E+00 0.  1.
</event>
<event>
 8   1  0.2279600E-02  0.8333230E+02  0.7546771E-02  0.1320347E+00
        3   -1    0    0  501    0  0.00000000000E+00  0.00000000000E+00  0.15997538356E+04  0.15997538356E+04  0.00000000000E+00 0. -1.
       -3   -1    0    0    0  501 -0.00000000000E+00 -0.00000000000E+00 -0.89916000043E+01  0.89916000043E+01  0.00000000000E+00 0.  1.
       24    2    1    2    0    0 -0.33705081696E+01  0.20739824148E+02  0.21620389718E+03  0.23170756897E+03  0.80639765191E+02 0.  0.
      -24    2    1    2    0    0  0.33705081696E+01 -0.20739824148E+02  0.13745583384E+04  0.13770378667E+04  0.79882162045E+02 0.  0.
      -13    1    3    3    0    0 -0.41942417053E+02  0.13556229975E+02  0.11681385918E+03  0.12485357590E+03  0.00000000000E+00 0.  1.
       14    1    3    3    0    0  0.38571908883E+02  0.71835941737E+01  0.99390038004E+02  0.10685399307E+03  0.00000000000E+00 0. -1.
        3    1    4    4  502    0 -0.77743415584E+01 -0.27977907056E+02  0.13348314068E+04  0.13351472160E+04  0.00000000000E+00 0. -1.
       -4    1    4    4    0  502  0.11144849728E+02  0.72380829073E+01  0.39726931606E+02  0.41890650681E+02  0.00000000000E+00 0.  1.
</event>
<event>
 8   1  0.2279600E-02  0.9414397E+02  0.7546771E-02  0.1301143E+00
       -1   -1    0    0    0  501 -0.00000000000E+00  0.00000000000E+00  0.20443588568E+03  0.20443588568E+03  0.00000000000E+00 0.  1.
        1   -1    0    0  501    0  0.00000000000E+00 -0.00000000000E+00 -0.69981987594E+02  0.69981987594E+02  0.00000000000E+00 0. -1.
       24    2    1    2    0    0  0.47377980504E+02  0.60727932960E+01  0.15778590077E+03  0.17742576022E+03  0.65589313555E+02 0.  0.
      -24    2    1    2    0    0 -0.47377980504E+02 -0.60727932960E+01 -0.23332002691E+02  0.96992113048E+02  0.81126665091E+02 0.  0.
      -13    1    3    3    0    0  0.40914318963E+02  0.31595628325E+02  0.12573839392E+03  0.13595002366E+03  0.00000000000E+00 0.  1.
       14    1    3    3    0    0  0.64636615413E+01 -0.25522835030E+02  0.32047506849E+02  0.41475736566E+02  0.00000000000E+00 0. -1.
        3    1    4    4  502    0 -0.62793461800E+02 -0.17854080539E+02 -0.35280800518E+02  0.74205942632E+02  0.00000000000E+00 0. -1.
       -4    1    4    4    0  502  0.15415481296E+02  0.11781287243E+02  0.11948797827E+02  0.22786170415E+02  0.00000000000E+00 0.  1.
</event>
<event>
 8   1  0.2279600E-02  0.8143726E+02  0.7546771E-02  0.1327909E+00
        3   -1    0    0  501    0  0.00000000000E+00  0.00000000000E+00  0.28564108697E+03  0.28564108697E+03  0.00000000000E+00 0. -1.
       -3   -1    0    0    0  501 -0.00000000000E+00 -0.00000000000E+00 -0.27126490980E+02  0.27126490980E+02  0.00000000000E+00 0.  1.
       24    2    1    2    0    0 -0.13095514337E+01  0.71208553543E+01  0.59113060083E+02  0.97377236150E+02  0.77042525542E+02 0.  0.
      -24    2    1    2    0    0  0.13095514337E+01 -0.71208553543E+01  0.19940153590E+03  0.21539034180E+03  0.81114766305E+02 0.  0.
      -13    1    3    3    0    0  0.18195174024E+02  0.21422628292E+02 -0.52740271502E+01  0.28597355177E+02  0.00000000000E+00 0.  1.
       14    1    3    3    0    0 -0.19504725458E+02 -0.14301772938E+02  0.64387087234E+02  0.68779880974E+02  0.00000000000E+00 0. -1.
        1    1    4    4  502    0  0.96631111243E+01 -0.31159973169E+02  0.18117167653E+03  0.18408556712E+03  0.00000000000E+00 0. -1.
       -2    1    4    4    0  502 -0.83535596906E+01  0.24039117815E+02  0.18229859369E+02  0.31304774675E+02  0.00000000000E+00 0.  1.
</event>
<event>
 8   1  0.2279600E-02  0.1269108E+03  0.7546771E-02  0.1233450E+00
       -1   -1    0    0    0  501 -0.00000000000E+00  0.00000000000E+00  0.10280192128E+04  0.10280192128E+04  0.00000000000E+00 0.  1.
        1   -1    0    0  501    0  0.00000000000E+00 -0.00000000000E+00 -0.15396922941E+02  0.15396922941E+02  0.00000000000E+00 0. -1.
       24    2    1    2    0    0  0.18299126535E+02  0.91405714573E+02  0.56493601144E+03  0.57901557481E+03  0.86118965190E+02 0.  0.
      -24    2    1    2    0    0 -0.18299126535E+02 -0.91405714573E+02  0.44768627837E+03  0.46440056088E+03  0.80963043521E+02 0.  0.
      -13    1    3    3    0    0 -0.30610280921E+02  0.10484663608E+02  0.14291935640E+03  0.14653620679E+03  0.00000000000E+00 0.  1.
       14    1    3    3    0    0  0.48909407456E+02  0.80921050964E+02  0.42201665504E+03  0.43247936802E+03  0.00000000000E+00 0. -1.
        1    1    4    4  502    0  0.24106673952E+02 -0.23211797829E+01  0.10760339150E+03  0.11029510174E+03  0.00000000000E+00 0. -1.
       -2    1    4    4    0  502 -0.42405800487E+02 -0.89084534790E+02  0.34008288687E+03  0.35410545914E+03  0.00000000000E+00 0.  1.
</event>
<event>
 8   1  0.2279600E-02  0.8585049E+02  0.7546771E-02  0.1313276E+00
        1   -1    0    0  501    0  0.00000000000E+00  0.00000000000E+00  0.19116104862E+03  0.19116104862E+03  0.00000000000E+00 0. -1.
       -1   -1    0    0    0  501 -0.00000000000E+00 -0.00000000000E+00 -0.52592758314E+02  0.52592758314E+02  0.00000000000E+00 0.  1.
       24    2    1    2    0    0 -0.95743507467E+01 -0.24929975665E+02  0.62604691055E+01  0.86078455575E+02  0.81591268907E+02 0.  0.
      -24    2    1    2    0    0  0.95743507467E+01  0.24929975665E+02  0.13230782120E+03  0.15767535136E+03  0.81504509054E+02 0.  0.
      -13    1    3    3    0    0 -0.19530973810E+02  0.98960005096E+01  0.34010651544E+02  0.40448908298E+02  0.00000000000E+00 0.  1.
       14    1    3    3    0    0  0.99566230635E+01 -0.34825976175E+02 -0.27750182438E+02  0.45629547277E+02  0.00000000000E+00 0. -1.
        3    1    4    4  502    0 -0.35222427076E+02  0.20496415309E+02  0.63117520564E+02  0.75130179101E+02  0.00000000000E+00 0. -1.
       -4    1    4    4    0  502  0.44796777823E+02  0.44335603559E+01  0.69190300633E+02  0.82545172254E+02  0.00000000000E+00 0.  1.
</event>
<event>
 8   1  0.2279600E-02  0.8644245E+02  0.7546771E-02  0.1312489E+00
       -1   -1    0    0    0  501 -0.00000000000E+00  0.00000000000E+00  0.32162228635E+03  0.32162228635E+03  0.00000000000E+00 0.  1.
        1   -1    0    0  501    0  0.00000000000E+00 -0.00000000000E+00 -0.25136504898E+02  0.25136504898E+02  0.00000000000E+00 0. -1.
       24    2    1    2    0    0  0.27429021875E+02 -0.95407289957E+01  0.20084669132E+03  0.21865884575E+03  0.81418183825E+02 0.  0.
      -24    2    1    2    0    0 -0.27429021875E+02  0.95407289957E+01  0.95639090127E+02  0.12809994550E+03  0.80121056693E+02 0.  0.
      -13    1    3    3    0    0  0.27477914673E+02  0.33535256083E+02  0.10253195099E+03  0.11132138236E+03  0.00000000000E+00 0.  1.
       14    1    3    3    0    0 -0.48892798048E-01 -0.43075985079E+02  0.98314740329E+02  0.10733746339E+03  0.00000000000E+00 0. -1.
        3    1    4    4  502    0 -0.44925878606E+02  0.32982182079E+02  0.67179824211E+02  0.87288531229E+02  0.00000000000E+00 0. -1.
       -4    1    4    4    0  502  0.17496856731E+02 -0.23441453084E+02  0.28459265916E+02  0.40811414269E+02  0.00000000000E+00 0.  1.
</event>
<event>
 8   1  0.2279600E-02  0.9834145E+02  0.7546771E-02  0.1287575E+00
       -4   -1    0    0    0  501 -0.00000000000E+00  0.00000000000E+00  0.37285326953E+03  0.37285326953E+03  0.00000000000E+00 0.  1.
        4   -1    0    0  501    0  0.00000000000E+00 -0.00000000000E+00 -0.29623937946E+02  0.29623937946E+02  0.00000000000E+00 0. -1.
      -24    2    1    2    0    0 -0.28610352923E+02  0.16033567320E+02  0.26266848289E+03  0.28047419290E+03  0.92711452383E+02 0.  0.
       24    2    1    2    0    0  0.28610352923E+02 -0.16033567320E+02  0.80560848692E+02  0.12200301458E+03  0.85551491209E+02 0.  0.
      -13    1    4    4    0    0  0.19243389671E+02 -0.48766525634E+02  0.28153159253E+02  0.59506994919E+02  0.00000000000E+00 0.  1.
       14    1    4    4    0    0  0.93669632528E+01  0.32732958313E+02  0.52407689439E+02  0.62496019656E+02  0.00000000000E+00 0. -1.
        1    1    3    3  502    0  0.23189563452E+02 -0.23619951791E+02  0.87017769304E+02  0.93100752684E+02  0.00000000000E+00 0. -1.
       -2    1    3    3    0  502 -0.51799916376E+02  0.39653519112E+02  0.17565071358E+03  0.18737344021E+03  0.00000000000E+00 0.  1.
</event>
<event>
 8   1  0.2279600E-02  0.8525603E+02  0.7546771E-02  0.1314805E+00
        1   -1    0    0  501    0  0.00000000000E+00  0.00000000000E+00  0.10637451746E+03  0.10637451746E+03  0.00000000000E+00 0. -1.
       -1   -1    0    0    0  501 -0.00000000000E+00 -0.00000000000E+00 -0.68288404685E+02  0.68288404685E+02  0.00000000000E+00 0.  1.
       24    2    1    2    0    0  0.64311679310E+01 -0.25615033266E+02  0.18078909064E+02  0.87090784954E+02  0.80996716111E+02 0.  0.
      -24    2    1    2    0    0 -0.64311679310E+01  0.25615033266E+02  0.20007203710E+02  0.87572137190E+02  0.81062328868E+02 0.  0.
      -13    1    3    3    0    0  0.14931335590E+02 -0.15410013490E+02 -0.30184104432E+02  0.37033680057E+02  0.00000000000E+00 0.  1.
       14    1    3    3    0    0 -0.85001676585E+01 -0.10205019776E+02  0.48263013496E+02  0.50057104896E+02  0.00000000000E+00 0. -1.
        1    1    4    4  502    0 -0.13931564640E+02  0.47210369899E+02  0.34853929668E+02  0.60313381041E+02  0.00000000000E+00 0. -1.
       -2    1    4    4    0  502  0.75003967085E+01 -0.21595336633E+02 -0.14846725959E+02  0.27258756148E+02  0.00000000000E+00 0.  1.
</event>
<event>
 8   1  0.2279600E-02  0.8722244E+02  0.7546771E-02  0.1310320E+00
       -1   -1    0    0    0  501 -0.00000000000E+00  0.00000000000E+00  0.82003442684E+02  0.82003442684E+02  0.00000000000E+00 0.  1.
        1   -1    0    0  501    0  0.00000000000E+00 -0.00000000000E+00 -0.10862829415E+03  0.10862829415E+03  0.00000000000E+00 0. -1.
       24    2    1    2    0    0  0.12601800806E+02 -0.27104776937E+02 -0.50797499547E+02  0.10012167945E+03  0.80935100043E+02 0.  0.
      -24    2    1    2    0    0 -0.12601800806E+02  0.27104776937E+02  0.24172648079E+02  0.90510057388E+02  0.81940705739E+02 0.  0.
      -13    1    3    3    0    0  0.42090296016E+02  0.31925492206E+01 -0.15239433100E+02  0.44877897794E+02  0.00000000000E+00 0.  1.
       14    1    3    3    0    0 -0.29488495210E+02 -0.30297326158E+02 -0.35558066447E+02  0.55243781654E+02  0.00000000000E+00 0. -1.
        1    1    4    4  502    0 -0.16483853773E+02  0.52572508941E+02 -0.12670500238E+00  0.55096299202E+02  0.00000000000E+00 0. -1.
       -2    1    4    4    0  502  0.38820529674E+01 -0.25467732004E+02  0.24299353081E+02  0.35413758186E+02  0.00000000000E+00 0.  1.
</event>
<event>
 8   1  0.2279600E-02  0.8700690E+02  0.7546771E-02  0.1314199E+00
        1   -1    0    0  501    0  0.00000000000E+00  0.00000000000E+00  0.12827680271E+03  0.12827680271E+03  0.00000000000E+00 0. -1.
       -1   -1    0    0    0  501 -0.00000000000E+00 -0.00000000000E+00 -0.37960586335E+03  0.37960586335E+03  0.00000000000E+00 0.  1.
       24    2    1    2    0    0  0.77468544337E+01 -0.14577024433E+02 -0.35980908337E+03  0.36882110899E+03  0.79334296286E+02 0.  0.
      -24    2    1    2    0    0 -0.77468544337E+01  0.14577024433E+02  0.10848002273E+03  0.13906155707E+03  0.85426564531E+02 0.  0.
      -13    1    3    3    0    0  0.28247852384E+02 -0.27531330965E+02 -0.31839537398E+03  0.32082943992E+03  0.00000000000E+00 0.  1.
       14    1    3    3    0    0 -0.20500997950E+02  0.12954306531E+02 -0.41413709394E+02  0.47991669073E+02  0.00000000000E+00 0. -1.
        1    1    4    4  502    0 -0.19847224453E+01  0.50399152507E+01  0.12167254380E+03  0.12179305311E+03  0.00000000000E+00 0. -1.
       -2    1    4    4    0  502 -0.57621319884E+01  0.95371091827E+01 -0.13192521078E+02  0.17268503959E+02  0.00000000000E+00 0.  1.
</event>
<event>
 8   1  0.2279600E-02  0.1067090E+03  0.7546771E-02  0.1275806E+00
       -2   -1    0    0    0  501 -0.00000000000E+00  0.00000000000E+00  0.10466703365E+03  0.10466703365E+03  0.00000000000E+00 0.  1.
        2   -1    0    0  501    0  0.00000000000E+00 -0.00000000000E+00 -0.11268725416E+03  0.11268725416E+03  0.00000000000E+00 0. -1.
       24    2    1    2    0    0 -0.65089558142E+02  0.13127211807E+02 -0.50594467102E+02  0.11809580782E+03  0.83533498992E+02 0.  0.
      -24    2    1    2    0    0  0.65089558142E+02 -0.13127211807E+02  0.42574246599E+02  0.99258479991E+02  0.60255332609E+02 0.  0.
      -13    1    3    3    0    0 -0.39583485857E+02  0.23873709073E+02  0.13603484891E+02  0.48185694336E+02  0.00000000000E+00 0.  1.
       14    1    3    3    0    0 -0.25506072285E+02 -0.10746497266E+02 -0.64197951993E+02  0.69910113481E+02  0.00000000000E+00 0. -1.
        3    1    4    4  502    0  0.34285116471E+02  0.11181480582E+02  0.47577489769E+02  0.59700186366E+02  0.00000000000E+00 0. -1.
       -4    1    4    4    0  502  0.30804441671E+02 -0.24308692389E+02 -0.50032431704E+01  0.39558293625E+02  0.00000000000E+00 0.  1.
</event>
<event>
 8   1  0.2279600E-02  0.8632885E+02  0.7546771E-02  0.1312949E+00
       -1   -1    0    0    0  501 -0.00000000000E+00  0.00000000000E+00  0.46517297612E+02  0.46517297612E+02  0.00000000000E+00 0.  1.
        1   -1    0    0  501    0  0.00000000000E+00 -0.00000000000E+00 -0.28256935030E+03  0.28256935030E+03  0.00000000000E+00 0. -1.
       24    2    1    2    0    0 -0.25172552963E+02 -0.20207690275E+02 -0.91184754350E+01  0.86809086276E+02  0.80066614121E+02 0.  0.
      -24    2    1    2    0    0  0.25172552963E+02  0.20207690275E+02 -0.22693357725E+03  0.24227756163E+03  0.78470123097E+02 0.  0.
      -13    1    3    3    0    0 -0.28040760930E+02 -0.22814514215E+02  0.30319495232E+02  0.47181120414E+02  0.00000000000E+00 0.  1.
       14    1    3    3    0    0  0.28682079670E+01  0.26068239399E+01 -0.39437970667E+02  0.39627965862E+02  0.00000000000E+00 0. -1.
        1    1    4    4  502    0  0.78246489212E+01 -0.80654904599E+01 -0.19782993765E+03  0.19814883673E+03  0.00000000000E+00 0. -1.
       -2    1    4    4    0  502  0.17347904042E+02  0.28273180735E+02 -0.29103639596E+02  0.44128724900E+02  0.00000000000E+00 0.  1.
</event>
<event>
 8   1  0.2279600E-02  0.8332803E+02  0.7546771E-02  0.1320375E+00
        2   -1    0    0  501    0  0.00000000000E+00  0.00000000000E+00  0.26660177420E+03  0.26660177420E+03  0.00000000000E+00 0. -1.
       -2   -1    0    0    0  501 -0.00000000000E+00 -0.00000000000E+00 -0.45860727066E+02  0.45860727066E+02  0.00000000000E+00 0.  1.
      -24    2    1    2    0    0  0.18162196359E+02 -0.27454104612E+01  0.67803912104E+01  0.82848211027E+02  0.80501240427E+02 0.  0.
       24    2    1    2    0    0 -0.18162196359E+02  0.27454104612E+01  0.21396065593E+03  0.22961429024E+03  0.81278271042E+02 0.  0.
      -13    1    4    4    0    0 -0.23768568494E+02 -0.33859076995E+02  0.15106243586E+03  0.15662452385E+03  0.00000000000E+00 0.  1.
       14    1    4    4    0    0  0.56063721351E+01  0.36604487456E+02  0.62898220068E+02  0.72989766393E+02  0.00000000000E+00 0. -1.
        3    1    3    3  502    0  0.49065163387E+02  0.31051943448E+01  0.12852446078E+02  0.50815527748E+02  0.00000000000E+00 0. -1.
       -4    1    3    3    0  502 -0.30902967028E+02 -0.58506048060E+01 -0.60720548677E+01  0.32032683279E+02  0.00000000000E+00 0.  1.
</event>
<event>
 8   1  0.2279600E-02  0.1209756E+03  0.7546771E-02  0.1242344E+00
       -2   -1    0    0    0  501 -0.00000000000E+00  0.00000000000E+00  0.91736402572E+02  0.91736402572E+02  0.00000000000E+00 0.  1.
        2   -1    0    0  501    0  0.00000000000E+00 -0.00000000000E+00 -0.19477048046E+03  0.19477048046E+03  0.00000000000E+00 0. -1.
      -24    2    1    2    0    0 -0.78745558891E+02  0.40428786241E+02  0.12061215076E+02  0.11952780877E+03  0.79410794967E+02 0.  0.
       24    2    1    2    0    0  0.78745558891E+02 -0.40428786241E+02 -0.11509529296E+03  0.16697907427E+03  0.82460505564E+02 0.  0.
      -13    1    4    4    0    0 -0.17174416242E+02 -0.11746650212E+02 -0.17992422262E+02  0.27507664810E+02  0.00000000000E+00 0.  1.
       14    1    4    4    0    0  0.95919975133E+02 -0.28682136029E+02 -0.97102870702E+02  0.13947140946E+03  0.00000000000E+00 0. -1.
        1    1    3    3  502    0 -0.32112188501E+02  0.54900895642E+02  0.26058288227E+02  0.68733800840E+02  0.00000000000E+00 0. -1.
       -2    1    3    3    0  502 -0.46633370391E+02 -0.14472109400E+02 -0.13997073150E+02  0.50794007927E+02  0.00000000000E+00 0.  1.
</event>
<event>
 8   1  0.2279600E-02  0.8253142E+02  0.7546771E-02  0.1322419E+00
       -3   -1    0    0    0  501 -0.00000000000E+00  0.00000000000E+00  0.11035769088E+04  0.11035769088E+04  0.00000000000E+00 0.  1.
        3   -1    0    0  501    0  0.00000000000E+00 -0.00000000000E+00 -0.63734492317E+01  0.63734492317E+01  0.00000000000E+00 0. -1.
       24    2    1    2    0    0 -0.14546009955E+02  0.11121144150E+02  0.43786879444E+03  0.44547038421E+03  0.79871871211E+02 0.  0.
      -24    2    1    2    0    0  0.14546009955E+02 -0.11121144150E+02  0.65933466513E+03  0.66447997383E+03  0.80474646430E+02 0.  0.
      -13    1    3    3    0    0  0.16011405384E+02 -0.25438587924E+02  0.24341668116E+03  0.24526550415E+03  0.00000000000E+00 0.  1.
       14    1    3    3    0    0 -0.30557415339E+02  0.36559732073E+02  0.19445211328E+03  0.20020488006E+03  0.00000000000E+00 0. -1.
        3    1    4    4  502    0  0.37635581035E+02  0.18761568412E+02  0.43063589403E+03  0.43268430367E+03  0.00000000000E+00 0. -1.
       -4    1    4    4    0  502 -0.23089571081E+02 -0.29882712562E+02  0.22869877110E+03  0.23179567016E+03  0.00000000000E+00 0.  1.
</event>
<event>
 8   1  0.2279600E-02  0.8420625E+02  0.7546771E-02  0.1317587E+00
        2   -1    0    0  501    0  0.00000000000E+00  0.00000000000E+00  0.11838832879E+04  0.11838832879E+04  0.00000000000E+00 0. -1.
       -2   -1    0    0    0  501 -0.00000000000E+00 -0.00000000000E+00 -0.62668523145E+01  0.62668523145E+01  0.00000000000E+00 0.  1.
      -24    2    1    2    0    0  0.38220618447E+01 -0.63826011651E+01  0.71593721992E+03  0.72087224667E+03  0.83876977706E+02 0.  0.
       24    2    1    2    0    0 -0.38220618447E+01  0.63826011651E+01  0.46167921570E+03  0.46927789359E+03  0.83777666737E+02 0.  0.
      -13    1    4    4    0    0  0.53391956482E+01 -0.33116860317E+02  0.32456443028E+03  0.32629327736E+03  0.00000000000E+00 0.  1.
       14    1    4    4    0    0 -0.91612574930E+01  0.39499461482E+02  0.13711478542E+03  0.14298461622E+03  0.00000000000E+00 0. -1.
        3    1    3    3  502    0 -0.31087982481E+02 -0.25328036651E+02  0.47432282153E+03  0.47601482237E+03  0.00000000000E+00 0. -1.
       -4    1    3    3    0  502  0.34910044326E+02  0.18945435486E+02  0.24161439839E+03  0.24485742429E+03  0.00000000000E+00 0.  1.
</event>
<event>
 8   1  0.2279600E-02  0.8254092E+02  0.7546771E-02  0.1322516E+00
       -1   -1    0    0    0  501 -0.00000000000E+00  0.00000000000E+00  0.31460805257E+02  0.31460805257E+02  0.00000000000E+00 0.  1.
        1   -1    0    0  501    0  0.00000000000E+00 -0.00000000000E+00 -0.21819293265E+03  0.21819293265E+03  0.00000000000E+00 0. -1.
       24    2    1    2    0    0 -0.34986717730E+01  0.75057475854E+01 -0.10992746331E+03  0.13746654140E+03  0.82124453503E+02 0.  0.
      -24    2    1    2    0    0  0.34986717730E+01 -0.75057475854E+01 -0.76804664079E+02  0.11218719651E+03  0.81353756426E+02 0.  0.
      -13    1    3    3    0    0  0.38720436721E+02 -0.23046305257E+01 -0.45130228459E+02  0.59508999845E+02  0.00000000000E+00 0.  1.
       14    1    3    3    0    0 -0.42219108494E+02  0.98103781112E+01 -0.64797234849E+02  0.77957541552E+02  0.00000000000E+00 0. -1.
        1    1    4    4  502    0  0.16279436281E+01 -0.24452232291E+02 -0.88291368301E+02  0.91629294338E+02  0.00000000000E+00 0. -1.
       -2    1    4    4    0  502  0.18707281449E+01  0.16946484706E+02  0.11486704221E+02  0.20557902168E+02  0.00000000000E+00 0.  1.
</event>
<event>
 8   1  0.2279600E-02  0.1099199E+03  0.7546771E-02  0.1262825E+00
        2   -1    0    0  501    0  0.00000000000E+00  0.00000000000E+00  0.49079772205E+02  0.49079772205E+02  0.00000000000E+00 0. -1.
       -2   -1    0    0    0  501 -0.00000000000E+00 -0.00000000000E+00 -0.48311366457E+03  0.48311366457E+03  0.00000000000E+00 0.  1.
      -24    2    1    2    0    0 -0.73300620580E+02 -0.89084022837E+01 -0.40937569355E+03  0.42387597490E+03  0.81425076105E+02 0.  0.
       24    2    1    2    0    0  0.73300620580E+02  0.89084022837E+01 -0.24658198819E+02  0.10831746188E+03  0.75314707530E+02 0.  0.
      -13    1    4    4    0    0  0.32414873976E+01  0.19882220065E+02 -0.31162137417E+02  0.37106451240E+02  0.00000000000E+00 0.  1.
       14    1    4    4    0    0  0.70059133182E+02 -0.10973817782E+02  0.65039385976E+01  0.71211010639E+02  0.00000000000E+00 0. -1.
        1    1    3    3  502    0  0.17266753222E+02 -0.10003215799E+01 -0.42067209692E+02  0.45483970158E+02  0.00000000000E+00 0. -1.
       -2    1    3    3    0  502 -0.90567373802E+02 -0.79080807037E+01 -0.36730848386E+03  0.37839200474E+03  0.00000000000E+00 0.  1.
</event>
<event>
 8   1  0.2279600E-02  0.1002870E+03  0.7546771E-02  0.1279891E+00
        1   -1    0    0  501    0  0.00000000000E+00  0.00000000000E+00  0.11179334446E+04  0.11179334446E+04  0.00000000000E+00 0. -1.
       -1   -1    0    0    0  501 -0.00000000000E+00 -0.00000000000E+00 -0.12421609027E+02  0.12421609027E+02  0.00000000000E+00 0.  1.
       24    2    1    2    0    0  0.73337351985E+01 -0.58297956332E+02  0.25526876021E+03  0.27426196575E+03  0.81271461992E+02 0.  0.
      -24    2    1    2    0    0 -0.73337351985E+01  0.58297956332E+02  0.85024307539E+03  0.85609308790E+03  0.80806265351E+02 0.  0.
      -13    1    3    3    0    0  0.40324822809E+02 -0.52357322952E+02  0.18386736801E+03  0.19538318663E+03  0.00000000000E+00 0.  1.
       14    1    3    3    0    0 -0.32991087610E+02 -0.59406333805E+01  0.71401392201E+02  0.78878779116E+02  0.00000000000E+00 0. -1.
        1    1    4    4  502    0 -0.25187919521E+02 -0.24680818821E+01  0.46417586812E+03  0.46486531303E+03  0.00000000000E+00 0. -1.
       -2    1    4    4    0  502  0.17854184322E+02  0.60766038215E+02  0.38606720727E+03  0.39122777487E+03  0.00000000000E+00 0.  1.
</event>
<event>
 8   1  0.2279600E-02  0.8735641E+02  0.7546771E-02  0.1309764E+00
        2   -1    0    0  501    0  0.00000000000E+00  0.00000000000E+00  0.30165142890E+03  0.30165142890E+03  0.00000000000E+00 0. -1.
       -2   -1    0    0    0  501 -0.00000000000E+00 -0.00000000000E+00 -0.26634196801E+02  0.26634196801E+02  0.00000000000E+00 0.  1.
      -24    2    1    2    0    0  0.28412296370E+02 -0.23060930426E+02  0.17704844109E+03  0.19742667661E+03  0.79322613727E+02 0.  0.
       24    2    1    2    0    0 -0.28412296370E+02  0.23060930426E+02  0.97968791013E+02  0.13085894909E+03  0.78658219201E+02 0.  0.
      -13    1    4    4    0    0  0.14227013537E+01  0.43712287766E+02  0.27685037651E+02  0.51761467238E+02  0.00000000000E+00 0.  1.
       14    1    4    4    0    0 -0.29834997724E+02 -0.20651357339E+02  0.70283753362E+02  0.79097481855E+02  0.00000000000E+00 0. -1.
        1    1    3    3  502    0  0.51296751988E+02 -0.24302302044E+02  0.15710980334E+03  0.16704924111E+03  0.00000000000E+00 0. -1.
       -2    1    3    3    0  502 -0.22884455618E+02  0.12413716178E+01  0.19938637747E+02  0.30377435501E+02  0.00000000000E+00 0.  1.
</event>
<event>
 8   1  0.2279600E-02  0.9586988E+02  0.7546771E-02  0.1289730E+00
       -2   -1    0    0    0  501 -0.00000000000E+00  0.00000000000E+00  0.19525483720E+02  0.19525483720E+02  0.00000000000E+00 0.  1.
        2   -1    0    0  501    0  0.00000000000E+00 -0.00000000000E+00 -0.10025618922E+04  0.10025618922E+04  0.00000000000E+00 0. -1.
      -24    2    1    2    0    0  0.23486156077E+02 -0.42801704635E+02 -0.11884597178E+03  0.15269380464E+03  0.82507257371E+02 0.  0.
       24    2    1    2    0    0 -0.23486156077E+02  0.42801704635E+02 -0.86419043675E+03  0.86939357133E+03  0.81464627044E+02 0.  0.
      -13    1    4    4    0    0 -0.69250092888E+01 -0.15786178794E+02 -0.49206758502E+02  0.52138894089E+02  0.00000000000E+00 0.  1.
       14    1    4    4    0    0 -0.16561146788E+02  0.58587883429E+02 -0.81498367824E+03  0.81725467724E+03  0.00000000000E+00 0. -1.
        3    1    3    3  502    0  0.35835214188E+02  0.13102762596E+02 -0.54981093862E+02  0.66923580641E+02  0.00000000000E+00 0. -1.
       -4    1    3    3    0  502 -0.12349058110E+02 -0.55904467232E+02 -0.63864877919E+02  0.85770223996E+02  0.00000000000E+00 0.  1.
</event>
<event>
 8   1  0.2279600E-02  0.8329074E+02  0.7546771E-02  0.1320250E+00
       -2   -1    0    0    0  501 -0.00000000000E+00  0.00000000000E+00  0.24379609203E+02  0.24379609203E+02  0.00000000000E+00 0.  1.
        2   -1    0    0  501    0  0.00000000000E+00 -0.00000000000E+00 -0.57217436569E+03  0.57217436569E+03  0.00000000000E+00 0. -1.
      -24    2    1    2    0    0  0.19393364411E+02  0.11164671078E+02 -0.61540691052E+02  0.10321802158E+03  0.79786909075E+02 0.  0.
       24    2    1    2    0    0 -0.19393364411E+02 -0.11164671078E+02 -0.48625406543E+03  0.49333595331E+03  0.80228387860E+02 0.  0.
      -13    1    4    4    0    0  0.43274189603E+01  0.65271971155E+00  0.16762952400E+01  0.46864233282E+01  0.00000000000E+00 0.  1.
       14    1    4    4    0    0 -0.23720783371E+02 -0.11817390790E+02 -0.48793036067E+03  0.48864952999E+03  0.00000000000E+00 0. -1.
        1    1    3    3  502    0 -0.28890448561E+02 -0.93912042063E+01 -0.23328312428E+02  0.38302257052E+02  0.00000000000E+00 0. -1.
       -2    1    3    3    0  502  0.48283812972E+02  0.20555875285E+02 -0.38212378623E+02  0.64915764525E+02  0.00000000000E+00 0.  1.
</event>
<event>
 8   1  0.2279600E-02  0.9122945E+02  0.7546771E-02  0.1306016E+00
        1   -1    0    0  501    0  0.00000000000E+00  0.00000000000E+00  0.12899478730E+04  0.12899478730E+04  0.00000000000E+00 0. -1.
       -1   -1    0    0    0  501 -0.00000000000E+00 -0.00000000000E+00 -0.59132978056E+01  0.59132978056E+01  0.00000000000E+00 0.  1.
       24    2    1    2    0    0  0.29965328435E+02  0.26877993476E+02  0.77235141768E+03  0.77772072391E+03  0.81868581076E+02 0.  0.
      -24    2    1    2    0    0 -0.29965328435E+02 -0.26877993476E+02  0.51168315751E+03  0.51814044689E+03  0.70919120005E+02 0.  0.
      -13    1    3    3    0    0 -0.20085526051E+02  0.34866759114E+02  0.31045290331E+03  0.31304971558E+03  0.00000000000E+00 0.  1.
       14    1    3    3    0    0  0.50050854487E+02 -0.79887656382E+01  0.46189851437E+03  0.46467100833E+03  0.00000000000E+00 0. -1.
        1    1    4    4  502    0 -0.51311824213E+02 -0.30524758729E+02  0.35946830955E+03  0.36439282344E+03  0.00000000000E+00 0. -1.
       -2    1    4    4    0  502  0.21346495778E+02  0.36467652528E+01  0.15221484795E+03  0.15374762345E+03  0.00000000000E+00 0.  1.
</event>
<event>
 8   1  0.2279600E-02  0.8672780E+02  0.7546771E-02  0.1314428E+00
       -3   -1    0    0    0  501 -0.00000000000E+00  0.00000000000E+00  0.19431985035E+02  0.19431985035E+02  0.00000000000E+00 0.  1.
        3   -1    0    0  501    0  0.00000000000E+00 -0.00000000000E+00 -0.44910729800E+03  0.44910729800E+03  0.00000000000E+00 0. -1.
       24    2    1    2    0    0  0.29425748729E+01  0.11996697475E+02 -0.10747243052E+03  0.13486817520E+03  0.80538946253E+02 0.  0.
      -24    2    1    2    0    0 -0.29425748729E+01 -0.11996697475E+02 -0.32220288245E+03  0.33367110784E+03  0.85843644196E+02 0.  0.
      -13    1    3    3    0    0  0.12464855190E+02  0.10673394021E+01 -0.11690579991E+03  0.11757328728E+03  0.00000000000E+00 0.  1.
       14    1    3    3    0    0 -0.95222803173E+01  0.10929358073E+02  0.94333693906E+01  0.17294887926E+02  0.00000000000E+00 0. -1.
        3    1    4    4  502    0 -0.76111690048E+01 -0.13353151235E+02 -0.32669230136E+03  0.32705365968E+03  0.00000000000E+00 0. -1.
       -4    1    4    4    0  502  0.46685941319E+01  0.13564537605E+01  0.44894189100E+01  0.66174481579E+01  0.00000000000E+00 0.  1.
</event>
<event>
 8   1  0.2279600E-02  0.9360282E+02  0.7546771E-02  0.1295002E+00
        4   -1    0    0  501    0  0.00000000000E+00  0.00000000000E+00  0.23795422681E+02  0.23795422681E+02  0.00000000000E+00 0. -1.
       -4   -1    0    0    0  501 -0.00000000000E+00 -0.00000000000E+00 -0.76680586509E+03  0.76680586509E+03  0.00000000000E+00 0.  1.
       24    2    1    2    0    0  0.45156172799E+02  0.57945559647E+00 -0.85994594345E+02  0.12710844700E+03  0.81988238984E+02 0.  0.
      -24    2    1    2    0    0 -0.45156172799E+02 -0.57945559647E+00 -0.65701584807E+03  0.66349284077E+03  0.80706315963E+02 0.  0.
      -13    1    3    3    0    0  0.62304585426E+02 -0.18459951518E+02 -0.46022189794E+02  0.79628343751E+02  0.00000000000E+00 0.  1.
       14    1    3    3    0    0 -0.17148412628E+02  0.19039407114E+02 -0.39972404551E+02  0.47480103249E+02  0.00000000000E+00 0. -1.
        3    1    4    4  502    0 -0.47372886120E+02  0.31906863010E+02 -0.33491939732E+03  0.33975467759E+03  0.00000000000E+00 0. -1.
       -4    1    4    4    0  502  0.22167133217E+01 -0.32486318606E+02 -0.32209645075E+03  0.32373816318E+03  0.00000000000E+00 0.  1.
</event>
<event>
 8   1  0.2279600E-02  0.1022557E+03  0.7546771E-02  0.1280531E+00
       -2   -1    0    0    0  501 -0.00000000000E+00  0.00000000000E+00  0.65262956027E+02  0.65262956027E+02  0.00000000000E+00 0.  1.
        2   -1    0    0  501    0  0.00000000000E+00 -0.00000000000E+00 -0.17218666750E+03  0.17218666750E+03  0.00000000000E+00 0. -1.
       24    2    1    2    0    0 -0.46195195822E+02 -0.36422566889E+02 -0.52644065063E+01  0.93259295131E+02  0.72173282153E+02 0.  0.
      -24    2    1    2    0    0  0.46195195822E+02  0.36422566889E+02 -0.10165930497E+03  0.14419032839E+03  0.83639924799E+02 0.  0.
      -13    1    3    3    0    0 -0.12954312115E+02  0.19781489749E+02  0.10828514494E+02  0.26007273314E+02  0.00000000000E+00 0.  1.
       14    1    3    3    0    0 -0.33240883707E+02 -0.56204056638E+02 -0.16092921001E+02  0.67252021817E+02  0.00000000000E+00 0. -1.
        3    1    4    4  502    0  0.19052226435E+02 -0.26682964694E+02 -0.24826869219E+02  0.41125920928E+02  0.00000000000E+00 0. -1.
       -4    1    4    4    0  502  0.27142969388E+02  0.63105531583E+02 -0.76832435746E+02  0.10306440747E+03  0.00000000000E+00 0.  1.
</event>
<event>
 8   1  0.2279600E-02  0.8847585E+02  0.7546771E-02  0.1307557E+00
       -2   -1    0    0    0  501 -0.00000000000E+00  0.00000000000E+00  0.31079816235E+03  0.31079816235E+03  0.00000000000E+00 0.  1.
        2   -1    0    0  501    0  0.00000000000E+00 -0.00000000000E+00 -0.27273751819E+02  0.27273751819E+02  0.00000000000E+00 0. -1.
       24    2    1    2    0    0 -0.12772874272E+02  0.31488658174E+02  0.91445202612E+02  0.12724072393E+03  0.81690237088E+02 0.  0.
      -24    2    1    2    0    0  0.12772874272E+02 -0.31488658174E+02  0.19207920792E+03  0.21083119024E+03  0.80004292076E+02 0.  0.
      -13    1    3    3    0    0 -0.29992449044E+02 -0.12990208013E+02  0.64875290820E+02  0.72643622314E+02  0.00000000000E+00 0.  1.
       14    1    3    3    0    0  0.17219574772E+02  0.44478866187E+02  0.26569911792E+02  0.54597101619E+02  0.00000000000E+00 0. -1.
        1    1    4    4  502    0  0.36687284818E+02 -0.45780648797E+01  0.39669176847E+02  0.54226922622E+02  0.00000000000E+00 0. -1.
       -2    1    4    4    0  502 -0.23914410546E+02 -0.26910593295E+02  0.15241003107E+03  0.15660426761E+03  0.00000000000E+00 0.  1.
</event>
<event>
 8   1  0.2279600E-02  0.8581286E+02  0.7546771E-02  0.1313451E+00
       -2   -1    0    0    0  501 -0.00000000000E+00  0.00000000000E+00  0.48221400115E+02  0.48221400115E+02  0.00000000000E+00 0.  1.
        2   -1    0    0  501    0  0.00000000000E+00 -0.00000000000E+00 -0.33413034414E+03  0.33413034414E+03  0.00000000000E+00 0. -1.
      -24    2    1    2    0    0 -0.25994893870E+02 -0.13944310086E+02 -0.20219081348E+01  0.85836675390E+02  0.80583301238E+02 0.  0.
       24    2    1    2    0    0  0.25994893870E+02  0.13944310086E+02 -0.28388703589E+03  0.29651506886E+03  0.80368890912E+02 0.  0.
      -13    1    4    4    0    0  0.16867038122E+02  0.31520432356E+02 -0.48268568241E+02  0.60065708278E+02  0.00000000000E+00 0.  1.
       14    1    4    4    0    0  0.91278557479E+01 -0.17576122270E+02 -0.23561846765E+03  0.23644936059E+03  0.00000000000E+00 0. -1.
        1    1    3    3  502    0 -0.10481566444E+01  0.15976502104E+01 -0.38749273266E+02  0.38796356752E+02  0.00000000000E+00 0. -1.
       -2    1    3    3    0  502 -0.24946737225E+02 -0.15541960297E+02  0.36727365131E+02  0.47040318638E+02  0.00000000000E+00 0.  1.
</event>
<event>
 8   1  0.2279600E-02  0.8192294E+02  0.7546771E-02  0.1324332E+00
        2   -1    0    0  501    0  0.00000000000E+00  0.00000000000E+00  0.38573367679E+02  0.38573367679E+02  0.00000000000E+00 0. -1.
       -2   -1    0    0    0  501 -0.00000000000E+00 -0.00000000000E+00 -0.18997307772E+03  0.18997307772E+03  0.00000000000E+00 0.  1.
      -24    2    1    2    0    0 -0.37592973611E+01  0.51533646252E+01 -0.11124580778E+03  0.13815570330E+03  0.81674225557E+02 0.  0.
       24    2    1    2    0    0  0.37592973611E+01 -0.51533646252E+01 -0.40153902263E+02  0.90390742107E+02  0.80730792812E+02 0.  0.
      -13    1    4    4    0    0  0.40905343295E+02 -0.85840877798E+01 -0.11492928735E+02  0.43347676800E+02  0.00000000000E+00 0.  1.
       14    1    4    4    0    0 -0.37146045934E+02  0.34307231546E+01 -0.28660973528E+02  0.47043065307E+02  0.00000000000E+00 0. -1.
        1    1    3    3  502    0  0.29789399986E+02  0.14465454903E+02 -0.93264914916E+02  0.98969702896E+02  0.00000000000E+00 0. -1.
       -2    1    3    3    0  502 -0.33548697347E+02 -0.93120902781E+01 -0.17980892867E+02  0.39186000400E+02  0.00000000000E+00 0.  1.
</event>
<event>
 8   1  0.2279600E-02  0.1983425E+03  0.7546771E-02  0.1151947E+00
       -1   -1    0    0    0  501 -0.00000000000E+00  0.00000000000E+00  0.53942259404E+03  0.53942259404E+03  0.00000000000E+00 0.  1.
        1   -1    0    0  501    0  0.00000000000E+00 -0.00000000000E+00 -0.14771736404E+03  0.14771736404E+03  0.00000000000E+00 0. -1.
       24    2    1    2    0    0  0.17732085598E+03 -0.51600594718E+01  0.44342643078E+03  0.48576408134E+03  0.88715449782E+02 0.  0.
      -24    2    1    2    0    0 -0.17732085598E+03  0.51600594718E+01 -0.51721200777E+02  0.20137587674E+03  0.80049040866E+02 0.  0.
      -13    1    3    3    0    0  0.15040676938E+03 -0.29887047727E+02  0.40339077315E+03  0.43155480273E+03  0.00000000000E+00 0.  1.
       14    1    3    3    0    0  0.26914086603E+02  0.24726988255E+02  0.40035657623E+02  0.54209278608E+02  0.00000000000E+00 0. -1.
        3    1    4    4  502    0 -0.47635471677E+02 -0.13497210954E+01 -0.53326932921E+02  0.71517282412E+02  0.00000000000E+00 0. -1.
       -4    1    4    4    0  502 -0.12968538431E+03  0.65097805672E+01  0.16057321439E+01  0.12985859433E+03  0.00000000000E+00 0.  1.
</event>
<event>
 8   1  0.2279600E-02  0.8739352E+02  0.7546771E-02  0.1310182E+00
        3   -1    0    0  501    0  0.00000000000E+00  0.00000000000E+00  0.28711941209E+03  0.28711941209E+03  0.00000000000E+00 0. -1.
       -3   -1    0    0    0  501 -0.00000000000E+00 -0.00000000000E+00 -0.27047703494E+02  0.27047703494E+02  0.00000000000E+00 0.  1.
       24    2    1    2    0    0 -0.24334949348E+02  0.17883436340E+02  0.10284038292E+03  0.13495840763E+03  0.82009879753E+02 0.  0.
      -24    2    1    2    0    0  0.24334949348E+02 -0.17883436340E+02  0.15723132567E+03  0.17920870795E+03  0.80511267385E+02 0.  0.
      -13    1    3    3    0    0 -0.46314406815E+02 -0.21693666517E+00  0.26227287202E+02  0.53225388060E+02  0.00000000000E+00 0.  1.
       14    1    3    3    0    0  0.21979457467E+02  0.18100373005E+02  0.76613095717E+02  0.81733019574E+02  0.00000000000E+00 0. -1.
        1    1    4    4  502    0  0.53547300144E+02 -0.88648635753E+01  0.11397718502E+03  0.12624063476E+03  0.00000000000E+00 0. -1.
       -2    1    4    4    0  502 -0.29212350796E+02 -0.90185727644E+01  0.43254140653E+02  0.52968073189E+02  0.00000000000E+00 0.  1.
</event>
<event>
 8   1  0.2279600E-02  0.1237000E+03  0.7546771E-02  0.1238251E+00
       -2   -1    0    0    0  501 -0.00000000000E+00  0.00000000000E+00  0.12171301201E+02  0.12171301201E+02  0.00000000000E+00 0.  1.
        2   -1    0    0  501    0  0.00000000000E+00 -0.00000000000E+00 -0.13252906198E+04  0.13252906198E+04  0.00000000000E+00 0. -1.
       24    2    1    2    0    0  0.29358542303E+02  0.87172365943E+02 -0.84423631131E+03  0.85325063750E+03  0.82708860816E+02 0.  0.
      -24    2    1    2    0    0 -0.29358542303E+02 -0.87172365943E+02 -0.46888300727E+03  0.48421128349E+03  0.78411396881E+02 0.  0.
      -13    1    3    3    0    0 -0.18352065254E+02  0.60025189806E+02 -0.57908067639E+03  0.58247253281E+03  0.00000000000E+00 0.  1.
       14    1    3    3    0    0  0.47710607557E+02  0.27147176137E+02 -0.26515563492E+03  0.27077810469E+03  0.00000000000E+00 0. -1.
        3    1    4    4  502    0  0.21308174025E+02 -0.21083248486E+02 -0.21349310870E+03  0.21558721926E+03  0.00000000000E+00 0. -1.
       -4    1    4    4    0  502 -0.50666716328E+02 -0.66089117456E+02 -0.25538989857E+03  0.26862406422E+03  0.00000000000E+00 0.  1.
</event>
<event>
 8   1  0.2279600E-02  0.9537717E+02  0.7546771E-02  0.1290500E+00
       -2   -1    0    0    0  501 -0.00000000000E+00  0.00000000000E+00  0.60169680202E+01  0.60169680202E+01  0.00000000000E+00 0.  1.
        2   -1    0    0  501    0  0.00000000000E+00 -0.00000000000E+00 -0.17694243289E+04  0.17694243289E+04  0.00000000000E+00 0. -1.
      -24    2    1    2    0    0 -0.23591392991E+02 -0.46788067541E+02 -0.53864551053E+03  0.54697135635E+03  0.79328441074E+02 0.  0.
       24    2    1    2    0    0  0.23591392991E+02  0.46788067541E+02 -0.12247618503E+04  0.12284699406E+04  0.79693962949E+02 0.  0.
      -13    1    4    4    0    0  0.15833556598E+02 -0.11531254233E+01 -0.45166629115E+02  0.47875417474E+02  0.00000000000E+00 0.  1.
       14    1    4    4    0    0  0.77578363929E+01  0.47941192965E+02 -0.11795952212E+04  0.11805945231E+04  0.00000000000E+00 0. -1.
        3    1    3    3  502    0  0.24484747355E+02 -0.27927620567E+02 -0.32761855488E+03  0.32971710958E+03  0.00000000000E+00 0. -1.
       -4    1    3    3    0  502 -0.48076140346E+02 -0.18860446974E+02 -0.21102695565E+03  0.21725424677E+03  0.00000000000E+00 0.  1.
</event>
<event>
 8   1  0.2279600E-02  0.8469527E+02  0.7546771E-02  0.1318533E+00
       -2   -1    0    0    0  501 -0.00000000000E+00  0.00000000000E+00  0.50981590232E+01  0.50981590232E+01  0.00000000000E+00 0.  1.
        2   -1    0    0  501    0  0.00000000000E+00 -0.00000000000E+00 -0.25006979133E+04  0.25006979133E+04  0.00000000000E+00 0. -1.
      -24    2    1    2    0    0 -0.26418393351E+01  0.17439975915E+02 -0.41216960419E+03  0.42078150075E+03  0.82838135428E+02 0.  0.
       24    2    1    2    0    0  0.26418393351E+01 -0.17439975915E+02 -0.20834301501E+04  0.20850145716E+04  0.79331212660E+02 0.  0.
      -13    1    4    4    0    0 -0.55979483862E+01  0.29351559573E+02 -0.51594414932E+03  0.51680868442E+03  0.00000000000E+00 0.  1.
       14    1    4    4    0    0  0.82397877212E+01 -0.46791535488E+02 -0.15674860008E+04  0.15682058872E+04  0.00000000000E+00 0. -1.
        1    1    3    3  502    0  0.75537696536E+01  0.20525721326E+02 -0.40911588325E+03  0.40970009836E+03  0.00000000000E+00 0. -1.
       -2    1    3    3    0  502 -0.10195608989E+02 -0.30857454114E+01 -0.30537209466E+01  0.11081402394E+02  0.00000000000E+00 0.  1.
</event>
<event>
 8   1  0.2279600E-02  0.1547301E+03  0.7546771E-02  0.1196020E+00
       -1   -1    0    0    0  501 -0.00000000000E+00  0.00000000000E+00  0.11081675696E+03  0.11081675696E+03  0.00000000000E+00 0.  1.
        1   -1    0    0  501    0  0.00000000000E+00 -0.00000000000E+00 -0.11325745333E+04  0.11325745333E+04  0.00000000000E+00 0. -1.
       24    2    1    2    0    0 -0.42378130210E+02  0.12469788181E+03  0.51418738111E+02  0.15911768708E+03  0.73000575778E+02 0.  0.
      -24    2    1    2    0    0  0.42378130210E+02 -0.12469788181E+03 -0.10731765144E+04  0.10842736032E+04  0.81215440333E+02 0.  0.
      -13    1    3    3    0    0 -0.25658173875E+02  0.11652755054E+03  0.65190856023E+02  0.13596639155E+03  0.00000000000E+00 0.  1.
       14    1    3    3    0    0 -0.16719956335E+02  0.81703312695E+01 -0.13772117912E+02  0.23151295529E+02  0.00000000000E+00 0. -1.
        3    1    4    4  502    0  0.18708597630E+02 -0.92773675575E+02 -0.95318679875E+03  0.95787370766E+03  0.00000000000E+00 0. -1.
       -4    1    4    4    0  502  0.23669532580E+02 -0.31924206234E+02 -0.11998971570E+03  0.12639989553E+03  0.00000000000E+00 0.  1.
</event>
<event>
 8   1  0.2279600E-02  0.8422996E+02  0.7546771E-02  0.1319424E+00
       -2   -1    0    0    0  501 -0.00000000000E+00  0.00000000000E+00  0.10161369865E+04  0.10161369865E+04  0.00000000000E+00 0.  1.
        2   -1    0    0  501    0  0.00000000000E+00 -0.00000000000E+00 -0.43680861323E+02  0.43680861323E+02  0.00000000000E+00 0. -1.
      -24    2    1    2    0    0 -0.13076421765E+02 -0.84520034844E+01  0.97483387193E+03  0.97846602577E+03  0.82778357970E+02 0.  0.
       24    2    1    2    0    0  0.13076421765E+02  0.84520034844E+01 -0.23777467951E+01  0.81351822015E+02  0.79812505889E+02 0.  0.
      -13    1    4    4    0    0  0.44287350402E+01 -0.23275117284E+02  0.27933793422E+02  0.36628426032E+02  0.00000000000E+00 0.  1.
       14    1    4    4    0    0  0.86476867244E+01  0.31727120768E+02 -0.30311540217E+02  0.44723395983E+02  0.00000000000E+00 0. -1.
        1    1    3    3  502    0 -0.10029483188E+02  0.28930385319E+02  0.16844332324E+03  0.17120371162E+03  0.00000000000E+00 0. -1.
       -2    1    3    3    0  502 -0.30469385765E+01 -0.37382388803E+02  0.80639054869E+03  0.80726231415E+03  0.00000000000E+00 0.  1.
</event>
<event>
 8   1  0.2279600E-02  0.9631746E+02  0.7546771E-02  0.1296291E+00
        2   -1    0    0  501    0  0.00000000000E+00  0.00000000000E+00  0.63652385284E+02  0.63652385284E+02  0.00000000000E+00 0. -1.
       -2   -1    0    0    0  501 -0.00000000000E+00 -0.00000000000E+00 -0.18722937338E+03  0.18722937338E+03  0.00000000000E+00 0.  1.
      -24    2    1    2    0    0 -0.37974707454E+02  0.22867318046E+02 -0.13644433218E+03  0.16701529639E+03  0.85510588835E+02 0.  0.
       24    2    1    2    0    0  0.37974707454E+02 -0.22867318046E+02  0.12867344092E+02  0.83866462269E+02  0.70021584592E+02 0.  0.
      -13    1    4    4    0    0  0.19004059629E+02 -0.27546760353E+02 -0.24651032169E+02  0.41565029475E+02  0.00000000000E+00 0.  1.
       14    1    4    4    0    0  0.18970647825E+02  0.46794423070E+01  0.37518376260E+02  0.42301432794E+02  0.00000000000E+00 0. -1.
        1    1    3    3  502    0 -0.68206981505E+01  0.52198240343E+02 -0.86383160352E+02  0.10115942176E+03  0.00000000000E+00 0. -1.
       -2    1    3    3    0  502 -0.31154009303E+02 -0.29330922297E+02 -0.50061171831E+02  0.65855874632E+02  0.00000000000E+00 0.  1.
</event>
<event>
 8   1  0.2279600E-02  0.1067114E+03  0.7546771E-02  0.1267687E+00
        1   -1    0    0  501    0  0.00000000000E+00  0.00000000000E+00  0.20709839384E+03  0.20709839384E+03  0.00000000000E+00 0. -1.
       -1   -1    0    0    0  501 -0.00000000000E+00 -0.00000000000E+00 -0.56169806812E+02  0.56169806812E+02  0.00000000000E+00 0.  1.
       24    2    1    2    0    0  0.68213337599E+02  0.24923859961E+01  0.49154552615E+02  0.11580536877E+03  0.79595489690E+02 0.  0.
      -24    2    1    2    0    0 -0.68213337599E+02 -0.24923859961E+01  0.10177403441E+03  0.14746283188E+03  0.82024760235E+02 0.  0.
      -13    1    3    3    0    0  0.44256285617E+02  0.34401183361E+01 -0.15366009647E+02  0.46974115034E+02  0.00000000000E+00 0.  1.
       14    1    3    3    0    0  0.23957051982E+02 -0.94773234005E+00  0.64520562262E+02  0.68831253736E+02  0.00000000000E+00 0. -1.
        1    1    4    4  502    0 -0.79226790786E+02 -0.23785192475E+02  0.80053310618E+02  0.11511364950E+03  0.00000000000E+00 0. -1.
       -2    1    4    4    0  502  0.11013453187E+02  0.21292806479E+02  0.21720723795E+02  0.32349182386E+02  0.00000000000E+00 0.  1.
</event>
<event>
 8   1  0.2279600E-02  0.8113917E+02  0.7546771E-02  0.1326269E+00
       -1   -1    0    0    0  501 -0.00000000000E+00  0.00000000000E+00  0.57752945417E+01  0.57752945417E+01  0.00000000000E+00 0.  1.
        1   -1    0    0  501    0  0.00000000000E+00 -0.00000000000E+00 -0.12632152638E+04  0.12632152638E+04  0.00000000000E+00 0. -1.
       24    2    1    2    0    0  0.31887472231E+01  0.79068509336E+01 -0.42177786544E+03  0.42939856429E+03  0.80086658313E+02 0.  0.
      -24    2    1    2    0    0 -0.31887472231E+01 -0.79068509336E+01 -0.83566210386E+03  0.83959199410E+03  0.80690013728E+02 0.  0.
      -13    1    3    3    0    0 -0.15661221387E+02  0.11967346664E+02 -0.23574539868E+02  0.30728653916E+02  0.00000000000E+00 0.  1.
       14    1    3    3    0    0  0.18849968610E+02 -0.40604957305E+01 -0.39820332557E+03  0.39866991038E+03  0.00000000000E+00 0. -1.
        1    1    4    4  502    0  0.31897933753E+02 -0.12897968060E+02 -0.62686763273E+03  0.62781116963E+03  0.00000000000E+00 0. -1.
       -2    1    4    4    0  502 -0.35086680976E+02  0.49911171260E+01 -0.20879447114E+03  0.21178082446E+03  0.00000000000E+00 0.  1.
</event>
<event>
 8   1  0.2279600E-02  0.9002867E+02  0.7546771E-02  0.1302843E+00
        2   -1    0    0  501    0  0.00000000000E+00  0.00000000000E+00  0.77095616793E+03  0.77095616793E+03  0.00000000000E+00 0. -1.
       -2   -1    0    0    0  501 -0.00000000000E+00 -0.00000000000E+00 -0.12495393797E+02  0.12495393797E+02  0.00000000000E+00 0.  1.
      -24    2    1    2    0    0 -0.13913694376E+02 -0.38586590371E+02  0.22292449458E+03  0.24041732729E+03  0.80141407083E+02 0.  0.
       24    2    1    2    0    0  0.13913694376E+02  0.38586590371E+02  0.53553627955E+03  0.54303423443E+03  0.80028477482E+02 0.  0.
      -13    1    4    4    0    0 -0.33400221403E+02  0.20676952231E+02  0.22465176205E+03  0.22806035459E+03  0.00000000000E+00 0.  1.
       14    1    4    4    0    0  0.47313915779E+02  0.17909638140E+02  0.31088451749E+03  0.31497387984E+03  0.00000000000E+00 0. -1.
        3    1    3    3  502    0 -0.89988630970E+01 -0.63745959112E+02  0.16144979832E+03  0.17381186443E+03  0.00000000000E+00 0. -1.
       -4    1    3    3    0  502 -0.49148312789E+01  0.25159368741E+02  0.61474696265E+02  0.66605462860E+02  0.00000000000E+00 0.  1.
</event>
<event>
 8   1  0.2279600E-02  0.1019696E+03  0.7546771E-02  0.1277050E+00
        1   -1    0    0  501    0  0.00000000000E+00  0.00000000000E+00  0.24792220976E+04  0.24792220976E+04  0.00000000000E+00 0. -1.
       -1   -1    0    0    0  501 -0.00000000000E+00 -0.00000000000E+00 -0.42142061543E+01  0.42142061543E+01  0.00000000000E+00 0.  1.
       24    2    1    2    0    0 -0.29227378396E+02  0.52808495582E+02  0.10688527331E+04  0.10737057192E+04  0.82187770610E+02 0.  0.
      -24    2    1    2    0    0  0.29227378396E+02 -0.52808495582E+02  0.14061551584E+04  0.14097305845E+04  0.80156189377E+02 0.  0.
      -13    1    3    3    0    0  0.23061686775E+02 -0.43707122133E+01  0.19009799849E+03  0.19154162355E+03  0.00000000000E+00 0.  1.
       14    1    3    3    0    0 -0.52289065171E+02  0.57179207796E+02  0.87875473459E+03  0.88216409568E+03  0.00000000000E+00 0. -1.
        1    1    4    4  502    0  0.35592870016E+02 -0.11927792085E+01  0.26389954473E+03  0.26629165370E+03  0.00000000000E+00 0. -1.
       -2    1    4    4    0  502 -0.63654916198E+01 -0.51615716374E+02  0.11422556136E+04  0.11434389308E+04  0.00000000000E+00 0.  1.
</event>
<event>
 8   1  0.2279600E-02  0.1439158E+03  0.7546771E-02  0.1209567E+00
        2   -1    0    0  501    0  0.00000000000E+00  0.00000000000E+00  0.24637352384E+04  0.24637352384E+04  0.00000000000E+00 0. -1.
       -2   -1    0    0    0  501 -0.00000000000E+00 -0.00000000000E+00 -0.98477899837E+01  0.98477899837E+01  0.00000000000E+00 0.  1.
      -24    2    1    2    0    0 -0.99565247316E+02  0.55982162467E+02  0.69938944742E+03  0.71319245177E+03  0.80315833481E+02 0.  0.
       24    2    1    2    0    0  0.99565247316E+02 -0.55982162467E+02  0.17544980010E+04  0.17603905767E+04  0.87547163020E+02 0.  0.
      -13    1    4    4    0    0  0.48499945510E+02  0.16987400143E+02  0.83838835969E+03  0.83996181946E+03  0.00000000000E+00 0.  1.
       14    1    4    4    0    0  0.51065301806E+02 -0.72969562611E+02  0.91610964134E+03  0.92042875720E+03  0.00000000000E+00 0. -1.
        1    1    3    3  502    0 -0.15521311936E+01  0.25877594780E+02  0.29008382229E+03  0.29123990622E+03  0.00000000000E+00 0. -1.
       -2    1    3    3    0  502 -0.98013116123E+02  0.30104567687E+02  0.40930562514E+03  0.42195254555E+03  0.00000000000E+00 0.  1.
</event>
<event>
 8   1  0.2279600E-02  0.1235419E+03  0.7546771E-02  0.1237473E+00
        4   -1    0    0  501    0  0.00000000000E+00  0.00000000000E+00  0.17804639724E+04  0.17804639724E+04  0.00000000000E+00 0. -1.
       -4   -1    0    0    0  501 -0.00000000000E+00 -0.00000000000E+00 -0.14126131106E+02  0.14126131106E+02  0.00000000000E+00 0.  1.
       24    2    1    2    0    0  0.13864273805E+02  0.92248769722E+02  0.14461609545E+04  0.14514052588E+04  0.80583282026E+02 0.  0.
      -24    2    1    2    0    0 -0.13864273805E+02 -0.92248769722E+02  0.32017688686E+03  0.34318484477E+03  0.80997192542E+02 0.  0.
      -13    1    3    3    0    0  0.12103495362E+02 -0.38874468229E+01  0.40242875717E+02  0.42203031748E+02  0.00000000000E+00 0.  1.
       14    1    3    3    0    0  0.17607784433E+01  0.96136216544E+02  0.14059180787E+04  0.14092022270E+04  0.00000000000E+00 0. -1.
        3    1    4    4  502    0  0.11606016060E+02 -0.28822923923E+02  0.21832659150E+03  0.22052655420E+03  0.00000000000E+00 0. -1.
       -4    1    4    4    0  502 -0.25470289866E+02 -0.63425845799E+02  0.10185029536E+03  0.12265829057E+03  0.00000000000E+00 0.  1.
</event>
<event>
 8   1  0.2279600E-02  0.8435324E+02  0.7546771E-02  0.1319811E+00
        2   -1    0    0  501    0  0.00000000000E+00  0.00000000000E+00  0.57894583550E+02  0.57894583550E+02  0.00000000000E+00 0. -1.
       -2   -1    0    0    0  501 -0.00000000000E+00 -0.00000000000E+00 -0.16842752723E+03  0.16842752723E+03  0.00000000000E+00 0.  1.
      -24    2    1    2    0    0  0.17717160082E+02  0.11682639069E+02 -0.11673062057E+03  0.14174149421E+03  0.77551477012E+02 0.  0.
       24    2    1    2    0    0 -0.17717160082E+02 -0.11682639069E+02  0.61976768881E+01  0.84580616567E+02  0.81639988260E+02 0.  0.
      -13    1    4    4    0    0  0.47895871584E+01  0.31375244536E+02 -0.10144434770E+02  0.33320499270E+02  0.00000000000E+00 0.  1.
       14    1    4    4    0    0 -0.22506747240E+02 -0.43057883605E+02  0.16342111658E+02  0.51260117297E+02  0.00000000000E+00 0. -1.
        1    1    3    3  502    0  0.35672849703E+02 -0.17558873329E+02 -0.34510905829E+02  0.52648540907E+02  0.00000000000E+00 0. -1.
       -2    1    3    3    0  502 -0.17955689621E+02  0.29241512398E+02 -0.82219714740E+02  0.89092953308E+02  0.00000000000E+00 0.  1.
</event>
<event>
 8   1  0.2279600E-02  0.1028496E+03  0.7546771E-02  0.1274633E+00
        2   -1    0    0  501    0  0.00000000000E+00  0.00000000000E+00  0.45515251360E+03  0.45515251360E+03  0.00000000000E+00 0. -1.
       -2   -1    0    0    0  501 -0.00000000000E+00 -0.00000000000E+00 -0.56799515218E+02  0.56799515218E+02  0.00000000000E+00 0.  1.
      -24    2    1    2    0    0 -0.54791178313E+02 -0.35028262816E+02  0.19654735319E+01  0.10243876091E+03  0.79125117589E+02 0.  0.
       24    2    1    2    0    0  0.54791178313E+02  0.35028262816E+02  0.39638752486E+03  0.40951326791E+03  0.79680576806E+02 0.  0.
      -13    1    4    4    0    0  0.35600763788E+01  0.37112203561E+02  0.71816016782E+02  0.80916809523E+02  0.00000000000E+00 0.  1.
       14    1    4    4    0    0  0.51231101934E+02 -0.20839407445E+01  0.32457150807E+03  0.32859645839E+03  0.00000000000E+00 0. -1.
        3    1    3    3  502    0 -0.30136370351E+02 -0.58880833523E+02  0.10785389122E+02  0.67018489933E+02  0.00000000000E+00 0. -1.
       -4    1    3    3    0  502 -0.24654807962E+02  0.23852570707E+02 -0.88199155903E+01  0.35420270976E+02  0.00000000000E+00 0.  1.
</event>
<event>
 8   1  0.2279600E-02  0.1212785E+03  0.7546771E-02  0.1241236E+00
        2   -1    0    0  501    0  0.00000000000E+00  0.00000000000E+00  0.12380657707E+03  0.12380657707E+03  0.00000000000E+00 0. -1.
       -2   -1    0    0    0  501 -0.00000000000E+00 -0.00000000000E+00 -0.12881302119E+03  0.12881302119E+03  0.00000000000E+00 0.  1.
       24    2    1    2    0    0  0.82150104133E+01  0.89491648456E+02  0.33684871724E+02  0.12531877340E+03  0.80584631557E+02 0.  0.
      -24    2    1    2    0    0 -0.82150104133E+01 -0.89491648456E+02 -0.38691315844E+02  0.12730082487E+03  0.81438569189E+02 0.  0.
      -13    1    3    3    0    0 -0.10370632206E+02  0.96980725241E+02  0.16496435083E+02  0.98918873079E+02  0.00000000000E+00 0.  1.
       14    1    3    3    0    0  0.18585642620E+02 -0.74890767850E+01  0.17188436640E+02  0.26399900318E+02  0.00000000000E+00 0. -1.
        1    1    4    4  502    0 -0.16897073443E+01 -0.10062308854E+03 -0.47893571322E+02  0.11145247971E+03  0.00000000000E+00 0. -1.
       -2    1    4    4    0  502 -0.65253030689E+01  0.11131440087E+02  0.92022554783E+01  0.15848345164E+02  0.00000000000E+00 0.  1.
</event>
<event>
 8   1  0.2279600E-02  0.1003971E+03  0.7546771E-02  0.1280624E+00
       -4   -1    0    0    0  501 -0.00000000000E+00  0.00000000000E+00  0.20361196447E+03  0.20361196447E+03  0.00000000000E+00 0.  1.
        4   -1    0    0  501    0  0.00000000000E+00 -0.00000000000E+00 -0.65491850646E+02  0.65491850646E+02  0.00000000000E+00 0. -1.
      -24    2    1    2    0    0  0.42707348819E+02  0.36105443720E+02  0.13717284957E+03  0.16870221543E+03  0.80725003087E+02 0.  0.
       24    2    1    2    0    0 -0.42707348819E+02 -0.36105443720E+02  0.94726425849E+00  0.10040159969E+03  0.83379033341E+02 0.  0.
      -13    1    4    4    0    0  0.20133409359E+02 -0.23020928633E+02  0.15936651823E+02  0.34486145028E+02  0.00000000000E+00 0.  1.
       14    1    4    4    0    0 -0.62840758178E+02 -0.13084515087E+02 -0.14989387564E+02  0.65915454659E+02  0.00000000000E+00 0. -1.
        3    1    3    3  502    0  0.11316345688E+02  0.40938411890E+02  0.19350162276E+02  0.46673783090E+02  0.00000000000E+00 0. -1.
       -4    1    3    3    0  502  0.31391003131E+02 -0.48329681701E+01  0.11782268729E+03  0.12202843234E+03  0.00000000000E+00 0.  1.
</event>
<event>
 8   1  0.2279600E-02  0.8338729E+02  0.7546771E-02  0.1320139E+00
       -2   -1    0    0    0  501 -0.00000000000E+00  0.00000000000E+00  0.15828088411E+02  0.15828088411E+02  0.00000000000E+00 0.  1.
        2   -1    0    0  501    0  0.00000000000E+00 -0.00000000000E+00 -0.50317804873E+03  0.50317804873E+03  0.00000000000E+00 0. -1.
       24    2    1    2    0    0 -0.15748617792E+02 -0.15366707555E+02 -0.33773031806E+03  0.34771843501E+03  0.79763322697E+02 0.  0.
      -24    2    1    2    0    0  0.15748617792E+02  0.15366707555E+02 -0.14961964226E+03  0.17128770213E+03  0.80431864874E+02 0.  0.
      -13    1    3    3    0    0 -0.20125916850E+02 -0.46814267242E+02 -0.20314450347E+03  0.20943809929E+03  0.00000000000E+00 0.  1.
       14    1    3    3    0    0  0.43772990579E+01  0.31447559687E+02 -0.13458581459E+03  0.13828033572E+03  0.00000000000E+00 0. -1.
        3    1    4    4  502    0  0.18847624517E+02 -0.11638401094E+02 -0.14106119149E+03  0.14278986334E+03  0.00000000000E+00 0. -1.
       -4    1    4    4    0  502 -0.30990067254E+01  0.27005108650E+02 -0.85584507756E+01  0.28497838787E+02  0.00000000000E+00 0.  1.
</event>
<event>
 8   1  0.2279600E-02  0.8780046E+02  0.7546771E-02  0.1310261E+00
        1   -1    0    0  501    0  0.00000000000E+00  0.00000000000E+00  0.88112154412E+02  0.88112154412E+02  0.00000000000E+00 0. -1.
       -1   -1    0    0    0  501 -0.00000000000E+00 -0.00000000000E+00 -0.87031569928E+02  0.87031569928E+02  0.00000000000E+00 0.  1.
       24    2    1    2    0    0 -0.29254417055E+02 -0.81341714175E+01 -0.14678599255E+02  0.85940175200E+02  0.79045978870E+02 0.  0.
      -24    2    1    2    0    0  0.29254417055E+02  0.81341714175E+01  0.15759183739E+02  0.89203549140E+02  0.82382860142E+02 0.  0.
      -13    1    3    3    0    0  0.29192835153E+01 -0.38908980032E+02 -0.13870906847E+02  0.41410542138E+02  0.00000000000E+00 0.  1.
       14    1    3    3    0    0 -0.32173700571E+02  0.30774808615E+02 -0.80769240813E+00  0.44529633063E+02  0.00000000000E+00 0. -1.
        3    1    4    4  502    0  0.19239596818E+02  0.33911749502E+02  0.37446473592E+02  0.54059293600E+02  0.00000000000E+00 0. -1.
       -4    1    4    4    0  502  0.10014820237E+02 -0.25777578085E+02 -0.21687289854E+02  0.35144255540E+02  0.00000000000E+00 0.  1.
</event>
<event>
 8   1  0.2279600E-02  0.8486888E+02  0.7546771E-02  0.1315891E+00
       -2   -1    0    0    0  501 -0.00000000000E+00  0.00000000000E+00  0.39860530070E+03  0.39860530070E+03  0.00000000000E+00 0.  1.
        2   -1    0    0  501    0  0.00000000000E+00 -0.00000000000E+00 -0.19431094980E+02  0.19431094980E+02  0.00000000000E+00 0. -1.
      -24    2    1    2    0    0 -0.26243605828E+02  0.46681652493E+01  0.24548102251E+03  0.25968048474E+03  0.80389695414E+02 0.  0.
       24    2    1    2    0    0  0.26243605828E+02 -0.46681652493E+01  0.13369318321E+03  0.15835591094E+03  0.80574243275E+02 0.  0.
      -13    1    4    4    0    0 -0.27015783985E+02 -0.12267404671E+02  0.61884405247E+02  0.68629595762E+02  0.00000000000E+00 0.  1.
       14    1    4    4    0    0  0.53259389812E+02  0.75992394222E+01  0.71808777965E+02  0.89726315181E+02  0.00000000000E+00 0. -1.
        1    1    3    3  502    0  0.11500429684E+02  0.34280944263E+02  0.90958358206E+02  0.97881897969E+02  0.00000000000E+00 0. -1.
       -2    1    3    3    0  502 -0.37744035512E+02 -0.29612779014E+02  0.15452266430E+03  0.16179858677E+03  0.00000000000E+00 0.  1.
</event>
<event>
 8   1  0.2279600E-02  0.1766671E+03  0.7546771E-02  0.1171081E+00
       -2   -1    0    0    0  501 -0.00000000000E+00  0.00000000000E+00  0.33316164185E+02  0.33316164185E+02  0.00000000000E+00 0.  1.
        2   -1    0    0  501    0  0.00000000000E+00 -0.00000000000E+00 -0.95208953222E+03  0.95208953222E+03  0.00000000000E+00 0. -1.
      -24    2    1    2    0    0  0.64568364692E+02  0.14376429586E+03 -0.52241883366E+03  0.55148228498E+03  0.79837499938E+02 0.  0.
       24    2    1    2    0    0 -0.64568364692E+02 -0.14376429586E+03 -0.39635453438E+03  0.43392341143E+03  0.79720534280E+02 0.  0.
      -13    1    4    4    0    0 -0.60813968065E+02 -0.42730385501E+02 -0.14352481644E+03  0.16162796011E+03  0.00000000000E+00 0.  1.
       14    1    4    4    0    0 -0.37543966266E+01 -0.10103391036E+03 -0.25282971794E+03  0.27229545132E+03  0.00000000000E+00 0. -1.
        3    1    3    3  502    0  0.56560403047E+02  0.76698598892E+02 -0.40464583755E+03  0.41571625913E+03  0.00000000000E+00 0. -1.
       -4    1    3    3    0  502  0.80079616446E+01  0.67065696965E+02 -0.11777299612E+03  0.13576602584E+03  0.00000000000E+00 0.  1.
</event>
<event>
 8   1  0.2279600E-02  0.9866250E+02  0.7546771E-02  0.1283213E+00
        1   -1    0    0  501    0  0.00000000000E+00  0.00000000000E+00  0.21176252134E+04  0.21176252134E+04  0.00000000000E+00 0. -1.
       -1   -1    0    0    0  501 -0.00000000000E+00 -0.00000000000E+00 -0.14993025970E+02  0.14993025970E+02  0.00000000000E+00 0.  1.
       24    2    1    2    0    0 -0.53782797143E+02 -0.12466142539E+02  0.16285795806E+03  0.19033650152E+03  0.81592127865E+02 0.  0.
      -24    2    1    2    0    0  0.53782797143E+02  0.12466142539E+02  0.19397742294E+04  0.19422817378E+04  0.81769763817E+02 0.  0.
      -13    1    3    3    0    0 -0.63773254928E+02  0.16855369914E+02  0.12573159679E+03  0.14198438636E+03  0.00000000000E+00 0.  1.
       14    1    3    3    0    0  0.99904577845E+01 -0.29321512453E+02  0.37126361269E+02  0.48352115159E+02  0.00000000000E+00 0. -1.
        1    1    4    4  502    0  0.42351616139E+02  0.21000421356E+02  0.18876159762E+04  0.18882078144E+04  0.00000000000E+00 0. -1.
       -2    1    4    4    0  502  0.11431181004E+02 -0.85342788173E+01  0.52158253212E+02  0.54073923403E+02  0.00000000000E+00 0.  1.
</event>
<event>
 8   1  0.2279600E-02  0.9669498E+02  0.7546771E-02  0.1289397E+00
        2   -1    0    0  501    0  0.00000000000E+00  0.00000000000E+00  0.41862216037E+03  0.41862216037E+03  0.00000000000E+00 0. -1.
       -2   -1    0    0    0  501 -0.00000000000E+00 -0.00000000000E+00 -0.42194572754E+02  0.42194572754E+02  0.00000000000E+00 0.  1.
       24    2    1    2    0    0  0.34152528111E+02 -0.37829641614E+02  0.34767804276E+03  0.35993831180E+03  0.77962105690E+02 0.  0.
      -24    2    1    2    0    0 -0.34152528111E+02  0.37829641614E+02  0.28749544855E+02  0.10087842132E+03  0.82173247460E+02 0.  0.
      -13    1    3    3    0    0  0.23074758164E+02 -0.38343466428E+02  0.77198880913E+02  0.89231906268E+02  0.00000000000E+00 0.  1.
       14    1    3    3    0    0  0.11077769947E+02  0.51382481389E+00  0.27047916185E+03  0.27070640553E+03  0.00000000000E+00 0. -1.
        1    1    4    4  502    0  0.21077797556E+02  0.35300874340E+02  0.83993970448E+01  0.41963974427E+02  0.00000000000E+00 0. -1.
       -2    1    4    4    0  502 -0.55230325666E+02  0.25287672741E+01  0.20350147810E+02  0.58914446896E+02  0.00000000000E+00 0.  1.
</event>
<event>
 8   1  0.2279600E-02  0.1052377E+03  0.7546771E-02  0.1282751E+00
       -2   -1    0    0    0  501 -0.00000000000E+00  0.00000000000E+00  0.17998157555E+02  0.17998157555E+02  0.00000000000E+00 0.  1.
        2   -1    0    0  501    0  0.00000000000E+00 -0.00000000000E+00 -0.67938794583E+03  0.67938794583E+03  0.00000000000E+00 0. -1.
      -24    2    1    2    0    0 -0.10637419458E+01 -0.72637557885E+01 -0.11635493424E+03  0.14228433325E+03  0.81562657336E+02 0.  0.
       24    2    1    2    0    0  0.10637419458E+01  0.72637557885E+01 -0.54503485404E+03  0.55510177014E+03  0.10498137643E+03 0.  0.
      -13    1    4    4    0    0  0.18193064291E+02  0.52710483013E+02 -0.32728693404E+03  0.33200319245E+03  0.00000000000E+00 0.  1.
       14    1    4    4    0    0 -0.17129322345E+02 -0.45446727225E+02 -0.21774792000E+03  0.22309857769E+03  0.00000000000E+00 0. -1.
        3    1    3    3  502    0 -0.40149750614E+02 -0.30456485079E+01 -0.42042398228E+02  0.58213758665E+02  0.00000000000E+00 0. -1.
       -4    1    3    3    0  502  0.39086008668E+02 -0.42181072806E+01 -0.74312536009E+02  0.84070574583E+02  0.00000000000E+00 0.  1.
</event>
<event>
 8   1  0.2279600E-02  0.8751346E+02  0.7546771E-02  0.1309503E+00
        4   -1    0    0  501    0  0.00000000000E+00  0.00000000000E+00  0.33171360509E+03  0.33171360509E+03  0.00000000000E+00 0. -1.
       -4   -1    0    0    0  501 -0.00000000000E+00 -0.00000000000E+00 -0.26265139342E+02  0.26265139342E+02  0.00000000000E+00 0.  1.
      -24    2    1    2    0    0 -0.24251319425E+01  0.33502572604E+02  0.21766915372E+03  0.23460278229E+03  0.80810279930E+02 0.  0.
       24    2    1    2    0    0  0.24251319425E+01 -0.33502572604E+02  0.87779312029E+02  0.12337596214E+03  0.79925695353E+02 0.  0.
      -13    1    4    4    0    0 -0.31787522379E+02  0.81115505427E+01  0.34469652785E+02  0.47585720488E+02  0.00000000000E+00 0.  1.
       14    1    4    4    0    0  0.34212654322E+02 -0.41614123146E+02  0.53309659244E+02  0.75790241652E+02  0.00000000000E+00 0. -1.
        3    1    3    3  502    0  0.77621148793E+01 -0.33412788613E+01  0.18238736118E+03  0.18258303342E+03  0.00000000000E+00 0. -1.
       -4    1    3    3    0  502 -0.10187246822E+02  0.36843851465E+02  0.35281792534E+02  0.52019748875E+02  0.00000000000E+00 0.  1.
</event>
<event>
 8   1  0.2279600E-02  0.1128937E+03  0.7546771E-02  0.1257627E+00
        4   -1    0    0  501    0  0.00000000000E+00  0.00000000000E+00  0.41663917781E+03  0.41663917781E+03  0.00000000000E+00 0. -1.
       -4   -1    0    0    0  501 -0.00000000000E+00 -0.00000000000E+00 -0.36915812988E+02  0.36915812988E+02  0.00000000000E+00 0.  1.
      -24    2    1    2    0    0 -0.14809932971E+02  0.71904178535E+02  0.89872109530E+02  0.14429823640E+03  0.85763861571E+02 0.  0.
       24    2    1    2    0    0  0.14809932971E+02 -0.71904178535E+02  0.28985125529E+03  0.30925675439E+03  0.78971165247E+02 0.  0.
      -13    1    4    4    0    0 -0.10630159435E+02  0.11206239593E+02  0.90106459925E+02  0.91420753747E+02  0.00000000000E+00 0.  1.
       14    1    4    4    0    0  0.25440092406E+02 -0.83110418127E+02  0.19974479536E+03  0.21783600065E+03  0.00000000000E+00 0. -1.
        1    1    3    3  502    0 -0.41308843274E+02  0.21107436845E+02  0.69361621498E+02  0.83444466321E+02  0.00000000000E+00 0. -1.
       -2    1    3    3    0  502  0.26498910303E+02  0.50796741690E+02  0.20510488032E+02  0.60853770079E+02  0.00000000000E+00 0.  1.
</event>
<event>
 8   1  0.2279600E-02  0.8785595E+02  0.7546771E-02  0.1309604E+00
       -1   -1    0    0    0  501 -0.00000000000E+00  0.00000000000E+00  0.23243698271E+02  0.23243698271E+02  0.00000000000E+00 0.  1.
        1   -1    0    0  501    0  0.00000000000E+00 -0.00000000000E+00 -0.38455512152E+03  0.38455512152E+03  0.00000000000E+00 0. -1.
       24    2    1    2    0    0 -0.11120730389E+02 -0.27961155052E+02 -0.97274582680E+02  0.12952895005E+03  0.80061898739E+02 0.  0.
      -24    2    1    2    0    0  0.11120730389E+02  0.27961155052E+02 -0.26403684057E+03  0.27826986973E+03  0.82541931102E+02 0.  0.
      -13    1    3    3    0    0  0.14572166277E+02 -0.38866076652E+02 -0.92264640453E+02  0.10117155639E+03  0.00000000000E+00 0.  1.
       14    1    3    3    0    0 -0.25692896666E+02  0.10904921601E+02 -0.50099422273E+01  0.28357393663E+02  0.00000000000E+00 0. -1.
        1    1    4    4  502    0  0.47166363841E+01  0.48768318250E+01 -0.25081589032E+03  0.25090763437E+03  0.00000000000E+00 0. -1.
       -2    1    4    4    0  502  0.64040940050E+01  0.23084323227E+02 -0.13220950247E+02  0.27362235367E+02  0.00000000000E+00 0.  1.
</event>
<event>
 8   1  0.2279600E-02  0.8281436E+02  0.7546771E-02  0.1322071E+00
        1   -1    0    0  501    0  0.00000000000E+00  0.00000000000E+00  0.12992614993E+04  0.12992614993E+04  0.00000000000E+00 0. -1.
       -1   -1    0    0    0  501 -0.00000000000E+00 -0.00000000000E+00 -0.54685648286E+01  0.54685648286E+01  0.00000000000E+00 0.  1.
       24    2    1    2    0    0 -0.12774382635E+02 -0.52615722876E+01  0.78638833227E+03  0.79061174320E+03  0.80432893453E+02 0.  0.
      -24    2    1    2    0    0  0.12774382635E+02  0.52615722876E+01  0.50740460219E+03  0.51411832093E+03  0.81653833909E+02 0.  0.
      -13    1    3    3    0    0 -0.31595127648E+02 -0.26517232269E+02  0.64959793265E+03  0.65090620661E+03  0.00000000000E+00 0.  1.
       14    1    3    3    0    0  0.18820745013E+02  0.21255659981E+02  0.13679039962E+03  0.13970553658E+03  0.00000000000E+00 0. -1.
        1    1    4    4  502    0  0.46389318913E+02  0.73649047381E+01  0.35096719890E+03  0.35409629401E+03  0.00000000000E+00 0. -1.
       -2    1    4    4    0  502 -0.33614936277E+02 -0.21033324505E+01  0.15643740329E+03  0.16002202691E+03  0.00000000000E+00 0.  1.
</event>
<event>
 8   1  0.2279600E-02  0.9050920E+02  0.7546771E-02  0.1301836E+00
        2   -1    0    0  501    0  0.00000000000E+00  0.00000000000E+00  0.93552861519E+03  0.93552861519E+03  0.00000000000E+00 0. -1.
       -2   -1    0    0    0  501 -0.00000000000E+00 -0.00000000000E+00 -0.94894615889E+01  0.94894615889E+01  0.00000000000E+00 0.  1.
      -24    2    1    2    0    0 -0.40909533801E+02 -0.74958488956E+00  0.32950279686E+03  0.34170749024E+03  0.80732669422E+02 0.  0.
       24    2    1    2    0    0  0.40909533801E+02  0.74958488956E+00  0.59653635674E+03  0.60331058654E+03  0.80336088321E+02 0.  0.
      -13    1    4    4    0    0  0.52782975018E+02  0.36535237133E+01  0.20938651260E+03  0.21596782710E+03  0.00000000000E+00 0.  1.
       14    1    4    4    0    0 -0.11873441217E+02 -0.29039388237E+01  0.38714984414E+03  0.38734275944E+03  0.00000000000E+00 0. -1.
        1    1    3    3  502    0 -0.58682874961E+02 -0.15458382829E+02  0.16920615216E+03  0.17975918153E+03  0.00000000000E+00 0. -1.
       -2    1    3    3    0  502  0.17773341161E+02  0.14708797939E+02  0.16029664470E+03  0.16194830871E+03  0.00000000000E+00 0.  1.
</event>
<event>
 8   1  0.2279600E-02  0.1284299E+03  0.7546771E-02  0.1231782E+00
       -2   -1    0    0    0  501 -0.00000000000E+00  0.00000000000E+00  0.11110205947E+03  0.11110205947E+03  0.00000000000E+00 0.  1.
        2   -1    0    0  501    0  0.00000000000E+00 -0.00000000000E+00 -0.39707914436E+03  0.39707914436E+03  0.00000000000E+00 0. -1.
       24    2    1    2    0    0 -0.68922088848E+02  0.65178615340E+02 -0.34743762962E+03  0.37041481274E+03  0.86577830854E+02 0.  0.
      -24    2    1    2    0    0  0.68922088848E+02 -0.65178615340E+02  0.61460544732E+02  0.13776639108E+03  0.78763403458E+02 0.  0.
      -13    1    3    3    0    0 -0.69864942863E+02  0.62670636303E+02 -0.18038560783E+03  0.20334130522E+03  0.00000000000E+00 0.  1.
       14    1    3    3    0    0  0.94285401537E+00  0.25079790375E+01 -0.16705202179E+03  0.16707350753E+03  0.00000000000E+00 0. -1.
        1    1    4    4  502    0 -0.93148084287E+01 -0.20310388978E+02 -0.82055335002E+01  0.23803536219E+02  0.00000000000E+00 0. -1.
       -2    1    4    4    0  502  0.78236897276E+02 -0.44868226362E+02  0.69666078233E+02  0.11396285486E+03  0.00000000000E+00 0.  1.
</event>
<event>
 8   1  0.2279600E-02  0.9032580E+02  0.7546771E-02  0.1302126E+00
       -2   -1    0    0    0  501 -0.00000000000E+00  0.00000000000E+00  0.35758970015E+01  0.35758970015E+01  0.00000000000E+00 0.  1.
        2   -1    0    0  501    0  0.00000000000E+00 -0.00000000000E+00 -0.24809248946E+04  0.24809248946E+04  0.00000000000E+00 0. -1.
       24    2    1    2    0    0 -0.40236130816E+02  0.11584279902E+02 -0.15936969576E+04  0.15962545985E+04  0.80035046564E+02 0.  0.
      -24    2    1    2    0    0  0.40236130816E+02 -0.11584279902E+02 -0.88365204001E+03  0.88824619315E+03  0.79920148101E+02 0.  0.
      -13    1    3    3    0    0  0.17549644572E+02  0.82420104798E+01 -0.88024121694E+03  0.88045472386E+03  0.00000000000E+00 0.  1.
       14    1    3    3    0    0 -0.57785775388E+02  0.33422694221E+01 -0.71345574067E+03  0.71579987461E+03  0.00000000000E+00 0. -1.
        1    1    4    4  502    0  0.13900447845E+02 -0.15269222492E+02 -0.80414267258E+03  0.80440773832E+03  0.00000000000E+00 0. -1.
       -2    1    4    4    0  502  0.26335682971E+02  0.36849425903E+01 -0.79509367421E+02  0.83838454824E+02  0.00000000000E+00 0.  1.
</event>
<event>
 8   1  0.2279600E-02  0.8956178E+02  0.7546771E-02  0.1305152E+00
        1   -1    0    0  501    0  0.00000000000E+00  0.00000000000E+00  0.83724879961E+03  0.83724879961E+03  0.00000000000E+00 0. -1.
       -1   -1    0    0    0  501 -0.00000000000E+00 -0.00000000000E+00 -0.11914198099E+02  0.11914198099E+02  0.00000000000E+00 0.  1.
       24    2    1    2    0    0 -0.38149585842E+02  0.14165940615E+02  0.21270649873E+03  0.23002286488E+03  0.77526763091E+02 0.  0.
      -24    2    1    2    0    0  0.38149585842E+02 -0.14165940615E+02  0.61262810279E+03  0.61914013283E+03  0.79782497962E+02 0.  0.
      -13    1    3    3    0    0 -0.47882528928E+02 -0.99820182264E+01  0.72740122112E+02  0.87655590976E+02  0.00000000000E+00 0.  1.
       14    1    3    3    0    0  0.97329430869E+01  0.24147958841E+02  0.13996637661E+03  0.14236727391E+03  0.00000000000E+00 0. -1.
        3    1    4    4  502    0  0.73135741010E+01  0.17259222340E+02  0.45753840552E+03  0.45792222227E+03  0.00000000000E+00 0. -1.
       -4    1    4    4    0  502  0.30836011741E+02 -0.31425162955E+02  0.15508969727E+03  0.16121791056E+03  0.00000000000E+00 0.  1.
</event>
<event>
 8   1  0.2279600E-02  0.9477928E+02  0.7546771E-02  0.1292743E+00
        2   -1    0    0  501    0  0.00000000000E+00  0.00000000000E+00  0.57431885073E+02  0.57431885073E+02  0.00000000000E+00 0. -1.
       -2   -1    0    0    0  501 -0.00000000000E+00 -0.00000000000E+00 -0.10480372976E+04  0.10480372976E+04  0.00000000000E+00 0.  1.
      -24    2    1    2    0    0 -0.23676929923E+02  0.44456022799E+02 -0.10067235270E+04  0.10111752427E+04  0.80288085105E+02 0.  0.
       24    2    1    2    0    0  0.23676929923E+02 -0.44456022799E+02  0.16118114404E+02  0.94293940066E+02  0.78068037939E+02 0.  0.
      -13    1    4    4    0    0  0.23431117878E+02  0.13231424878E+02  0.24016570625E+02  0.36067763362E+02  0.00000000000E+00 0.  1.
       14    1    4    4    0    0  0.24581204434E+00 -0.57687447676E+02 -0.78984562206E+01  0.58226176705E+02  0.00000000000E+00 0. -1.
        1    1    3    3  502    0 -0.12853795419E+02 -0.20774886168E+02 -0.15773097228E+03  0.15961163983E+03  0.00000000000E+00 0. -1.
       -2    1    3    3    0  502 -0.10823134504E+02  0.65230908967E+02 -0.84899255470E+03  0.85156360282E+03  0.00000000000E+00 0.  1.
</event>
<event>
 8   1  0.2279600E-02  0.8667296E+02  0.7546771E-02  0.1311135E+00
       -1   -1    0    0    0  501 -0.00000000000E+00  0.00000000000E+00  0.19192907515E+03  0.19192907515E+03  0.00000000000E+00 0.  1.
        1   -1    0    0  501    0  0.00000000000E+00 -0.00000000000E+00 -0.12241985699E+03  0.12241985699E+03  0.00000000000E+00 0. -1.
       24    2    1    2    0    0 -0.24383659102E+02  0.14218118566E+02  0.16439966215E+03  0.18583279475E+03  0.81913741000E+02 0.  0.
      -24    2    1    2    0    0  0.24383659102E+02 -0.14218118566E+02 -0.94890443985E+02  0.12851613739E+03  0.81948053568E+02 0.  0.
      -13    1    3    3    0    0 -0.32082136449E+02  0.11923689760E+02  0.17163943806E+03  0.17501866916E+03  0.00000000000E+00 0.  1.
       14    1    3    3    0    0  0.76984773466E+01  0.22944288065E+01 -0.72397759149E+01  0.10814125591E+02  0.00000000000E+00 0. -1.
        1    1    4    4  502    0  0.13828977236E+02  0.24406700082E+02 -0.81663153741E+02  0.86346964621E+02  0.00000000000E+00 0. -1.
       -2    1    4    4    0  502  0.10554681866E+02 -0.38624818648E+02 -0.13227290243E+02  0.42169172770E+02  0.00000000000E+00 0.  1.
</event>
<event>
 8   1  0.2279600E-02  0.1145393E+03  0.7546771E-02  0.1253687E+00
       -2   -1    0    0    0  501 -0.00000000000E+00  0.00000000000E+00  0.52348639157E+01  0.52348639157E+01  0.00000000000E+00 0.  1.
        2   -1    0    0  501    0  0.00000000000E+00 -0.00000000000E+00 -0.25583785704E+04  0.25583785704E+04  0.00000000000E+00 0. -1.
      -24    2    1    2    0    0 -0.80844951946E+02 -0.17387368354E+02 -0.15334658214E+04  0.15375226744E+04  0.74968807042E+02 0.  0.
       24    2    1    2    0    0  0.80844951946E+02  0.17387368354E+02 -0.10196778851E+04  0.10260907599E+04  0.79252958558E+02 0.  0.
      -13    1    4    4    0    0  0.52593397834E+02 -0.25759508325E+02 -0.39913484260E+03  0.40340827996E+03  0.00000000000E+00 0.  1.
       14    1    4    4    0    0  0.28251554112E+02  0.43146876679E+02 -0.62054304246E+03  0.62268247994E+03  0.00000000000E+00 0. -1.
        1    1    3    3  502    0 -0.24662500306E+02  0.10435923595E+02 -0.10041267454E+04  0.10044837820E+04  0.00000000000E+00 0. -1.
       -2    1    3    3    0  502 -0.56182451640E+02 -0.27823291949E+02 -0.52933907599E+03  0.53303889241E+03  0.00000000000E+00 0.  1.
</event>
<event>
 8   1  0.2279600E-02  0.2482532E+03  0.7546771E-02  0.1114590E+00
        1   -1    0    0  501    0  0.00000000000E+00  0.00000000000E+00  0.23976254673E+03  0.23976254673E+03  0.00000000000E+00 0. -1.
       -1   -1    0    0    0  501 -0.00000000000E+00 -0.00000000000E+00 -0.27801998372E+03  0.27801998372E+03  0.00000000000E+00 0.  1.
       24    2    1    2    0    0  0.35003348809E+02  0.23180342165E+03 -0.92106925193E+02  0.26375614722E+03  0.78265949261E+02 0.  0.
      -24    2    1    2    0    0 -0.35003348809E+02 -0.23180342165E+03  0.53849488204E+02  0.25402638323E+03  0.81679711559E+02 0.  0.
      -13    1    3    3    0    0 -0.16998681826E+02  0.10443436669E+03 -0.62969879990E+02  0.12312878589E+03  0.00000000000E+00 0.  1.
       14    1    3    3    0    0  0.52002030635E+02  0.12736905496E+03 -0.29137045203E+02  0.14062736133E+03  0.00000000000E+00 0. -1.
        3    1    4    4  502    0  0.23089674900E+02 -0.10773000480E+03  0.35774544105E+02  0.11583913426E+03  0.00000000000E+00 0. -1.
       -4    1    4    4    0  502 -0.58093023708E+02 -0.12407341685E+03  0.18074944099E+02  0.13818724897E+03  0.00000000000E+00 0.  1.
</event>
<event>
 8   1  0.2279600E-02  0.8925469E+02  0.7546771E-02  0.1304715E+00
        2   -1    0    0  501    0  0.00000000000E+00  0.00000000000E+00  0.22250877118E+04  0.22250877118E+04  0.00000000000E+00 0. -1.
       -2   -1    0    0    0  501 -0.00000000000E+00 -0.00000000000E+00 -0.36879577345E+01  0.36879577345E+01  0.00000000000E+00 0.  1.
       24    2    1    2    0    0 -0.26007300382E+02 -0.30368771991E+02  0.13044019093E+04  0.13074520031E+04  0.79798229732E+02 0.  0.
      -24    2    1    2    0    0  0.26007300382E+02  0.30368771991E+02  0.91699784473E+03  0.92132366639E+03  0.79709529052E+02 0.  0.
      -13    1    3    3    0    0  0.10700536573E+02 -0.46323095393E+02  0.58005823850E+03  0.58200334252E+03  0.00000000000E+00 0.  1.
       14    1    3    3    0    0 -0.36707836955E+02  0.15954323402E+02  0.72434367082E+03  0.72544866061E+03  0.00000000000E+00 0. -1.
        1    1    4    4  502    0 -0.10493377971E+02 -0.13183663513E+02  0.52068844757E+03  0.52096101524E+03  0.00000000000E+00 0. -1.
       -2    1    4    4    0  502  0.36500678352E+02  0.43552435505E+02  0.39630939716E+03  0.40036265115E+03  0.00000000000E+00 0.  1.
</event>
<event>
 8   1  0.2279600E-02  0.8917793E+02  0.7546771E-02  0.1305847E+00
       -2   -1    0    0    0  501 -0.00000000000E+00  0.00000000000E+00  0.28987091770E+01  0.28987091770E+01  0.00000000000E+00 0.  1.
        2   -1    0    0  501    0  0.00000000000E+00 -0.00000000000E+00 -0.29961044013E+04  0.29961044013E+04  0.00000000000E+00 0. -1.
      -24    2    1    2    0    0  0.34737892977E+02  0.85867318618E+00 -0.10086281320E+04  0.10124229347E+04  0.80386760992E+02 0.  0.
       24    2    1    2    0    0 -0.34737892977E+02 -0.85867318618E+00 -0.19845775601E+04  0.19865801758E+04  0.82129437234E+02 0.  0.
      -13    1    4    4    0    0 -0.48271650694E+02  0.29028701870E+02 -0.12830389206E+04  0.12842747719E+04  0.00000000000E+00 0.  1.
       14    1    4    4    0    0  0.13533757717E+02 -0.29887375056E+02 -0.70153863943E+03  0.70230540394E+03  0.00000000000E+00 0. -1.
        3    1    3    3  502    0  0.16501314502E+02 -0.19524677631E+01 -0.96383365355E+03  0.96397687587E+03  0.00000000000E+00 0. -1.
       -4    1    3    3    0  502  0.18236578475E+02  0.28111409493E+01 -0.44794478504E+02  0.48446058791E+02  0.00000000000E+00 0.  1.
</event>
<event>
 8   1  0.2279600E-02  0.9108780E+02  0.7546771E-02  0.1301289E+00
        2   -1    0    0  501    0  0.00000000000E+00  0.00000000000E+00  0.36877287586E+04  0.36877287586E+04  0.00000000000E+00 0. -1.
       -2   -1    0    0    0  501 -0.00000000000E+00 -0.00000000000E+00 -0.23612003057E+01  0.23612003057E+01  0.00000000000E+00 0.  1.
      -24    2    1    2    0    0 -0.26585928943E+02  0.27377105036E+02  0.13878729959E+04  0.13908588860E+04  0.82708345775E+02 0.  0.
       24    2    1    2    0    0  0.26585928943E+02 -0.27377105036E+02  0.22974945624E+04  0.22992310730E+04  0.80783321182E+02 0.  0.
      -13    1    4    4    0    0 -0.12868870493E+02 -0.34264087024E+02  0.52053358607E+03  0.52181879012E+03  0.00000000000E+00 0.  1.
       14    1    4    4    0    0  0.39454799435E+02  0.68869819880E+01  0.17769609764E+04  0.17774122828E+04  0.00000000000E+00 0. -1.
        1    1    3    3  502    0 -0.12739022508E+02 -0.13498735662E+01  0.12150948330E+04  0.12151623588E+04  0.00000000000E+00 0. -1.
       -2    1    3    3    0  502 -0.13846906435E+02  0.28726978602E+02  0.17277816283E+03  0.17569652720E+03  0.00000000000E+00 0.  1.
</event>
<event>
 8   1  0.2279600E-02  0.9684751E+02  0.7546771E-02  0.1287640E+00
       -2   -1    0    0    0  501 -0.00000000000E+00  0.00000000000E+00  0.85625445330E+02  0.85625445330E+02  0.00000000000E+00 0.  1.
        2   -1    0    0  501    0  0.00000000000E+00 -0.00000000000E+00 -0.10917552490E+03  0.10917552490E+03  0.00000000000E+00 0. -1.
       24    2    1    2    0    0 -0.16555031341E+02 -0.50537149442E+02 -0.20190743175E+02  0.98929801682E+02  0.80940515284E+02 0.  0.
      -24    2    1    2    0    0  0.16555031341E+02  0.50537149442E+02 -0.33593363939E+01  0.95871168547E+02  0.79698954078E+02 0.  0.
      -13    1    3    3    0    0 -0.28601114091E+01 -0.66244572621E+02  0.46934403932E+01  0.66472189837E+02  0.00000000000E+00 0.  1.
       14    1    3    3    0    0 -0.13694919932E+02  0.15707423179E+02 -0.24884183568E+02  0.32457611846E+02  0.00000000000E+00 0. -1.
        3    1    4    4  502    0  0.55501244605E+01  0.61712906475E+02  0.22253932349E+02  0.65837103613E+02  0.00000000000E+00 0. -1.
       -4    1    4    4    0  502  0.11004906881E+02 -0.11175757034E+02 -0.25613268743E+02  0.30034064934E+02  0.00000000000E+00 0.  1.
</event>
<event>
 8   1  0.2279600E-02  0.1242129E+03  0.7546771E-02  0.1237066E+00
       -2   -1    0    0    0  501 -0.00000000000E+00  0.00000000000E+00  0.12374839430E+03  0.12374839430E+03  0.00000000000E+00 0.  1.
        2   -1    0    0  501    0  0.00000000000E+00 -0.00000000000E+00 -0.30237879748E+03  0.30237879748E+03  0.00000000000E+00 0. -1.
      -24    2    1    2    0    0 -0.90142011372E+02  0.25415843058E+02  0.74613640038E+02  0.14490008920E+03  0.81592237857E+02 0.  0.
       24    2    1    2    0    0  0.90142011372E+02 -0.25415843058E+02 -0.25324404322E+03  0.28122710258E+03  0.78642167479E+02 0.  0.
      -13    1    4    4    0    0  0.20062405626E+02 -0.28941425582E+02 -0.27066135313E+02  0.44414883936E+02  0.00000000000E+00 0.  1.
       14    1    4    4    0    0  0.70079605747E+02  0.35255825239E+01 -0.22617790790E+03  0.23681221864E+03  0.00000000000E+00 0. -1.
        1    1    3    3  502    0 -0.10150818428E+02  0.29818783491E+01 -0.17754360765E+02  0.20667560074E+02  0.00000000000E+00 0. -1.
       -2    1    3    3    0  502 -0.79991192944E+02  0.22433964709E+02  0.92368000803E+02  0.12423252913E+03  0.00000000000E+00 0.  1.
</event>
<event>
 8   1  0.2279600E-02  0.8348479E+02  0.7546771E-02  0.1320324E+00
        2   -1    0    0  501    0  0.00000000000E+00  0.00000000000E+00  0.38050311495E+02  0.38050311495E+02  0.00000000000E+00 0. -1.
       -2   -1    0    0    0  501 -0.00000000000E+00 -0.00000000000E+00 -0.21025786499E+03  0.21025786499E+03  0.00000000000E+00 0.  1.
       24    2    1    2    0    0 -0.23568640441E+02  0.46854004598E+01 -0.38676097260E+02  0.90826878277E+02  0.78589105661E+02 0.  0.
      -24    2    1    2    0    0  0.23568640441E+02 -0.46854004598E+01 -0.13353145623E+03  0.15748129821E+03  0.79951708494E+02 0.  0.
      -13    1    3    3    0    0 -0.52448068624E+02  0.66647462489E+01 -0.29025808465E+02  0.60313483584E+02  0.00000000000E+00 0.  1.
       14    1    3    3    0    0  0.28879428183E+02 -0.19793457891E+01 -0.96502887946E+01  0.30513394694E+02  0.00000000000E+00 0. -1.
        3    1    4    4  502    0  0.44604877955E+02  0.68013992427E+01 -0.38003896856E+02  0.58992799097E+02  0.00000000000E+00 0. -1.
       -4    1    4    4    0  502 -0.21036237514E+02 -0.11486799702E+02 -0.95527559377E+02  0.98488499108E+02  0.00000000000E+00 0.  1.
</event>
<event>
 8   1  0.2279600E-02  0.8491090E+02  0.7546771E-02  0.1316489E+00
       -2   -1    0    0    0  501 -0.00000000000E+00  0.00000000000E+00  0.29043625641E+03  0.29043625641E+03  0.00000000000E+00 0.  1.
        2   -1    0    0  501    0  0.00000000000E+00 -0.00000000000E+00 -0.36909497276E+02  0.36909497276E+02  0.00000000000E+00 0. -1.
       24    2    1    2    0    0  0.66031328654E+01 -0.24745247473E+02  0.31089251114E+02  0.89252692765E+02  0.79646550426E+02 0.  0.
      -24    2    1    2    0    0 -0.66031328654E+01  0.24745247473E+02  0.22243750802E+03  0.23809306092E+03  0.80956358912E+02 0.  0.
      -13    1    3    3    0    0  0.33646070422E+02 -0.17690738021E+01  0.40361210945E+02  0.52575802665E+02  0.00000000000E+00 0.  1.
       14    1    3    3    0    0 -0.27042937557E+02 -0.22976173671E+02 -0.92719598311E+01  0.36676890100E+02  0.00000000000E+00 0. -1.
        1    1    4    4  502    0 -0.31846060731E+02  0.36536824782E+02  0.18607625070E+03  0.19228489859E+03  0.00000000000E+00 0. -1.
       -2    1    4    4    0  502  0.25242927865E+02 -0.11791577309E+02  0.36361257317E+02  0.45808162333E+02  0.00000000000E+00 0.  1.
</event>
<event>
 8   1  0.2279600E-02  0.1041205E+03  0.7546771E-02  0.1285151E+00
       -1   -1    0    0    0  501 -0.00000000000E+00  0.00000000000E+00  0.14768283118E+02  0.14768283118E+02  0.00000000000E+00 0.  1.
        1   -1    0    0  501    0  0.00000000000E+00 -0.00000000000E+00 -0.62938061159E+03  0.62938061159E+03  0.00000000000E+00 0. -1.
       24    2    1    2    0    0  0.36409829629E+01 -0.84755110583E+01 -0.25239700624E+03  0.27302989941E+03  0.10371107061E+03 0.  0.
      -24    2    1    2    0    0 -0.36409829629E+01  0.84755110583E+01 -0.36221532223E+03  0.37111899530E+03  0.80276260301E+02 0.  0.
      -13    1    3    3    0    0  0.46292455194E+02 -0.29566164973E+02 -0.15882641513E+03  0.16805647760E+03  0.00000000000E+00 0.  1.
       14    1    3    3    0    0 -0.42651472231E+02  0.21090653915E+02 -0.93570591111E+02  0.10497342181E+03  0.00000000000E+00 0. -1.
        3    1    4    4  502    0 -0.19706276398E+02  0.35836801084E+02 -0.11875908354E+03  0.12560387560E+03  0.00000000000E+00 0. -1.
       -4    1    4    4    0  502  0.16065293435E+02 -0.27361290026E+02 -0.24345623870E+03  0.24551511971E+03  0.00000000000E+00 0.  1.
</event>
<event>
 8   1  0.2279600E-02  0.8643493E+02  0.7546771E-02  0.1312298E+00
       -4   -1    0    0    0  501 -0.00000000000E+00  0.00000000000E+00  0.18172630659E+03  0.18172630659E+03  0.00000000000E+00 0.  1.
        4   -1    0    0  501    0  0.00000000000E+00 -0.00000000000E+00 -0.63700394638E+02  0.63700394638E+02  0.00000000000E+00 0. -1.
       24    2    1    2    0    0 -0.19424003996E+02 -0.25129223711E+02 -0.14549224905E+02  0.87650884103E+02  0.80387982454E+02 0.  0.
      -24    2    1    2    0    0  0.19424003996E+02  0.25129223711E+02  0.13257513686E+03  0.15777581712E+03  0.79424629313E+02 0.  0.
      -13    1    3    3    0    0 -0.37085837753E+02  0.16841427899E+02 -0.41379963877E+01  0.40940396549E+02  0.00000000000E+00 0.  1.
       14    1    3    3    0    0  0.17661833756E+02 -0.41970651610E+02 -0.10411228517E+02  0.46710487553E+02  0.00000000000E+00 0. -1.
        3    1    4    4  502    0  0.43322590900E+02 -0.35506455255E+01  0.44950224524E+02  0.62529806098E+02  0.00000000000E+00 0. -1.
       -4    1    4    4    0  502 -0.23898586903E+02  0.28679869236E+02  0.87624912331E+02  0.95246011026E+02  0.00000000000E+00 0.  1.
</event>
<event>
 8   1  0.2279600E-02  0.9180533E+02  0.7546771E-02  0.1305407E+00
       -1   -1    0    0    0  501 -0.00000000000E+00  0.00000000000E+00  0.50436162057E+02  0.50436162057E+02  0.00000000000E+00 0.  1.
        1   -1    0    0  501    0  0.00000000000E+00 -0.00000000000E+00 -0.15014337363E+03  0.15014337363E+03  0.00000000000E+00 0. -1.
       24    2    1    2    0    0 -0.12659600944E+02 -0.60201430955E+01 -0.34456612186E+02  0.87948012849E+02  0.79693708797E+02 0.  0.
      -24    2    1    2    0    0  0.12659600944E+02  0.60201430955E+01 -0.65250599383E+02  0.11263152283E+03  0.90728780423E+02 0.  0.
      -13    1    3    3    0    0 -0.10050599993E+01 -0.14517551790E+02  0.23819764511E+02  0.27913269908E+02  0.00000000000E+00 0.  1.
       14    1    3    3    0    0 -0.11654540945E+02  0.84974086950E+01 -0.58276376696E+02  0.60034742941E+02  0.00000000000E+00 0. -1.
        3    1    4    4  502    0  0.42008313338E+02  0.31771089814E+02 -0.34979579823E+02  0.63227142448E+02  0.00000000000E+00 0. -1.
       -4    1    4    4    0  502 -0.29348712394E+02 -0.25750946719E+02 -0.30271019560E+02  0.49404380386E+02  0.00000000000E+00 0.  1.
</event>
<event>
 8   1  0.2279600E-02  0.8912007E+02  0.7546771E-02  0.1307334E+00
       -1   -1    0    0    0  501 -0.00000000000E+00  0.00000000000E+00  0.17981714418E+02  0.17981714418E+02  0.00000000000E+00 0.  1.
        1   -1    0    0  501    0  0.00000000000E+00 -0.00000000000E+00 -0.50704840280E+03  0.50704840280E+03  0.00000000000E+00 0. -1.
       24    2    1    2    0    0  0.12326219892E+02 -0.33125827012E+02 -0.13359236669E+03  0.15855449633E+03  0.77738997644E+02 0.  0.
      -24    2    1    2    0    0 -0.12326219892E+02  0.33125827012E+02 -0.35547432169E+03  0.36647562089E+03  0.81811559179E+02 0.  0.
      -13    1    3    3    0    0  0.26466583755E+02 -0.42115972831E+02 -0.41008466890E+02  0.64466499671E+02  0.00000000000E+00 0.  1.
       14    1    3    3    0    0 -0.14140363862E+02  0.89901458186E+01 -0.92583899803E+02  0.94087996656E+02  0.00000000000E+00 0. -1.
        3    1    4    4  502    0  0.12956968697E+02  0.51143020739E+02 -0.27891353897E+03  0.28385956710E+03  0.00000000000E+00 0. -1.
       -4    1    4    4    0  502 -0.25283188589E+02 -0.18017193726E+02 -0.76560782712E+02  0.82616053794E+02  0.00000000000E+00 0.  1.
</event>
<event>
 8   1  0.2279600E-02  0.1322882E+03  0.7546771E-02  0.1224274E+00
        2   -1    0    0  501    0  0.00000000000E+00  0.00000000000E+00  0.11188493091E+04  0.11188493091E+04  0.00000000000E+00 0. -1.
       -2   -1    0    0    0  501 -0.00000000000E+00 -0.00000000000E+00 -0.76810724900E+02  0.76810724900E+02  0.00000000000E+00 0.  1.
      -24    2    1    2    0    0  0.78737411092E+02  0.68809195811E+02 -0.12921199070E+02  0.13243836680E+03  0.80241375120E+02 0.  0.
       24    2    1    2    0    0 -0.78737411092E+02 -0.68809195811E+02  0.10549597833E+04  0.10632216673E+04  0.81030142277E+02 0.  0.
      -13    1    4    4    0    0 -0.89477233804E+02 -0.44507778832E+02  0.67785670612E+03  0.68518379416E+03  0.00000000000E+00 0.  1.
       14    1    4    4    0    0  0.10739822712E+02 -0.24301416979E+02  0.37710307719E+03  0.37803787309E+03  0.00000000000E+00 0. -1.
        3    1    3    3  502    0  0.52183523427E+02  0.85426998409E+02 -0.14091958366E+02  0.10109142132E+03  0.00000000000E+00 0. -1.
       -4    1    3    3    0  502  0.26553887665E+02 -0.16617802598E+02  0.11707592967E+01  0.31346945476E+02  0.00000000000E+00 0.  1.
</event>
<event>
 8   1  0.2279600E-02  0.8461887E+02  0.7546771E-02  0.1316541E+00
       -1   -1    0    0    0  501 -0.00000000000E+00  0.00000000000E+00  0.25008231525E+02  0.25008231525E+02  0.00000000000E+00 0.  1.
        1   -1    0    0  501    0  0.00000000000E+00 -0.00000000000E+00 -0.70323990210E+03  0.70323990210E+03  0.00000000000E+00 0. -1.
       24    2    1    2    0    0  0.25402005619E+02  0.55134128936E+01 -0.58429219406E+02  0.10269603184E+03  0.80354475072E+02 0.  0.
      -24    2    1    2    0    0 -0.25402005619E+02 -0.55134128936E+01 -0.61980245117E+03  0.62555210178E+03  0.80527597508E+02 0.  0.
      -13    1    3    3    0    0  0.52474158583E+02  0.14266181643E+02 -0.47546376771E+02  0.72233781583E+02  0.00000000000E+00 0.  1.
       14    1    3    3    0    0 -0.27072152965E+02 -0.87527687496E+01 -0.10882842635E+02  0.30462250257E+02  0.00000000000E+00 0. -1.
        1    1    4    4  502    0 -0.17192653642E+02  0.35171319701E+02 -0.39626825214E+03  0.39819735901E+03  0.00000000000E+00 0. -1.
       -2    1    4    4    0  502 -0.82093519768E+01 -0.40684732595E+02 -0.22353419903E+03  0.22735474277E+03  0.00000000000E+00 0.  1.
</event>
<event>
 8   1  0.2279600E-02  0.8106860E+02  0.7546771E-02  0.1326727E+00
        2   -1    0    0  501    0  0.00000000000E+00  0.00000000000E+00  0.26961712170E+04  0.26961712170E+04  0.00000000000E+00 0. -1.
       -2   -1    0    0    0  501 -0.00000000000E+00 -0.00000000000E+00 -0.24593720550E+01  0.24593720550E+01  0.00000000000E+00 0.  1.
      -24    2    1    2    0    0 -0.13997494801E+01 -0.23830260784E+01  0.11606750113E+04  0.11635027290E+04  0.81021480964E+02 0.  0.
       24    2    1    2    0    0  0.13997494801E+01  0.23830260784E+01  0.15330368336E+04  0.15351278600E+04  0.80049830431E+02 0.  0.
      -13    1    4    4    0    0 -0.31609628197E+01 -0.13508482665E+02  0.47141013620E+02  0.49140064662E+02  0.00000000000E+00 0.  1.
       14    1    4    4    0    0  0.45607122998E+01  0.15891508743E+02  0.14858958200E+04  0.14859877954E+04  0.00000000000E+00 0. -1.
        3    1    3    3  502    0  0.60452096353E+01  0.27112672103E+02  0.97152648049E+03  0.97192352777E+03  0.00000000000E+00 0. -1.
       -4    1    3    3    0  502 -0.74449591154E+01 -0.29495698182E+02  0.18914853085E+03  0.19157920124E+03  0.00000000000E+00 0.  1.
</event>
<event>
 8   1  0.2279600E-02  0.1540614E+03  0.7546771E-02  0.1195601E+00
        1   -1    0    0  501    0  0.00000000000E+00  0.00000000000E+00  0.77517653275E+03  0.77517653275E+03  0.00000000000E+00 0. -1.
       -1   -1    0    0    0  501 -0.00000000000E+00 -0.00000000000E+00 -0.73072225368E+02  0.73072225368E+02  0.00000000000E+00 0.  1.
       24    2    1    2    0    0  0.12144616173E+03 -0.52156932333E+02  0.27642860694E+02  0.15641556653E+03  0.78944194940E+02 0.  0.
      -24    2    1    2    0    0 -0.12144616173E+03  0.52156932333E+02  0.67446144669E+03  0.69183319159E+03  0.79154318427E+02 0.  0.
      -13    1    3    3    0    0  0.91506960817E+02 -0.68438568203E+02  0.29086142117E+01  0.11430582458E+03  0.00000000000E+00 0.  1.
       14    1    3    3    0    0  0.29939200918E+02  0.16281635870E+02  0.24734246482E+02  0.42109741952E+02  0.00000000000E+00 0. -1.
        3    1    4    4  502    0 -0.84377307957E+02  0.72300735121E+02  0.51798298109E+03  0.52976720840E+03  0.00000000000E+00 0. -1.
       -4    1    4    4    0  502 -0.37068853777E+02 -0.20143802788E+02  0.15647846559E+03  0.16206598318E+03  0.00000000000E+00 0.  1.
</event>
<event>
 8   1  0.2279600E-02  0.1169187E+03  0.7546771E-02  0.1248289E+00
        1   -1    0    0  501    0  0.00000000000E+00  0.00000000000E+00  0.22357578692E+03  0.22357578692E+03  0.00000000000E+00 0. -1.
       -1   -1    0    0    0  501 -0.00000000000E+00 -0.00000000000E+00 -0.61117278997E+02  0.61117278997E+02  0.00000000000E+00 0.  1.
       24    2    1    2    0    0  0.41002444413E+02 -0.72526142555E+02  0.81114879276E+02  0.14226142157E+03  0.81960030650E+02 0.  0.
      -24    2    1    2    0    0 -0.41002444413E+02  0.72526142555E+02  0.81343628651E+02  0.14243164436E+03  0.82028931420E+02 0.  0.
      -13    1    3    3    0    0  0.46199302029E+02 -0.44097506417E+01  0.46425757978E+02  0.65644286975E+02  0.00000000000E+00 0.  1.
       14    1    3    3    0    0 -0.51968576160E+01 -0.68116391913E+02  0.34689121299E+02  0.76617134591E+02  0.00000000000E+00 0. -1.
        3    1    4    4  502    0  0.75371249024E+01  0.20046920951E+02 -0.12240813546E+02  0.24668295597E+02  0.00000000000E+00 0. -1.
       -4    1    4    4    0  502 -0.48539569315E+02  0.52479221604E+02  0.93584442197E+02  0.11776334876E+03  0.00000000000E+00 0.  1.
</event>
<event>
 8   1  0.2279600E-02  0.1051626E+03  0.7546771E-02  0.1272967E+00
        2   -1    0    0  501    0  0.00000000000E+00  0.00000000000E+00  0.10009116122E+03  0.10009116122E+03  0.00000000000E+00 0. -1.
       -2   -1    0    0    0  501 -0.00000000000E+00 -0.00000000000E+00 -0.11248025537E+03  0.11248025537E+03  0.00000000000E+00 0.  1.
      -24    2    1    2    0    0 -0.54076261099E+02  0.17088561850E+02  0.22735914212E+02  0.10759226386E+03  0.88560219556E+02 0.  0.
       24    2    1    2    0    0  0.54076261099E+02 -0.17088561850E+02 -0.35125008360E+02  0.10497915273E+03  0.81059208827E+02 0.  0.
      -13    1    4    4    0    0 -0.19332697421E+02  0.41081081785E+01 -0.17874236106E+02  0.26648040430E+02  0.00000000000E+00 0.  1.
       14    1    4    4    0    0  0.73408958520E+02 -0.21196670029E+02 -0.17250772254E+02  0.78331112303E+02  0.00000000000E+00 0. -1.
        1    1    3    3  502    0  0.14434352127E+02 -0.13812703643E+02  0.25487891937E+02  0.32384779429E+02  0.00000000000E+00 0. -1.
       -2    1    3    3    0  502 -0.68510613226E+02  0.30901265493E+02 -0.27519777248E+01  0.75207484435E+02  0.00000000000E+00 0.  1.
</event>
<event>
 8   1  0.2279600E-02  0.9641586E+02  0.7546771E-02  0.1288204E+00
       -2   -1    0    0    0  501 -0.00000000000E+00  0.00000000000E+00  0.22706283941E+02  0.22706283941E+02  0.00000000000E+00 0.  1.
        2   -1    0    0  501    0  0.00000000000E+00 -0.00000000000E+00 -0.49087398682E+03  0.49087398682E+03  0.00000000000E+00 0. -1.
      -24    2    1    2    0    0  0.24194809168E+02  0.46973383526E+02 -0.12889738421E+03  0.16096755273E+03  0.80648185511E+02 0.  0.
       24    2    1    2    0    0 -0.24194809168E+02 -0.46973383526E+02 -0.33927031867E+03  0.35261271803E+03  0.80246446867E+02 0.  0.
      -13    1    4    4    0    0 -0.17612901313E+02 -0.10555685970E+02 -0.13115400982E+02  0.24364944939E+02  0.00000000000E+00 0.  1.
       14    1    4    4    0    0 -0.65819078545E+01 -0.36417697556E+02 -0.32615491769E+03  0.32824777309E+03  0.00000000000E+00 0. -1.
        1    1    3    3  502    0  0.47185601715E+02  0.98296832841E+01 -0.91688768205E+02  0.10358539423E+03  0.00000000000E+00 0. -1.
       -2    1    3    3    0  502 -0.22990792547E+02  0.37143700242E+02 -0.37208616005E+02  0.57382158504E+02  0.00000000000E+00 0.  1.
</event>
<event>
 8   1  0.2279600E-02  0.8087045E+02  0.7546771E-02  0.1326922E+00
        2   -1    0    0  501    0  0.00000000000E+00  0.00000000000E+00  0.11508909073E+04  0.11508909073E+04  0.00000000000E+00 0. -1.
       -2   -1    0    0    0  501 -0.00000000000E+00 -0.00000000000E+00 -0.81486250331E+01  0.81486250331E+01  0.00000000000E+00 0.  1.
      -24    2    1    2    0    0  0.16532450814E+02 -0.11357784603E+02  0.24934990002E+03  0.26199439469E+03  0.77867637754E+02 0.  0.
       24    2    1    2    0    0 -0.16532450814E+02  0.11357784603E+02  0.89339238227E+03  0.89704513766E+03  0.78343532642E+02 0.  0.
      -13    1    4    4    0    0 -0.10547715168E+00  0.23316313674E+02  0.78260992183E+02  0.81660544366E+02  0.00000000000E+00 0.  1.
       14    1    4    4    0    0 -0.16426973662E+02 -0.11958529071E+02  0.81513139009E+03  0.81538459330E+03  0.00000000000E+00 0. -1.
        1    1    3    3  502    0  0.28096671848E+02  0.27483626472E+02  0.13849038611E+03  0.14395957675E+03  0.00000000000E+00 0. -1.
       -2    1    3    3    0  502 -0.11564221035E+02 -0.38841411075E+02  0.11085951391E+03  0.11803481794E+03  0.00000000000E+00 0.  1.
</event>
<event>
 8   1  0.2279600E-02  0.8649253E+02  0.7546771E-02  0.1313207E+00
       -2   -1    0    0    0  501 -0.00000000000E+00  0.00000000000E+00  0.33115405998E+01  0.33115405998E+01  0.00000000000E+00 0.  1.
        2   -1    0    0  501    0  0.00000000000E+00 -0.00000000000E+00 -0.25176710026E+04  0.25176710026E+04  0.00000000000E+00 0. -1.
      -24    2    1    2    0    0 -0.12251157428E+02  0.18530310645E+02 -0.82132583637E+03  0.82586747529E+03  0.83591231447E+02 0.  0.
       24    2    1    2    0    0  0.12251157428E+02 -0.18530310645E+02 -0.16930336256E+04  0.16951150679E+04  0.80986249968E+02 0.  0.
      -13    1    4    4    0    0 -0.29266405450E+02 -0.27470023379E+02 -0.67101786391E+03  0.67221729995E+03  0.00000000000E+00 0.  1.
       14    1    4    4    0    0  0.41517562878E+02  0.89397127347E+01 -0.10220157617E+04  0.10228977680E+04  0.00000000000E+00 0. -1.
        3    1    3    3  502    0  0.14693326609E+02 -0.19938479825E+02 -0.54622704507E+03  0.54678827858E+03  0.00000000000E+00 0. -1.
       -4    1    3    3    0  502 -0.26944484036E+02  0.38468790470E+02 -0.27509879131E+03  0.27907919671E+03  0.00000000000E+00 0.  1.
</event>
<event>
 8   1  0.2279600E-02  0.9923940E+02  0.7546771E-02  0.1282494E+00
        1   -1    0    0  501    0  0.00000000000E+00  0.00000000000E+00  0.63507362296E+02  0.63507362296E+02  0.00000000000E+00 0. -1.
       -1   -1    0    0    0  501 -0.00000000000E+00 -0.00000000000E+00 -0.33720160663E+03  0.33720160663E+03  0.00000000000E+00 0.  1.
       24    2    1    2    0    0 -0.21269468710E+02 -0.52293182062E+02 -0.28513451375E+03  0.30191082928E+03  0.81617955872E+02 0.  0.
      -24    2    1    2    0    0  0.21269468710E+02  0.52293182062E+02  0.11440269412E+02  0.98798139641E+02  0.80269704391E+02 0.  0.
      -13    1    3    3    0    0 -0.32510874843E+02 -0.60760360533E+02 -0.27744229420E+03  0.28587235789E+03  0.00000000000E+00 0.  1.
       14    1    3    3    0    0  0.11241406132E+02  0.84671784711E+01 -0.76922195455E+01  0.16038471393E+02  0.00000000000E+00 0. -1.
        1    1    4    4  502    0  0.34908668156E+02  0.97073296194E+01  0.33132247921E+02  0.49097792344E+02  0.00000000000E+00 0. -1.
       -2    1    4    4    0  502 -0.13639199445E+02  0.42585852443E+02 -0.21691978510E+02  0.49700347297E+02  0.00000000000E+00 0.  1.
</event>
<event>
 8   1  0.2279600E-02  0.2237306E+03  0.7546771E-02  0.1131159E+00
        2   -1    0    0  501    0  0.00000000000E+00  0.00000000000E+00  0.71173289404E+03  0.71173289404E+03  0.00000000000E+00 0. -1.
       -2   -1    0    0    0  501 -0.00000000000E+00 -0.00000000000E+00 -0.12275266603E+03  0.12275266603E+03  0.00000000000E+00 0.  1.
       24    2    1    2    0    0 -0.18337832646E+03  0.10146617164E+03  0.56733632533E+03  0.60985727378E+03  0.78309601865E+02 0.  0.
      -24    2    1    2    0    0  0.18337832646E+03 -0.10146617164E+03  0.21643902679E+02  0.22462828629E+03  0.77887186844E+02 0.  0.
      -13    1    3    3    0    0 -0.60340312181E+02 -0.16193933704E+01  0.11489183213E+03  0.12978331480E+03  0.00000000000E+00 0.  1.
       14    1    3    3    0    0 -0.12303801428E+03  0.10308556501E+03  0.45244449320E+03  0.48007395899E+03  0.00000000000E+00 0. -1.
        3    1    4    4  502    0  0.16057300239E+03 -0.51458625197E+02  0.15743958012E+02  0.16935038063E+03  0.00000000000E+00 0. -1.
       -4    1    4    4    0  502  0.22805324070E+02 -0.50007546447E+02  0.58999446674E+01  0.55277905664E+02  0.00000000000E+00 0.  1.
</event>
<event>
 8   1  0.2279600E-02  0.1222863E+03  0.7546771E-02  0.1239558E+00
       -2   -1    0    0    0  501 -0.00000000000E+00  0.00000000000E+00  0.51425460450E+02  0.51425460450E+02  0.00000000000E+00 0.  1.
        2   -1    0    0  501    0  0.00000000000E+00 -0.00000000000E+00 -0.45190335319E+03  0.45190335319E+03  0.00000000000E+00 0. -1.
      -24    2    1    2    0    0  0.41709941349E+02 -0.79698716380E+02 -0.49218810181E+02  0.13139213858E+03  0.82157155538E+02 0.  0.
       24    2    1    2    0    0 -0.41709941349E+02  0.79698716380E+02 -0.35125908256E+03  0.37193667506E+03  0.82839257434E+02 0.  0.
      -13    1    4    4    0    0 -0.42672763258E+02  0.24209144627E+02 -0.26402842544E+03  0.26854805315E+03  0.00000000000E+00 0.  1.
       14    1    4    4    0    0  0.96282190927E+00  0.55489571753E+02 -0.87230657117E+02  0.10338862191E+03  0.00000000000E+00 0. -1.
        1    1    3    3  502    0  0.96248260143E+01 -0.66392134196E+02 -0.64846120159E+02  0.93303655119E+02  0.00000000000E+00 0. -1.
       -2    1    3    3    0  502  0.32085115335E+02 -0.13306582184E+02  0.15627309978E+02  0.38088483465E+02  0.00000000000E+00 0.  1.
</event>
<event>
 8   1  0.2279600E-02  0.8194038E+02  0.7546771E-02  0.1336526E+00
        1   -1    0    0  501    0  0.00000000000E+00  0.00000000000E+00  0.94694068721E+02  0.94694068721E+02  0.00000000000E+00 0. -1.
       -1   -1    0    0    0  501 -0.00000000000E+00 -0.00000000000E+00 -0.57382864862E+02  0.57382864862E+02  0.00000000000E+00 0.  1.
       24    2    1    2    0    0  0.79924913713E+00  0.33226423745E+00  0.12864754282E+02  0.66567552343E+02  0.65306875010E+02 0.  0.
      -24    2    1    2    0    0 -0.79924913713E+00 -0.33226423745E+00  0.24446449577E+02  0.85509381239E+02  0.81935805265E+02 0.  0.
      -13    1    3    3    0    0 -0.31932357764E+02  0.19716491540E+01  0.10653830523E+02  0.33720423746E+02  0.00000000000E+00 0.  1.
       14    1    3    3    0    0  0.32731606901E+02 -0.16393849166E+01  0.22109237584E+01  0.32847128598E+02  0.00000000000E+00 0. -1.
        3    1    4    4  502    0 -0.13510367166E+02  0.28136452311E+02  0.39944140982E+02  0.50692448830E+02  0.00000000000E+00 0. -1.
       -4    1    4    4    0  502  0.12711118029E+02 -0.28468716549E+02 -0.15497691405E+02  0.34816932409E+02  0.00000000000E+00 0.  1.
</event>
<event>
 8   1  0.2279600E-02  0.1213605E+03  0.7546771E-02  0.1245226E+00
        2   -1    0    0  501    0  0.00000000000E+00  0.00000000000E+00  0.21395350318E+03  0.21395350318E+03  0.00000000000E+00 0. -1.
       -2   -1    0    0    0  501 -0.00000000000E+00 -0.00000000000E+00 -0.14043784718E+03  0.14043784718E+03  0.00000000000E+00 0.  1.
       24    2    1    2    0    0 -0.53897600913E+02  0.73497223610E+02  0.16741687616E+03  0.20094492675E+03  0.63589778281E+02 0.  0.
      -24    2    1    2    0    0  0.53897600913E+02 -0.73497223610E+02 -0.93901220163E+02  0.15344642361E+03  0.80134714754E+02 0.  0.
      -13    1    3    3    0    0 -0.27383404745E+02  0.45537168039E+02  0.36474117251E+02  0.64450335590E+02  0.00000000000E+00 0.  1.
       14    1    3    3    0    0 -0.26514196168E+02  0.27960055571E+02  0.13094275891E+03  0.13649459116E+03  0.00000000000E+00 0. -1.
        3    1    4    4  502    0  0.17287606062E+02  0.95485118456E+01 -0.47656117974E+02  0.51586247995E+02  0.00000000000E+00 0. -1.
       -4    1    4    4    0  502  0.36609994850E+02 -0.83045735456E+02 -0.46245102189E+02  0.10186017562E+03  0.00000000000E+00 0.  1.
</event>
<event>
 8   1  0.2279600E-02  0.1128380E+03  0.7546771E-02  0.1264162E+00
       -2   -1    0    0    0  501 -0.00000000000E+00  0.00000000000E+00  0.10450803798E+02  0.10450803798E+02  0.00000000000E+00 0.  1.
        2   -1    0    0  501    0  0.00000000000E+00 -0.00000000000E+00 -0.16361938736E+04  0.16361938736E+04  0.00000000000E+00 0. -1.
      -24    2    1    2    0    0  0.46011933281E+02 -0.19078169897E+02 -0.27012383346E+03  0.28633738172E+03  0.80877291002E+02 0.  0.
       24    2    1    2    0    0 -0.46011933281E+02  0.19078169897E+02 -0.13556192363E+04  0.13603072956E+04  0.10124895133E+03 0.  0.
      -13    1    4    4    0    0 -0.66338011538E+02 -0.19573105004E+02 -0.82634383917E+03  0.82923336809E+03  0.00000000000E+00 0.  1.
       14    1    4    4    0    0  0.20326078257E+02  0.38651274901E+02 -0.52927539714E+03  0.53107392755E+03  0.00000000000E+00 0. -1.
        1    1    3    3  502    0  0.35215071914E+02  0.21277838317E+02 -0.20411026334E+03  0.20821586705E+03  0.00000000000E+00 0. -1.
       -2    1    3    3    0  502  0.10796861367E+02 -0.40356008214E+02 -0.66013570121E+02  0.78121514671E+02  0.00000000000E+00 0.  1.
</event>
<event>
 8   1  0.2279600E-02  0.1488218E+03  0.7546771E-02  0.1201953E+00
        1   -1    0    0  501    0  0.00000000000E+00  0.00000000000E+00  0.60527309088E+03  0.60527309088E+03  0.00000000000E+00 0. -1.
       -1   -1    0    0    0  501 -0.00000000000E+00 -0.00000000000E+00 -0.41205016547E+02  0.41205016547E+02  0.00000000000E+00 0.  1.
       24    2    1    2    0    0 -0.39941048085E+02  0.11891549102E+03  0.17357769767E+03  0.22858977970E+03  0.79924269956E+02 0.  0.
      -24    2    1    2    0    0  0.39941048085E+02 -0.11891549102E+03  0.39049037667E+03  0.41788832773E+03  0.80073334236E+02 0.  0.
      -13    1    3    3    0    0 -0.28631721749E+02 -0.46793614816E+00  0.38131904743E+02  0.47686859971E+02  0.00000000000E+00 0.  1.
       14    1    3    3    0    0 -0.11309326336E+02  0.11938342717E+03  0.13544579293E+03  0.18090291973E+03  0.00000000000E+00 0. -1.
        3    1    4    4  502    0  0.59800105253E+02 -0.53557344091E+02  0.19920165332E+03  0.21476903962E+03  0.00000000000E+00 0. -1.
       -4    1    4    4    0  502 -0.19859057168E+02 -0.65358146931E+02  0.19128872335E+03  0.20311928811E+03  0.00000000000E+00 0.  1.
</event>
<event>
 8   1  0.2279600E-02  0.8878406E+02  0.7546771E-02  0.1307053E+00
       -1   -1    0    0    0  501 -0.00000000000E+00  0.00000000000E+00  0.14562220342E+03  0.14562220342E+03  0.00000000000E+00 0.  1.
        1   -1    0    0  501    0  0.00000000000E+00 -0.00000000000E+00 -0.16427182966E+03  0.16427182966E+03  0.00000000000E+00 0. -1.
       24    2    1    2    0    0 -0.26822570372E+02  0.29772769128E+02  0.11820031768E+03  0.14783072669E+03  0.79225883347E+02 0.  0.
      -24    2    1    2    0    0  0.26822570372E+02 -0.29772769128E+02 -0.13684994392E+03  0.16206330639E+03  0.77011298292E+02 0.  0.
      -13    1    3    3    0    0 -0.25704455732E+02  0.55923470141E+02  0.92817428486E+02  0.11136978310E+03  0.00000000000E+00 0.  1.
       14    1    3    3    0    0 -0.11181146404E+01 -0.26150701013E+02  0.25382889191E+02  0.36460943591E+02  0.00000000000E+00 0. -1.
        3    1    4    4  502    0 -0.77193039080E+01 -0.13431746836E+02 -0.11879419015E+03  0.11980007968E+03  0.00000000000E+00 0. -1.
       -4    1    4    4    0  502  0.34541874280E+02 -0.16341022292E+02 -0.18055753765E+02  0.42263226715E+02  0.00000000000E+00 0.  1.
</event>
<event>
 8   1  0.2279600E-02  0.8903133E+02  0.7546771E-02  0.1306661E+00
        2   -1    0    0  501    0  0.00000000000E+00  0.00000000000E+00  0.39377340138E+03  0.39377340138E+03  0.00000000000E+00 0. -1.
       -2   -1    0    0    0  501 -0.00000000000E+00 -0.00000000000E+00 -0.26278963096E+02  0.26278963096E+02  0.00000000000E+00 0.  1.
       24    2    1    2    0    0 -0.21789635211E+02 -0.18136307316E+02  0.28774569961E+03  0.30052647085E+03  0.81944238331E+02 0.  0.
      -24    2    1    2    0    0  0.21789635211E+02  0.18136307316E+02  0.79748738679E+02  0.11952589362E+03  0.84397062034E+02 0.  0.
      -13    1    3    3    0    0 -0.31191232163E+02 -0.25193681431E+02  0.58167697759E+02  0.70647686519E+02  0.00000000000E+00 0.  1.
       14    1    3    3    0    0  0.94015969521E+01  0.70573741157E+01  0.22957800185E+03  0.22987878434E+03  0.00000000000E+00 0. -1.
        1    1    4    4  502    0  0.44887884967E+02 -0.10806680601E+02  0.64859723670E+02  0.79614636324E+02  0.00000000000E+00 0. -1.
       -2    1    4    4    0  502 -0.23098249756E+02  0.28942987916E+02  0.14889015009E+02  0.39911257300E+02  0.00000000000E+00 0.  1.
</event>
<event>
 8   1  0.2279600E-02  0.9363940E+02  0.7546771E-02  0.1296749E+00
       -2   -1    0    0    0  501 -0.00000000000E+00  0.00000000000E+00  0.83967012757E+01  0.83967012757E+01  0.00000000000E+00 0.  1.
        2   -1    0    0  501    0  0.00000000000E+00 -0.00000000000E+00 -0.18215836265E+04  0.18215836265E+04  0.00000000000E+00 0. -1.
      -24    2    1    2    0    0 -0.46637663352E+02  0.49139777945E+01 -0.27994364723E+03  0.29388030289E+03  0.76144389034E+02 0.  0.
       24    2    1    2    0    0  0.46637663352E+02 -0.49139777945E+01 -0.15332432780E+04  0.15361000249E+04  0.81050096361E+02 0.  0.
      -13    1    4    4    0    0  0.27432074388E+01 -0.24697148053E+02 -0.15199242250E+03  0.15401029449E+03  0.00000000000E+00 0.  1.
       14    1    4    4    0    0  0.43894455913E+02  0.19783170258E+02 -0.13812508555E+04  0.13820897304E+04  0.00000000000E+00 0. -1.
        3    1    3    3  502    0 -0.12169623421E+02  0.29636181866E+02 -0.20728656205E+03  0.20974775759E+03  0.00000000000E+00 0. -1.
       -4    1    3    3    0  502 -0.34468039931E+02 -0.24722204071E+02 -0.72657085180E+02  0.84132545294E+02  0.00000000000E+00 0.  1.
</event>
<event>
 8   1  0.2279600E-02  0.8636715E+02  0.7546771E-02  0.1311959E+00
        1   -1    0    0  501    0  0.00000000000E+00  0.00000000000E+00  0.21435491210E+03  0.21435491210E+03  0.00000000000E+00 0. -1.
       -1   -1    0    0    0  501 -0.00000000000E+00 -0.00000000000E+00 -0.34760629449E+02  0.34760629449E+02  0.00000000000E+00 0.  1.
       24    2    1    2    0    0  0.21744263919E+02  0.21831565595E+02  0.88843510942E+02  0.12383590442E+03  0.80577487651E+02 0.  0.
      -24    2    1    2    0    0 -0.21744263919E+02 -0.21831565595E+02  0.90750771711E+02  0.12527963714E+03  0.80683670250E+02 0.  0.
      -13    1    3    3    0    0  0.51082568414E+02  0.44763407404E+01  0.61934566284E+02  0.80407443206E+02  0.00000000000E+00 0.  1.
       14    1    3    3    0    0 -0.29338304495E+02  0.17355224855E+02  0.26908944658E+02  0.43428461209E+02  0.00000000000E+00 0. -1.
        1    1    4    4  502    0 -0.19594440307E+02  0.28571988091E+02  0.26662771266E+02  0.43717318834E+02  0.00000000000E+00 0. -1.
       -2    1    4    4    0  502 -0.21498236120E+01 -0.50403553686E+02  0.64088000444E+02  0.81562318302E+02  0.00000000000E+00 0.  1.
</event>
<event>
 8   1  0.2279600E-02  0.8584242E+02  0.7546771E-02  0.1313258E+00
        2   -1    0    0  501    0  0.00000000000E+00  0.00000000000E+00  0.49464705459E+03  0.49464705459E+03  0.00000000000E+00 0. -1.
       -2   -1    0    0    0  501 -0.00000000000E+00 -0.00000000000E+00 -0.20211346113E+02  0.20211346113E+02  0.00000000000E+00 0.  1.
      -24    2    1    2    0    0 -0.17008984056E+02  0.23276184358E+02  0.10519376001E+03  0.13577425772E+03  0.80856883555E+02 0.  0.
       24    2    1    2    0    0  0.17008984056E+02 -0.23276184358E+02  0.36924194847E+03  0.37908414298E+03  0.80833685148E+02 0.  0.
      -13    1    4    4    0    0 -0.31493253415E+02 -0.19751440198E+02  0.16359947787E+03  0.16776988275E+03  0.00000000000E+00 0.  1.
       14    1    4    4    0    0  0.48502237471E+02 -0.35247441598E+01  0.20564247060E+03  0.21131426023E+03  0.00000000000E+00 0. -1.
        3    1    3    3  502    0  0.25793551062E+02  0.30690717533E+02  0.34961454268E+02  0.53193333263E+02  0.00000000000E+00 0. -1.
       -4    1    3    3    0  502 -0.42802535118E+02 -0.74145331750E+01  0.70232305739E+02  0.82580924457E+02  0.00000000000E+00 0.  1.
</event>
<event>
 8   1  0.2279600E-02  0.1215919E+03  0.7546771E-02  0.1241026E+00
       -1   -1    0    0    0  501 -0.00000000000E+00  0.00000000000E+00  0.11079202078E+03  0.11079202078E+03  0.00000000000E+00 0.  1.
        1   -1    0    0  501    0  0.00000000000E+00 -0.00000000000E+00 -0.44690183076E+03  0.44690183076E+03  0.00000000000E+00 0. -1.
       24    2    1    2    0    0 -0.90163479345E+02 -0.33257930878E+01  0.66276590085E+02  0.13733758154E+03  0.79551939034E+02 0.  0.
      -24    2    1    2    0    0  0.90163479345E+02  0.33257930878E+01 -0.40238640007E+03  0.42035627000E+03  0.81511133353E+02 0.  0.
      -13    1    3    3    0    0 -0.95387558090E+02 -0.23193610275E+02  0.62709712038E+02  0.11648707130E+03  0.00000000000E+00 0.  1.
       14    1    3    3    0    0  0.52240787454E+01  0.19867817187E+02  0.35668780470E+01  0.20850510246E+02  0.00000000000E+00 0. -1.
        1    1    4    4  502    0  0.30789835962E+02 -0.37043436003E+02 -0.19621643441E+03  0.20204237001E+03  0.00000000000E+00 0. -1.
       -2    1    4    4    0  502  0.59373643383E+02  0.40369229091E+02 -0.20616996566E+03  0.21831389998E+03  0.00000000000E+00 0.  1.
</event>
<event>
 8   1  0.2279600E-02  0.9316522E+02  0.7546771E-02  0.1295416E+00
        1   -1    0    0  501    0  0.00000000000E+00  0.00000000000E+00  0.27545390367E+04  0.27545390367E+04  0.00000000000E+00 0. -1.
       -1   -1    0    0    0  501 -0.00000000000E+00 -0.00000000000E+00 -0.22716596034E+02  0.22716596034E+02  0.00000000000E+00 0.  1.
       24    2    1    2    0    0 -0.44109665070E+02 -0.17060091517E+02  0.77178254328E+02  0.12098033514E+03  0.80268607021E+02 0.  0.
      -24    2    1    2    0    0  0.44109665070E+02  0.17060091517E+02  0.26546441864E+04  0.26562752976E+04  0.80162281023E+02 0.  0.
      -13    1    3    3    0    0 -0.40692804674E+02 -0.20510124781E+02  0.93466654716E+02  0.10398358098E+03  0.00000000000E+00 0.  1.
       14    1    3    3    0    0 -0.34168603969E+01  0.34500332635E+01 -0.16288400387E+02  0.16996754151E+02  0.00000000000E+00 0. -1.
        3    1    4    4  502    0  0.22720062723E+02  0.49215473768E+02  0.14536452947E+04  0.14546556318E+04  0.00000000000E+00 0. -1.
       -4    1    4    4    0  502  0.21389602347E+02 -0.32155382251E+02  0.12009988916E+04  0.12016196658E+04  0.00000000000E+00 0.  1.
</event>
<event>
 8   1  0.2279600E-02  0.8573034E+02  0.7546771E-02  0.1315266E+00
       -2   -1    0    0    0  501 -0.00000000000E+00  0.00000000000E+00  0.23572224573E+02  0.23572224573E+02  0.00000000000E+00 0.  1.
        2   -1    0    0  501    0  0.00000000000E+00 -0.00000000000E+00 -0.87415071316E+03  0.87415071316E+03  0.00000000000E+00 0. -1.
       24    2    1    2    0    0 -0.63579443359E+01 -0.14940673274E+02 -0.79061886768E+03  0.79525334695E+03  0.84178647719E+02 0.  0.
      -24    2    1    2    0    0  0.63579443359E+01  0.14940673274E+02 -0.59959620905E+02  0.10246959078E+03  0.81493642213E+02 0.  0.
      -13    1    3    3    0    0  0.31381046235E+02 -0.13825182575E+02 -0.16655575485E+03  0.17004918468E+03  0.00000000000E+00 0.  1.
       14    1    3    3    0    0 -0.37738990571E+02 -0.11154906996E+01 -0.62406311282E+03  0.62520416227E+03  0.00000000000E+00 0. -1.
        3    1    4    4  502    0 -0.25078143109E+02  0.13617015740E+02 -0.64640604109E+02  0.70659352382E+02  0.00000000000E+00 0. -1.
       -4    1    4    4    0  502  0.31436087445E+02  0.13236575344E+01  0.46809832039E+01  0.31810238397E+02  0.00000000000E+00 0.  1.
</event>
<event>
 8   1  0.2279600E-02  0.8109590E+02  0.7546771E-02  0.1339100E+00
       -1   -1    0    0    0  501 -0.00000000000E+00  0.00000000000E+00  0.73522996146E+02  0.73522996146E+02  0.00000000000E+00 0.  1.
        1   -1    0    0  501    0  0.00000000000E+00 -0.00000000000E+00 -0.13463376916E+03  0.13463376916E+03  0.00000000000E+00 0. -1.
       24    2    1    2    0    0  0.83188443034E+01 -0.47571553504E+01  0.38307303550E+02  0.89688317223E+02  0.80527703577E+02 0.  0.
      -24    2    1    2    0    0 -0.83188443034E+01  0.47571553504E+01 -0.99418076568E+02  0.11846844809E+03  0.63710168311E+02 0.  0.
      -13    1    3    3    0    0  0.24163223557E+01  0.60047649508E+01  0.62354570368E+02  0.62689618452E+02  0.00000000000E+00 0.  1.
       14    1    3    3    0    0  0.59025219477E+01 -0.10761920301E+02 -0.24047266818E+02  0.26998698771E+02  0.00000000000E+00 0. -1.
        1    1    4    4  502    0 -0.35156271604E+02 -0.23761209903E+00 -0.41154210873E+02  0.54126601271E+02  0.00000000000E+00 0. -1.
       -2    1    4    4    0  502  0.26837427301E+02  0.49947674494E+01 -0.58263865695E+02  0.64341846816E+02  0.00000000000E+00 0.  1.
</event>
<event>
 8   1  0.2279600E-02  0.8453330E+02  0.7546771E-02  0.1317304E+00
        3   -1    0    0  501    0  0.00000000000E+00  0.00000000000E+00  0.24432570208E+04  0.24432570208E+04  0.00000000000E+00 0. -1.
       -3   -1    0    0    0  501 -0.00000000000E+00 -0.00000000000E+00 -0.87181733956E+01  0.87181733956E+01  0.00000000000E+00 0.  1.
       24    2    1    2    0    0  0.49543532888E+01  0.24336991991E+02  0.21262895630E+03  0.22845783589E+03  0.79781419676E+02 0.  0.
      -24    2    1    2    0    0 -0.49543532888E+01 -0.24336991991E+02  0.22219098911E+04  0.22235173583E+04  0.80802498195E+02 0.  0.
      -13    1    3    3    0    0  0.13539080309E+02  0.32613670902E+02  0.32678845399E+02  0.48113045652E+02  0.00000000000E+00 0.  1.
       14    1    3    3    0    0 -0.85847270197E+01 -0.82766789113E+01  0.17995011090E+03  0.18034479024E+03  0.00000000000E+00 0. -1.
        3    1    4    4  502    0 -0.19044938620E+02  0.22761456547E+01  0.19227576054E+04  0.19228532704E+04  0.00000000000E+00 0. -1.
       -4    1    4    4    0  502  0.14090585331E+02 -0.26613137645E+02  0.29915228573E+03  0.30066408789E+03  0.00000000000E+00 0.  1.
</event>
<event>
 8   1  0.2279600E-02  0.9065793E+02  0.7546771E-02  0.1302300E+00
        1   -1    0    0  501    0  0.00000000000E+00  0.00000000000E+00  0.91669595073E+03  0.91669595073E+03  0.00000000000E+00 0. -1.
       -1   -1    0    0    0  501 -0.00000000000E+00 -0.00000000000E+00 -0.10141359765E+02  0.10141359765E+02  0.00000000000E+00 0.  1.
       24    2    1    2    0    0 -0.27334260266E+02  0.28087539375E+02  0.28087432403E+03  0.29462322007E+03  0.79852265151E+02 0.  0.
      -24    2    1    2    0    0  0.27334260266E+02 -0.28087539375E+02  0.62568026693E+03  0.63221409043E+03  0.81748321417E+02 0.  0.
      -13    1    3    3    0    0  0.19188364462E+02  0.36662208609E+02  0.11975722718E+03  0.12670479206E+03  0.00000000000E+00 0.  1.
       14    1    3    3    0    0 -0.46522624728E+02 -0.85746692335E+01  0.16111709686E+03  0.16791842800E+03  0.00000000000E+00 0. -1.
        3    1    4    4  502    0  0.11782352772E+01  0.17620208564E+02  0.40317883887E+03  0.40356540499E+03  0.00000000000E+00 0. -1.
       -4    1    4    4    0  502  0.26156024989E+02 -0.45707747939E+02  0.22250142806E+03  0.22864868544E+03  0.00000000000E+00 0.  1.
</event>
<event>
 8   1  0.2279600E-02  0.8197773E+02  0.7546771E-02  0.1325130E+00
        2   -1    0    0  501    0  0.00000000000E+00  0.00000000000E+00  0.22940013074E+04  0.22940013074E+04  0.00000000000E+00 0. -1.
       -2   -1    0    0    0  501 -0.00000000000E+00 -0.00000000000E+00 -0.30986329489E+01  0.30986329489E+01  0.00000000000E+00 0.  1.
      -24    2    1    2    0    0 -0.25783821104E+01 -0.16124537909E+02  0.14570538354E+04  0.14592310757E+04  0.77992335400E+02 0.  0.
       24    2    1    2    0    0  0.25783821104E+01  0.16124537909E+02  0.83384883900E+03  0.83786886456E+03  0.80334918391E+02 0.  0.
      -13    1    4    4    0    0  0.14568440549E+01  0.21130842150E+02  0.54033667273E+02  0.58036816622E+02  0.00000000000E+00 0.  1.
       14    1    4    4    0    0  0.11215380555E+01 -0.50063042413E+01  0.77981517173E+03  0.77983204794E+03  0.00000000000E+00 0. -1.
        1    1    3    3  502    0 -0.26901140351E+02 -0.38190620221E+02  0.81432278910E+03  0.81566157177E+03  0.00000000000E+00 0. -1.
       -2    1    3    3    0  502  0.24322758241E+02  0.22066082313E+02  0.64273104630E+03  0.64356950397E+03  0.00000000000E+00 0.  1.
</event>
<event>
 8   1  0.2279600E-02  0.1414098E+03  0.7546771E-02  0.1211588E+00
        2   -1    0    0  501    0  0.00000000000E+00  0.00000000000E+00  0.63595681274E+03  0.63595681274E+03  0.00000000000E+00 0. -1.
       -2   -1    0    0    0  501 -0.00000000000E+00 -0.00000000000E+00 -0.32455096115E+02  0.32455096115E+02  0.00000000000E+00 0.  1.
      -24    2    1    2    0    0 -0.11447110374E+03  0.19992234753E+02  0.23956392227E+03  0.27796670963E+03  0.79820396906E+02 0.  0.
       24    2    1    2    0    0  0.11447110374E+03 -0.19992234753E+02  0.36393779436E+03  0.39044519923E+03  0.80581712573E+02 0.  0.
      -13    1    4    4    0    0 -0.40796457978E+01  0.10233125763E+02  0.68304495822E+01  0.12962076000E+02  0.00000000000E+00 0.  1.
       14    1    4    4    0    0  0.11855074954E+03 -0.30225360516E+02  0.35710734477E+03  0.37748312324E+03  0.00000000000E+00 0. -1.
        1    1    3    3  502    0 -0.11264536273E+03  0.23219056025E+02  0.15342530830E+03  0.19174834428E+03  0.00000000000E+00 0. -1.
       -2    1    3    3    0  502 -0.18257410155E+01 -0.32268212729E+01  0.86138613971E+02  0.86218365344E+02  0.00000000000E+00 0.  1.
</event>
<event>
 8   1  0.2279600E-02  0.9608692E+02  0.7546771E-02  0.1293531E+00
        2   -1    0    0  501    0  0.00000000000E+00  0.00000000000E+00  0.24922295430E+03  0.24922295430E+03  0.00000000000E+00 0. -1.
       -2   -1    0    0    0  501 -0.00000000000E+00 -0.00000000000E+00 -0.51519678875E+02  0.51519678875E+02  0.00000000000E+00 0.  1.
      -24    2    1    2    0    0  0.14257713522E+02  0.49541194650E+02  0.81701729366E+01  0.88244412336E+02  0.71152738672E+02 0.  0.
       24    2    1    2    0    0 -0.14257713522E+02 -0.49541194650E+02  0.18953310249E+03  0.21249822084E+03  0.81086895110E+02 0.  0.
      -13    1    4    4    0    0 -0.43272766530E+02 -0.31666684456E+02  0.69855263819E+02  0.88062870217E+02  0.00000000000E+00 0.  1.
       14    1    4    4    0    0  0.29015053008E+02 -0.17874510194E+02  0.11967783867E+03  0.12443535062E+03  0.00000000000E+00 0. -1.
        1    1    3    3  502    0 -0.20850519276E+02  0.19995426568E+02  0.26145137656E+02  0.38963180835E+02  0.00000000000E+00 0. -1.
       -2    1    3    3    0  502  0.35108232798E+02  0.29545768081E+02 -0.17974964719E+02  0.49281231502E+02  0.00000000000E+00 0.  1.
</event>
<event>
 8   1  0.2279600E-02  0.8536875E+02  0.7546771E-02  0.1315204E+00
        1   -1    0    0  501    0  0.00000000000E+00  0.00000000000E+00  0.55869564581E+03  0.55869564581E+03  0.00000000000E+00 0. -1.
       -1   -1    0    0    0  501 -0.00000000000E+00 -0.00000000000E+00 -0.14764055215E+02  0.14764055215E+02  0.00000000000E+00 0.  1.
       24    2    1    2    0    0  0.24395976557E+02  0.11742212919E+02  0.17093971050E+03  0.19107121022E+03  0.80961592830E+02 0.  0.
      -24    2    1    2    0    0 -0.24395976557E+02 -0.11742212919E+02  0.37299188010E+03  0.38238849081E+03  0.79780774910E+02 0.  0.
      -13    1    3    3    0    0  0.46488549607E+02 -0.82741630889E+01  0.14151063912E+03  0.14918078966E+03  0.00000000000E+00 0.  1.
       14    1    3    3    0    0 -0.22092573051E+02  0.20016376008E+02  0.29429071374E+02  0.41890420557E+02  0.00000000000E+00 0. -1.
        3    1    4    4  502    0 -0.28692711768E+02  0.29838398063E+02  0.21572755849E+03  0.21966333604E+03  0.00000000000E+00 0. -1.
       -4    1    4    4    0  502  0.42967352120E+01 -0.41580610982E+02  0.15726432161E+03  0.16272515477E+03  0.00000000000E+00 0.  1.
</event>
<event>
 8   1  0.2279600E-02  0.8427992E+02  0.7546771E-02  0.1318214E+00
       -2   -1    0    0    0  501 -0.00000000000E+00  0.00000000000E+00  0.70765478924E+03  0.70765478924E+03  0.00000000000E+00 0.  1.
        2   -1    0    0  501    0  0.00000000000E+00 -0.00000000000E+00 -0.27325069116E+02  0.27325069116E+02  0.00000000000E+00 0. -1.
      -24    2    1    2    0    0 -0.52036814065E+01  0.20455328103E+02  0.63477349859E+03  0.64034404766E+03  0.81594154880E+02 0.  0.
       24    2    1    2    0    0  0.52036814065E+01 -0.20455328103E+02  0.45556221530E+02  0.94635810694E+02  0.80218879310E+02 0.  0.
      -13    1    4    4    0    0  0.10029770379E+02  0.29582763952E+02  0.90917622174E+01  0.32533004121E+02  0.00000000000E+00 0.  1.
       14    1    4    4    0    0 -0.48260889726E+01 -0.50038092055E+02  0.36464459313E+02  0.62102806573E+02  0.00000000000E+00 0. -1.
        1    1    3    3  502    0 -0.31577784828E+02 -0.81749223618E+01  0.12846944398E+03  0.13254578034E+03  0.00000000000E+00 0. -1.
       -2    1    3    3    0  502  0.26374103422E+02  0.28630250464E+02  0.50630405462E+03  0.50779826732E+03  0.00000000000E+00 0.  1.
</event>
<event>
 8   1  0.2279600E-02  0.1446216E+03  0.7546771E-02  0.1209028E+00
       -1   -1    0    0    0  501 -0.00000000000E+00  0.00000000000E+00  0.50391762411E+02  0.50391762411E+02  0.00000000000E+00 0.  1.
        1   -1    0    0  501    0  0.00000000000E+00 -0.00000000000E+00 -0.58719355905E+03  0.58719355905E+03  0.00000000000E+00 0. -1.
       24    2    1    2    0    0  0.88386478828E+02  0.80757476906E+02 -0.84751013590E+02  0.16296409326E+03  0.70997335665E+02 0.  0.
      -24    2    1    2    0    0 -0.88386478828E+02 -0.80757476906E+02 -0.45205078305E+03  0.47462122820E+03  0.81126198541E+02 0.  0.
      -13    1    3    3    0    0  0.78628852526E+02  0.91961804188E+02 -0.62430511758E+02  0.13615079389E+03  0.00000000000E+00 0.  1.
       14    1    3    3    0    0  0.97576263024E+01 -0.11204327283E+02 -0.22320501832E+02  0.26813299367E+02  0.00000000000E+00 0. -1.
        3    1    4    4  502    0 -0.73428699176E+02 -0.85309670997E+02 -0.44182905788E+03  0.45594125741E+03  0.00000000000E+00 0. -1.
       -4    1    4    4    0  502 -0.14957779652E+02  0.45521940917E+01 -0.10221725173E+02  0.18679970789E+02  0.00000000000E+00 0.  1.
</event>
<event>
 8   1  0.2279600E-02  0.8394232E+02  0.7546771E-02  0.1335859E+00
        1   -1    0    0  501    0  0.00000000000E+00  0.00000000000E+00  0.14343181735E+02  0.14343181735E+02  0.00000000000E+00 0. -1.
       -1   -1    0    0    0  501 -0.00000000000E+00 -0.00000000000E+00 -0.54202389789E+03  0.54202389789E+03  0.00000000000E+00 0.  1.
       24    2    1    2    0    0 -0.19245502223E+02  0.65522274845E+01 -0.39221901189E+03  0.39700527177E+03  0.58000961048E+02 0.  0.
      -24    2    1    2    0    0  0.19245502223E+02 -0.65522274845E+01 -0.13546170427E+03  0.15936180786E+03  0.81443179214E+02 0.  0.
      -13    1    3    3    0    0 -0.36671274548E+02  0.15834032670E+02 -0.21399231769E+03  0.21768833455E+03  0.00000000000E+00 0.  1.
       14    1    3    3    0    0  0.17425772326E+02 -0.92818051855E+01 -0.17822669419E+03  0.17931693721E+03  0.00000000000E+00 0. -1.
        1    1    4    4  502    0 -0.27814306121E+01 -0.40339583490E+02 -0.46107242685E+02  0.61326145977E+02  0.00000000000E+00 0. -1.
       -2    1    4    4    0  502  0.22026932835E+02  0.33787356006E+02 -0.89354461587E+02  0.98035661886E+02  0.00000000000E+00 0.  1.
</event>
<event>
 8   1  0.2279600E-02  0.8545170E+02  0.7546771E-02  0.1314439E+00
       -2   -1    0    0    0  501 -0.00000000000E+00  0.00000000000E+00  0.10548973975E+02  0.10548973975E+02  0.00000000000E+00 0.  1.
        2   -1    0    0  501    0  0.00000000000E+00 -0.00000000000E+00 -0.11733963883E+04  0.11733963883E+04  0.00000000000E+00 0. -1.
       24    2    1    2    0    0 -0.25389693284E+02 -0.75241132569E+01 -0.96084608908E+03  0.96461335757E+03  0.80947352696E+02 0.  0.
      -24    2    1    2    0    0  0.25389693284E+02  0.75241132569E+01 -0.20200132523E+03  0.21933200468E+03  0.81244963402E+02 0.  0.
      -13    1    3    3    0    0 -0.10045364816E+02  0.34720855459E+02 -0.28648129018E+03  0.28875244896E+03  0.00000000000E+00 0.  1.
       14    1    3    3    0    0 -0.15344328467E+02 -0.42244968716E+02 -0.67436479890E+03  0.67586090861E+03  0.00000000000E+00 0. -1.
        3    1    4    4  502    0 -0.90501129265E+01 -0.30954107521E+02 -0.98828645940E+02  0.10395750370E+03  0.00000000000E+00 0. -1.
       -4    1    4    4    0  502  0.34439806210E+02  0.38478220778E+02 -0.10317267929E+03  0.11537450099E+03  0.00000000000E+00 0.  1.
</event>
<event>
 8   1  0.2279600E-02  0.8229377E+02  0.7546771E-02  0.1333040E+00
       -2   -1    0    0    0  501 -0.00000000000E+00  0.00000000000E+00  0.17001311428E+02  0.17001311428E+02  0.00000000000E+00 0.  1.
        2   -1    0    0  501    0  0.00000000000E+00 -0.00000000000E+00 -0.36419556839E+03  0.36419556839E+03  0.00000000000E+00 0. -1.
      -24    2    1    2    0    0 -0.50675396510E+01 -0.16132802291E+02 -0.10479079352E+03  0.12520527035E+03  0.66402575624E+02 0.  0.
       24    2    1    2    0    0  0.50675396510E+01  0.16132802291E+02 -0.24240346345E+03  0.25599160947E+03  0.80537679134E+02 0.  0.
      -13    1    4    4    0    0 -0.21981281044E+02  0.26756709034E+02 -0.46675113995E+02  0.58117677699E+02  0.00000000000E+00 0.  1.
       14    1    4    4    0    0  0.27048820695E+02 -0.10623906743E+02 -0.19572834945E+03  0.19787393177E+03  0.00000000000E+00 0. -1.
        1    1    3    3  502    0  0.13510025818E+02 -0.36716550047E+02 -0.74446746605E+02  0.84100796221E+02  0.00000000000E+00 0. -1.
       -2    1    3    3    0  502 -0.18577565469E+02  0.20583747755E+02 -0.30344046913E+02  0.41104474129E+02  0.00000000000E+00 0.  1.
</event>
<event>
 8   1  0.2279600E-02  0.8303161E+02  0.7546771E-02  0.1320668E+00
        1   -1    0    0  501    0  0.00000000000E+00  0.00000000000E+00  0.18395513810E+03  0.18395513810E+03  0.00000000000E+00 0. -1.
       -1   -1    0    0    0  501 -0.00000000000E+00 -0.00000000000E+00 -0.49893843304E+02  0.49893843304E+02  0.00000000000E+00 0.  1.
       24    2    1    2    0    0 -0.20294205355E+02 -0.39828071107E+01  0.86914112857E+01  0.83476589760E+02  0.80405739126E+02 0.  0.
      -24    2    1    2    0    0  0.20294205355E+02  0.39828071107E+01  0.12536988351E+03  0.15037239165E+03  0.80414743387E+02 0.  0.
      -13    1    3    3    0    0 -0.39692157151E+02 -0.14998288929E+02 -0.20184614979E+02  0.46987601471E+02  0.00000000000E+00 0.  1.
       14    1    3    3    0    0  0.19397951796E+02  0.11015481818E+02  0.28876026265E+02  0.36488988290E+02  0.00000000000E+00 0. -1.
        1    1    4    4  502    0  0.49009765548E+02  0.15948912634E+02  0.71046007057E+02  0.87771635806E+02  0.00000000000E+00 0. -1.
       -2    1    4    4    0  502 -0.28715560193E+02 -0.11966105523E+02  0.54323876458E+02  0.62600755842E+02  0.00000000000E+00 0.  1.
</event>
<event>
 8   1  0.2279600E-02  0.1312386E+03  0.7546771E-02  0.1225746E+00
       -2   -1    0    0    0  501 -0.00000000000E+00  0.00000000000E+00  0.20678322201E+02  0.20678322201E+02  0.00000000000E+00 0.  1.
        2   -1    0    0  501    0  0.00000000000E+00 -0.00000000000E+00 -0.25950254239E+04  0.25950254239E+04  0.00000000000E+00 0. -1.
       24    2    1    2    0    0  0.10362063076E+03 -0.49439445554E+01 -0.23659988314E+04  0.23696358476E+04  0.80385960385E+02 0.  0.
      -24    2    1    2    0    0 -0.10362063076E+03  0.49439445554E+01 -0.20834827028E+03  0.24606789843E+03  0.79866959364E+02 0.  0.
      -13    1    3    3    0    0  0.71232098825E+00  0.18495256097E+02 -0.15200388941E+03  0.15312662830E+03  0.00000000000E+00 0.  1.
       14    1    3    3    0    0  0.10290830977E+03 -0.23439200653E+02 -0.22139949420E+04  0.22165092193E+04  0.00000000000E+00 0. -1.
        1    1    4    4  502    0  0.72173091242E+01 -0.72825929844E+01 -0.58332971169E+00  0.10269663340E+02  0.00000000000E+00 0. -1.
       -2    1    4    4    0  502 -0.11083793989E+03  0.12226537540E+02 -0.20776494057E+03  0.23579823509E+03  0.00000000000E+00 0.  1.
</event>
<event>
 8   1  0.2279600E-02  0.1301379E+03  0.7546771E-02  0.1227934E+00
       -2   -1    0    0    0  501 -0.00000000000E+00  0.00000000000E+00  0.11952536076E+03  0.11952536076E+03  0.00000000000E+00 0.  1.
        2   -1    0    0  501    0  0.00000000000E+00 -0.00000000000E+00 -0.14110407798E+03  0.14110407798E+03  0.00000000000E+00 0. -1.
      -24    2    1    2    0    0  0.94109077733E+02  0.32698859467E+02  0.22480024984E+01  0.12832830986E+03  0.80853989839E+02 0.  0.
       24    2    1    2    0    0 -0.94109077733E+02 -0.32698859467E+02 -0.23826719718E+02  0.13230112888E+03  0.83726591998E+02 0.  0.
      -13    1    4    4    0    0 -0.11188491875E+02  0.25363958576E+02 -0.12604266327E+02  0.30452918986E+02  0.00000000000E+00 0.  1.
       14    1    4    4    0    0 -0.82920585858E+02 -0.58062818043E+02 -0.11222453391E+02  0.10184820989E+03  0.00000000000E+00 0. -1.
        3    1    3    3  502    0  0.85495785671E+02  0.16100251979E+02 -0.29176410798E+02  0.91760614799E+02  0.00000000000E+00 0. -1.
       -4    1    3    3    0  502  0.86132920624E+01  0.16598607488E+02  0.31424413296E+02  0.36567695056E+02  0.00000000000E+00 0.  1.
</event>
<event>
 8   1  0.2279600E-02  0.1075119E+03  0.7546771E-02  0.1266449E+00
        2   -1    0    0  501    0  0.00000000000E+00  0.00000000000E+00  0.14561535369E+04  0.14561535369E+04  0.00000000000E+00 0. -1.
       -2   -1    0    0    0  501 -0.00000000000E+00 -0.00000000000E+00 -0.89875019606E+01  0.89875019606E+01  0.00000000000E+00 0.  1.
      -24    2    1    2    0    0  0.69648962580E+02 -0.17014169918E+02  0.45967032761E+03  0.47207585456E+03  0.80114557981E+02 0.  0.
       24    2    1    2    0    0 -0.69648962580E+02  0.17014169918E+02  0.98749570732E+03  0.99306518429E+03  0.76747822922E+02 0.  0.
      -13    1    4    4    0    0 -0.63066947330E+02  0.32793210699E+02  0.47547308592E+03  0.48075720478E+03  0.00000000000E+00 0.  1.
       14    1    4    4    0    0 -0.65820152497E+01 -0.15779040781E+02  0.51202262140E+03  0.51230797952E+03  0.00000000000E+00 0. -1.
        3    1    3    3  502    0  0.37265096956E+02 -0.41415463331E+02  0.15479057945E+03  0.16451155443E+03  0.00000000000E+00 0. -1.
       -4    1    3    3    0  502  0.32383865624E+02  0.24401293412E+02  0.30487974816E+03  0.30756430013E+03  0.00000000000E+00 0.  1.
</event>
<event>
 8   1  0.2279600E-02  0.1003575E+03  0.7546771E-02  0.1280118E+00
       -2   -1    0    0    0  501 -0.00000000000E+00  0.00000000000E+00  0.16985197070E+03  0.16985197070E+03  0.00000000000E+00 0.  1.
        2   -1    0    0  501    0  0.00000000000E+00 -0.00000000000E+00 -0.10838546076E+03  0.10838546076E+03  0.00000000000E+00 0. -1.
      -24    2    1    2    0    0 -0.44001448882E+02 -0.39136073426E+02  0.12505717522E+03  0.16034628675E+03  0.81264228621E+02 0.  0.
       24    2    1    2    0    0  0.44001448882E+02  0.39136073426E+02 -0.63590665280E+02  0.11789114471E+03  0.79917391989E+02 0.  0.
      -13    1    4    4    0    0 -0.44361016551E+01 -0.55446301783E+01  0.14238586782E+02  0.15910979707E+02  0.00000000000E+00 0.  1.
       14    1    4    4    0    0  0.48437550537E+02  0.44680703604E+02 -0.77829252062E+02  0.10198016500E+03  0.00000000000E+00 0. -1.
        3    1    3    3  502    0 -0.16865915882E+02 -0.38501282867E+02  0.11482975792E+02  0.43573691994E+02  0.00000000000E+00 0. -1.
       -4    1    3    3    0  502 -0.27135533000E+02 -0.63479055887E+00  0.11357419943E+03  0.11677259475E+03  0.00000000000E+00 0.  1.
</event>
<event>
 8   1  0.2279600E-02  0.8558401E+02  0.7546771E-02  0.1315897E+00
        2   -1    0    0  501    0  0.00000000000E+00  0.00000000000E+00  0.33703084062E+02  0.33703084062E+02  0.00000000000E+00 0. -1.
       -2   -1    0    0    0  501 -0.00000000000E+00 -0.00000000000E+00 -0.28457972946E+03  0.28457972946E+03  0.00000000000E+00 0.  1.
      -24    2    1    2    0    0  0.26567917670E+02 -0.67822589644E+01 -0.20867847500E+03  0.22554673119E+03  0.81072613976E+02 0.  0.
       24    2    1    2    0    0 -0.26567917670E+02  0.67822589644E+01 -0.42198170392E+02  0.92736082325E+02  0.77893787265E+02 0.  0.
      -13    1    4    4    0    0 -0.16479350289E+01 -0.69574538613E+01 -0.59171438697E+02  0.59601854095E+02  0.00000000000E+00 0.  1.
       14    1    4    4    0    0 -0.24919982642E+02  0.13739712826E+02  0.16973268306E+02  0.33134228229E+02  0.00000000000E+00 0. -1.
        3    1    3    3  502    0 -0.69195806835E+01  0.24701548964E+02 -0.23636603544E+02  0.34881745157E+02  0.00000000000E+00 0. -1.
       -4    1    3    3    0  502  0.33487498354E+02 -0.31483807929E+02 -0.18504187146E+03  0.19066498604E+03  0.00000000000E+00 0.  1.
</event>
<event>
 8   1  0.2279600E-02  0.8620847E+02  0.7546771E-02  0.1313681E+00
        2   -1    0    0  501    0  0.00000000000E+00  0.00000000000E+00  0.90495066727E+03  0.90495066727E+03  0.00000000000E+00 0. -1.
       -2   -1    0    0    0  501 -0.00000000000E+00 -0.00000000000E+00 -0.23269765392E+02  0.23269765392E+02  0.00000000000E+00 0.  1.
      -24    2    1    2    0    0 -0.17565549573E+02 -0.25477184520E+02  0.63146199483E+02  0.10515849108E+03  0.78187149041E+02 0.  0.
       24    2    1    2    0    0  0.17565549573E+02  0.25477184520E+02  0.81853470239E+03  0.82306194157E+03  0.80462818660E+02 0.  0.
      -13    1    4    4    0    0  0.49392917206E+01 -0.25473724713E+02  0.13217841853E+03  0.13470130504E+03  0.00000000000E+00 0.  1.
       14    1    4    4    0    0  0.12626257852E+02  0.50950909233E+02  0.68635628386E+03  0.68836063653E+03  0.00000000000E+00 0. -1.
        1    1    3    3  502    0  0.42427748721E+01  0.97869190172E+01  0.62794682232E+02  0.63694246515E+02  0.00000000000E+00 0. -1.
       -2    1    3    3    0  502 -0.21808324445E+02 -0.35264103537E+02  0.35151725080E+00  0.41464244570E+02  0.00000000000E+00 0.  1.
</event>
<event>
 8   1  0.2279600E-02  0.8788002E+02  0.7546771E-02  0.1308126E+00
        1   -1    0    0  501    0  0.00000000000E+00  0.00000000000E+00  0.11228906828E+04  0.11228906828E+04  0.00000000000E+00 0. -1.
       -1   -1    0    0    0  501 -0.00000000000E+00 -0.00000000000E+00 -0.22251887551E+02  0.22251887551E+02  0.00000000000E+00 0.  1.
       24    2    1    2    0    0 -0.29715985558E+01 -0.36059557565E+02  0.74367834136E+02  0.11512372437E+03  0.80086047901E+02 0.  0.
      -24    2    1    2    0    0  0.29715985558E+01  0.36059557565E+02  0.10262709611E+04  0.10300188460E+04  0.79985094658E+02 0.  0.
      -13    1    3    3    0    0 -0.10508286117E+02 -0.60127823383E+02  0.42013351670E+02  0.74100613631E+02  0.00000000000E+00 0.  1.
       14    1    3    3    0    0  0.75366875617E+01  0.24068265818E+02  0.32354482465E+02  0.41023110736E+02  0.00000000000E+00 0. -1.
        3    1    4    4  502    0 -0.50547152893E+01  0.59793632618E+02  0.59426427501E+03  0.59728624394E+03  0.00000000000E+00 0. -1.
       -4    1    4    4    0  502  0.80263138451E+01 -0.23734075053E+02  0.43200668608E+03  0.43273260202E+03  0.00000000000E+00 0.  1.
</event>
<event>
 8   1  0.2279600E-02  0.9328977E+02  0.7546771E-02  0.1297076E+00
       -3   -1    0    0    0  501 -0.00000000000E+00  0.00000000000E+00  0.13640352234E+03  0.13640352234E+03  0.00000000000E+00 0.  1.
        3   -1    0    0  501    0  0.00000000000E+00 -0.00000000000E+00 -0.13442745333E+03  0.13442745333E+03  0.00000000000E+00 0. -1.
       24    2    1    2    0    0  0.28487464828E+02  0.38859745684E+02  0.10072931104E+03  0.13729302512E+03  0.79883447325E+02 0.  0.
      -24    2    1    2    0    0 -0.28487464828E+02 -0.38859745684E+02 -0.98753242031E+02  0.13353795056E+03  0.75885215563E+02 0.  0.
      -13    1    3    3    0    0  0.10262206079E+02  0.17230775955E+02  0.10654620631E+03  0.10841727996E+03  0.00000000000E+00 0.  1.
       14    1    3    3    0    0  0.18225258750E+02  0.21628969729E+02 -0.58168952724E+01  0.28875745161E+02  0.00000000000E+00 0. -1.
        3    1    4    4  502    0 -0.12891224702E+01 -0.50780746053E+02 -0.88646249287E+02  0.10216899490E+03  0.00000000000E+00 0. -1.
       -4    1    4    4    0  502 -0.27198342358E+02  0.11921000369E+02 -0.10106992745E+02  0.31368955659E+02  0.00000000000E+00 0.  1.
</event>
<event>
 8   1  0.2279600E-02  0.1435092E+03  0.7546771E-02  0.1210022E+00
        2   -1    0    0  501    0  0.00000000000E+00  0.00000000000E+00  0.37689561431E+03  0.37689561431E+03  0.00000000000E+00 0. -1.
       -2   -1    0    0    0  501 -0.00000000000E+00 -0.00000000000E+00 -0.53306380706E+02  0.53306380706E+02  0.00000000000E+00 0.  1.
      -24    2    1    2    0    0 -0.87322435575E+02 -0.75604487251E+02  0.14655510196E+03  0.20230733353E+03  0.78157616672E+02 0.  0.
       24    2    1    2    0    0  0.87322435575E+02  0.75604487251E+02  0.17703413165E+03  0.22789466149E+03  0.85168343403E+02 0.  0.
      -13    1    4    4    0    0  0.92065460951E+01  0.56676931945E+02  0.43500030987E+02  0.72036711485E+02  0.00000000000E+00 0.  1.
       14    1    4    4    0    0  0.78115889479E+02  0.18927555307E+02  0.13353410066E+03  0.15585795000E+03  0.00000000000E+00 0. -1.
        3    1    3    3  502    0 -0.59980052109E+01  0.15386378219E+02  0.25745677802E+02  0.30586870169E+02  0.00000000000E+00 0. -1.
       -4    1    3    3    0  502 -0.81324430364E+02 -0.90990865470E+02  0.12080942415E+03  0.17172046336E+03  0.00000000000E+00 0.  1.
</event>
<event>
 8   1  0.2279600E-02  0.7995111E+02  0.7546771E-02  0.1340649E+00
        2   -1    0    0  501    0  0.00000000000E+00  0.00000000000E+00  0.12744915842E+04  0.12744915842E+04  0.00000000000E+00 0. -1.
       -2   -1    0    0    0  501 -0.00000000000E+00 -0.00000000000E+00 -0.77505167583E+01  0.77505167583E+01  0.00000000000E+00 0.  1.
       24    2    1    2    0    0  0.26811419409E+01 -0.42575529309E+01  0.11031402172E+04  0.11060336880E+04  0.79792636901E+02 0.  0.
      -24    2    1    2    0    0 -0.26811419409E+01  0.42575529309E+01  0.16360085019E+03  0.17620841291E+03  0.65259875252E+02 0.  0.
      -13    1    3    3    0    0 -0.93797750028E+01 -0.13100359864E+02  0.45166495752E+02  0.47954269322E+02  0.00000000000E+00 0.  1.
       14    1    3    3    0    0  0.12060916944E+02  0.88428069330E+01  0.10579737215E+04  0.10580794187E+04  0.00000000000E+00 0. -1.
        1    1    4    4  502    0  0.19401327125E+02  0.27286296365E+02  0.87764296759E+02  0.93933621505E+02  0.00000000000E+00 0. -1.
       -2    1    4    4    0  502 -0.22082469065E+02 -0.23028743434E+02  0.75836553434E+02  0.82274791406E+02  0.00000000000E+00 0.  1.
</event>
<event>
 8   1  0.2279600E-02  0.9879809E+02  0.7546771E-02  0.1283133E+00
        2   -1    0    0  501    0  0.00000000000E+00  0.00000000000E+00  0.79795321145E+03  0.79795321145E+03  0.00000000000E+00 0. -1.
       -2   -1    0    0    0  501 -0.00000000000E+00 -0.00000000000E+00 -0.38561282466E+02  0.38561282466E+02  0.00000000000E+00 0.  1.
      -24    2    1    2    0    0 -0.48113818025E+02  0.32394976520E+02  0.33324866477E+02  0.10375638853E+03  0.79312467153E+02 0.  0.
       24    2    1    2    0    0  0.48113818025E+02 -0.32394976520E+02  0.72606706250E+03  0.73275810538E+03  0.79979295849E+02 0.  0.
      -13    1    4    4    0    0  0.25277547383E+01 -0.10661442878E+02  0.97617519647E+01  0.14674730310E+02  0.00000000000E+00 0.  1.
       14    1    4    4    0    0  0.45586063287E+02 -0.21733533642E+02  0.71630531054E+03  0.71808337507E+03  0.00000000000E+00 0. -1.
        3    1    3    3  502    0 -0.36798506970E+02 -0.16128684910E+02  0.35877960155E+02  0.53865504890E+02  0.00000000000E+00 0. -1.
       -4    1    3    3    0  502 -0.11315311055E+02  0.48523661430E+02 -0.25530936786E+01  0.49890883638E+02  0.00000000000E+00 0.  1.
</event>
<event>
 8   1  0.2279600E-02  0.8350799E+02  0.7546771E-02  0.1320165E+00
       -4   -1    0    0    0  501 -0.00000000000E+00  0.00000000000E+00  0.35811699341E+03  0.35811699341E+03  0.00000000000E+00 0.  1.
        4   -1    0    0  501    0  0.00000000000E+00 -0.00000000000E+00 -0.27705410493E+02  0.27705410493E+02  0.00000000000E+00 0. -1.
      -24    2    1    2    0    0  0.16229187548E+02 -0.14439540243E+01  0.27126994347E+03  0.28349294884E+03  0.80718017083E+02 0.  0.
       24    2    1    2    0    0 -0.16229187548E+02  0.14439540243E+01  0.59141639441E+02  0.10232945506E+03  0.81903066636E+02 0.  0.
      -13    1    4    4    0    0  0.20931084292E+02  0.29910957690E+02  0.29353005583E+02  0.46844152424E+02  0.00000000000E+00 0.  1.
       14    1    4    4    0    0 -0.37160271840E+02 -0.28467003666E+02  0.29788633859E+02  0.55485302631E+02  0.00000000000E+00 0. -1.
        1    1    3    3  502    0 -0.24771154862E+02 -0.47680220384E+01  0.32172950116E+02  0.40883283460E+02  0.00000000000E+00 0. -1.
       -2    1    3    3    0  502  0.41000342410E+02  0.33240680141E+01  0.23909699336E+03  0.24260966538E+03  0.00000000000E+00 0.  1.
</event>
<event>
 8   1  0.2279600E-02  0.9482323E+02  0.7546771E-02  0.1292024E+00
       -2   -1    0    0    0  501 -0.00000000000E+00  0.00000000000E+00  0.18974156478E+02  0.18974156478E+02  0.00000000000E+00 0.  1.
        2   -1    0    0  501    0  0.00000000000E+00 -0.00000000000E+00 -0.57231132569E+03  0.57231132569E+03  0.00000000000E+00 0. -1.
      -24    2    1    2    0    0 -0.48513139427E+02 -0.53833652687E+01 -0.15257814600E+03  0.17964280004E+03  0.81295385164E+02 0.  0.
       24    2    1    2    0    0  0.48513139427E+02  0.53833652687E+01 -0.40075902320E+03  0.41164268212E+03  0.80370378556E+02 0.  0.
      -13    1    4    4    0    0  0.17765629425E+02  0.14399110679E+02 -0.22677821194E+02  0.32206141516E+02  0.00000000000E+00 0.  1.
       14    1    4    4    0    0  0.30747510002E+02 -0.90157454105E+01 -0.37808120201E+03  0.37943654061E+03  0.00000000000E+00 0. -1.
        3    1    3    3  502    0 -0.17967971025E+02  0.37793526121E+02 -0.63596199569E+02  0.76129332055E+02  0.00000000000E+00 0. -1.
       -4    1    3    3    0  502 -0.30545168401E+02 -0.43176891390E+02 -0.88981946436E+02  0.10351346798E+03  0.00000000000E+00 0.  1.
</event>
<event>
 8   1  0.2279600E-02  0.8426668E+02  0.7546771E-02  0.1319359E+00
       -2   -1    0    0    0  501 -0.00000000000E+00  0.00000000000E+00  0.81544265883E+02  0.81544265883E+02  0.00000000000E+00 0.  1.
        2   -1    0    0  501    0  0.00000000000E+00 -0.00000000000E+00 -0.13139003149E+03  0.13139003149E+03  0.00000000000E+00 0. -1.
       24    2    1    2    0    0 -0.66815439557E+01 -0.19116865182E+02 -0.88540804486E+02  0.12020792468E+03  0.78742450635E+02 0.  0.
      -24    2    1    2    0    0  0.66815439557E+01  0.19116865182E+02  0.38695038883E+02  0.92726372693E+02  0.81797167400E+02 0.  0.
      -13    1    3    3    0    0  0.93685235947E+01 -0.28821909599E+02 -0.62405523694E+00  0.30312722613E+02  0.00000000000E+00 0.  1.
       14    1    3    3    0    0 -0.16050067550E+02  0.97050444168E+01 -0.87916749249E+02  0.89895202064E+02  0.00000000000E+00 0. -1.
        1    1    4    4  502    0 -0.31487958235E+02  0.56329073063E+01 -0.58681983571E+01  0.32521637574E+02  0.00000000000E+00 0. -1.
       -2    1    4    4    0  502  0.38169502191E+02  0.13483957876E+02  0.44563237240E+02  0.60204735119E+02  0.00000000000E+00 0.  1.
</event>
<event>
 8   1  0.2279600E-02  0.8501139E+02  0.7546771E-02  0.1317500E+00
       -2   -1    0    0    0  501 -0.00000000000E+00  0.00000000000E+00  0.46329254008E+02  0.46329254008E+02  0.00000000000E+00 0.  1.
        2   -1    0    0  501    0  0.00000000000E+00 -0.00000000000E+00 -0.28701183793E+03  0.28701183793E+03  0.00000000000E+00 0. -1.
       24    2    1    2    0    0 -0.72917555973E+01 -0.30668196668E+02 -0.23655859410E+03  0.25137005412E+03  0.78950792756E+02 0.  0.
      -24    2    1    2    0    0  0.72917555973E+01  0.30668196668E+02 -0.41239898192E+01  0.81971037820E+02  0.75554852675E+02 0.  0.
      -13    1    3    3    0    0  0.15655078541E+02  0.82244329904E+01 -0.99197031249E+01  0.20276175483E+02  0.00000000000E+00 0.  1.
       14    1    3    3    0    0 -0.22946834139E+02 -0.38892629658E+02 -0.22663889098E+03  0.23109387863E+03  0.00000000000E+00 0. -1.
        1    1    4    4  502    0 -0.28098100612E+02  0.31730633370E+02  0.10499181965E+02  0.43664278008E+02  0.00000000000E+00 0. -1.
       -2    1    4    4    0  502  0.35389856210E+02 -0.10624367020E+01 -0.14623171784E+02  0.38306759812E+02  0.00000000000E+00 0.  1.
</event>
<event>
 8   1  0.2279600E-02  0.8922868E+02  0.7546771E-02  0.1308319E+00
       -1   -1    0    0    0  501 -0.00000000000E+00  0.00000000000E+00  0.59942375514E+01  0.59942375514E+01  0.00000000000E+00 0.  1.
        1   -1    0    0  501    0  0.00000000000E+00 -0.00000000000E+00 -0.13836953258E+04  0.13836953258E+04  0.00000000000E+00 0. -1.
       24    2    1    2    0    0  0.36003684039E+01  0.16049797018E+02 -0.44898432322E+03  0.45669621537E+03  0.81938708821E+02 0.  0.
      -24    2    1    2    0    0 -0.36003684039E+01 -0.16049797018E+02 -0.92871676501E+03  0.93299334796E+03  0.87699481678E+02 0.  0.
      -13    1    3    3    0    0 -0.35536855022E+02  0.12159764006E+02 -0.13065733940E+03  0.13594877074E+03  0.00000000000E+00 0.  1.
       14    1    3    3    0    0  0.39137223426E+02  0.38900330118E+01 -0.31832698382E+03  0.32074744464E+03  0.00000000000E+00 0. -1.
        1    1    4    4  502    0  0.41638179015E+02 -0.85266288615E+01 -0.51186679045E+03  0.51362832137E+03  0.00000000000E+00 0. -1.
       -2    1    4    4    0  502 -0.45238547419E+02 -0.75231681562E+01 -0.41684997456E+03  0.41936502659E+03  0.00000000000E+00 0.  1.
</event>
<event>
 8   1  0.2279600E-02  0.8660895E+02  0.7546771E-02  0.1312976E+00
       -1   -1    0    0    0  501 -0.00000000000E+00  0.00000000000E+00  0.40477251941E+03  0.40477251941E+03  0.00000000000E+00 0.  1.
        1   -1    0    0  501    0  0.00000000000E+00 -0.00000000000E+00 -0.11027785584E+03  0.11027785584E+03  0.00000000000E+00 0. -1.
       24    2    1    2    0    0  0.15486815171E+01 -0.35380788067E+02  0.38321546910E+03  0.39288065120E+03  0.79037407243E+02 0.  0.
      -24    2    1    2    0    0 -0.15486815171E+01  0.35380788067E+02 -0.88720805527E+02  0.12216972405E+03  0.76156822173E+02 0.  0.
      -13    1    3    3    0    0 -0.33456253228E+02 -0.31543919377E+02  0.28176419230E+03  0.28549150564E+03  0.00000000000E+00 0.  1.
       14    1    3    3    0    0  0.35004934745E+02 -0.38368686903E+01  0.10145127680E+03  0.10738914555E+03  0.00000000000E+00 0. -1.
        1    1    4    4  502    0  0.42777894417E+01  0.43348083105E+02 -0.98853069782E+02  0.10802446573E+03  0.00000000000E+00 0. -1.
       -2    1    4    4    0  502 -0.58264709588E+01 -0.79672950380E+01  0.10132264255E+02  0.14145258322E+02  0.00000000000E+00 0.  1.
</event>
<event>
 8   1  0.2279600E-02  0.9986762E+02  0.7546771E-02  0.1281247E+00
        1   -1    0    0  501    0  0.00000000000E+00  0.00000000000E+00  0.44014708794E+03  0.44014708794E+03  0.00000000000E+00 0. -1.
       -1   -1    0    0    0  501 -0.00000000000E+00 -0.00000000000E+00 -0.23069625014E+02  0.23069625014E+02  0.00000000000E+00 0.  1.
       24    2    1    2    0    0 -0.34621450363E+02  0.47018521790E+02  0.25008454158E+03  0.26928761454E+03  0.81019474154E+02 0.  0.
      -24    2    1    2    0    0  0.34621450363E+02 -0.47018521790E+02  0.16699292135E+03  0.19392909842E+03  0.79451074344E+02 0.  0.
      -13    1    3    3    0    0 -0.52100793263E+02  0.51060627004E+02  0.14116160237E+03  0.15889706817E+03  0.00000000000E+00 0.  1.
       14    1    3    3    0    0  0.17479342900E+02 -0.40421052140E+01  0.10892293921E+03  0.11039054637E+03  0.00000000000E+00 0. -1.
        3    1    4    4  502    0  0.37150931113E+02 -0.67983433841E+02  0.13236740126E+03  0.15337231782E+03  0.00000000000E+00 0. -1.
       -4    1    4    4    0  502 -0.25294807494E+01  0.20964912050E+02  0.34625520096E+02  0.40556780593E+02  0.00000000000E+00 0.  1.
</event>
<event>
 8   1  0.2279600E-02  0.8378198E+02  0.7546771E-02  0.1319059E+00
       -2   -1    0    0    0  501 -0.00000000000E+00  0.00000000000E+00  0.46549893998E+01  0.46549893998E+01  0.00000000000E+00 0.  1.
        2   -1    0    0  501    0  0.00000000000E+00 -0.00000000000E+00 -0.16993416159E+04  0.16993416159E+04  0.00000000000E+00 0. -1.
      -24    2    1    2    0    0 -0.18713146805E+02  0.14537740332E+02 -0.55056504421E+03  0.55681152230E+03  0.79722491804E+02 0.  0.
       24    2    1    2    0    0  0.18713146805E+02 -0.14537740332E+02 -0.11441215823E+04  0.11471850830E+04  0.80361009479E+02 0.  0.
      -13    1    4    4    0    0 -0.22859284416E+02  0.19054855330E+02 -0.34713091294E+03  0.34840422660E+03  0.00000000000E+00 0.  1.
       14    1    4    4    0    0  0.41572431221E+02 -0.33592595662E+02 -0.79699066932E+03  0.79878085637E+03  0.00000000000E+00 0. -1.
        1    1    3    3  502    0 -0.40403705752E+00  0.46338133433E+02 -0.29138877269E+03  0.29505050874E+03  0.00000000000E+00 0. -1.
       -2    1    3    3    0  502 -0.18309109747E+02 -0.31800393101E+02 -0.25917627152E+03  0.26176101356E+03  0.00000000000E+00 0.  1.
</event>
<event>
 8   1  0.2279600E-02  0.8287621E+02  0.7546771E-02  0.1321947E+00
        1   -1    0    0  501    0  0.00000000000E+00  0.00000000000E+00  0.29386781753E+03  0.29386781753E+03  0.00000000000E+00 0. -1.
       -1   -1    0    0    0  501 -0.00000000000E+00 -0.00000000000E+00 -0.23123537112E+02  0.23123537112E+02  0.00000000000E+00 0.  1.
       24    2    1    2    0    0 -0.41128385358E+00 -0.82393012406E+01  0.12353070851E+03  0.14805260062E+03  0.81189170241E+02 0.  0.
      -24    2    1    2    0    0  0.41128385358E+00  0.82393012406E+01  0.14721357190E+03  0.16893875402E+03  0.82464608283E+02 0.  0.
      -13    1    3    3    0    0 -0.38814911112E+02 -0.11499289685E+02  0.44715851425E+02  0.60318640208E+02  0.00000000000E+00 0.  1.
       14    1    3    3    0    0  0.38403627258E+02  0.32599884444E+01  0.78814857088E+02  0.87733960409E+02  0.00000000000E+00 0. -1.
        3    1    4    4  502    0  0.29719489135E+02 -0.12085218173E+02  0.22398538752E+02  0.39127932107E+02  0.00000000000E+00 0. -1.
       -4    1    4    4    0  502 -0.29308205281E+02  0.20324519413E+02  0.12481503315E+03  0.12981082192E+03  0.00000000000E+00 0.  1.
</event>
<event>
 8   1  0.2279600E-02  0.8864844E+02  0.7546771E-02  0.1307688E+00
        2   -1    0    0  501    0  0.00000000000E+00  0.00000000000E+00  0.45074472066E+04  0.45074472066E+04  0.00000000000E+00 0. -1.
       -2   -1    0    0    0  501 -0.00000000000E+00 -0.00000000000E+00 -0.51987071410E+01  0.51987071410E+01  0.00000000000E+00 0.  1.
      -24    2    1    2    0    0  0.23634382204E+02 -0.19808258089E+02  0.40931653272E+03  0.41880612369E+03  0.83111937601E+02 0.  0.
       24    2    1    2    0    0 -0.23634382204E+02  0.19808258089E+02  0.40929319667E+04  0.40938397900E+04  0.80505845369E+02 0.  0.
      -13    1    4    4    0    0  0.27391313786E+02 -0.72724330710E+01  0.12547818164E+04  0.12551018202E+04  0.00000000000E+00 0.  1.
       14    1    4    4    0    0 -0.51025695989E+02  0.27080691160E+02  0.28381501503E+04  0.28387379698E+04  0.00000000000E+00 0. -1.
        3    1    3    3  502    0  0.50860827326E+02 -0.14783656793E+02  0.34106048914E+03  0.34514871797E+03  0.00000000000E+00 0. -1.
       -4    1    3    3    0  502 -0.27226445122E+02 -0.50246012955E+01  0.68256043583E+02  0.73657405722E+02  0.00000000000E+00 0.  1.
</event>
<event>
 8   1  0.2279600E-02  0.8316444E+02  0.7546771E-02  0.1320779E+00
        4   -1    0    0  501    0  0.00000000000E+00  0.00000000000E+00  0.96812434542E+02  0.96812434542E+02  0.00000000000E+00 0. -1.
       -4   -1    0    0    0  501 -0.00000000000E+00 -0.00000000000E+00 -0.13181118467E+03  0.13181118467E+03  0.00000000000E+00 0.  1.
       24    2    1    2    0    0 -0.44314791763E+01  0.17743826063E+02  0.60287248143E+02  0.10214932983E+03  0.80408033953E+02 0.  0.
      -24    2    1    2    0    0  0.44314791763E+01 -0.17743826063E+02 -0.95285998272E+02  0.12647428939E+03  0.81128558711E+02 0.  0.
      -13    1    3    3    0    0  0.16324938315E+01 -0.29611045795E+02  0.41132259584E+02  0.50708400168E+02  0.00000000000E+00 0.  1.
       14    1    3    3    0    0 -0.60639730078E+01  0.47354871858E+02  0.19154988559E+02  0.51440929657E+02  0.00000000000E+00 0. -1.
        1    1    4    4  502    0 -0.12933028837E+02  0.29807896410E+02 -0.35150318714E+02  0.47867722204E+02  0.00000000000E+00 0. -1.
       -2    1    4    4    0  502  0.17364508013E+02 -0.47551722473E+02 -0.60135679558E+02  0.78606567185E+02  0.00000000000E+00 0.  1.
</event>
<event>
 8   1  0.2279600E-02  0.1093705E+03  0.7546771E-02  0.1262354E+00
       -1   -1    0    0    0  501 -0.00000000000E+00  0.00000000000E+00  0.29356687237E+02  0.29356687237E+02  0.00000000000E+00 0.  1.
        1   -1    0    0  501    0  0.00000000000E+00 -0.00000000000E+00 -0.62195334188E+03  0.62195334188E+03  0.00000000000E+00 0. -1.
       24    2    1    2    0    0 -0.65991674378E+02  0.32806136055E+02 -0.10406071779E+03  0.15096535678E+03  0.80813132038E+02 0.  0.
      -24    2    1    2    0    0  0.65991674378E+02 -0.32806136055E+02 -0.48853593685E+03  0.50034467233E+03  0.79033447936E+02 0.  0.
      -13    1    3    3    0    0 -0.76592149121E+02  0.52773612775E+01 -0.89967852579E+02  0.11827266103E+03  0.00000000000E+00 0.  1.
       14    1    3    3    0    0  0.10600474743E+02  0.27528774778E+02 -0.14092865215E+02  0.32692695752E+02  0.00000000000E+00 0. -1.
        1    1    4    4  502    0  0.63786922780E+02  0.16331562349E+01 -0.20459127038E+03  0.21431058451E+03  0.00000000000E+00 0. -1.
       -2    1    4    4    0  502  0.22047515978E+01 -0.34439292290E+02 -0.28394466646E+03  0.28603408782E+03  0.00000000000E+00 0.  1.
</event>
<event>
 8   1  0.2279600E-02  0.9450890E+02  0.7546771E-02  0.1292293E+00
        2   -1    0    0  501    0  0.00000000000E+00  0.00000000000E+00  0.27868941535E+04  0.27868941535E+04  0.00000000000E+00 0. -1.
       -2   -1    0    0    0  501 -0.00000000000E+00 -0.00000000000E+00 -0.36942873977E+01  0.36942873977E+01  0.00000000000E+00 0.  1.
      -24    2    1    2    0    0 -0.40637008629E+02  0.29482085112E+02  0.88349102081E+03  0.88853017956E+03  0.80055832530E+02 0.  0.
       24    2    1    2    0    0  0.40637008629E+02 -0.29482085112E+02  0.18997088453E+04  0.19020582614E+04  0.80071048656E+02 0.  0.
      -13    1    4    4    0    0 -0.14554214203E+01  0.20571319246E+02  0.19337311935E+03  0.19446969099E+03  0.00000000000E+00 0.  1.
       14    1    4    4    0    0  0.42092430049E+02 -0.50053404358E+02  0.17063357260E+04  0.17075885704E+04  0.00000000000E+00 0. -1.
        3    1    3    3  502    0 -0.57765119577E+01 -0.14329000057E+02  0.56117141767E+03  0.56138404710E+03  0.00000000000E+00 0. -1.
       -4    1    3    3    0  502 -0.34860496671E+02  0.43811085169E+02  0.32231960315E+03  0.32714613246E+03  0.00000000000E+00 0.  1.
</event>
<event>
 8   1  0.2279600E-02  0.9218320E+02  0.7546771E-02  0.1298959E+00
        2   -1    0    0  501    0  0.00000000000E+00  0.00000000000E+00  0.24827855944E+03  0.24827855944E+03  0.00000000000E+00 0. -1.
       -2   -1    0    0    0  501 -0.00000000000E+00 -0.00000000000E+00 -0.37862677001E+02  0.37862677001E+02  0.00000000000E+00 0.  1.
      -24    2    1    2    0    0  0.21330743255E+02 -0.36879036161E+02  0.55040910083E+02  0.10547822248E+03  0.79253326233E+02 0.  0.
       24    2    1    2    0    0 -0.21330743255E+02  0.36879036161E+02  0.15537497236E+03  0.18066301396E+03  0.81747652338E+02 0.  0.
      -13    1    4    4    0    0 -0.10982201753E+02 -0.25177701802E+02  0.31997567161E+02  0.42170721213E+02  0.00000000000E+00 0.  1.
       14    1    4    4    0    0 -0.10348541502E+02  0.62056737963E+02  0.12337740520E+03  0.13849229275E+03  0.00000000000E+00 0. -1.
        1    1    3    3  502    0  0.51175386348E+02 -0.27762269860E+02  0.30169907262E+02  0.65573524382E+02  0.00000000000E+00 0. -1.
       -2    1    3    3    0  502 -0.29844643092E+02 -0.91167663008E+01  0.24871002820E+02  0.39904698099E+02  0.00000000000E+00 0.  1.
</event>
<event>
 8   1  0.2279600E-02  0.1145429E+03  0.7546771E-02  0.1253120E+00
       -2   -1    0    0    0  501 -0.00000000000E+00  0.00000000000E+00  0.25835662311E+02  0.25835662311E+02  0.00000000000E+00 0.  1.
        2   -1    0    0  501    0  0.00000000000E+00 -0.00000000000E+00 -0.97357886753E+03  0.97357886753E+03  0.00000000000E+00 0. -1.
      -24    2    1    2    0    0  0.25712429048E+02  0.72140434980E+02 -0.12373020036E+03  0.16747853570E+03  0.82912761813E+02 0.  0.
       24    2    1    2    0    0 -0.25712429048E+02 -0.72140434980E+02 -0.82401300486E+03  0.83193599415E+03  0.85174496231E+02 0.  0.
      -13    1    4    4    0    0 -0.31839253596E+02  0.57092698531E+01 -0.15218253629E+03  0.15558231964E+03  0.00000000000E+00 0.  1.
       14    1    4    4    0    0  0.61268245477E+01 -0.77849704833E+02 -0.67183046857E+03  0.67635367451E+03  0.00000000000E+00 0. -1.
        3    1    3    3  502    0 -0.32799871068E+01  0.67866309860E+02 -0.12004786457E+03  0.13794232171E+03  0.00000000000E+00 0. -1.
       -4    1    3    3    0  502  0.28992416155E+02  0.42741251203E+01 -0.36823357874E+01  0.29536213990E+02  0.00000000000E+00 0.  1.
</event>
<event>
 8   1  0.2279600E-02  0.9947287E+02  0.7546771E-02  0.1281412E+00
        3   -1    0    0  501    0  0.00000000000E+00  0.00000000000E+00  0.46177107953E+02  0.46177107953E+02  0.00000000000E+00 0. -1.
       -3   -1    0    0    0  501 -0.00000000000E+00 -0.00000000000E+00 -0.29355204691E+03  0.29355204691E+03  0.00000000000E+00 0.  1.
       24    2    1    2    0    0  0.29178149745E+02 -0.49884402775E+02 -0.21196996257E+03  0.23414977629E+03  0.80963168410E+02 0.  0.
      -24    2    1    2    0    0 -0.29178149745E+02  0.49884402775E+02 -0.35404976385E+02  0.10557937858E+03  0.80954769873E+02 0.  0.
      -13    1    3    3    0    0  0.56570214053E+02 -0.23947175860E+02 -0.12206029520E+03  0.13664688805E+03  0.00000000000E+00 0.  1.
       14    1    3    3    0    0 -0.27392064308E+02 -0.25937226916E+02 -0.89909667376E+02  0.97502888239E+02  0.00000000000E+00 0. -1.
        3    1    4    4  502    0 -0.26406508934E+02  0.63077231517E+02 -0.74022103883E+00  0.68385588958E+02  0.00000000000E+00 0. -1.
       -4    1    4    4    0  502 -0.27716408112E+01 -0.13192828742E+02 -0.34664755346E+02  0.37193789619E+02  0.00000000000E+00 0.  1.
</event>
<event>
 8   1  0.2279600E-02  0.1137897E+03  0.7546771E-02  0.1253921E+00
       -2   -1    0    0    0  501 -0.00000000000E+00  0.00000000000E+00  0.19651581683E+02  0.19651581683E+02  0.00000000000E+00 0.  1.
        2   -1    0    0  501    0  0.00000000000E+00 -0.00000000000E+00 -0.10780705644E+04  0.10780705644E+04  0.00000000000E+00 0. -1.
      -24    2    1    2    0    0 -0.69689598852E+02  0.40567643524E+02 -0.18515120478E+03  0.21707197903E+03  0.79604657913E+02 0.  0.
       24    2    1    2    0    0  0.69689598852E+02 -0.40567643524E+02 -0.87326777789E+03  0.88065016701E+03  0.80285309044E+02 0.  0.
      -13    1    4    4    0    0  0.34647558133E+02 -0.92011403011E+01 -0.10512943581E+03  0.11107345561E+03  0.00000000000E+00 0.  1.
       14    1    4    4    0    0  0.35042040720E+02 -0.31366503223E+02 -0.76813834208E+03  0.76957671139E+03  0.00000000000E+00 0. -1.
        3    1    3    3  502    0 -0.35737037489E+02  0.25491380490E+02 -0.17223563897E+03  0.17774155861E+03  0.00000000000E+00 0. -1.
       -4    1    3    3    0  502 -0.33952561363E+02  0.15076263034E+02 -0.12915565810E+02  0.39330420419E+02  0.00000000000E+00 0.  1.
</event>
<event>
 8   1  0.2279600E-02  0.8542670E+02  0.7546771E-02  0.1314452E+00
        1   -1    0    0  501    0  0.00000000000E+00  0.00000000000E+00  0.43305226545E+03  0.43305226545E+03  0.00000000000E+00 0. -1.
       -1   -1    0    0    0  501 -0.00000000000E+00 -0.00000000000E+00 -0.28894701456E+02  0.28894701456E+02  0.00000000000E+00 0.  1.
       24    2    1    2    0    0 -0.11400004199E+02  0.21341431990E+02  0.35157959935E+03  0.36180925309E+03  0.81928652682E+02 0.  0.
      -24    2    1    2    0    0  0.11400004199E+02 -0.21341431990E+02  0.52577964642E+02  0.10013771381E+03  0.81717210832E+02 0.  0.
      -13    1    3    3    0    0  0.21676647863E+02  0.39610227156E+02  0.23367768072E+03  0.23800022190E+03  0.00000000000E+00 0.  1.
       14    1    3    3    0    0 -0.33076652063E+02 -0.18268795166E+02  0.11790191863E+03  0.12380903119E+03  0.00000000000E+00 0. -1.
        3    1    4    4  502    0  0.35861082144E+02 -0.30801624421E+02  0.56446545040E+02  0.73627234950E+02  0.00000000000E+00 0. -1.
       -4    1    4    4    0  502 -0.24461077945E+02  0.94601924310E+01 -0.38685803982E+01  0.26510478860E+02  0.00000000000E+00 0.  1.
</event>
<event>
 8   1  0.2279600E-02  0.8371068E+02  0.7546771E-02  0.1319262E+00
       -2   -1    0    0    0  501 -0.00000000000E+00  0.00000000000E+00  0.97199797903E+02  0.97199797903E+02  0.00000000000E+00 0.  1.
        2   -1    0    0  501    0  0.00000000000E+00 -0.00000000000E+00 -0.94689415934E+02  0.94689415934E+02  0.00000000000E+00 0. -1.
      -24    2    1    2    0    0  0.84903129734E+01 -0.20428319305E+02  0.48679666069E+02  0.96290678452E+02  0.80079855296E+02 0.  0.
       24    2    1    2    0    0 -0.84903129734E+01  0.20428319305E+02 -0.46169284099E+02  0.95598535384E+02  0.80734599333E+02 0.  0.
      -13    1    4    4    0    0  0.31149249705E+02 -0.10808086124E+02 -0.14512016795E+02  0.36023452282E+02  0.00000000000E+00 0.  1.
       14    1    4    4    0    0 -0.39639562679E+02  0.31236405428E+02 -0.31657267305E+02  0.59575083102E+02  0.00000000000E+00 0. -1.
        3    1    3    3  502    0 -0.19936236684E+02  0.20516842937E+02  0.31486973114E+01  0.28780352187E+02  0.00000000000E+00 0. -1.
       -4    1    3    3    0  502  0.28426549657E+02 -0.40945162242E+02  0.45530968757E+02  0.67510326265E+02  0.00000000000E+00 0.  1.
</event>
<event>
 8   1  0.2279600E-02  0.9429453E+02  0.7546771E-02  0.1293524E+00
       -1   -1    0    0    0  501 -0.00000000000E+00  0.00000000000E+00  0.61164192746E+03  0.61164192746E+03  0.00000000000E+00 0.  1.
        1   -1    0    0  501    0  0.00000000000E+00 -0.00000000000E+00 -0.19301481246E+02  0.19301481246E+02  0.00000000000E+00 0. -1.
       24    2    1    2    0    0 -0.16365206802E+02  0.43902551871E+02  0.45464210951E+03  0.46405335565E+03  0.80316966431E+02 0.  0.
      -24    2    1    2    0    0  0.16365206802E+02 -0.43902551871E+02  0.13769833671E+03  0.16689005306E+03  0.81830335595E+02 0.  0.
      -13    1    3    3    0    0 -0.33267145901E+02  0.40711880794E+02  0.43405007892E+03  0.43722263350E+03  0.00000000000E+00 0.  1.
       14    1    3    3    0    0  0.16901939099E+02  0.31906710774E+01  0.20592030581E+02  0.26830722142E+02  0.00000000000E+00 0. -1.
        3    1    4    4  502    0 -0.10162107749E+02  0.12996914300E+02  0.10748995298E+01  0.16533106914E+02  0.00000000000E+00 0. -1.
       -4    1    4    4    0  502  0.26527314551E+02 -0.56899466171E+02  0.13662343718E+03  0.15035694614E+03  0.00000000000E+00 0.  1.
</event>
<event>
 8   1  0.2279600E-02  0.7984252E+02  0.7546771E-02  0.1330887E+00
        2   -1    0    0  501    0  0.00000000000E+00  0.00000000000E+00  0.94759621459E+02  0.94759621459E+02  0.00000000000E+00 0. -1.
       -2   -1    0    0    0  501 -0.00000000000E+00 -0.00000000000E+00 -0.79494620934E+02  0.79494620934E+02  0.00000000000E+00 0.  1.
       24    2    1    2    0    0 -0.14952639682E+01 -0.12200081998E+02 -0.28787600157E+02  0.83065104548E+02  0.76941587296E+02 0.  0.
      -24    2    1    2    0    0  0.14952639682E+01  0.12200081998E+02  0.44052600681E+02  0.91189137845E+02  0.78890743558E+02 0.  0.
      -13    1    3    3    0    0  0.27088622667E+02 -0.30174655275E+02 -0.28022704433E+02  0.49290721872E+02  0.00000000000E+00 0.  1.
       14    1    3    3    0    0 -0.28583886635E+02  0.17974573277E+02 -0.76489572368E+00  0.33774382675E+02  0.00000000000E+00 0. -1.
        3    1    4    4  502    0 -0.85917034618E+01  0.44851601874E+02  0.25456962045E+02  0.52283271470E+02  0.00000000000E+00 0. -1.
       -4    1    4    4    0  502  0.10086967430E+02 -0.32651519876E+02  0.18595638637E+02  0.38905866376E+02  0.00000000000E+00 0.  1.
</event>
<event>
 8   1  0.2279600E-02  0.8210971E+02  0.7546771E-02  0.1323246E+00
       -2   -1    0    0    0  501 -0.00000000000E+00  0.00000000000E+00  0.75853274806E+02  0.75853274806E+02  0.00000000000E+00 0.  1.
        2   -1    0    0  501    0  0.00000000000E+00 -0.00000000000E+00 -0.45018579255E+03  0.45018579255E+03  0.00000000000E+00 0. -1.
      -24    2    1    2    0    0  0.14698870040E+02 -0.65041121474E+01  0.48476907249E+02  0.95352055746E+02  0.80521076391E+02 0.  0.
       24    2    1    2    0    0 -0.14698870040E+02  0.65041121474E+01 -0.42280942499E+03  0.43068701161E+03  0.80406043626E+02 0.  0.
      -13    1    4    4    0    0  0.31929028826E+02 -0.45626023060E+01 -0.12761009973E+03  0.13162301385E+03  0.00000000000E+00 0.  1.
       14    1    4    4    0    0 -0.46627898866E+02  0.11066714453E+02 -0.29519932525E+03  0.29906399775E+03  0.00000000000E+00 0. -1.
        3    1    3    3  502    0 -0.12795136367E+02  0.12942503049E+02 -0.14941254696E+02  0.23547080323E+02  0.00000000000E+00 0. -1.
       -4    1    3    3    0  502  0.27494006407E+02 -0.19446615197E+02  0.63418161946E+02  0.71804975423E+02  0.00000000000E+00 0.  1.
</event>
<event>
 8   1  0.2279600E-02  0.9117591E+02  0.7546771E-02  0.1301540E+00
        2   -1    0    0  501    0  0.00000000000E+00  0.00000000000E+00  0.45774753315E+02  0.45774753315E+02  0.00000000000E+00 0. -1.
       -2   -1    0    0    0  501 -0.00000000000E+00 -0.00000000000E+00 -0.38357448042E+03  0.38357448042E+03  0.00000000000E+00 0.  1.
      -24    2    1    2    0    0  0.34319658614E+02 -0.23939733148E+02 -0.32548225212E+03  0.33734506868E+03  0.78179595322E+02 0.  0.
       24    2    1    2    0    0 -0.34319658614E+02  0.23939733148E+02 -0.12317474984E+02  0.92004165058E+02  0.81006767665E+02 0.  0.
      -13    1    4    4    0    0 -0.51098794149E+01 -0.10577627229E+02 -0.38156779976E+02  0.39924139610E+02  0.00000000000E+00 0.  1.
       14    1    4    4    0    0 -0.29209779199E+02  0.34517360377E+02  0.25839304992E+02  0.52080025449E+02  0.00000000000E+00 0. -1.
        3    1    3    3  502    0  0.12136909813E+02  0.28503150143E+02 -0.94531101564E+02  0.99477953893E+02  0.00000000000E+00 0. -1.
       -4    1    3    3    0  502  0.22182748801E+02 -0.52442883290E+02 -0.23095115055E+03  0.23786711478E+03  0.00000000000E+00 0.  1.
</event>
<event>
 8   1  0.2279600E-02  0.8417854E+02  0.7546771E-02  0.1321970E+00
       -1   -1    0    0    0  501 -0.00000000000E+00  0.00000000000E+00  0.16229683244E+04  0.16229683244E+04  0.00000000000E+00 0.  1.
        1   -1    0    0  501    0  0.00000000000E+00 -0.00000000000E+00 -0.63959618775E+01  0.63959618775E+01  0.00000000000E+00 0. -1.
       24    2    1    2    0    0 -0.10423010939E+02  0.11186797772E+02  0.13220643631E+04  0.13247415626E+04  0.82778280923E+02 0.  0.
      -24    2    1    2    0    0  0.10423010939E+02 -0.11186797772E+02  0.29450799939E+03  0.30462272368E+03  0.76329931739E+02 0.  0.
      -13    1    3    3    0    0  0.12498265459E+02  0.57038990795E+01  0.12165321655E+04  0.12166097365E+04  0.00000000000E+00 0.  1.
       14    1    3    3    0    0 -0.22921276399E+02  0.54828986929E+01  0.10553219762E+03  0.10813182614E+03  0.00000000000E+00 0. -1.
        1    1    4    4  502    0  0.29890183329E+02  0.36034020048E+01  0.46390234914E+02  0.55303358495E+02  0.00000000000E+00 0. -1.
       -2    1    4    4    0  502 -0.19467172390E+02 -0.14790199777E+02  0.24811776447E+03  0.24931936519E+03  0.00000000000E+00 0.  1.
</event>
<event>
 8   1  0.2279600E-02  0.8598567E+02  0.7546771E-02  0.1313431E+00
        1   -1    0    0  501    0  0.00000000000E+00  0.00000000000E+00  0.20042505217E+02  0.20042505217E+02  0.00000000000E+00 0. -1.
       -1   -1    0    0    0  501 -0.00000000000E+00 -0.00000000000E+00 -0.51275755365E+03  0.51275755365E+03  0.00000000000E+00 0.  1.
       24    2    1    2    0    0  0.62881252389E+01  0.25974312865E+02 -0.38837616178E+03  0.39759599617E+03  0.80822816620E+02 0.  0.
      -24    2    1    2    0    0 -0.62881252389E+01 -0.25974312865E+02 -0.10433888666E+03  0.13520406270E+03  0.81727167168E+02 0.  0.
      -13    1    3    3    0    0  0.37733712752E+02 -0.61609046843E+01 -0.13720617912E+03  0.14243358246E+03  0.00000000000E+00 0.  1.
       14    1    3    3    0    0 -0.31445587513E+02  0.32135217549E+02 -0.25116998266E+03  0.25516241371E+03  0.00000000000E+00 0. -1.
        3    1    4    4  502    0 -0.40613942450E+02 -0.98152913878E+01 -0.29028585138E+02  0.50877215150E+02  0.00000000000E+00 0. -1.
       -4    1    4    4    0  502  0.34325817211E+02 -0.16159021477E+02 -0.75310301521E+02  0.84326847548E+02  0.00000000000E+00 0.  1.
</event>
<event>
 8   1  0.2279600E-02  0.8268072E+02  0.7546771E-02  0.1322258E+00
        1   -1    0    0  501    0  0.00000000000E+00  0.00000000000E+00  0.14328084051E+03  0.14328084051E+03  0.00000000000E+00 0. -1.
       -1   -1    0    0    0  501 -0.00000000000E+00 -0.00000000000E+00 -0.48686418756E+02  0.48686418756E+02  0.00000000000E+00 0.  1.
       24    2    1    2    0    0  0.14313365563E+02 -0.45579679111E+00  0.64519997638E+02  0.10487579471E+03  0.81431087652E+02 0.  0.
      -24    2    1    2    0    0 -0.14313365563E+02  0.45579679111E+00  0.30074424115E+02  0.87091464557E+02  0.80469696335E+02 0.  0.
      -13    1    3    3    0    0 -0.91955088377E+01  0.21817726672E+02 -0.83724463564E+01  0.25113112868E+02  0.00000000000E+00 0.  1.
       14    1    3    3    0    0  0.23508874401E+02 -0.22273523463E+02  0.72892443994E+02  0.79762681841E+02  0.00000000000E+00 0. -1.
        3    1    4    4  502    0 -0.13713970590E+02  0.29914359482E+02 -0.12596167641E+02  0.35236420530E+02  0.00000000000E+00 0. -1.
       -4    1    4    4    0  502 -0.59939497305E+00 -0.29458562691E+02  0.42670591756E+02  0.51855044026E+02  0.00000000000E+00 0.  1.
</event>
<event>
 8   1  0.2279600E-02  0.8991215E+02  0.7546771E-02  0.1305254E+00
       -1   -1    0    0    0  501 -0.00000000000E+00  0.00000000000E+00  0.28553350582E+02  0.28553350582E+02  0.00000000000E+00 0.  1.
        1   -1    0    0  501    0  0.00000000000E+00 -0.00000000000E+00 -0.37671819753E+03  0.37671819753E+03  0.00000000000E+00 0. -1.
       24    2    1    2    0    0  0.41906147615E+01 -0.39349123231E+02 -0.64795660805E+02  0.10797995811E+03  0.76780719867E+02 0.  0.
      -24    2    1    2    0    0 -0.41906147615E+01  0.39349123231E+02 -0.28336918614E+03  0.29729159000E+03  0.80735859934E+02 0.  0.
      -13    1    3    3    0    0 -0.21227124329E+02 -0.50247570348E+02 -0.26238045117E+02  0.60529696387E+02  0.00000000000E+00 0.  1.
       14    1    3    3    0    0  0.25417739091E+02  0.10898447117E+02 -0.38557615688E+02  0.47450261723E+02  0.00000000000E+00 0. -1.
        1    1    4    4  502    0  0.36969443486E+02  0.24807954236E+02 -0.17210570855E+03  0.17777105856E+03  0.00000000000E+00 0. -1.
       -2    1    4    4    0  502 -0.41160058247E+02  0.14541168995E+02 -0.11126347759E+03  0.11952053144E+03  0.00000000000E+00 0.  1.
</event>
<event>
 8   1  0.2279600E-02  0.8520125E+02  0.7546771E-02  0.1317035E+00
       -2   -1    0    0    0  501 -0.00000000000E+00  0.00000000000E+00  0.13019298570E+02  0.13019298570E+02  0.00000000000E+00 0.  1.
        2   -1    0    0  501    0  0.00000000000E+00 -0.00000000000E+00 -0.18290947919E+04  0.18290947919E+04  0.00000000000E+00 0. -1.
      -24    2    1    2    0    0 -0.74154840471E+01  0.22169978445E+02 -0.13899692851E+03  0.16303189851E+03  0.81931413086E+02 0.  0.
       24    2    1    2    0    0  0.74154840471E+01 -0.22169978445E+02 -0.16770785648E+04  0.16790821919E+04  0.78600237996E+02 0.  0.
      -13    1    4    4    0    0 -0.20548314638E+02 -0.26795100567E+02 -0.33358367628E+03  0.33528835310E+03  0.00000000000E+00 0.  1.
       14    1    4    4    0    0  0.27963798685E+02  0.46251221226E+01 -0.13434948885E+04  0.13437938388E+04  0.00000000000E+00 0. -1.
        3    1    3    3  502    0  0.17525216985E+02 -0.21595731839E+02 -0.83846897768E+02  0.88339182300E+02  0.00000000000E+00 0. -1.
       -4    1    3    3    0  502 -0.24940701033E+02  0.43765710284E+02 -0.55150030737E+02  0.74692716211E+02  0.00000000000E+00 0.  1.
</event>
<event>
 8   1  0.2279600E-02  0.8818330E+02  0.7546771E-02  0.1311436E+00
       -1   -1    0    0    0  501 -0.00000000000E+00  0.00000000000E+00  0.62176091737E+01  0.62176091737E+01  0.00000000000E+00 0.  1.
        1   -1    0    0  501    0  0.00000000000E+00 -0.00000000000E+00 -0.12686207100E+04  0.12686207100E+04  0.00000000000E+00 0. -1.
       24    2    1    2    0    0 -0.24707241283E+02  0.22110089582E+02 -0.42490553540E+03  0.43271097297E+03  0.74798183708E+02 0.  0.
      -24    2    1    2    0    0  0.24707241283E+02 -0.22110089582E+02 -0.83749756538E+03  0.84212734616E+03  0.81712858766E+02 0.  0.
      -13    1    3    3    0    0 -0.40602198494E+02  0.39320666277E+02 -0.25437918086E+03  0.26058284858E+03  0.00000000000E+00 0.  1.
       14    1    3    3    0    0  0.15894957211E+02 -0.17210576696E+02 -0.17052635454E+03  0.17212812439E+03  0.00000000000E+00 0. -1.
        3    1    4    4  502    0  0.13985739777E+02  0.22906722854E+02 -0.57183449732E+03  0.57246398244E+03  0.00000000000E+00 0. -1.
       -4    1    4    4    0  502  0.10721501506E+02 -0.45016812435E+02 -0.26566306807E+03  0.26966336372E+03  0.00000000000E+00 0.  1.
</event>
<event>
 8   1  0.2279600E-02  0.8676906E+02  0.7546771E-02  0.1313716E+00
        2   -1    0    0  501    0  0.00000000000E+00  0.00000000000E+00  0.81884762933E+03  0.81884762933E+03  0.00000000000E+00 0. -1.
       -2   -1    0    0    0  501 -0.00000000000E+00 -0.00000000000E+00 -0.88403703204E+01  0.88403703204E+01  0.00000000000E+00 0.  1.
      -24    2    1    2    0    0  0.22421690473E+02  0.22541007032E+02  0.35042454586E+03  0.35998602144E+03  0.76037780670E+02 0.  0.
       24    2    1    2    0    0 -0.22421690473E+02 -0.22541007032E+02  0.45958271315E+03  0.46770197821E+03  0.80734385453E+02 0.  0.
      -13    1    4    4    0    0 -0.51176062441E+02 -0.22996754854E+01  0.25074561789E+03  0.25592507256E+03  0.00000000000E+00 0.  1.
       14    1    4    4    0    0  0.28754371968E+02 -0.20241331546E+02  0.20883709527E+03  0.21177690566E+03  0.00000000000E+00 0. -1.
        3    1    3    3  502    0  0.10331511188E+02  0.33931895885E+02  0.64747916414E+02  0.73826867479E+02  0.00000000000E+00 0. -1.
       -4    1    3    3    0  502  0.12090179285E+02 -0.11390888854E+02  0.28567662945E+03  0.28615915396E+03  0.00000000000E+00 0.  1.
</event>
<event>
 8   1  0.2279600E-02  0.8735017E+02  0.7546771E-02  0.1310619E+00
       -2   -1    0    0    0  501 -0.00000000000E+00  0.00000000000E+00  0.88738532516E+02  0.88738532516E+02  0.00000000000E+00 0.  1.
        2   -1    0    0  501    0  0.00000000000E+00 -0.00000000000E+00 -0.85801646814E+02  0.85801646814E+02  0.00000000000E+00 0. -1.
      -24    2    1    2    0    0 -0.12893050019E+02  0.30459925397E+02 -0.10798642742E+02  0.86116674740E+02  0.78774571971E+02 0.  0.
       24    2    1    2    0    0  0.12893050019E+02 -0.30459925397E+02  0.13735528443E+02  0.88423504590E+02  0.80845616012E+02 0.  0.
      -13    1    4    4    0    0 -0.31089417572E+01  0.55987576684E+01  0.40337339963E+02  0.40842534220E+02  0.00000000000E+00 0.  1.
       14    1    4    4    0    0  0.16001991776E+02 -0.36058683065E+02 -0.26601811519E+02  0.47580970369E+02  0.00000000000E+00 0. -1.
        3    1    3    3  502    0  0.16949113990E+02 -0.19833640438E+02  0.22888079104E+01  0.26189394794E+02  0.00000000000E+00 0. -1.
       -4    1    3    3    0  502 -0.29842164009E+02  0.50293565834E+02 -0.13087450652E+02  0.59927279945E+02  0.00000000000E+00 0.  1.
</event>
<event>
 8   1  0.2279600E-02  0.1109862E+03  0.7546771E-02  0.1258933E+00
        2   -1    0    0  501    0  0.00000000000E+00  0.00000000000E+00  0.29268172095E+03  0.29268172095E+03  0.00000000000E+00 0. -1.
       -2   -1    0    0    0  501 -0.00000000000E+00 -0.00000000000E+00 -0.50149972609E+02  0.50149972609E+02  0.00000000000E+00 0.  1.
       24    2    1    2    0    0  0.76445406544E+02  0.14324235205E+02  0.19080688670E+03  0.22073787927E+03  0.79176129225E+02 0.  0.
      -24    2    1    2    0    0 -0.76445406544E+02 -0.14324235205E+02  0.51724861643E+02  0.12209381428E+03  0.78627948458E+02 0.  0.
      -13    1    3    3    0    0 -0.26216546379E+01 -0.25814865858E+01  0.96272276210E+02  0.96342557121E+02  0.00000000000E+00 0.  1.
       14    1    3    3    0    0  0.79067061182E+02  0.16905721791E+02  0.94534610486E+02  0.12439532215E+03  0.00000000000E+00 0. -1.
        3    1    4    4  502    0 -0.84471583022E+01  0.28700041366E+02  0.17425066486E+02  0.34621955460E+02  0.00000000000E+00 0. -1.
       -4    1    4    4    0  502 -0.67998248241E+02 -0.43024276572E+02  0.34299795157E+02  0.87471858825E+02  0.00000000000E+00 0.  1.
</event>
<event>
 8   1  0.2279600E-02  0.1020425E+03  0.7546771E-02  0.1276288E+00
        1   -1    0    0  501    0  0.00000000000E+00  0.00000000000E+00  0.25312426843E+02  0.25312426843E+02  0.00000000000E+00 0. -1.
       -1   -1    0    0    0  501 -0.00000000000E+00 -0.00000000000E+00 -0.57173797639E+03  0.57173797639E+03  0.00000000000E+00 0.  1.
       24    2    1    2    0    0  0.38438696803E+02 -0.51366264040E+02 -0.43177272206E+03  0.44356442029E+03  0.78776169840E+02 0.  0.
      -24    2    1    2    0    0 -0.38438696803E+02  0.51366264040E+02 -0.11465282748E+03  0.15348598294E+03  0.79351431094E+02 0.  0.
      -13    1    3    3    0    0  0.32765227637E+02  0.10288720185E+02 -0.22865258197E+03  0.23121725962E+03  0.00000000000E+00 0.  1.
       14    1    3    3    0    0  0.56734691661E+01 -0.61654984225E+02 -0.20312014010E+03  0.21234716067E+03  0.00000000000E+00 0. -1.
        1    1    4    4  502    0 -0.38963732171E+02 -0.80518827122E+01 -0.28974494999E+02  0.49219169034E+02  0.00000000000E+00 0. -1.
       -2    1    4    4    0  502  0.52503536782E+00  0.59418146752E+02 -0.85678332481E+02  0.10426681391E+03  0.00000000000E+00 0.  1.
</event>
<event>
 8   1  0.2279600E-02  0.9662354E+02  0.7546771E-02  0.1287720E+00
       -1   -1    0    0    0  501 -0.00000000000E+00  0.00000000000E+00  0.52845281130E+03  0.52845281130E+03  0.00000000000E+00 0.  1.
        1   -1    0    0  501    0  0.00000000000E+00 -0.00000000000E+00 -0.21342701715E+02  0.21342701715E+02  0.00000000000E+00 0. -1.
       24    2    1    2    0    0 -0.50931725898E+02 -0.27049415687E+01  0.36814290109E+03  0.38053833168E+03  0.81724346678E+02 0.  0.
      -24    2    1    2    0    0  0.50931725898E+02  0.27049415687E+01  0.13896720849E+03  0.16925718134E+03  0.82065528608E+02 0.  0.
      -13    1    3    3    0    0 -0.17789104733E+02 -0.37595230479E+02  0.10329385739E+03  0.11135292801E+03  0.00000000000E+00 0.  1.
       14    1    3    3    0    0 -0.33142621165E+02  0.34890288910E+02  0.26484904370E+03  0.26918540367E+03  0.00000000000E+00 0. -1.
        3    1    4    4  502    0 -0.22785055041E+02  0.11127549296E+01  0.35771595250E+02  0.42426453817E+02  0.00000000000E+00 0. -1.
       -4    1    4    4    0  502  0.73716780940E+02  0.15921866391E+01  0.10319561324E+03  0.12683072752E+03  0.00000000000E+00 0.  1.
</event>
<event>
 8   1  0.2279600E-02  0.9238174E+02  0.7546771E-02  0.1298663E+00
        1   -1    0    0  501    0  0.00000000000E+00  0.00000000000E+00  0.21558105982E+03  0.21558105982E+03  0.00000000000E+00 0. -1.
       -1   -1    0    0    0  501 -0.00000000000E+00 -0.00000000000E+00 -0.61328114968E+02  0.61328114968E+02  0.00000000000E+00 0.  1.
       24    2    1    2    0    0  0.18006582696E+02  0.36394524519E+02 -0.79536497845E+01  0.90240042518E+02  0.80194802160E+02 0.  0.
      -24    2    1    2    0    0 -0.18006582696E+02 -0.36394524519E+02  0.16220659463E+03  0.18666913227E+03  0.82979438197E+02 0.  0.
      -13    1    3    3    0    0 -0.78612346591E+01  0.54146990380E+02  0.75703669887E+01  0.55235912538E+02  0.00000000000E+00 0.  1.
       14    1    3    3    0    0  0.25867817355E+02 -0.17752465861E+02 -0.15524016773E+02  0.35004129980E+02  0.00000000000E+00 0. -1.
        1    1    4    4  502    0 -0.28647773050E+02 -0.28229191703E+02  0.16749140585E+03  0.17225258546E+03  0.00000000000E+00 0. -1.
       -2    1    4    4    0  502  0.10641190354E+02 -0.81653328162E+01 -0.52848112173E+01  0.14416546804E+02  0.00000000000E+00 0.  1.
</event>
<event>
 8   1  0.2279600E-02  0.1490254E+03  0.7546771E-02  0.1201718E+00
       -1   -1    0    0    0  501 -0.00000000000E+00  0.00000000000E+00  0.15033071928E+02  0.15033071928E+02  0.00000000000E+00 0.  1.
        1   -1    0    0  501    0  0.00000000000E+00 -0.00000000000E+00 -0.14971886088E+04  0.14971886088E+04  0.00000000000E+00 0. -1.
       24    2    1    2    0    0  0.96493825052E+02  0.80051068144E+02 -0.65072801440E+03  0.66754405105E+03  0.80304916372E+02 0.  0.
      -24    2    1    2    0    0 -0.96493825052E+02 -0.80051068144E+02 -0.83142752247E+03  0.84467762967E+03  0.80556447018E+02 0.  0.
      -13    1    3    3    0    0  0.17511211397E+02  0.29179031674E+02 -0.56665311610E+02  0.66098532162E+02  0.00000000000E+00 0.  1.
       14    1    3    3    0    0  0.78982613655E+02  0.50872036469E+02 -0.59406270279E+03  0.60144551889E+03  0.00000000000E+00 0. -1.
        1    1    4    4  502    0 -0.95353529161E+02 -0.37051080141E+02 -0.49103331425E+03  0.50157630901E+03  0.00000000000E+00 0. -1.
       -2    1    4    4    0  502 -0.11402958909E+01 -0.42999988002E+02 -0.34039420822E+03  0.34310132065E+03  0.00000000000E+00 0.  1.
</event>
<event>
 8   1  0.2279600E-02  0.1292011E+03  0.7546771E-02  0.1228886E+00
       -2   -1    0    0    0  501 -0.00000000000E+00  0.00000000000E+00  0.40278246039E+02  0.40278246039E+02  0.00000000000E+00 0.  1.
        2   -1    0    0  501    0  0.00000000000E+00 -0.00000000000E+00 -0.43860715906E+03  0.43860715906E+03  0.00000000000E+00 0. -1.
      -24    2    1    2    0    0  0.10048364671E+03  0.11929389319E+02 -0.14015320513E+03  0.19018551577E+03  0.79299028462E+02 0.  0.
       24    2    1    2    0    0 -0.10048364671E+03 -0.11929389319E+02 -0.25817570789E+03  0.28869988932E+03  0.80334652334E+02 0.  0.
      -13    1    4    4    0    0  0.56638611060E+01 -0.17531083063E+02 -0.16705953351E+02  0.24869802439E+02  0.00000000000E+00 0.  1.
       14    1    4    4    0    0 -0.10614750782E+03  0.56016937448E+01 -0.24146975454E+03  0.26383008688E+03  0.00000000000E+00 0. -1.
        1    1    3    3  502    0 -0.69678320865E+01  0.17799474290E+02 -0.34132983292E+02  0.39120742802E+02  0.00000000000E+00 0. -1.
       -2    1    3    3    0  502  0.10745147880E+03 -0.58700849711E+01 -0.10602022184E+03  0.15106477297E+03  0.00000000000E+00 0.  1.
</event>
<event>
 8   1  0.2279600E-02  0.8196337E+02  0.7546771E-02  0.1326076E+00
       -4   -1    0    0    0  501 -0.00000000000E+00  0.00000000000E+00  0.59744710675E+02  0.59744710675E+02  0.00000000000E+00 0.  1.
        4   -1    0    0  501    0  0.00000000000E+00 -0.00000000000E+00 -0.10777203123E+03  0.10777203123E+03  0.00000000000E+00 0. -1.
      -24    2    1    2    0    0 -0.94680799114E+01  0.55999911314E+01 -0.21313563458E+02  0.84689205221E+02  0.81221850852E+02 0.  0.
       24    2    1    2    0    0  0.94680799114E+01 -0.55999911314E+01 -0.26713757096E+02  0.82827536684E+02  0.77625843487E+02 0.  0.
      -13    1    4    4    0    0 -0.59856724692E+01  0.34638533599E+02 -0.94962014288E+01  0.36412005250E+02  0.00000000000E+00 0.  1.
       14    1    4    4    0    0  0.15453752381E+02 -0.40238524730E+02 -0.17217555667E+02  0.46415531433E+02  0.00000000000E+00 0. -1.
        3    1    3    3  502    0  0.22283609797E+02  0.15488999243E+02 -0.38618541388E+02  0.47200212945E+02  0.00000000000E+00 0. -1.
       -4    1    3    3    0  502 -0.31751689708E+02 -0.98890081118E+01  0.17304977929E+02  0.37488992276E+02  0.00000000000E+00 0.  1.
</event>
<event>
 8   1  0.2279600E-02  0.8962223E+02  0.7546771E-02  0.1303917E+00
        2   -1    0    0  501    0  0.00000000000E+00  0.00000000000E+00  0.97973758083E+02  0.97973758083E+02  0.00000000000E+00 0. -1.
       -2   -1    0    0    0  501 -0.00000000000E+00 -0.00000000000E+00 -0.20302347939E+03  0.20302347939E+03  0.00000000000E+00 0.  1.
      -24    2    1    2    0    0  0.37035120433E+02 -0.16202521437E+02 -0.16880763690E+03  0.19100989067E+03  0.79715984676E+02 0.  0.
       24    2    1    2    0    0 -0.37035120433E+02  0.16202521437E+02  0.63757915596E+02  0.10998734680E+03  0.79987641595E+02 0.  0.
      -13    1    4    4    0    0 -0.85529800388E+01 -0.30846571027E+02  0.11198295759E+02  0.33912626551E+02  0.00000000000E+00 0.  1.
       14    1    4    4    0    0 -0.28482140394E+02  0.47049092465E+02  0.52559619837E+02  0.76074720246E+02  0.00000000000E+00 0. -1.
        1    1    3    3  502    0 -0.25183975814E+02 -0.36532886498E+01 -0.57441212187E+02  0.62825727319E+02  0.00000000000E+00 0. -1.
       -2    1    3    3    0  502  0.62219096246E+02 -0.12549232788E+02 -0.11136642472E+03  0.12818416336E+03  0.00000000000E+00 0.  1.
</event>
<event>
 8   1  0.2279600E-02  0.1137124E+03  0.7546771E-02  0.1257836E+00
       -2   -1    0    0    0  501 -0.00000000000E+00  0.00000000000E+00  0.50291139329E+02  0.50291139329E+02  0.00000000000E+00 0.  1.
        2   -1    0    0  501    0  0.00000000000E+00 -0.00000000000E+00 -0.24375126177E+03  0.24375126177E+03  0.00000000000E+00 0. -1.
      -24    2    1    2    0    0 -0.63328685033E+01 -0.76524921136E+02 -0.12309499742E+03  0.16757952616E+03  0.83871034467E+02 0.  0.
       24    2    1    2    0    0  0.63328685033E+01  0.76524921136E+02 -0.70365125031E+02  0.12646287494E+03  0.71731716409E+02 0.  0.
      -13    1    4    4    0    0 -0.28385034447E+02  0.44972449959E+02 -0.56390514148E+02  0.77512073394E+02  0.00000000000E+00 0.  1.
       14    1    4    4    0    0  0.34717902950E+02  0.31552471177E+02 -0.13974610883E+02  0.48950801545E+02  0.00000000000E+00 0. -1.
        3    1    3    3  502    0  0.12362247375E+02 -0.87490394106E+02 -0.11359836037E+03  0.14391657896E+03  0.00000000000E+00 0. -1.
       -4    1    3    3    0  502 -0.18695115878E+02  0.10965472971E+02 -0.94966370433E+01  0.23662947202E+02  0.00000000000E+00 0.  1.
</event>
<event>
 8   1  0.2279600E-02  0.9743133E+02  0.7546771E-02  0.1286217E+00
        1   -1    0    0  501    0  0.00000000000E+00  0.00000000000E+00  0.18000901791E+04  0.18000901791E+04  0.00000000000E+00 0. -1.
       -1   -1    0    0    0  501 -0.00000000000E+00 -0.00000000000E+00 -0.60528056157E+01  0.60528056157E+01  0.00000000000E+00 0.  1.
       24    2    1    2    0    0  0.68411294604E+01  0.52961336186E+02  0.12327589227E+04  0.12366031806E+04  0.81493316133E+02 0.  0.
      -24    2    1    2    0    0 -0.68411294604E+01 -0.52961336186E+02  0.56127845087E+03  0.56953980421E+03  0.80562925613E+02 0.  0.
      -13    1    3    3    0    0  0.34119348875E+02  0.59604415371E+02  0.93759775966E+03  0.94010976764E+03  0.00000000000E+00 0.  1.
       14    1    3    3    0    0 -0.27278219414E+02 -0.66430791851E+01  0.29516116300E+03  0.29649341291E+03  0.00000000000E+00 0. -1.
        3    1    4    4  502    0 -0.28934088687E+02  0.60584407065E+01  0.11084344372E+03  0.11471771967E+03  0.00000000000E+00 0. -1.
       -4    1    4    4    0  502  0.22092959226E+02 -0.59019776892E+02  0.45043500716E+03  0.45482208454E+03  0.00000000000E+00 0.  1.
</event>
<event>
 8   1  0.2279600E-02  0.9070784E+02  0.7546771E-02  0.1302052E+00
       -2   -1    0    0    0  501 -0.00000000000E+00  0.00000000000E+00  0.28163469582E+01  0.28163469582E+01  0.00000000000E+00 0.  1.
        2   -1    0    0  501    0  0.00000000000E+00 -0.00000000000E+00 -0.37456854842E+04  0.37456854842E+04  0.00000000000E+00 0. -1.
      -24    2    1    2    0    0 -0.80448525034E+01  0.42527168177E+02 -0.97897256437E+03  0.98316590360E+03  0.79715949010E+02 0.  0.
       24    2    1    2    0    0  0.80448525034E+01 -0.42527168177E+02 -0.27638965729E+04  0.27653359276E+04  0.78007993365E+02 0.  0.
      -13    1    4    4    0    0 -0.31632435764E+02 -0.19696854503E+02 -0.75621922797E+03  0.75713677616E+03  0.00000000000E+00 0.  1.
       14    1    4    4    0    0  0.39677288268E+02 -0.22830313673E+02 -0.20076773449E+04  0.20081991514E+04  0.00000000000E+00 0. -1.
        1    1    3    3  502    0 -0.10124482692E+02 -0.15352226003E+02 -0.54927326511E+03  0.54958103657E+03  0.00000000000E+00 0. -1.
       -2    1    3    3    0  502  0.20796301885E+01  0.57879394179E+02 -0.42969929926E+03  0.43358486703E+03  0.00000000000E+00 0.  1.
</event>
<event>
 8   1  0.2279600E-02  0.8434619E+02  0.7546771E-02  0.1318417E+00
       -2   -1    0    0    0  501 -0.00000000000E+00  0.00000000000E+00  0.36439823315E+01  0.36439823315E+01  0.00000000000E+00 0.  1.
        2   -1    0    0  501    0  0.00000000000E+00 -0.00000000000E+00 -0.29636842200E+04  0.29636842200E+04  0.00000000000E+00 0. -1.
       24    2    1    2    0    0  0.21151886216E+02 -0.39282857697E+01 -0.23543381992E+04  0.23557816058E+04  0.79597640406E+02 0.  0.
      -24    2    1    2    0    0 -0.21151886216E+02  0.39282857697E+01 -0.60570203844E+03  0.61154659649E+03  0.81556401268E+02 0.  0.
      -13    1    3    3    0    0 -0.25912690580E+02  0.16894764642E+02 -0.92577104669E+03  0.92628771529E+03  0.00000000000E+00 0.  1.
       14    1    3    3    0    0  0.47064576796E+02 -0.20823050412E+02 -0.14285671525E+04  0.14294938905E+04  0.00000000000E+00 0. -1.
        1    1    4    4  502    0  0.23773679751E+02  0.38957628002E+01 -0.71308385280E+02  0.75267859196E+02  0.00000000000E+00 0. -1.
       -2    1    4    4    0  502 -0.44925565968E+02  0.32522969472E-01 -0.53439365316E+03  0.53627873729E+03  0.00000000000E+00 0.  1.
</event>
<event>
 8   1  0.2279600E-02  0.8558687E+02  0.7546771E-02  0.1315688E+00
        2   -1    0    0  501    0  0.00000000000E+00  0.00000000000E+00  0.34925018984E+03  0.34925018984E+03  0.00000000000E+00 0. -1.
       -2   -1    0    0    0  501 -0.00000000000E+00 -0.00000000000E+00 -0.14424746053E+03  0.14424746053E+03  0.00000000000E+00 0.  1.
      -24    2    1    2    0    0 -0.51393565448E+01 -0.18743619835E+02 -0.12597604692E+03  0.15229930131E+03  0.83350923880E+02 0.  0.
       24    2    1    2    0    0  0.51393565448E+01  0.18743619835E+02  0.33097877623E+03  0.34119834905E+03  0.80570632424E+02 0.  0.
      -13    1    4    4    0    0  0.31050394572E+02 -0.19513724847E+02  0.14775676297E+03  0.15223985505E+03  0.00000000000E+00 0.  1.
       14    1    4    4    0    0 -0.25911038027E+02  0.38257344682E+02  0.18322201326E+03  0.18895849400E+03  0.00000000000E+00 0. -1.
        3    1    3    3  502    0  0.21219562358E+02 -0.16714222888E+02 -0.37785656947E+01  0.27274761816E+02  0.00000000000E+00 0. -1.
       -4    1    3    3    0  502 -0.26358918903E+02 -0.20293969468E+01 -0.12219748123E+03  0.12502453950E+03  0.00000000000E+00 0.  1.
</event>
<event>
 8   1  0.2279600E-02  0.9340363E+02  0.7546771E-02  0.1295344E+00
       -1   -1    0    0    0  501 -0.00000000000E+00  0.00000000000E+00  0.18316041787E+02  0.18316041787E+02  0.00000000000E+00 0.  1.
        1   -1    0    0  501    0  0.00000000000E+00 -0.00000000000E+00 -0.53328569455E+03  0.53328569455E+03  0.00000000000E+00 0. -1.
       24    2    1    2    0    0 -0.36100585277E+02  0.30439985595E+02 -0.16484679093E+03  0.18946952809E+03  0.80587794451E+02 0.  0.
      -24    2    1    2    0    0  0.36100585277E+02 -0.30439985595E+02 -0.35012286184E+03  0.36213220826E+03  0.79522782215E+02 0.  0.
      -13    1    3    3    0    0 -0.36495961376E+02  0.31681525937E+02 -0.35133729115E+02  0.59749922209E+02  0.00000000000E+00 0.  1.
       14    1    3    3    0    0  0.39537609932E+00 -0.12415403413E+01 -0.12971306181E+03  0.12971960588E+03  0.00000000000E+00 0. -1.
        3    1    4    4  502    0  0.56061969852E+02 -0.29358605449E+02 -0.31845812679E+03  0.32468515626E+03  0.00000000000E+00 0. -1.
       -4    1    4    4    0  502 -0.19961384575E+02 -0.10813801462E+01 -0.31664735049E+02  0.37447051992E+02  0.00000000000E+00 0.  1.
</event>
<event>
 8   1  0.2279600E-02  0.1088817E+03  0.7546771E-02  0.1263136E+00
        2   -1    0    0  501    0  0.00000000000E+00  0.00000000000E+00  0.62579413372E+03  0.62579413372E+03  0.00000000000E+00 0. -1.
       -2   -1    0    0    0  501 -0.00000000000E+00 -0.00000000000E+00 -0.60890583254E+02  0.60890583254E+02  0.00000000000E+00 0.  1.
      -24    2    1    2    0    0  0.64966394051E+02  0.29183782976E+02 -0.27083125314E+01  0.10891540651E+03  0.82358395283E+02 0.  0.
       24    2    1    2    0    0 -0.64966394051E+02 -0.29183782976E+02  0.56761186300E+03  0.57776931046E+03  0.81005083512E+02 0.  0.
      -13    1    4    4    0    0 -0.39165384350E+02  0.67741014740E+01  0.93516604111E+02  0.10161284873E+03  0.00000000000E+00 0.  1.
       14    1    4    4    0    0 -0.25801009701E+02 -0.35957884450E+02  0.47409525889E+03  0.47615646174E+03  0.00000000000E+00 0. -1.
        1    1    3    3  502    0  0.25862723501E+02  0.17836520871E+02  0.39365788016E+02  0.50365535933E+02  0.00000000000E+00 0. -1.
       -2    1    3    3    0  502  0.39103670550E+02  0.11347262105E+02 -0.42074100547E+02  0.58549870577E+02  0.00000000000E+00 0.  1.
</event>
<event>
 8   1  0.2279600E-02  0.1069418E+03  0.7546771E-02  0.1267131E+00
       -1   -1    0    0    0  501 -0.00000000000E+00  0.00000000000E+00  0.17627863821E+04  0.17627863821E+04  0.00000000000E+00 0.  1.
        1   -1    0    0  501    0  0.00000000000E+00 -0.00000000000E+00 -0.64617714330E+01  0.64617714330E+01  0.00000000000E+00 0. -1.
       24    2    1    2    0    0  0.58423538804E+02 -0.39118100582E+02  0.96521649238E+03  0.97094457340E+03  0.78402498538E+02 0.  0.
      -24    2    1    2    0    0 -0.58423538804E+02  0.39118100582E+02  0.79110811832E+03  0.79830358017E+03  0.80579250129E+02 0.  0.
      -13    1    3    3    0    0  0.30262725337E+02 -0.59296838116E+02  0.49549585727E+03  0.49994808943E+03  0.00000000000E+00 0.  1.
       14    1    3    3    0    0  0.28160813467E+02  0.20178737534E+02  0.46972063512E+03  0.47099648398E+03  0.00000000000E+00 0. -1.
        1    1    4    4  502    0 -0.40047094503E+02  0.46799819801E+02  0.27510552782E+03  0.28191673301E+03  0.00000000000E+00 0. -1.
       -2    1    4    4    0  502 -0.18376444301E+02 -0.76817192191E+01  0.51600259050E+03  0.51638684716E+03  0.00000000000E+00 0.  1.
</event>
<event>
 8   1  0.2279600E-02  0.8458690E+02  0.7546771E-02  0.1317870E+00
       -2   -1    0    0    0  501 -0.00000000000E+00  0.00000000000E+00  0.13360762016E+03  0.13360762016E+03  0.00000000000E+00 0.  1.
        2   -1    0    0  501    0  0.00000000000E+00 -0.00000000000E+00 -0.12539529894E+03  0.12539529894E+03  0.00000000000E+00 0. -1.
      -24    2    1    2    0    0 -0.10007244792E+02 -0.21205040441E+02  0.10301426970E+03  0.13329247415E+03  0.81272044486E+02 0.  0.
       24    2    1    2    0    0  0.10007244792E+02  0.21205040441E+02 -0.94801948485E+02  0.12571044495E+03  0.79157487604E+02 0.  0.
      -13    1    4    4    0    0 -0.23846783374E+02 -0.12854686794E+02 -0.61697612234E+02  0.67383287285E+02  0.00000000000E+00 0.  1.
       14    1    4    4    0    0  0.33854028166E+02  0.34059727235E+02 -0.33104336250E+02  0.58327157662E+02  0.00000000000E+00 0. -1.
        3    1    3    3  502    0  0.33903079712E+02 -0.79829450353E+01  0.25271770167E+02  0.43032645663E+02  0.00000000000E+00 0. -1.
       -4    1    3    3    0  502 -0.43910324504E+02 -0.13222095406E+02  0.77742499536E+02  0.90259828490E+02  0.00000000000E+00 0.  1.
</event>
<event>
 8   1  0.2279600E-02  0.1278625E+03  0.7546771E-02  0.1230852E+00
       -2   -1    0    0    0  501 -0.00000000000E+00  0.00000000000E+00  0.16865703400E+02  0.16865703400E+02  0.00000000000E+00 0.  1.
        2   -1    0    0  501    0  0.00000000000E+00 -0.00000000000E+00 -0.18372133212E+04  0.18372133212E+04  0.00000000000E+00 0. -1.
      -24    2    1    2    0    0 -0.88921320979E+02 -0.43879882937E+02 -0.27070053913E+03  0.29916588260E+03  0.79931207747E+02 0.  0.
       24    2    1    2    0    0  0.88921320979E+02  0.43879882937E+02 -0.15496470786E+04  0.15549131420E+04  0.80724006957E+02 0.  0.
      -13    1    4    4    0    0  0.32515021651E+01 -0.20284037320E+02 -0.29009753597E+03  0.29082399284E+03  0.00000000000E+00 0.  1.
       14    1    4    4    0    0  0.85669818814E+02  0.64163920257E+02 -0.12595495427E+04  0.12640891491E+04  0.00000000000E+00 0. -1.
        3    1    3    3  502    0  0.49237058065E+01 -0.16994830908E+02 -0.10789461146E+03  0.10933578709E+03  0.00000000000E+00 0. -1.
       -4    1    3    3    0  502 -0.93845026786E+02 -0.26885052029E+02 -0.16280592768E+03  0.18983009551E+03  0.00000000000E+00 0.  1.
</event>
<event>
 8   1  0.2279600E-02  0.8123561E+02  0.7546771E-02  0.1325588E+00
        2   -1    0    0  501    0  0.00000000000E+00  0.00000000000E+00  0.35087916644E+03  0.35087916644E+03  0.00000000000E+00 0. -1.
       -2   -1    0    0    0  501 -0.00000000000E+00 -0.00000000000E+00 -0.20147106633E+02  0.20147106633E+02  0.00000000000E+00 0.  1.
      -24    2    1    2    0    0 -0.91983587011E+01  0.12405472563E+02  0.11750082076E+03  0.14284840849E+03  0.79754118244E+02 0.  0.
       24    2    1    2    0    0  0.91983587011E+01 -0.12405472563E+02  0.21323123905E+03  0.22817786458E+03  0.79743783629E+02 0.  0.
      -13    1    4    4    0    0 -0.33563647658E+02  0.63536572219E+01  0.10098242105E+03  0.10660364330E+03  0.00000000000E+00 0.  1.
       14    1    4    4    0    0  0.42762006359E+02 -0.18759129785E+02  0.11224881799E+03  0.12157422128E+03  0.00000000000E+00 0. -1.
        3    1    3    3  502    0  0.32888229665E+02 -0.13057054194E+01  0.28879488480E+02  0.43787730839E+02  0.00000000000E+00 0. -1.
       -4    1    3    3    0  502 -0.42086588366E+02  0.13711177982E+02  0.88621332279E+02  0.99060677652E+02  0.00000000000E+00 0.  1.
</event>
<event>
 8   1  0.2279600E-02  0.8018207E+02  0.7546771E-02  0.1329593E+00
       -2   -1    0    0    0  501 -0.00000000000E+00  0.00000000000E+00  0.48019627270E+02  0.48019627270E+02  0.00000000000E+00 0.  1.
        2   -1    0    0  501    0  0.00000000000E+00 -0.00000000000E+00 -0.38650619395E+03  0.38650619395E+03  0.00000000000E+00 0. -1.
      -24    2    1    2    0    0 -0.27070898001E+01 -0.14320796763E+01  0.67184653815E+01  0.80463043709E+02  0.80123557325E+02 0.  0.
       24    2    1    2    0    0  0.27070898001E+01  0.14320796763E+01 -0.34520503207E+03  0.35406277752E+03  0.78641954898E+02 0.  0.
      -13    1    4    4    0    0 -0.89442363299E+01  0.14428592770E+02 -0.12954863249E+02  0.21354440630E+02  0.00000000000E+00 0.  1.
       14    1    4    4    0    0  0.11651326130E+02 -0.12996513093E+02 -0.33225016882E+03  0.33270833688E+03  0.00000000000E+00 0. -1.
        3    1    3    3  502    0 -0.10366582440E+02 -0.39342331460E+02  0.91817758803E+01  0.41708393454E+02  0.00000000000E+00 0. -1.
       -4    1    3    3    0  502  0.76594926395E+01  0.37910251784E+02 -0.24633104988E+01  0.38754650255E+02  0.00000000000E+00 0.  1.
</event>
<event>
 8   1  0.2279600E-02  0.8203128E+02  0.7546771E-02  0.1325714E+00
        2   -1    0    0  501    0  0.00000000000E+00  0.00000000000E+00  0.19401402151E+03  0.19401402151E+03  0.00000000000E+00 0. -1.
       -2   -1    0    0    0  501 -0.00000000000E+00 -0.00000000000E+00 -0.79138452512E+02  0.79138452512E+02  0.00000000000E+00 0.  1.
      -24    2    1    2    0    0  0.14742549695E+02  0.82905317644E+01 -0.46004298160E+02  0.94050655632E+02  0.80268640745E+02 0.  0.
       24    2    1    2    0    0 -0.14742549695E+02 -0.82905317644E+01  0.16087986716E+03  0.17910181839E+03  0.76870371442E+02 0.  0.
      -13    1    4    4    0    0  0.25883862055E+02  0.86645543831E+01  0.10197144660E+03  0.10556147374E+03  0.00000000000E+00 0.  1.
       14    1    4    4    0    0 -0.40626411750E+02 -0.16955086147E+02  0.58908420556E+02  0.73540344644E+02  0.00000000000E+00 0. -1.
        3    1    3    3  502    0  0.36390127101E-01 -0.34271159169E+02 -0.81600104004E+01  0.35229241331E+02  0.00000000000E+00 0. -1.
       -4    1    3    3    0  502  0.14706159568E+02  0.42561690933E+02 -0.37844287759E+02  0.58821414301E+02  0.00000000000E+00 0.  1.
</event>
<event>
 8   1  0.2279600E-02  0.9850470E+02  0.7546771E-02  0.1286343E+00
        2   -1    0    0  501    0  0.00000000000E+00  0.00000000000E+00  0.75976018288E+03  0.75976018288E+03  0.00000000000E+00 0. -1.
       -2   -1    0    0    0  501 -0.00000000000E+00 -0.00000000000E+00 -0.12733935911E+02  0.12733935911E+02  0.00000000000E+00 0.  1.
      -24    2    1    2    0    0 -0.47735304807E+01 -0.49513104770E+02  0.29742234148E+03  0.31331011128E+03  0.85022599833E+02 0.  0.
       24    2    1    2    0    0  0.47735304807E+01  0.49513104770E+02  0.44960390549E+03  0.45918400751E+03  0.78942680370E+02 0.  0.
      -13    1    4    4    0    0 -0.17632391571E+02  0.52754457175E+02  0.17451285694E+03  0.18316296356E+03  0.00000000000E+00 0.  1.
       14    1    4    4    0    0  0.22405922052E+02 -0.32413524051E+01  0.27509104855E+03  0.27602104395E+03  0.00000000000E+00 0. -1.
        3    1    3    3  502    0 -0.33079589831E+02 -0.39740749480E+01  0.49584684598E+02  0.59738542682E+02  0.00000000000E+00 0. -1.
       -4    1    3    3    0  502  0.28306059350E+02 -0.45539029822E+02  0.24783765688E+03  0.25357156860E+03  0.00000000000E+00 0.  1.
</event>
<event>
 8   1  0.2279600E-02  0.1129626E+03  0.7546771E-02  0.1255302E+00
       -2   -1    0    0    0  501 -0.00000000000E+00  0.00000000000E+00  0.60130169679E+02  0.60130169679E+02  0.00000000000E+00 0.  1.
        2   -1    0    0  501    0  0.00000000000E+00 -0.00000000000E+00 -0.22989466492E+03  0.22989466492E+03  0.00000000000E+00 0. -1.
      -24    2    1    2    0    0 -0.52577219453E+02 -0.60352758421E+02 -0.43995731346E+02  0.12097354254E+03  0.79323099816E+02 0.  0.
       24    2    1    2    0    0  0.52577219453E+02  0.60352758421E+02 -0.12576876390E+03  0.16905129206E+03  0.79710337595E+02 0.  0.
      -13    1    4    4    0    0  0.30084090461E+02 -0.25255459303E+01 -0.43802592756E+01  0.30506024855E+02  0.00000000000E+00 0.  1.
       14    1    4    4    0    0  0.22493128992E+02  0.62878304351E+02 -0.12138850462E+03  0.13854526720E+03  0.00000000000E+00 0. -1.
        1    1    3    3  502    0  0.60450205883E+01 -0.65216390639E+01 -0.40331927937E+02  0.41300586692E+02  0.00000000000E+00 0. -1.
       -2    1    3    3    0  502 -0.58622240041E+02 -0.53831119357E+02 -0.36638034094E+01  0.79672955851E+02  0.00000000000E+00 0.  1.
</event>
<event>
 8   1  0.2279600E-02  0.1169789E+03  0.7546771E-02  0.1248480E+00
       -1   -1    0    0    0  501 -0.00000000000E+00  0.00000000000E+00  0.44923983140E+02  0.44923983140E+02  0.00000000000E+00 0.  1.
        1   -1    0    0  501    0  0.00000000000E+00 -0.00000000000E+00 -0.50715980106E+03  0.50715980106E+03  0.00000000000E+00 0. -1.
       24    2    1    2    0    0  0.59425693868E+02 -0.60612657852E+02 -0.55412641275E+02  0.12877638064E+03  0.79419695380E+02 0.  0.
      -24    2    1    2    0    0 -0.59425693868E+02  0.60612657852E+02 -0.40682317665E+03  0.42330740356E+03  0.80490704243E+02 0.  0.
      -13    1    3    3    0    0  0.37055558386E+02 -0.24706344487E+02  0.14691002209E+02  0.46897157814E+02  0.00000000000E+00 0.  1.
       14    1    3    3    0    0  0.22370135483E+02 -0.35906313365E+02 -0.70103643484E+02  0.81879222827E+02  0.00000000000E+00 0. -1.
        1    1    4    4  502    0 -0.27767147884E+02  0.74510484652E+02 -0.32278238983E+03  0.33243239615E+03  0.00000000000E+00 0. -1.
       -2    1    4    4    0  502 -0.31658545984E+02 -0.13897826799E+02 -0.84040786813E+02  0.90875007410E+02  0.00000000000E+00 0.  1.
</event>
<event>
 8   1  0.2279600E-02  0.9096722E+02  0.7546771E-02  0.1312657E+00
        3   -1    0    0  501    0  0.00000000000E+00  0.00000000000E+00  0.21617301490E+02  0.21617301490E+02  0.00000000000E+00 0. -1.
       -3   -1    0    0    0  501 -0.00000000000E+00 -0.00000000000E+00 -0.55881749188E+03  0.55881749188E+03  0.00000000000E+00 0.  1.
       24    2    1    2    0    0  0.10637639200E+02  0.66823098970E+01 -0.44492841157E+03  0.45086196818E+03  0.71815111905E+02 0.  0.
      -24    2    1    2    0    0 -0.10637639200E+02 -0.66823098970E+01 -0.92271778820E+02  0.12957282519E+03  0.90095633784E+02 0.  0.
      -13    1    3    3    0    0  0.20080338903E+02  0.18698408486E+02 -0.42431605399E+03  0.42520226265E+03  0.00000000000E+00 0.  1.
       14    1    3    3    0    0 -0.94426997028E+01 -0.12016098589E+02 -0.20612357585E+02  0.25659705536E+02  0.00000000000E+00 0. -1.
        3    1    4    4  502    0 -0.79239183024E+01 -0.25961987252E+01  0.17661098556E+02  0.19530569149E+02  0.00000000000E+00 0. -1.
       -4    1    4    4    0  502 -0.27137208975E+01 -0.40861111718E+01 -0.10993287738E+03  0.11004225604E+03  0.00000000000E+00 0.  1.
</event>
<event>
 8   1  0.2279600E-02  0.9355437E+02  0.7546771E-02  0.1296176E+00
        1   -1    0    0  501    0  0.00000000000E+00  0.00000000000E+00  0.28230645356E+02  0.28230645356E+02  0.00000000000E+00 0. -1.
       -1   -1    0    0    0  501 -0.00000000000E+00 -0.00000000000E+00 -0.95283685968E+03  0.95283685968E+03  0.00000000000E+00 0.  1.
       24    2    1    2    0    0  0.23901988371E+02  0.34601331953E+02 -0.87050777383E+03  0.87552053324E+03  0.83569507693E+02 0.  0.
      -24    2    1    2    0    0 -0.23901988371E+02 -0.34601331953E+02 -0.54098440502E+02  0.10554697180E+03  0.80280537928E+02 0.  0.
      -13    1    3    3    0    0  0.19270443861E+02 -0.52897928312E+00 -0.74105611065E+03  0.74130681162E+03  0.00000000000E+00 0.  1.
       14    1    3    3    0    0  0.46315445100E+01  0.35130311236E+02 -0.12945166318E+03  0.13421372162E+03  0.00000000000E+00 0. -1.
        1    1    4    4  502    0 -0.38511286087E+01 -0.43396444784E+02  0.37162660828E+01  0.43725201487E+02  0.00000000000E+00 0. -1.
       -2    1    4    4    0  502 -0.20050859762E+02  0.87951128311E+01 -0.57814706585E+02  0.61821770311E+02  0.00000000000E+00 0.  1.
</event>
<event>
 8   1  0.2279600E-02  0.1256695E+03  0.7546771E-02  0.1234112E+00
       -2   -1    0    0    0  501 -0.00000000000E+00  0.00000000000E+00  0.67449585453E+01  0.67449585453E+01  0.00000000000E+00 0.  1.
        2   -1    0    0  501    0  0.00000000000E+00 -0.00000000000E+00 -0.26775097281E+04  0.26775097281E+04  0.00000000000E+00 0. -1.
      -24    2    1    2    0    0  0.87241373770E+02 -0.41399236971E+02 -0.85801770810E+03  0.86717196448E+03  0.80423096442E+02 0.  0.
       24    2    1    2    0    0 -0.87241373770E+02  0.41399236971E+02 -0.18127470615E+04  0.18170827222E+04  0.80079687026E+02 0.  0.
      -13    1    4    4    0    0  0.55345044378E+01 -0.15582179898E+02 -0.22447975958E+03  0.22508797731E+03  0.00000000000E+00 0.  1.
       14    1    4    4    0    0 -0.92775878208E+02  0.56981416869E+02 -0.15882673019E+04  0.15919947449E+04  0.00000000000E+00 0. -1.
        3    1    3    3  502    0 -0.14032525250E+02  0.40548316092E+01 -0.91745108327E+02  0.92900583024E+02  0.00000000000E+00 0. -1.
       -4    1    3    3    0  502  0.10127389902E+03 -0.45454068580E+02 -0.76627259978E+03  0.77427138146E+03  0.00000000000E+00 0.  1.
</event>
<event>
 8   1  0.2279600E-02  0.8322926E+02  0.7546771E-02  0.1321816E+00
       -1   -1    0    0    0  501 -0.00000000000E+00  0.00000000000E+00  0.58610268339E+01  0.58610268339E+01  0.00000000000E+00 0.  1.
        1   -1    0    0  501    0  0.00000000000E+00 -0.00000000000E+00 -0.11828434206E+04  0.11828434206E+04  0.00000000000E+00 0. -1.
       24    2    1    2    0    0 -0.59451443615E+01 -0.27767816637E+02 -0.47660494171E+03  0.48339906279E+03  0.75604147148E+02 0.  0.
      -24    2    1    2    0    0  0.59451443615E+01  0.27767816637E+02 -0.70037745203E+03  0.70530538462E+03  0.78234991341E+02 0.  0.
      -13    1    3    3    0    0 -0.30259971280E+01  0.25735771440E+02 -0.19796847356E+03  0.19965721403E+03  0.00000000000E+00 0.  1.
       14    1    3    3    0    0 -0.29191472335E+01 -0.53503588077E+02 -0.27863646815E+03  0.28374184877E+03  0.00000000000E+00 0. -1.
        3    1    4    4  502    0  0.37293974811E+02  0.22334860244E+02 -0.54340906978E+03  0.54514502993E+03  0.00000000000E+00 0. -1.
       -4    1    4    4    0  502 -0.31348830450E+02  0.54329563936E+01 -0.15696838225E+03  0.16016035468E+03  0.00000000000E+00 0.  1.
</event>
<event>
 8   1  0.2279600E-02  0.8566222E+02  0.7546771E-02  0.1317335E+00
        2   -1    0    0  501    0  0.00000000000E+00  0.00000000000E+00  0.18657215233E+03  0.18657215233E+03  0.00000000000E+00 0. -1.
       -2   -1    0    0    0  501 -0.00000000000E+00 -0.00000000000E+00 -0.43829235998E+02  0.43829235998E+02  0.00000000000E+00 0.  1.
      -24    2    1    2    0    0 -0.27229577327E+02  0.67066539076E+01  0.23582584655E+02  0.83645807041E+02  0.75193441526E+02 0.  0.
       24    2    1    2    0    0  0.27229577327E+02 -0.67066539076E+01  0.11916033168E+03  0.14675558129E+03  0.80941873621E+02 0.  0.
      -13    1    4    4    0    0 -0.24190278407E+02 -0.14312924938E+02  0.69065551859E+02  0.74565942918E+02  0.00000000000E+00 0.  1.
       14    1    4    4    0    0  0.51419855735E+02  0.76062710308E+01  0.50094779820E+02  0.72189638370E+02  0.00000000000E+00 0. -1.
        1    1    3    3  502    0 -0.38706182770E+02  0.26843970253E+02  0.34141752292E+02  0.58175824645E+02  0.00000000000E+00 0. -1.
       -2    1    3    3    0  502  0.11476605442E+02 -0.20137316345E+02 -0.10559167637E+02  0.25469982396E+02  0.00000000000E+00 0.  1.
</event>
<event>
 8   1  0.2279600E-02  0.8932587E+02  0.7546771E-02  0.1304688E+00
       -2   -1    0    0    0  501 -0.00000000000E+00  0.00000000000E+00  0.32187003948E+01  0.32187003948E+01  0.00000000000E+00 0.  1.
        2   -1    0    0  501    0  0.00000000000E+00 -0.00000000000E+00 -0.29779597835E+04  0.29779597835E+04  0.00000000000E+00 0. -1.
      -24    2    1    2    0    0  0.33624943732E+02 -0.22167981702E+01 -0.87403674727E+03  0.87858940721E+03  0.82725811193E+02 0.  0.
       24    2    1    2    0    0 -0.33624943732E+02  0.22167981702E+01 -0.21007043358E+04  0.21025890766E+04  0.82380627501E+02 0.  0.
      -13    1    4    4    0    0  0.23051013008E+02  0.92717226974E+01 -0.10818062547E+04  0.10820915334E+04  0.00000000000E+00 0.  1.
       14    1    4    4    0    0 -0.56675956739E+02 -0.70549245272E+01 -0.10188980811E+04  0.10204975432E+04  0.00000000000E+00 0. -1.
        1    1    3    3  502    0 -0.22408160293E+02 -0.33698851207E+01 -0.48580575801E+03  0.48633395551E+03  0.00000000000E+00 0. -1.
       -2    1    3    3    0  502  0.56033104024E+02  0.11530869505E+01 -0.38823098926E+03  0.39225545169E+03  0.00000000000E+00 0.  1.
</event>
<event>
 8   1  0.2279600E-02  0.8353296E+02  0.7546771E-02  0.1330133E+00
        1   -1    0    0  501    0  0.00000000000E+00  0.00000000000E+00  0.12786036798E+03  0.12786036798E+03  0.00000000000E+00 0. -1.
       -1   -1    0    0    0  501 -0.00000000000E+00 -0.00000000000E+00 -0.16834771648E+03  0.16834771648E+03  0.00000000000E+00 0.  1.
       24    2    1    2    0    0  0.75211001807E-01 -0.22114875707E+02 -0.14610110739E+03  0.16155289137E+03  0.65304898334E+02 0.  0.
      -24    2    1    2    0    0 -0.75211001807E-01  0.22114875707E+02  0.10561375890E+03  0.13465519309E+03  0.80552352986E+02 0.  0.
      -13    1    3    3    0    0  0.97483540224E+01  0.86130908542E+01 -0.11826406360E+03  0.11897732759E+03  0.00000000000E+00 0.  1.
       14    1    3    3    0    0 -0.96731430206E+01 -0.30727966562E+02 -0.27837043790E+02  0.42575563788E+02  0.00000000000E+00 0. -1.
        3    1    4    4  502    0 -0.25418759334E+01  0.13572888684E+02  0.11833329669E+03  0.11913628140E+03  0.00000000000E+00 0. -1.
       -4    1    4    4    0  502  0.24666649316E+01  0.85419870236E+01 -0.12719537792E+02  0.15518911683E+02  0.00000000000E+00 0.  1.
</event>
<event>
 8   1  0.2279600E-02  0.8072125E+02  0.7546771E-02  0.1335386E+00
        2   -1    0    0  501    0  0.00000000000E+00  0.00000000000E+00  0.12425347764E+04  0.12425347764E+04  0.00000000000E+00 0. -1.
       -2   -1    0    0    0  501 -0.00000000000E+00 -0.00000000000E+00 -0.45841898647E+01  0.45841898647E+01  0.00000000000E+00 0.  1.
      -24    2    1    2    0    0 -0.91976115434E+00 -0.46288290727E+01  0.71632312124E+03  0.72085694449E+03  0.80583176747E+02 0.  0.
       24    2    1    2    0    0  0.91976115434E+00  0.46288290727E+01  0.52162746524E+03  0.52626202172E+03  0.69528634347E+02 0.  0.
      -13    1    4    4    0    0  0.79325775535E+01  0.13270791478E+02  0.24245711623E+02  0.28755768555E+02  0.00000000000E+00 0.  1.
       14    1    4    4    0    0 -0.70128163991E+01 -0.86419624054E+01  0.49738175362E+03  0.49750625317E+03  0.00000000000E+00 0. -1.
        3    1    3    3  502    0 -0.16153295779E+02  0.29721160630E+02  0.17552066508E+03  0.17875060902E+03  0.00000000000E+00 0. -1.
       -4    1    3    3    0  502  0.15233534625E+02 -0.34349989702E+02  0.54080245616E+03  0.54210633548E+03  0.00000000000E+00 0.  1.
</event>
<event>
 8   1  0.2279600E-02  0.9866043E+02  0.7546771E-02  0.1285073E+00
       -2   -1    0    0    0  501 -0.00000000000E+00  0.00000000000E+00  0.33565430331E+02  0.33565430331E+02  0.00000000000E+00 0.  1.
        2   -1    0    0  501    0  0.00000000000E+00 -0.00000000000E+00 -0.41172748269E+03  0.41172748269E+03  0.00000000000E+00 0. -1.
       24    2    1    2    0    0 -0.10236659964E+02 -0.55743938315E+02 -0.65353569705E+02  0.11834259670E+03  0.80757075564E+02 0.  0.
      -24    2    1    2    0    0  0.10236659964E+02  0.55743938315E+02 -0.31280848266E+03  0.32695031633E+03  0.76388393478E+02 0.  0.
      -13    1    3    3    0    0  0.50828050897E+00  0.87368806446E+01  0.13392957844E+02  0.15998835966E+02  0.00000000000E+00 0.  1.
       14    1    3    3    0    0 -0.10744940473E+02 -0.64480818960E+02 -0.78746527549E+02  0.10234376073E+03  0.00000000000E+00 0. -1.
        1    1    4    4  502    0 -0.22244847988E+02  0.70562912687E+01 -0.29272793481E+02  0.37436892855E+02  0.00000000000E+00 0. -1.
       -2    1    4    4    0  502  0.32481507953E+02  0.48687647046E+02 -0.28353568918E+03  0.28951342347E+03  0.00000000000E+00 0.  1.
</event>
<event>
 8   1  0.2279600E-02  0.8633612E+02  0.7546771E-02  0.1315291E+00
        1   -1    0    0  501    0  0.00000000000E+00  0.00000000000E+00  0.50111794130E+03  0.50111794130E+03  0.00000000000E+00 0. -1.
       -1   -1    0    0    0  501 -0.00000000000E+00 -0.00000000000E+00 -0.14045254525E+02  0.14045254525E+02  0.00000000000E+00 0.  1.
       24    2    1    2    0    0  0.30073346774E+01 -0.13156586061E+02  0.22605258256E+03  0.24023516691E+03  0.80193675051E+02 0.  0.
      -24    2    1    2    0    0 -0.30073346774E+01  0.13156586061E+02  0.26102010421E+03  0.27492802891E+03  0.85274770367E+02 0.  0.
      -13    1    3    3    0    0  0.33579130214E+02  0.27995790450E+01  0.46640900418E+02  0.57539284151E+02  0.00000000000E+00 0.  1.
       14    1    3    3    0    0 -0.30571795536E+02 -0.15956165106E+02  0.17941168214E+03  0.18269588276E+03  0.00000000000E+00 0. -1.
        1    1    4    4  502    0 -0.38186483196E+02  0.92376762081E+01  0.20449300151E+03  0.20823287404E+03  0.00000000000E+00 0. -1.
       -2    1    4    4    0  502  0.35179148519E+02  0.39189098531E+01  0.56527102695E+02  0.66695154877E+02  0.00000000000E+00 0.  1.
</event>
<event>
 8   1  0.2279600E-02  0.8520525E+02  0.7546771E-02  0.1317052E+00
       -3   -1    0    0    0  501 -0.00000000000E+00  0.00000000000E+00  0.46465155207E+02  0.46465155207E+02  0.00000000000E+00 0.  1.
        3   -1    0    0  501    0  0.00000000000E+00 -0.00000000000E+00 -0.20008820670E+03  0.20008820670E+03  0.00000000000E+00 0. -1.
       24    2    1    2    0    0 -0.57765201781E+01  0.51496217994E+01 -0.16482627053E+02  0.86784854461E+02  0.84853091748E+02 0.  0.
      -24    2    1    2    0    0  0.57765201781E+01 -0.51496217994E+01 -0.13714042444E+03  0.15976850744E+03  0.81600203222E+02 0.  0.
      -13    1    3    3    0    0  0.37667893033E+02  0.15062176775E+02 -0.60177608190E+01  0.41011617622E+02  0.00000000000E+00 0.  1.
       14    1    3    3    0    0 -0.43444413211E+02 -0.99125549754E+01 -0.10464866234E+02  0.45773236838E+02  0.00000000000E+00 0. -1.
        1    1    4    4  502    0 -0.24907365545E+02 -0.16589655386E+02 -0.11821877245E+03  0.12194782361E+03  0.00000000000E+00 0. -1.
       -2    1    4    4    0  502  0.30683885723E+02  0.11440033587E+02 -0.18921651987E+02  0.37820683831E+02  0.00000000000E+00 0.  1.
</event>
<event>
 8   1  0.2279600E-02  0.9301608E+02  0.7546771E-02  0.1298704E+00
        1   -1    0    0  501    0  0.00000000000E+00  0.00000000000E+00  0.63990428038E+03  0.63990428038E+03  0.00000000000E+00 0. -1.
       -1   -1    0    0    0  501 -0.00000000000E+00 -0.00000000000E+00 -0.13309995522E+02  0.13309995522E+02  0.00000000000E+00 0.  1.
       24    2    1    2    0    0  0.32836885230E+02  0.21163697361E+02  0.24109826594E+03  0.25665510991E+03  0.78849911133E+02 0.  0.
      -24    2    1    2    0    0 -0.32836885230E+02 -0.21163697361E+02  0.38549601892E+03  0.39655916599E+03  0.84414622034E+02 0.  0.
      -13    1    3    3    0    0 -0.86411354418E+00  0.34969849635E+02  0.43951685579E+02  0.56172838107E+02  0.00000000000E+00 0.  1.
       14    1    3    3    0    0  0.33700998774E+02 -0.13806152275E+02  0.19714658037E+03  0.20048227181E+03  0.00000000000E+00 0. -1.
        3    1    4    4  502    0 -0.54898241241E+02 -0.22927684859E+02  0.17361992251E+03  0.18353030572E+03  0.00000000000E+00 0. -1.
       -4    1    4    4    0  502  0.22061356011E+02  0.17639874981E+01  0.21187609640E+03  0.21302886027E+03  0.00000000000E+00 0.  1.
</event>
<event>
 8   1  0.2279600E-02  0.8366924E+02  0.7546771E-02  0.1320127E+00
       -2   -1    0    0    0  501 -0.00000000000E+00  0.00000000000E+00  0.10948692294E+02  0.10948692294E+02  0.00000000000E+00 0.  1.
        2   -1    0    0  501    0  0.00000000000E+00 -0.00000000000E+00 -0.19207635145E+04  0.19207635145E+04  0.00000000000E+00 0. -1.
      -24    2    1    2    0    0  0.16220463585E+02 -0.38552866673E+01 -0.15869782931E+03  0.17859747431E+03  0.80212780326E+02 0.  0.
       24    2    1    2    0    0 -0.16220463585E+02  0.38552866673E+01 -0.17511169929E+04  0.17531147325E+04  0.81991315224E+02 0.  0.
      -13    1    4    4    0    0 -0.14811685659E+02  0.34996323805E+02 -0.44317565970E+03  0.44480197174E+03  0.00000000000E+00 0.  1.
       14    1    4    4    0    0 -0.14087779263E+01 -0.31141037138E+02 -0.13079413332E+04  0.13083127607E+04  0.00000000000E+00 0. -1.
        1    1    3    3  502    0  0.18135064631E+01  0.36969589584E+02 -0.55766172247E+02  0.66932094893E+02  0.00000000000E+00 0. -1.
       -2    1    3    3    0  502  0.14406957122E+02 -0.40824876251E+02 -0.10293165706E+03  0.11166537942E+03  0.00000000000E+00 0.  1.
</event>
<event>
 8   1  0.2279600E-02  0.1103387E+03  0.7546771E-02  0.1260381E+00
       -1   -1    0    0    0  501 -0.00000000000E+00  0.00000000000E+00  0.15464139265E+02  0.15464139265E+02  0.00000000000E+00 0.  1.
        1   -1    0    0  501    0  0.00000000000E+00 -0.00000000000E+00 -0.90978672879E+03  0.90978672879E+03  0.00000000000E+00 0. -1.
       24    2    1    2    0    0  0.11906549801E+02 -0.72167226209E+02 -0.27115901183E+03  0.29239427341E+03  0.81346954209E+02 0.  0.
      -24    2    1    2    0    0 -0.11906549801E+02  0.72167226209E+02 -0.62316357770E+03  0.63285659465E+03  0.82612047277E+02 0.  0.
      -13    1    3    3    0    0  0.19954179128E+02 -0.61023054513E+02 -0.89124672133E+02  0.10984165708E+03  0.00000000000E+00 0.  1.
       14    1    3    3    0    0 -0.80476293267E+01 -0.11144171696E+02 -0.18203433970E+03  0.18255261633E+03  0.00000000000E+00 0. -1.
        1    1    4    4  502    0 -0.45208289825E+02  0.57810802567E+02 -0.44893148524E+03  0.45489048880E+03  0.00000000000E+00 0. -1.
       -2    1    4    4    0  502  0.33301740024E+02  0.14356423642E+02 -0.17423209246E+03  0.17796610585E+03  0.00000000000E+00 0.  1.
</event>
<event>
 8   1  0.2279600E-02  0.9035576E+02  0.7546771E-02  0.1306280E+00
       -1   -1    0    0    0  501 -0.00000000000E+00  0.00000000000E+00  0.54709359249E+01  0.54709359249E+01  0.00000000000E+00 0.  1.
        1   -1    0    0  501    0  0.00000000000E+00 -0.00000000000E+00 -0.15464361420E+04  0.15464361420E+04  0.00000000000E+00 0. -1.
       24    2    1    2    0    0 -0.40743402654E+02 -0.36315050627E+01 -0.54442065082E+03  0.55186774492E+03  0.80566433191E+02 0.  0.
      -24    2    1    2    0    0  0.40743402654E+02  0.36315050627E+01 -0.99654455522E+03  0.10000393330E+04  0.72831341164E+02 0.  0.
      -13    1    3    3    0    0 -0.56341754287E+02 -0.18327909805E+02 -0.26110349770E+03  0.26774118485E+03  0.00000000000E+00 0.  1.
       14    1    3    3    0    0  0.15598351633E+02  0.14696404742E+02 -0.28331715313E+03  0.28412656008E+03  0.00000000000E+00 0. -1.
        1    1    4    4  502    0 -0.13575857875E+02 -0.71001649130E+01 -0.62324185886E+02  0.64179594928E+02  0.00000000000E+00 0. -1.
       -2    1    4    4    0  502  0.54319260529E+02  0.10731669976E+02 -0.93422036934E+03  0.93585973804E+03  0.00000000000E+00 0.  1.
</event>
<event>
 8   1  0.2279600E-02  0.8200715E+02  0.7546771E-02  0.1324248E+00
        2   -1    0    0  501    0  0.00000000000E+00  0.00000000000E+00  0.36582919646E+04  0.36582919646E+04  0.00000000000E+00 0. -1.
       -2   -1    0    0    0  501 -0.00000000000E+00 -0.00000000000E+00 -0.88029615378E+01  0.88029615378E+01  0.00000000000E+00 0.  1.
      -24    2    1    2    0    0  0.87898615115E+01 -0.13926107517E+02  0.18817562460E+03  0.20481020698E+03  0.79157798455E+02 0.  0.
       24    2    1    2    0    0 -0.87898615115E+01  0.13926107517E+02  0.34613133784E+04  0.34622847191E+04  0.80336631802E+02 0.  0.
      -13    1    4    4    0    0  0.17894632748E+02 -0.12359265347E+02  0.31563523130E+03  0.31638357821E+03  0.00000000000E+00 0.  1.
       14    1    4    4    0    0 -0.26684494260E+02  0.26285372864E+02  0.31456781471E+04  0.31459011409E+04  0.00000000000E+00 0. -1.
        1    1    3    3  502    0 -0.32371011881E+02 -0.19296255725E+01  0.11974400687E+03  0.12405737804E+03  0.00000000000E+00 0. -1.
       -2    1    3    3    0  502  0.41160873393E+02 -0.11996481944E+02  0.68431617724E+02  0.80752828940E+02  0.00000000000E+00 0.  1.
</event>
<event>
 8   1  0.2279600E-02  0.1258081E+03  0.7546771E-02  0.1234233E+00
        2   -1    0    0  501    0  0.00000000000E+00  0.00000000000E+00  0.22983109110E+04  0.22983109110E+04  0.00000000000E+00 0. -1.
       -2   -1    0    0    0  501 -0.00000000000E+00 -0.00000000000E+00 -0.74575499273E+01  0.74575499273E+01  0.00000000000E+00 0.  1.
      -24    2    1    2    0    0 -0.93640828627E+02  0.20602393865E+02  0.81486927465E+03  0.82452386573E+03  0.81453096747E+02 0.  0.
       24    2    1    2    0    0  0.93640828627E+02 -0.20602393865E+02  0.14759840864E+04  0.14812445952E+04  0.79771323235E+02 0.  0.
      -13    1    4    4    0    0  0.25645933269E+01 -0.31901792129E+02  0.30708788269E+03  0.30875114441E+03  0.00000000000E+00 0.  1.
       14    1    4    4    0    0  0.91076235300E+02  0.11299398264E+02  0.11688962037E+04  0.11724934507E+04  0.00000000000E+00 0. -1.
        1    1    3    3  502    0 -0.58451006532E+02 -0.17198672674E+02  0.61788935493E+03  0.62088611632E+03  0.00000000000E+00 0. -1.
       -2    1    3    3    0  502 -0.35189822095E+02  0.37801066538E+02  0.19697991972E+03  0.20363774941E+03  0.00000000000E+00 0.  1.
</event>
<event>
 8   1  0.2279600E-02  0.8825917E+02  0.7546771E-02  0.1307623E+00
       -2   -1    0    0    0  501 -0.00000000000E+00  0.00000000000E+00  0.40517481359E+01  0.40517481359E+01  0.00000000000E+00 0.  1.
        2   -1    0    0  501    0  0.00000000000E+00 -0.00000000000E+00 -0.20818912076E+04  0.20818912076E+04  0.00000000000E+00 0. -1.
      -24    2    1    2    0    0 -0.70807362337E+01 -0.35220766974E+02 -0.73936646727E+03  0.74461564144E+03  0.80616631728E+02 0.  0.
       24    2    1    2    0    0  0.70807362337E+01  0.35220766974E+02 -0.13384729922E+04  0.13413273143E+04  0.79739412933E+02 0.  0.
      -13    1    4    4    0    0 -0.33003190518E+02  0.30787034537E+02 -0.56289956407E+03  0.56470609285E+03  0.00000000000E+00 0.  1.
       14    1    4    4    0    0  0.40083926751E+02  0.44337324366E+01 -0.77557342809E+03  0.77662122140E+03  0.00000000000E+00 0. -1.
        3    1    3    3  502    0  0.34608985941E+02 -0.13548031291E+02 -0.21891932494E+03  0.22205180002E+03  0.00000000000E+00 0. -1.
       -4    1    3    3    0  502 -0.41689722175E+02 -0.21672735683E+02 -0.52044714233E+03  0.52256384143E+03  0.00000000000E+00 0.  1.
</event>
<event>
 8   1  0.2279600E-02  0.9625763E+02  0.7546771E-02  0.1288684E+00
       -1   -1    0    0    0  501 -0.00000000000E+00  0.00000000000E+00  0.48088345870E+02  0.48088345870E+02  0.00000000000E+00 0.  1.
        1   -1    0    0  501    0  0.00000000000E+00 -0.00000000000E+00 -0.19560511455E+03  0.19560511455E+03  0.00000000000E+00 0. -1.
       24    2    1    2    0    0  0.21907416804E+02  0.47690107265E+02 -0.55980519429E+02  0.11086117620E+03  0.80013127621E+02 0.  0.
      -24    2    1    2    0    0 -0.21907416804E+02 -0.47690107265E+02 -0.91536249247E+02  0.13283228421E+03  0.80692314139E+02 0.  0.
      -13    1    3    3    0    0 -0.16041861007E+02  0.68897342648E+01  0.13304079877E+02  0.21950131758E+02  0.00000000000E+00 0.  1.
       14    1    3    3    0    0  0.37949277811E+02  0.40800373000E+02 -0.69284599306E+02  0.88911044445E+02  0.00000000000E+00 0. -1.
        3    1    4    4  502    0 -0.83793786995E+01 -0.69694143180E+02 -0.70898838326E+02  0.99770400706E+02  0.00000000000E+00 0. -1.
       -4    1    4    4    0  502 -0.13528038105E+02  0.22004035915E+02 -0.20637410921E+02  0.33061883508E+02  0.00000000000E+00 0.  1.
</event>
<event>
 8   1  0.2279600E-02  0.1826479E+03  0.7546771E-02  0.1165524E+00
        2   -1    0    0  501    0  0.00000000000E+00  0.00000000000E+00  0.19580451825E+03  0.19580451825E+03  0.00000000000E+00 0. -1.
       -2   -1    0    0    0  501 -0.00000000000E+00 -0.00000000000E+00 -0.37851331030E+03  0.37851331030E+03  0.00000000000E+00 0.  1.
      -24    2    1    2    0    0 -0.15271497045E+03 -0.56000649531E+02 -0.30493549405E+03  0.35545170970E+03  0.83080247037E+02 0.  0.
       24    2    1    2    0    0  0.15271497045E+03  0.56000649531E+02  0.12222670200E+03  0.21886611885E+03  0.80654053539E+02 0.  0.
      -13    1    4    4    0    0  0.37278124736E+02 -0.20892246080E+02  0.25426578685E+02  0.49725802495E+02  0.00000000000E+00 0.  1.
       14    1    4    4    0    0  0.11543684571E+03  0.76892895611E+02  0.96800123314E+02  0.16914031636E+03  0.00000000000E+00 0. -1.
        3    1    3    3  502    0  0.93913357927E+01 -0.10796202811E+02 -0.26143675872E+02  0.29803472469E+02  0.00000000000E+00 0. -1.
       -4    1    3    3    0  502 -0.16210630624E+03 -0.45204446720E+02 -0.27879181818E+03  0.32564823723E+03  0.00000000000E+00 0.  1.
</event>
<event>
 8   1  0.2279600E-02  0.1399154E+03  0.7546771E-02  0.1213689E+00
        2   -1    0    0  501    0  0.00000000000E+00  0.00000000000E+00  0.25256757965E+03  0.25256757965E+03  0.00000000000E+00 0. -1.
       -2   -1    0    0    0  501 -0.00000000000E+00 -0.00000000000E+00 -0.77174417843E+02  0.77174417843E+02  0.00000000000E+00 0.  1.
      -24    2    1    2    0    0  0.14302375523E+02  0.11331311838E+03  0.92407012529E+02  0.16706740753E+03  0.79548990883E+02 0.  0.
       24    2    1    2    0    0 -0.14302375523E+02 -0.11331311838E+03  0.82986149281E+02  0.16267458997E+03  0.80820173885E+02 0.  0.
      -13    1    4    4    0    0 -0.34775235470E+02 -0.11319903248E+03  0.77335545906E+02  0.14143593821E+03  0.00000000000E+00 0.  1.
       14    1    4    4    0    0  0.20472859947E+02 -0.11408589543E+00  0.56506033752E+01  0.21238651758E+02  0.00000000000E+00 0. -1.
        1    1    3    3  502    0  0.28707983945E+02  0.11019027742E+03  0.99030414533E+02  0.15090748352E+03  0.00000000000E+00 0. -1.
       -2    1    3    3    0  502 -0.14405608421E+02  0.31228409547E+01 -0.66234020043E+01  0.16159924001E+02  0.00000000000E+00 0.  1.
</event>
<event>
 8   1  0.2279600E-02  0.1178598E+03  0.7546771E-02  0.1249852E+00
        1   -1    0    0  501    0  0.00000000000E+00  0.00000000000E+00  0.22344929646E+03  0.22344929646E+03  0.00000000000E+00 0. -1.
       -1   -1    0    0    0  501 -0.00000000000E+00 -0.00000000000E+00 -0.58450195798E+02  0.58450195798E+02  0.00000000000E+00 0.  1.
       24    2    1    2    0    0  0.74162471947E+02  0.28566475225E+02  0.80430456481E+02  0.14268846867E+03  0.87033470627E+02 0.  0.
      -24    2    1    2    0    0 -0.74162471947E+02 -0.28566475225E+02  0.84568644182E+02  0.13921102359E+03  0.76887825814E+02 0.  0.
      -13    1    3    3    0    0 -0.20080467219E-01 -0.21979596099E+02  0.36839245405E+02  0.42897937595E+02  0.00000000000E+00 0.  1.
       14    1    3    3    0    0  0.74182552414E+02  0.50546071324E+02  0.43591211076E+02  0.99790531074E+02  0.00000000000E+00 0. -1.
        3    1    4    4  502    0 -0.99552007554E+00 -0.19704092882E+02  0.57341920464E+02  0.60641060174E+02  0.00000000000E+00 0. -1.
       -4    1    4    4    0  502 -0.73166951871E+02 -0.88623823430E+01  0.27226723718E+02  0.78569963417E+02  0.00000000000E+00 0.  1.
</event>
<event>
 8   1  0.2279600E-02  0.1379178E+03  0.7546771E-02  0.1219195E+00
       -1   -1    0    0    0  501 -0.00000000000E+00  0.00000000000E+00  0.28156891177E+03  0.28156891177E+03  0.00000000000E+00 0.  1.
        1   -1    0    0  501    0  0.00000000000E+00 -0.00000000000E+00 -0.78654481873E+02  0.78654481873E+02  0.00000000000E+00 0. -1.
       24    2    1    2    0    0  0.87699747538E+02 -0.51301272221E+02  0.17804565344E+03  0.22008142125E+03  0.80078155697E+02 0.  0.
      -24    2    1    2    0    0 -0.87699747538E+02  0.51301272221E+02  0.24868776452E+02  0.14014197239E+03  0.93264409792E+02 0.  0.
      -13    1    3    3    0    0 -0.11800908642E+02  0.14401909880E+01  0.41068685383E+02  0.42754795216E+02  0.00000000000E+00 0.  1.
       14    1    3    3    0    0  0.99500656181E+02 -0.52741463209E+02  0.13697696806E+03  0.17732662603E+03  0.00000000000E+00 0. -1.
        1    1    4    4  502    0 -0.21179953087E+02  0.68393494402E+00  0.48794132176E+02  0.53197044228E+02  0.00000000000E+00 0. -1.
       -2    1    4    4    0  502 -0.66519794451E+02  0.50617337277E+02 -0.23925355724E+02  0.86944928164E+02  0.00000000000E+00 0.  1.
</event>
<event>
 8   1  0.2279600E-02  0.1681316E+03  0.7546771E-02  0.1179838E+00
        1   -1    0    0  501    0  0.00000000000E+00  0.00000000000E+00  0.91909885562E+02  0.91909885562E+02  0.00000000000E+00 0. -1.
       -1   -1    0    0    0  501 -0.00000000000E+00 -0.00000000000E+00 -0.35968975930E+03  0.35968975930E+03  0.00000000000E+00 0.  1.
       24    2    1    2    0    0  0.44470438652E+02  0.14061784937E+03 -0.21997032780E+03  0.27680266922E+03  0.80509459688E+02 0.  0.
      -24    2    1    2    0    0 -0.44470438652E+02 -0.14061784937E+03 -0.47809545935E+02  0.17479697564E+03  0.80729365992E+02 0.  0.
      -13    1    3    3    0    0  0.41323251901E+02  0.14326690534E+03 -0.16782583702E+03  0.22449616675E+03  0.00000000000E+00 0.  1.
       14    1    3    3    0    0  0.31471867505E+01 -0.26490559691E+01 -0.52144490783E+02  0.52306502473E+02  0.00000000000E+00 0. -1.
        1    1    4    4  502    0 -0.19003257038E+02 -0.14086366313E+03 -0.45403582943E+02  0.14921521609E+03  0.00000000000E+00 0. -1.
       -2    1    4    4    0  502 -0.25467181614E+02  0.24581375582E+00 -0.24059629926E+01  0.25581759550E+02  0.00000000000E+00 0.  1.
</event>
<event>
 8   1  0.2279600E-02  0.1138281E+03  0.7546771E-02  0.1253681E+00
        2   -1    0    0  501    0  0.00000000000E+00  0.00000000000E+00  0.18390597000E+03  0.18390597000E+03  0.00000000000E+00 0. -1.
       -2   -1    0    0    0  501 -0.00000000000E+00 -0.00000000000E+00 -0.18885325463E+03  0.18885325463E+03  0.00000000000E+00 0.  1.
      -24    2    1    2    0    0  0.73532276447E+02  0.34857350073E+02 -0.15008305330E+03  0.18831080131E+03  0.79460710227E+02 0.  0.
       24    2    1    2    0    0 -0.73532276447E+02 -0.34857350073E+02  0.14513576868E+03  0.18444842332E+03  0.79591450434E+02 0.  0.
      -13    1    4    4    0    0  0.26046320336E+01 -0.95895174621E+01 -0.72069243124E+01  0.12275288642E+02  0.00000000000E+00 0.  1.
       14    1    4    4    0    0 -0.76136908480E+02 -0.25267832611E+02  0.15234269299E+03  0.17217313468E+03  0.00000000000E+00 0. -1.
        3    1    3    3  502    0  0.10391239144E+02  0.34082680349E+02 -0.13985974220E+02  0.38278119410E+02  0.00000000000E+00 0. -1.
       -4    1    3    3    0  502  0.63141037303E+02  0.77466972446E+00 -0.13609707908E+03  0.15003268190E+03  0.00000000000E+00 0.  1.
</event>
<event>
 8   1  0.2279600E-02  0.9979497E+02  0.7546771E-02  0.1282427E+00
       -3   -1    0    0    0  501 -0.00000000000E+00  0.00000000000E+00  0.67804771366E+02  0.67804771366E+02  0.00000000000E+00 0.  1.
        3   -1    0    0  501    0  0.00000000000E+00 -0.00000000000E+00 -0.14288172514E+03  0.14288172514E+03  0.00000000000E+00 0. -1.
       24    2    1    2    0    0  0.11391356429E+02 -0.53541822459E+02 -0.31156943623E+02  0.10454564014E+03  0.83441871885E+02 0.  0.
      -24    2    1    2    0    0 -0.11391356429E+02  0.53541822459E+02 -0.43920010154E+02  0.10614085636E+03  0.79626781577E+02 0.  0.
      -13    1    3    3    0    0 -0.15120583447E+02 -0.67473149661E+02 -0.15974939067E+02  0.70967997344E+02  0.00000000000E+00 0.  1.
       14    1    3    3    0    0  0.26511939877E+02  0.13931327201E+02 -0.15182004556E+02  0.33577642799E+02  0.00000000000E+00 0. -1.
        3    1    4    4  502    0  0.42750278415E+01  0.35764493987E+02 -0.65073547451E+02  0.74377022467E+02  0.00000000000E+00 0. -1.
       -4    1    4    4    0  502 -0.15666384271E+02  0.17777328472E+02  0.21153537297E+02  0.31763833898E+02  0.00000000000E+00 0.  1.
</event>
<event>
 8   1  0.2279600E-02  0.8733649E+02  0.7546771E-02  0.1309910E+00
       -1   -1    0    0    0  501 -0.00000000000E+00  0.00000000000E+00  0.92967511548E+01  0.92967511548E+01  0.00000000000E+00 0.  1.
        1   -1    0    0  501    0  0.00000000000E+00 -0.00000000000E+00 -0.90605040708E+03  0.90605040708E+03  0.00000000000E+00 0. -1.
       24    2    1    2    0    0  0.21828029319E+02  0.25142088033E+02 -0.30376902440E+03  0.31607480495E+03  0.80740786966E+02 0.  0.
      -24    2    1    2    0    0 -0.21828029319E+02 -0.25142088033E+02 -0.59298463152E+03  0.59927235329E+03  0.79924919399E+02 0.  0.
      -13    1    3    3    0    0  0.49292007618E+02  0.22373394530E+02 -0.24811586113E+03  0.25395226194E+03  0.00000000000E+00 0.  1.
       14    1    3    3    0    0 -0.27463978299E+02  0.27686935023E+01 -0.55653163271E+02  0.62122543008E+02  0.00000000000E+00 0. -1.
        3    1    4    4  502    0 -0.50529985608E+02 -0.15365780543E+02 -0.45128092753E+03  0.45436093825E+03  0.00000000000E+00 0. -1.
       -4    1    4    4    0  502  0.28701956289E+02 -0.97763074900E+01 -0.14170370400E+03  0.14491141504E+03  0.00000000000E+00 0.  1.
</event>
<event>
 8   1  0.2279600E-02  0.9520451E+02  0.7546771E-02  0.1293193E+00
        1   -1    0    0  501    0  0.00000000000E+00  0.00000000000E+00  0.41823888637E+02  0.41823888637E+02  0.00000000000E+00 0. -1.
       -1   -1    0    0    0  501 -0.00000000000E+00 -0.00000000000E+00 -0.89238944839E+03  0.89238944839E+03  0.00000000000E+00 0.  1.
       24    2    1    2    0    0  0.54265258788E+01  0.38666764415E+02 -0.83689106155E+03  0.84228887458E+03  0.86829335430E+02 0.  0.
      -24    2    1    2    0    0 -0.54265258788E+01 -0.38666764415E+02 -0.13674498203E+02  0.91924462443E+02  0.82088665728E+02 0.  0.
      -13    1    3    3    0    0 -0.21211575318E+02  0.56261530478E+02 -0.64095858151E+03  0.64377262597E+03  0.00000000000E+00 0.  1.
       14    1    3    3    0    0  0.26638101197E+02 -0.17594766063E+02 -0.19593248004E+03  0.19851624861E+03  0.00000000000E+00 0. -1.
        1    1    4    4  502    0 -0.30348739575E+02 -0.35807673508E+02  0.19079154839E+02  0.50668033564E+02  0.00000000000E+00 0. -1.
       -2    1    4    4    0  502  0.24922213696E+02 -0.28590909070E+01 -0.32753653042E+02  0.41256428880E+02  0.00000000000E+00 0.  1.
</event>
<event>
 8   1  0.2279600E-02  0.1616179E+03  0.7546771E-02  0.1186931E+00
        1   -1    0    0  501    0  0.00000000000E+00  0.00000000000E+00  0.27568769195E+02  0.27568769195E+02  0.00000000000E+00 0. -1.
       -1   -1    0    0    0  501 -0.00000000000E+00 -0.00000000000E+00 -0.94699519660E+03  0.94699519660E+03  0.00000000000E+00 0.  1.
       24    2    1    2    0    0  0.93557581057E+02  0.10392083292E+03 -0.47127722104E+03  0.49816282057E+03  0.80693346959E+02 0.  0.
      -24    2    1    2    0    0 -0.93557581057E+02 -0.10392083292E+03 -0.44814920637E+03  0.47640114523E+03  0.81041838060E+02 0.  0.
      -13    1    3    3    0    0  0.10388424235E+03  0.10841625738E+03 -0.43598705938E+03  0.46111900483E+03  0.00000000000E+00 0.  1.
       14    1    3    3    0    0 -0.10326661295E+02 -0.44954244592E+01 -0.35290161658E+02  0.37043815738E+02  0.00000000000E+00 0. -1.
        3    1    4    4  502    0 -0.10035508415E+03 -0.11157618366E+03 -0.43155774998E+03  0.45690532853E+03  0.00000000000E+00 0. -1.
       -4    1    4    4    0  502  0.67975030938E+01  0.76553507463E+01 -0.16591456391E+02  0.19495816693E+02  0.00000000000E+00 0.  1.
</event>
<event>
 8   1  0.2279600E-02  0.1144180E+03  0.7546771E-02  0.1254157E+00
        2   -1    0    0  501    0  0.00000000000E+00  0.00000000000E+00  0.13572074501E+03  0.13572074501E+03  0.00000000000E+00 0. -1.
       -2   -1    0    0    0  501 -0.00000000000E+00 -0.00000000000E+00 -0.16550159220E+03  0.16550159220E+03  0.00000000000E+00 0.  1.
       24    2    1    2    0    0 -0.21445654186E+01  0.83062597737E+02  0.84543483073E+02  0.13947707743E+03  0.73500070024E+02 0.  0.
      -24    2    1    2    0    0  0.21445654186E+01 -0.83062597737E+02 -0.11432433026E+03  0.16174525978E+03  0.78660550913E+02 0.  0.
      -13    1    3    3    0    0  0.13200990616E+01  0.12438686513E+02  0.64894332331E+02  0.66088864058E+02  0.00000000000E+00 0.  1.
       14    1    3    3    0    0 -0.34646644802E+01  0.70623911224E+02  0.19649150742E+02  0.73388213368E+02  0.00000000000E+00 0. -1.
        3    1    4    4  502    0  0.14925630669E+02 -0.53791924845E+02 -0.15570755276E+02  0.57955103737E+02  0.00000000000E+00 0. -1.
       -4    1    4    4    0  502 -0.12781065250E+02 -0.29270672892E+02 -0.98753574980E+02  0.10379015605E+03  0.00000000000E+00 0.  1.
</event>
<event>
 8   1  0.2279600E-02  0.8592322E+02  0.7546771E-02  0.1313100E+00
       -2   -1    0    0    0  501 -0.00000000000E+00  0.00000000000E+00  0.57328917397E+01  0.57328917397E+01  0.00000000000E+00 0.  1.
        2   -1    0    0  501    0  0.00000000000E+00 -0.00000000000E+00 -0.12905438993E+04  0.12905438993E+04  0.00000000000E+00 0. -1.
      -24    2    1    2    0    0  0.31167744202E+02  0.80420449634E+01 -0.60564376483E+03  0.61170840214E+03  0.79666157239E+02 0.  0.
       24    2    1    2    0    0 -0.31167744202E+02 -0.80420449634E+01 -0.67916724271E+03  0.68456838888E+03  0.79558988885E+02 0.  0.
      -13    1    4    4    0    0  0.63665081620E+01 -0.10162648916E+02 -0.14402616910E+02  0.18741590995E+02  0.00000000000E+00 0.  1.
       14    1    4    4    0    0 -0.37534252364E+02  0.21206039529E+01 -0.66476462580E+03  0.66582679788E+03  0.00000000000E+00 0. -1.
        3    1    3    3  502    0  0.29515967321E+02 -0.32864056935E+02 -0.35600248112E+03  0.35873249801E+03  0.00000000000E+00 0. -1.
       -4    1    3    3    0  502  0.16517768803E+01  0.40906101899E+02 -0.24964128371E+03  0.25297590414E+03  0.00000000000E+00 0.  1.
</event>
<event>
 8   1  0.2279600E-02  0.8741080E+02  0.7546771E-02  0.1311210E+00
        2   -1    0    0  501    0  0.00000000000E+00  0.00000000000E+00  0.13312212034E+04  0.13312212034E+04  0.00000000000E+00 0. -1.
       -2   -1    0    0    0  501 -0.00000000000E+00 -0.00000000000E+00 -0.44052515124E+02  0.44052515124E+02  0.00000000000E+00 0.  1.
      -24    2    1    2    0    0 -0.85707587348E+01 -0.19362251372E+02 -0.78795239629E+00  0.84354295954E+02  0.81649688875E+02 0.  0.
       24    2    1    2    0    0  0.85707587348E+01  0.19362251372E+02  0.12879566407E+04  0.12909194226E+04  0.84807385480E+02 0.  0.
      -13    1    4    4    0    0 -0.13168325266E+02  0.21538864493E+02  0.11409970159E+03  0.11685918611E+03  0.00000000000E+00 0.  1.
       14    1    4    4    0    0  0.21739084001E+02 -0.21766131213E+01  0.11738569391E+04  0.11740602365E+04  0.00000000000E+00 0. -1.
        3    1    3    3  502    0  0.81323806786E+01 -0.11822825432E+02  0.38453982919E+02  0.41044166687E+02  0.00000000000E+00 0. -1.
       -4    1    3    3    0  502 -0.16703139413E+02 -0.75394259399E+01 -0.39241935316E+02  0.43310129266E+02  0.00000000000E+00 0.  1.
</event>
<event>
 8   1  0.2279600E-02  0.8574507E+02  0.7546771E-02  0.1313511E+00
       -2   -1    0    0    0  501 -0.00000000000E+00  0.00000000000E+00  0.22249706193E+03  0.22249706193E+03  0.00000000000E+00 0.  1.
        2   -1    0    0  501    0  0.00000000000E+00 -0.00000000000E+00 -0.14626909614E+03  0.14626909614E+03  0.00000000000E+00 0. -1.
      -24    2    1    2    0    0  0.26887321009E+02  0.12663557349E+02  0.20034609734E+03  0.21792378526E+03  0.80429619826E+02 0.  0.
       24    2    1    2    0    0 -0.26887321009E+02 -0.12663557349E+02 -0.12411813155E+03  0.15084237281E+03  0.80404086590E+02 0.  0.
      -13    1    4    4    0    0 -0.22705151447E+02  0.18393006731E+02 -0.76120881056E+01  0.30195537488E+02  0.00000000000E+00 0.  1.
       14    1    4    4    0    0 -0.41821695616E+01 -0.31056564080E+02 -0.11650604345E+03  0.12064683533E+03  0.00000000000E+00 0. -1.
        3    1    3    3  502    0  0.37528081425E+01 -0.16975717293E+02  0.37770722541E+01  0.17791144465E+02  0.00000000000E+00 0. -1.
       -4    1    3    3    0  502  0.23134512866E+02  0.29639274642E+02  0.19656902509E+03  0.20013264079E+03  0.00000000000E+00 0.  1.
</event>
<event>
 8   1  0.2279600E-02  0.1107464E+03  0.7546771E-02  0.1260084E+00
        1   -1    0    0  501    0  0.00000000000E+00  0.00000000000E+00  0.10647642632E+03  0.10647642632E+03  0.00000000000E+00 0. -1.
       -1   -1    0    0    0  501 -0.00000000000E+00 -0.00000000000E+00 -0.11555174087E+03  0.11555174087E+03  0.00000000000E+00 0.  1.
       24    2    1    2    0    0 -0.67656243646E+02  0.30531684936E+02  0.11266797489E+02  0.11131801662E+03  0.82190078533E+02 0.  0.
      -24    2    1    2    0    0  0.67656243646E+02 -0.30531684936E+02 -0.20342112039E+02  0.11071015056E+03  0.79582566094E+02 0.  0.
      -13    1    3    3    0    0 -0.43783411414E+02 -0.19459430253E+02  0.25281686265E+02  0.54173980851E+02  0.00000000000E+00 0.  1.
       14    1    3    3    0    0 -0.23872832232E+02  0.49991115189E+02 -0.14014888776E+02  0.57144035769E+02  0.00000000000E+00 0. -1.
        1    1    4    4  502    0  0.21700067581E+02 -0.25966730212E+02  0.27949686921E+02  0.43890192639E+02  0.00000000000E+00 0. -1.
       -2    1    4    4    0  502  0.45956176065E+02 -0.45649547234E+01 -0.48291798959E+02  0.66819957924E+02  0.00000000000E+00 0.  1.
</event>
<event>
 8   1  0.2279600E-02  0.8387046E+02  0.7546771E-02  0.1319101E+00
       -3   -1    0    0    0  501 -0.00000000000E+00  0.00000000000E+00  0.10009800728E+03  0.10009800728E+03  0.00000000000E+00 0.  1.
        3   -1    0    0  501    0  0.00000000000E+00 -0.00000000000E+00 -0.64997294960E+03  0.64997294960E+03  0.00000000000E+00 0. -1.
       24    2    1    2    0    0  0.68302637770E+01 -0.19771508972E+02  0.79686210984E+02  0.11494774001E+03  0.80159376515E+02 0.  0.
      -24    2    1    2    0    0 -0.68302637770E+01  0.19771508972E+02 -0.62956115330E+03  0.63512321687E+03  0.81220008562E+02 0.  0.
      -13    1    3    3    0    0 -0.18292989550E+01  0.28191788300E+02  0.51247947639E+02  0.58519017417E+02  0.00000000000E+00 0.  1.
       14    1    3    3    0    0  0.86595627320E+01 -0.47963297272E+02  0.28438263345E+02  0.56428722597E+02  0.00000000000E+00 0. -1.
        1    1    4    4  502    0 -0.40898434854E+02  0.92568449064E+01 -0.45684480309E+03  0.45876523981E+03  0.00000000000E+00 0. -1.
       -2    1    4    4    0  502  0.34068171077E+02  0.10514664066E+02 -0.17271635021E+03  0.17635797706E+03  0.00000000000E+00 0.  1.
</event>
<event>
 8   1  0.2279600E-02  0.1678778E+03  0.7546771E-02  0.1180197E+00
        1   -1    0    0  501    0  0.00000000000E+00  0.00000000000E+00  0.86817656273E+03  0.86817656273E+03  0.00000000000E+00 0. -1.
       -1   -1    0    0    0  501 -0.00000000000E+00 -0.00000000000E+00 -0.48212745267E+02  0.48212745267E+02  0.00000000000E+00 0.  1.
       24    2    1    2    0    0  0.90851547959E+02 -0.11551781743E+03  0.14774559664E+03  0.22363299703E+03  0.81145462725E+02 0.  0.
      -24    2    1    2    0    0 -0.90851547959E+02  0.11551781743E+03  0.67221822082E+03  0.69275631097E+03  0.80222191907E+02 0.  0.
      -13    1    3    3    0    0  0.72519327493E+02 -0.63533795668E+02  0.43630107035E+02  0.10582618906E+03  0.00000000000E+00 0.  1.
       14    1    3    3    0    0  0.18332220466E+02 -0.51984021766E+02  0.10411548961E+03  0.11780680796E+03  0.00000000000E+00 0. -1.
        3    1    4    4  502    0 -0.10046343138E+03  0.11967565240E+03  0.64315949922E+03  0.66186804142E+03  0.00000000000E+00 0. -1.
       -4    1    4    4    0  502  0.96118834200E+01 -0.41578349655E+01  0.29058721601E+02  0.30888269546E+02  0.00000000000E+00 0.  1.
</event>
<event>
 8   1  0.2279600E-02  0.8554473E+02  0.7546771E-02  0.1314123E+00
       -1   -1    0    0    0  501 -0.00000000000E+00  0.00000000000E+00  0.13755099386E+02  0.13755099386E+02  0.00000000000E+00 0.  1.
        1   -1    0    0  501    0  0.00000000000E+00 -0.00000000000E+00 -0.59467200729E+03  0.59467200729E+03  0.00000000000E+00 0. -1.
       24    2    1    2    0    0  0.11561403326E+02 -0.25889132320E+02 -0.19114640116E+03  0.20941548838E+03  0.80709273803E+02 0.  0.
      -24    2    1    2    0    0 -0.11561403326E+02  0.25889132320E+02 -0.38977050675E+03  0.39901161830E+03  0.80531424850E+02 0.  0.
      -13    1    3    3    0    0  0.36395641430E+01  0.17482801754E+02 -0.14308281762E+03  0.14419288291E+03  0.00000000000E+00 0.  1.
       14    1    3    3    0    0  0.79218391831E+01 -0.43371934074E+02 -0.48063583541E+02  0.65222605469E+02  0.00000000000E+00 0. -1.
        3    1    4    4  502    0  0.21689943685E+01  0.45342435022E+02 -0.34786088927E+03  0.35081026101E+03  0.00000000000E+00 0. -1.
       -4    1    4    4    0  502 -0.13730397695E+02 -0.19453302702E+02 -0.41909617480E+02  0.48201357285E+02  0.00000000000E+00 0.  1.
</event>
<event>
 8   1  0.2279600E-02  0.1085261E+03  0.7546771E-02  0.1266096E+00
        1   -1    0    0  501    0  0.00000000000E+00  0.00000000000E+00  0.16682383248E+03  0.16682383248E+03  0.00000000000E+00 0. -1.
       -1   -1    0    0    0  501 -0.00000000000E+00 -0.00000000000E+00 -0.72713648152E+02  0.72713648152E+02  0.00000000000E+00 0.  1.
       24    2    1    2    0    0  0.45189423748E+02 -0.47175958515E+02  0.81980626450E+02  0.13601003183E+03  0.86661701836E+02 0.  0.
      -24    2    1    2    0    0 -0.45189423748E+02  0.47175958515E+02  0.12129557882E+02  0.10352744881E+03  0.79392388812E+02 0.  0.
      -13    1    3    3    0    0  0.23267286506E+02  0.19418021713E+02  0.30813768459E+01  0.30461796924E+02  0.00000000000E+00 0.  1.
       14    1    3    3    0    0  0.21922137242E+02 -0.66593980228E+02  0.78899249604E+02  0.10554823491E+03  0.00000000000E+00 0. -1.
        3    1    4    4  502    0  0.11716728921E+02  0.17980784490E+02 -0.22250828182E+02  0.30914231387E+02  0.00000000000E+00 0. -1.
       -4    1    4    4    0  502 -0.56906152669E+02  0.29195174025E+02  0.34380386064E+02  0.72613217418E+02  0.00000000000E+00 0.  1.
</event>
<event>
 8   1  0.2279600E-02  0.8467786E+02  0.7546771E-02  0.1319397E+00
       -4   -1    0    0    0  501 -0.00000000000E+00  0.00000000000E+00  0.76297172417E+02  0.76297172417E+02  0.00000000000E+00 0.  1.
        4   -1    0    0  501    0  0.00000000000E+00 -0.00000000000E+00 -0.28013992527E+03  0.28013992527E+03  0.00000000000E+00 0. -1.
      -24    2    1    2    0    0  0.56974676313E+01 -0.13556509036E+02  0.46200910250E+02  0.92444345665E+02  0.78709547470E+02 0.  0.
       24    2    1    2    0    0 -0.56974676313E+01  0.13556509036E+02 -0.25004366310E+03  0.26399275202E+03  0.83391244070E+02 0.  0.
      -13    1    4    4    0    0 -0.13274042083E+02  0.35141060423E+02 -0.49454882227E+02  0.62103781664E+02  0.00000000000E+00 0.  1.
       14    1    4    4    0    0  0.75765744518E+01 -0.21584551388E+02 -0.20058878087E+03  0.20188897035E+03  0.00000000000E+00 0. -1.
        1    1    3    3  502    0  0.20282458431E+02  0.28598163117E+02  0.24967570529E+02  0.43041986848E+02  0.00000000000E+00 0. -1.
       -2    1    3    3    0  502 -0.14584990800E+02 -0.42154672153E+02  0.21233339720E+02  0.49402358817E+02  0.00000000000E+00 0.  1.
</event>
<event>
 8   1  0.2279600E-02  0.1045433E+03  0.7546771E-02  0.1274850E+00
        2   -1    0    0  501    0  0.00000000000E+00  0.00000000000E+00  0.17403005170E+04  0.17403005170E+04  0.00000000000E+00 0. -1.
       -2   -1    0    0    0  501 -0.00000000000E+00 -0.00000000000E+00 -0.13217244294E+02  0.13217244294E+02  0.00000000000E+00 0.  1.
       24    2    1    2    0    0  0.64042990409E+02  0.13957909395E+02  0.15042266842E+04  0.15073585290E+04  0.71662332391E+02 0.  0.
      -24    2    1    2    0    0 -0.64042990409E+02 -0.13957909395E+02  0.22285658850E+03  0.24615923220E+03  0.81443113316E+02 0.  0.
      -13    1    3    3    0    0  0.67837036143E+02  0.24888512444E+02  0.86070223402E+03  0.86373007194E+03  0.00000000000E+00 0.  1.
       14    1    3    3    0    0 -0.37940457345E+01 -0.10930603049E+02  0.64352445014E+03  0.64362845710E+03  0.00000000000E+00 0. -1.
        3    1    4    4  502    0  0.46691670056E+00  0.10395762350E+02  0.13043424360E+03  0.13084869809E+03  0.00000000000E+00 0. -1.
       -4    1    4    4    0  502 -0.64509907109E+02 -0.24353671745E+02  0.92422344891E+02  0.11531053411E+03  0.00000000000E+00 0.  1.
</event>
<event>
 8   1  0.2279600E-02  0.9698036E+02  0.7546771E-02  0.1294086E+00
        2   -1    0    0  501    0  0.00000000000E+00  0.00000000000E+00  0.30480089253E+04  0.30480089253E+04  0.00000000000E+00 0. -1.
       -2   -1    0    0    0  501 -0.00000000000E+00 -0.00000000000E+00 -0.39139878896E+01  0.39139878896E+01  0.00000000000E+00 0.  1.
      -24    2    1    2    0    0  0.22219862198E+02 -0.14882459805E+02  0.74669250288E+03  0.75296406540E+03  0.93220062411E+02 0.  0.
       24    2    1    2    0    0 -0.22219862198E+02  0.14882459805E+02  0.22974024345E+04  0.22989588478E+04  0.80241060388E+02 0.  0.
      -13    1    4    4    0    0 -0.15567377903E+02  0.19998770267E+02  0.20782683960E+03  0.20936639971E+03  0.00000000000E+00 0.  1.
       14    1    4    4    0    0 -0.66524842953E+01 -0.51163104620E+01  0.20895755949E+04  0.20895924481E+04  0.00000000000E+00 0. -1.
        3    1    3    3  502    0 -0.18234509224E+02  0.29562226044E+02  0.20180792788E+03  0.20477515056E+03  0.00000000000E+00 0. -1.
       -4    1    3    3    0  502  0.40454371422E+02 -0.44444685848E+02  0.54488457501E+03  0.54818891483E+03  0.00000000000E+00 0.  1.
</event>
<event>
 8   1  0.2279600E-02  0.9082310E+02  0.7546771E-02  0.1305408E+00
       -2   -1    0    0    0  501 -0.00000000000E+00  0.00000000000E+00  0.72672825777E+02  0.72672825777E+02  0.00000000000E+00 0.  1.
        2   -1    0    0  501    0  0.00000000000E+00 -0.00000000000E+00 -0.10675584794E+03  0.10675584794E+03  0.00000000000E+00 0. -1.
      -24    2    1    2    0    0  0.67594987630E+00  0.25662013906E+02 -0.36749393533E+01  0.83650351757E+02  0.79529116076E+02 0.  0.
       24    2    1    2    0    0 -0.67594987630E+00 -0.25662013906E+02 -0.30408082812E+02  0.95778321963E+02  0.87119685444E+02 0.  0.
      -13    1    4    4    0    0  0.26129517881E+02 -0.48837043738E+02 -0.18369023957E+02  0.58354345056E+02  0.00000000000E+00 0.  1.
       14    1    4    4    0    0 -0.26805467758E+02  0.23175029832E+02 -0.12039058855E+02  0.37423976907E+02  0.00000000000E+00 0. -1.
        3    1    3    3  502    0  0.15391286413E+02  0.47963977805E+02 -0.17802289538E+02  0.53426176890E+02  0.00000000000E+00 0. -1.
       -4    1    3    3    0  502 -0.14715336537E+02 -0.22301963898E+02  0.14127350185E+02  0.30224174867E+02  0.00000000000E+00 0.  1.
</event>
<event>
 8   1  0.2279600E-02  0.8458709E+02  0.7546771E-02  0.1316839E+00
        1   -1    0    0  501    0  0.00000000000E+00  0.00000000000E+00  0.20894176759E+04  0.20894176759E+04  0.00000000000E+00 0. -1.
       -1   -1    0    0    0  501 -0.00000000000E+00 -0.00000000000E+00 -0.60355672876E+01  0.60355672876E+01  0.00000000000E+00 0.  1.
       24    2    1    2    0    0 -0.27849864903E+02  0.34715149212E+01  0.34823896493E+03  0.35824954023E+03  0.79276036629E+02 0.  0.
      -24    2    1    2    0    0  0.27849864903E+02 -0.34715149212E+01  0.17351431437E+04  0.17372037030E+04  0.79795426779E+02 0.  0.
      -13    1    3    3    0    0 -0.35928134772E+02 -0.28522744203E+02  0.26054448107E+03  0.26455208263E+03  0.00000000000E+00 0.  1.
       14    1    3    3    0    0  0.80782698693E+01  0.31994259124E+02  0.87694483864E+02  0.93697457603E+02  0.00000000000E+00 0. -1.
        3    1    4    4  502    0 -0.67488655436E+01  0.30508829805E+02  0.98448784630E+03  0.98498358128E+03  0.00000000000E+00 0. -1.
       -4    1    4    4    0  502  0.34598730447E+02 -0.33980344726E+02  0.75065529737E+03  0.75222012167E+03  0.00000000000E+00 0.  1.
</event>
<event>
 8   1  0.2279600E-02  0.1575248E+03  0.7546771E-02  0.1192454E+00
        1   -1    0    0  501    0  0.00000000000E+00  0.00000000000E+00  0.29789027708E+03  0.29789027708E+03  0.00000000000E+00 0. -1.
       -1   -1    0    0    0  501 -0.00000000000E+00 -0.00000000000E+00 -0.12894193078E+03  0.12894193078E+03  0.00000000000E+00 0.  1.
       24    2    1    2    0    0  0.46313953555E+02  0.12415471191E+03 -0.45370570777E+02  0.16084976256E+03  0.79087183785E+02 0.  0.
      -24    2    1    2    0    0 -0.46313953555E+02 -0.12415471191E+03  0.21431891708E+03  0.26598244531E+03  0.85174457511E+02 0.  0.
      -13    1    3    3    0    0  0.46287711242E+02  0.13347394888E+03 -0.32504951107E+02  0.14496350951E+03  0.00000000000E+00 0.  1.
       14    1    3    3    0    0  0.26242312665E-01 -0.93192369748E+01 -0.12865619669E+02  0.15886253049E+02  0.00000000000E+00 0. -1.
        1    1    4    4  502    0 -0.33306175836E+02 -0.16892199392E+02  0.10850049142E+03  0.11474756811E+03  0.00000000000E+00 0. -1.
       -2    1    4    4    0  502 -0.13007777719E+02 -0.10726251252E+03  0.10581842566E+03  0.15123487720E+03  0.00000000000E+00 0.  1.
</event>
<event>
 8   1  0.2279600E-02  0.1485193E+03  0.7546771E-02  0.1203517E+00
       -3   -1    0    0    0  501 -0.00000000000E+00  0.00000000000E+00  0.83159177504E+02  0.83159177504E+02  0.00000000000E+00 0.  1.
        3   -1    0    0  501    0  0.00000000000E+00 -0.00000000000E+00 -0.44427358939E+03  0.44427358939E+03  0.00000000000E+00 0. -1.
       24    2    1    2    0    0 -0.11966913466E+03  0.23714049489E+02 -0.86268505789E+01  0.14493378388E+03  0.77770953600E+02 0.  0.
      -24    2    1    2    0    0  0.11966913466E+03 -0.23714049489E+02 -0.35248756131E+03  0.38249898302E+03  0.84704977418E+02 0.  0.
      -13    1    3    3    0    0 -0.11753728313E+03  0.46156789438E+01  0.10151656434E+02  0.11806512418E+03  0.00000000000E+00 0.  1.
       14    1    3    3    0    0 -0.21318515290E+01  0.19098370545E+02 -0.18778507013E+02  0.26868659700E+02  0.00000000000E+00 0. -1.
        3    1    4    4  502    0  0.13248810268E+03 -0.26786018027E+02 -0.31563998843E+03  0.34336451536E+03  0.00000000000E+00 0. -1.
       -4    1    4    4    0  502 -0.12818968019E+02  0.30719685382E+01 -0.36847572878E+02  0.39134467656E+02  0.00000000000E+00 0.  1.
</event>
<event>
 8   1  0.2279600E-02  0.8710029E+02  0.7546771E-02  0.1311421E+00
        2   -1    0    0  501    0  0.00000000000E+00  0.00000000000E+00  0.12917638889E+04  0.12917638889E+04  0.00000000000E+00 0. -1.
       -2   -1    0    0    0  501 -0.00000000000E+00 -0.00000000000E+00 -0.57661994017E+01  0.57661994017E+01  0.00000000000E+00 0.  1.
      -24    2    1    2    0    0  0.28921285216E+02  0.13505336908E+02  0.68800246305E+03  0.69322490735E+03  0.78705451860E+02 0.  0.
       24    2    1    2    0    0 -0.28921285216E+02 -0.13505336908E+02  0.59799522644E+03  0.60430518093E+03  0.81040890907E+02 0.  0.
      -13    1    4    4    0    0 -0.19373359696E+02 -0.10720265061E+02  0.36286209452E+02  0.42508118581E+02  0.00000000000E+00 0.  1.
       14    1    4    4    0    0 -0.95479255202E+01 -0.27850718474E+01  0.56170901698E+03  0.56179706235E+03  0.00000000000E+00 0. -1.
        1    1    3    3  502    0 -0.10535010273E+00 -0.22810362276E+02  0.45817211339E+03  0.45873958758E+03  0.00000000000E+00 0. -1.
       -2    1    3    3    0  502  0.29026635319E+02  0.36315699184E+02  0.22983034966E+03  0.23448531977E+03  0.00000000000E+00 0.  1.
</event>
<event>
 8   1  0.2279600E-02  0.8820181E+02  0.7546771E-02  0.1307630E+00
        2   -1    0    0  501    0  0.00000000000E+00  0.00000000000E+00  0.14170157980E+04  0.14170157980E+04  0.00000000000E+00 0. -1.
       -2   -1    0    0    0  501 -0.00000000000E+00 -0.00000000000E+00 -0.74958819445E+01  0.74958819445E+01  0.00000000000E+00 0.  1.
      -24    2    1    2    0    0 -0.19640094150E+02  0.29056787807E+02  0.33130984693E+03  0.34269999934E+03  0.80293490762E+02 0.  0.
       24    2    1    2    0    0  0.19640094150E+02 -0.29056787807E+02  0.10782100691E+04  0.10818116806E+04  0.80929159846E+02 0.  0.
      -13    1    4    4    0    0 -0.10576815849E+02 -0.70428971919E+01  0.26014258017E+02  0.28951909342E+02  0.00000000000E+00 0.  1.
       14    1    4    4    0    0  0.30216909999E+02 -0.22013890615E+02  0.10521958111E+04  0.10528597712E+04  0.00000000000E+00 0. -1.
        3    1    3    3  502    0 -0.16739209224E+02  0.59229314798E+01  0.31178250178E+03  0.31228770494E+03  0.00000000000E+00 0. -1.
       -4    1    3    3    0  502 -0.29008849255E+01  0.23133856328E+02  0.19527345155E+02  0.30412294401E+02  0.00000000000E+00 0.  1.
</event>
<event>
 8   1  0.2279600E-02  0.1170570E+03  0.7546771E-02  0.1248892E+00
        4   -1    0    0  501    0  0.00000000000E+00  0.00000000000E+00  0.55411117981E+02  0.55411117981E+02  0.00000000000E+00 0. -1.
       -4   -1    0    0    0  501 -0.00000000000E+00 -0.00000000000E+00 -0.70715440629E+03  0.70715440629E+03  0.00000000000E+00 0.  1.
      -24    2    1    2    0    0 -0.82770660679E+02 -0.11899191926E+02 -0.63570755159E+03  0.64639495535E+03  0.81913210807E+02 0.  0.
       24    2    1    2    0    0  0.82770660679E+02  0.11899191926E+02 -0.16035736714E+02  0.11617056892E+03  0.79030900250E+02 0.  0.
      -13    1    4    4    0    0  0.11949438046E+02  0.10892042621E+02 -0.38587962504E+02  0.41838457336E+02  0.00000000000E+00 0.  1.
       14    1    4    4    0    0  0.70821222633E+02  0.10071493050E+01  0.22552225790E+02  0.74332111588E+02  0.00000000000E+00 0. -1.
        3    1    3    3  502    0 -0.87272909774E+01 -0.15896815271E+02 -0.23354544418E+02  0.29568718074E+02  0.00000000000E+00 0. -1.
       -4    1    3    3    0  502 -0.74043369702E+02  0.39976233448E+01 -0.61235300718E+03  0.61682623727E+03  0.00000000000E+00 0.  1.
</event>
<event>
 8   1  0.2279600E-02  0.9409727E+02  0.7546771E-02  0.1295081E+00
        2   -1    0    0  501    0  0.00000000000E+00  0.00000000000E+00  0.16919646640E+04  0.16919646640E+04  0.00000000000E+00 0. -1.
       -2   -1    0    0    0  501 -0.00000000000E+00 -0.00000000000E+00 -0.14660879620E+02  0.14660879620E+02  0.00000000000E+00 0.  1.
      -24    2    1    2    0    0  0.38570883985E+02  0.26135959626E+02  0.14303934418E+03  0.16947829355E+03  0.78050217956E+02 0.  0.
       24    2    1    2    0    0 -0.38570883985E+02 -0.26135959626E+02  0.15342644402E+04  0.15371472501E+04  0.81752641977E+02 0.  0.
      -13    1    4    4    0    0 -0.34069068615E+02 -0.40148338890E+02  0.49757585645E+03  0.50035419802E+03  0.00000000000E+00 0.  1.
       14    1    4    4    0    0 -0.45018153702E+01  0.14012379265E+02  0.10366885838E+04  0.10367930521E+04  0.00000000000E+00 0. -1.
        3    1    3    3  502    0  0.20128985476E+01 -0.34513662862E+01  0.11428288963E+03  0.11435271117E+03  0.00000000000E+00 0. -1.
       -4    1    3    3    0  502  0.36557985437E+02  0.29587325912E+02  0.28756454547E+02  0.55125582373E+02  0.00000000000E+00 0.  1.
</event>
<event>
 8   1  0.2279600E-02  0.8612937E+02  0.7546771E-02  0.1313268E+00
        1   -1    0    0  501    0  0.00000000000E+00  0.00000000000E+00  0.19037449570E+04  0.19037449570E+04  0.00000000000E+00 0. -1.
       -1   -1    0    0    0  501 -0.00000000000E+00 -0.00000000000E+00 -0.67361565943E+01  0.67361565943E+01  0.00000000000E+00 0.  1.
       24    2    1    2    0    0  0.21524157905E+02 -0.15521612854E+02  0.32627336828E+03  0.33745011273E+03  0.81939354962E+02 0.  0.
      -24    2    1    2    0    0 -0.21524157905E+02  0.15521612854E+02  0.15707354322E+04  0.15730310009E+04  0.80700198983E+02 0.  0.
      -13    1    3    3    0    0  0.10307975580E+02 -0.31601150420E+02  0.47427626409E+02  0.57916032455E+02  0.00000000000E+00 0.  1.
       14    1    3    3    0    0  0.11216182326E+02  0.16079537567E+02  0.27884574188E+03  0.27953408028E+03  0.00000000000E+00 0. -1.
        3    1    4    4  502    0 -0.32533425205E+02 -0.23479954191E+02  0.10289984428E+04  0.10297803296E+04  0.00000000000E+00 0. -1.
       -4    1    4    4    0  502  0.11009267300E+02  0.39001567045E+02  0.54173698941E+03  0.54325067132E+03  0.00000000000E+00 0.  1.
</event>
<event>
 8   1  0.2279600E-02  0.8789235E+02  0.7546771E-02  0.1308496E+00
        2   -1    0    0  501    0  0.00000000000E+00  0.00000000000E+00  0.11674204471E+04  0.11674204471E+04  0.00000000000E+00 0. -1.
       -2   -1    0    0    0  501 -0.00000000000E+00 -0.00000000000E+00 -0.70360433466E+01  0.70360433466E+01  0.00000000000E+00 0.  1.
      -24    2    1    2    0    0 -0.32383316150E+02 -0.78978064605E+01  0.43007464616E+03  0.43896385608E+03  0.81326571068E+02 0.  0.
       24    2    1    2    0    0  0.32383316150E+02  0.78978064605E+01  0.73030975764E+03  0.73549263441E+03  0.80535822233E+02 0.  0.
      -13    1    4    4    0    0  0.12559064395E+02  0.11366127440E+02  0.26859542412E+02  0.31754589747E+02  0.00000000000E+00 0.  1.
       14    1    4    4    0    0  0.19824251756E+02 -0.34683209793E+01  0.70345021522E+03  0.70373804466E+03  0.00000000000E+00 0. -1.
        3    1    3    3  502    0  0.15095216210E+02 -0.12907600705E+02  0.29558730781E+03  0.29625382402E+03  0.00000000000E+00 0. -1.
       -4    1    3    3    0  502 -0.47478532360E+02  0.50097942445E+01  0.13448733835E+03  0.14271003206E+03  0.00000000000E+00 0.  1.
</event>
<event>
 8   1  0.2279600E-02  0.1484345E+03  0.7546771E-02  0.1202419E+00
        2   -1    0    0  501    0  0.00000000000E+00  0.00000000000E+00  0.63470145371E+03  0.63470145371E+03  0.00000000000E+00 0. -1.
       -2   -1    0    0    0  501 -0.00000000000E+00 -0.00000000000E+00 -0.41612993383E+02  0.41612993383E+02  0.00000000000E+00 0.  1.
       24    2    1    2    0    0 -0.11829074306E+03  0.40371550085E+02  0.15880877376E+03  0.21737761366E+03  0.80063964094E+02 0.  0.
      -24    2    1    2    0    0  0.11829074306E+03 -0.40371550085E+02  0.43427968657E+03  0.45893683343E+03  0.80010055405E+02 0.  0.
      -13    1    3    3    0    0 -0.16711328745E+02  0.35821416530E+02  0.78193802149E+02  0.87616853888E+02  0.00000000000E+00 0.  1.
       14    1    3    3    0    0 -0.10157941432E+03  0.45501335550E+01  0.80614971609E+02  0.12976075977E+03  0.00000000000E+00 0. -1.
        1    1    4    4  502    0  0.95456455339E+02 -0.62472550536E+02  0.30028780490E+03  0.32122814355E+03  0.00000000000E+00 0. -1.
       -2    1    4    4    0  502  0.22834287726E+02  0.22101000451E+02  0.13399188167E+03  0.13770868989E+03  0.00000000000E+00 0.  1.
</event>
<event>
 8   1  0.2279600E-02  0.1159977E+03  0.7546771E-02  0.1250000E+00
       -2   -1    0    0    0  501 -0.00000000000E+00  0.00000000000E+00  0.33176167719E+02  0.33176167719E+02  0.00000000000E+00 0.  1.
        2   -1    0    0  501    0  0.00000000000E+00 -0.00000000000E+00 -0.57088332117E+03  0.57088332117E+03  0.00000000000E+00 0. -1.
      -24    2    1    2    0    0  0.55452706632E+02 -0.62831872224E+02 -0.10544717361E+03  0.15650596419E+03  0.79700461505E+02 0.  0.
       24    2    1    2    0    0 -0.55452706632E+02  0.62831872224E+02 -0.43225997985E+03  0.44755352470E+03  0.80203618744E+02 0.  0.
      -13    1    4    4    0    0 -0.43946692428E+01  0.26721252147E+02 -0.29810333522E+02  0.40273991841E+02  0.00000000000E+00 0.  1.
       14    1    4    4    0    0 -0.51058037390E+02  0.36110620077E+02 -0.40244964632E+03  0.40727953286E+03  0.00000000000E+00 0. -1.
        1    1    3    3  502    0  0.36714897659E+02 -0.19046378697E+02 -0.10043284196E+03  0.10861631551E+03  0.00000000000E+00 0. -1.
       -2    1    3    3    0  502  0.18737808973E+02 -0.43785493527E+02 -0.50143316528E+01  0.47889648677E+02  0.00000000000E+00 0.  1.
</event>
<event>
 8   1  0.2279600E-02  0.1319574E+03  0.7546771E-02  0.1224662E+00
       -1   -1    0    0    0  501 -0.00000000000E+00  0.00000000000E+00  0.12604884259E+03  0.12604884259E+03  0.00000000000E+00 0.  1.
        1   -1    0    0  501    0  0.00000000000E+00 -0.00000000000E+00 -0.22390723680E+03  0.22390723680E+03  0.00000000000E+00 0. -1.
       24    2    1    2    0    0  0.42853917402E+02  0.95105939375E+02  0.59539607485E+02  0.14456164270E+03  0.80445669492E+02 0.  0.
      -24    2    1    2    0    0 -0.42853917402E+02 -0.95105939375E+02 -0.15739800170E+03  0.20539443668E+03  0.80815504331E+02 0.  0.
      -13    1    3    3    0    0  0.57889788612E+02  0.31216403258E+02  0.24716593111E+02  0.70260952406E+02  0.00000000000E+00 0.  1.
       14    1    3    3    0    0 -0.15035871211E+02  0.63889536118E+02  0.34823014374E+02  0.74300690296E+02  0.00000000000E+00 0. -1.
        3    1    4    4  502    0 -0.39950290260E+02 -0.10982189698E+03 -0.13692868406E+03  0.18001760821E+03  0.00000000000E+00 0. -1.
       -4    1    4    4    0  502 -0.29036271412E+01  0.14715957602E+02 -0.20469317632E+02  0.25376828467E+02  0.00000000000E+00 0.  1.
</event>
<event>
 8   1  0.2279600E-02  0.8315748E+02  0.7546771E-02  0.1320550E+00
       -2   -1    0    0    0  501 -0.00000000000E+00  0.00000000000E+00  0.47668526348E+03  0.47668526348E+03  0.00000000000E+00 0.  1.
        2   -1    0    0  501    0  0.00000000000E+00 -0.00000000000E+00 -0.21412079948E+02  0.21412079948E+02  0.00000000000E+00 0. -1.
      -24    2    1    2    0    0  0.19707206639E+02 -0.79564644373E+01  0.36997904245E+03  0.37920925327E+03  0.80395812034E+02 0.  0.
       24    2    1    2    0    0 -0.19707206639E+02  0.79564644373E+01  0.85294141081E+02  0.11888809016E+03  0.80047536869E+02 0.  0.
      -13    1    4    4    0    0  0.17126389007E+02  0.33093572865E+01  0.79404974547E+02  0.81298308893E+02  0.00000000000E+00 0.  1.
       14    1    4    4    0    0 -0.36833595646E+02  0.46471071508E+01  0.58891665344E+01  0.37589781265E+02  0.00000000000E+00 0. -1.
        3    1    3    3  502    0 -0.22994120500E+02 -0.25437834514E+02  0.20715015257E+03  0.20996904227E+03  0.00000000000E+00 0. -1.
       -4    1    3    3    0  502  0.42701327139E+02  0.17481370076E+02  0.16282888989E+03  0.16924021100E+03  0.00000000000E+00 0.  1.
</event>
<event>
 8   1  0.2279600E-02  0.1029222E+03  0.7546771E-02  0.1275721E+00
        2   -1    0    0  501    0  0.00000000000E+00  0.00000000000E+00  0.19538321320E+04  0.19538321320E+04  0.00000000000E+00 0. -1.
       -2   -1    0    0    0  501 -0.00000000000E+00 -0.00000000000E+00 -0.69553021394E+01  0.69553021394E+01  0.00000000000E+00 0.  1.
      -24    2    1    2    0    0 -0.57118260476E+02  0.24709784397E+02  0.50169036090E+03  0.51213883904E+03  0.81975015170E+02 0.  0.
       24    2    1    2    0    0  0.57118260476E+02 -0.24709784397E+02  0.14451864690E+04  0.14486485951E+04  0.78394852396E+02 0.  0.
      -13    1    4    4    0    0 -0.17049931113E+02 -0.75590974448E+01  0.13899313038E+03  0.14023883342E+03  0.00000000000E+00 0.  1.
       14    1    4    4    0    0  0.74168191588E+02 -0.17150686952E+02  0.13061933386E+04  0.13084097617E+04  0.00000000000E+00 0. -1.
        3    1    3    3  502    0  0.20021336335E+02  0.71434955137E+01  0.66476887785E+02  0.69792979922E+02  0.00000000000E+00 0. -1.
       -4    1    3    3    0  502 -0.77139596811E+02  0.17566288884E+02  0.43521347311E+03  0.44234585912E+03  0.00000000000E+00 0.  1.
</event>
<event>
 8   1  0.2279600E-02  0.8460793E+02  0.7546771E-02  0.1319932E+00
       -2   -1    0    0    0  501 -0.00000000000E+00  0.00000000000E+00  0.10066438878E+02  0.10066438878E+02  0.00000000000E+00 0.  1.
        2   -1    0    0  501    0  0.00000000000E+00 -0.00000000000E+00 -0.67705257098E+03  0.67705257098E+03  0.00000000000E+00 0. -1.
      -24    2    1    2    0    0  0.25710982491E+02  0.21510719018E+01 -0.36095355571E+03  0.36960611368E+03  0.75203245664E+02 0.  0.
       24    2    1    2    0    0 -0.25710982491E+02 -0.21510719018E+01 -0.30603257639E+03  0.31751289618E+03  0.80578034822E+02 0.  0.
      -13    1    4    4    0    0 -0.25992955918E+02 -0.39307288174E+02 -0.18480626874E+03  0.19071983019E+03  0.00000000000E+00 0.  1.
       14    1    4    4    0    0  0.28197342714E+00  0.37156216272E+02 -0.12122630765E+03  0.12679306599E+03  0.00000000000E+00 0. -1.
        1    1    3    3  502    0  0.15517051639E+02  0.34047084305E+02 -0.27195038299E+03  0.27451228324E+03  0.00000000000E+00 0. -1.
       -2    1    3    3    0  502  0.10193930852E+02 -0.31896012403E+02 -0.89003172725E+02  0.95093830444E+02  0.00000000000E+00 0.  1.
</event>
<event>
 8   1  0.2279600E-02  0.1015408E+03  0.7546771E-02  0.1279973E+00
        1   -1    0    0  501    0  0.00000000000E+00  0.00000000000E+00  0.40587890664E+03  0.40587890664E+03  0.00000000000E+00 0. -1.
       -1   -1    0    0    0  501 -0.00000000000E+00 -0.00000000000E+00 -0.37162593007E+02  0.37162593007E+02  0.00000000000E+00 0.  1.
       24    2    1    2    0    0  0.58474827791E+02 -0.13343881665E+02  0.49578672123E+02  0.10813946628E+03  0.75091509337E+02 0.  0.
      -24    2    1    2    0    0 -0.58474827791E+02  0.13343881665E+02  0.31913764151E+03  0.33490203336E+03  0.81933955487E+02 0.  0.
      -13    1    3    3    0    0  0.57248167335E+02 -0.38806530074E+02  0.27545131959E+02  0.74444836854E+02  0.00000000000E+00 0.  1.
       14    1    3    3    0    0  0.12266604564E+01  0.25462648410E+02  0.22033540164E+02  0.33694629425E+02  0.00000000000E+00 0. -1.
        1    1    4    4  502    0 -0.70806498504E+02 -0.13416941796E+02  0.22449406934E+03  0.23577778039E+03  0.00000000000E+00 0. -1.
       -2    1    4    4    0  502  0.12331670712E+02  0.26760823461E+02  0.94643572172E+02  0.99124252978E+02  0.00000000000E+00 0.  1.
</event>
<event>
 8   1  0.2279600E-02  0.8278056E+02  0.7546771E-02  0.1321731E+00
        1   -1    0    0  501    0  0.00000000000E+00  0.00000000000E+00  0.23893466886E+03  0.23893466886E+03  0.00000000000E+00 0. -1.
       -1   -1    0    0    0  501 -0.00000000000E+00 -0.00000000000E+00 -0.38675727503E+02  0.38675727503E+02  0.00000000000E+00 0.  1.
       24    2    1    2    0    0  0.68024826269E+01 -0.18355691065E+02  0.28610919275E+02  0.87043703500E+02  0.79842447688E+02 0.  0.
      -24    2    1    2    0    0 -0.68024826269E+01  0.18355691065E+02  0.17164802208E+03  0.19056669286E+03  0.80432678556E+02 0.  0.
      -13    1    3    3    0    0  0.31826206906E+02  0.18782821669E+02  0.83277122613E+01  0.37882088477E+02  0.00000000000E+00 0.  1.
       14    1    3    3    0    0 -0.25023724279E+02 -0.37138512734E+02  0.20283207014E+02  0.49161615023E+02  0.00000000000E+00 0. -1.
        3    1    4    4  502    0 -0.17418526792E+02  0.36680354419E+02  0.16250189792E+03  0.16749841881E+03  0.00000000000E+00 0. -1.
       -4    1    4    4    0  502  0.10616044165E+02 -0.18324663355E+02  0.91461241670E+01  0.23068274059E+02  0.00000000000E+00 0.  1.
</event>
<event>
 8   1  0.2279600E-02  0.1825666E+03  0.7546771E-02  0.1165435E+00
        2   -1    0    0  501    0  0.00000000000E+00  0.00000000000E+00  0.33852205796E+03  0.33852205796E+03  0.00000000000E+00 0. -1.
       -2   -1    0    0    0  501 -0.00000000000E+00 -0.00000000000E+00 -0.24520332742E+03  0.24520332742E+03  0.00000000000E+00 0.  1.
       24    2    1    2    0    0 -0.41598291077E+02 -0.15825936177E+03  0.27262612177E+03  0.32810906141E+03  0.80957461047E+02 0.  0.
      -24    2    1    2    0    0  0.41598291077E+02  0.15825936177E+03 -0.17930739123E+03  0.25561632397E+03  0.80075721181E+02 0.  0.
      -13    1    3    3    0    0 -0.11123353778E+02  0.77557115662E+01  0.16337437149E+02  0.21231860817E+02  0.00000000000E+00 0.  1.
       14    1    3    3    0    0 -0.30474937299E+02 -0.16601507334E+03  0.25628868462E+03  0.30687720059E+03  0.00000000000E+00 0. -1.
        1    1    4    4  502    0 -0.16783507777E+02  0.12076537591E+02 -0.41672360093E+02  0.46520043951E+02  0.00000000000E+00 0. -1.
       -2    1    4    4    0  502  0.58381798854E+02  0.14618282418E+03 -0.13763503114E+03  0.20909628002E+03  0.00000000000E+00 0.  1.
</event>
<event>
 8   1  0.2279600E-02  0.1001782E+03  0.7546771E-02  0.1280430E+00
       -3   -1    0    0    0  501 -0.00000000000E+00  0.00000000000E+00  0.13356962590E+03  0.13356962590E+03  0.00000000000E+00 0.  1.
        3   -1    0    0  501    0  0.00000000000E+00 -0.00000000000E+00 -0.97750216625E+02  0.97750216625E+02  0.00000000000E+00 0. -1.
       24    2    1    2    0    0 -0.55584062559E+02 -0.20739094031E+02  0.74488381205E+02  0.12483667217E+03  0.80721606471E+02 0.  0.
      -24    2    1    2    0    0  0.55584062559E+02  0.20739094031E+02 -0.38668971932E+02  0.10648317036E+03  0.79521557751E+02 0.  0.
      -13    1    3    3    0    0 -0.34992344279E+02 -0.45868588650E+02  0.71986180375E+02  0.92251838724E+02  0.00000000000E+00 0.  1.
       14    1    3    3    0    0 -0.20591718279E+02  0.25129494619E+02  0.25022008297E+01  0.32584833443E+02  0.00000000000E+00 0. -1.
        1    1    4    4  502    0  0.42482866578E+02 -0.24143504933E+02 -0.55332632169E+01  0.49176414926E+02  0.00000000000E+00 0. -1.
       -2    1    4    4    0  502  0.13101195981E+02  0.44882598964E+02 -0.33135708715E+02  0.57306755430E+02  0.00000000000E+00 0.  1.
</event>
<event>
 8   1  0.2279600E-02  0.8976330E+02  0.7546771E-02  0.1305880E+00
        2   -1    0    0  501    0  0.00000000000E+00  0.00000000000E+00  0.75821676992E+03  0.75821676992E+03  0.00000000000E+00 0. -1.
       -2   -1    0    0    0  501 -0.00000000000E+00 -0.00000000000E+00 -0.18803384753E+02  0.18803384753E+02  0.00000000000E+00 0.  1.
       24    2    1    2    0    0 -0.10431861357E+02 -0.32249122495E+02  0.62850987867E+03  0.63434206057E+03  0.78843849385E+02 0.  0.
      -24    2    1    2    0    0  0.10431861357E+02  0.32249122495E+02  0.11090350649E+03  0.14267809410E+03  0.83118115662E+02 0.  0.
      -13    1    3    3    0    0 -0.87720504916E+01 -0.17769695526E+01  0.53334176153E+01  0.10418821146E+02  0.00000000000E+00 0.  1.
       14    1    3    3    0    0 -0.16598108656E+01 -0.30472152943E+02  0.62317646105E+03  0.62392323942E+03  0.00000000000E+00 0. -1.
        1    1    4    4  502    0  0.40937868775E+02  0.31670074465E+01  0.28068450034E+02  0.49737077953E+02  0.00000000000E+00 0. -1.
       -2    1    4    4    0  502 -0.30506007418E+02  0.29082115049E+02  0.82835056461E+02  0.92941016151E+02  0.00000000000E+00 0.  1.
</event>
<event>
 8   1  0.2279600E-02  0.8240308E+02  0.7546771E-02  0.1322930E+00
        2   -1    0    0  501    0  0.00000000000E+00  0.00000000000E+00  0.15685513530E+04  0.15685513530E+04  0.00000000000E+00 0. -1.
       -2   -1    0    0    0  501 -0.00000000000E+00 -0.00000000000E+00 -0.62621859329E+01  0.62621859329E+01  0.00000000000E+00 0.  1.
       24    2    1    2    0    0  0.15398132424E+02  0.10815911851E+02  0.12261638739E+04  0.12289296618E+04  0.80225815939E+02 0.  0.
      -24    2    1    2    0    0 -0.15398132424E+02 -0.10815911851E+02  0.33612529312E+03  0.34588387710E+03  0.79381089230E+02 0.  0.
      -13    1    3    3    0    0 -0.24722561521E+02  0.29064977581E+02  0.60845531844E+03  0.60965059871E+03  0.00000000000E+00 0.  1.
       14    1    3    3    0    0  0.40120693945E+02 -0.18249065729E+02  0.61770855548E+03  0.61927906310E+03  0.00000000000E+00 0. -1.
        3    1    4    4  502    0 -0.37764073078E+01  0.23829052553E+02  0.34767318437E+02  0.42318452583E+02  0.00000000000E+00 0. -1.
       -4    1    4    4    0  502 -0.11621725116E+02 -0.34644964405E+02  0.30135797469E+03  0.30356542452E+03  0.00000000000E+00 0.  1.
</event>
<event>
 8   1  0.2279600E-02  0.1019868E+03  0.7546771E-02  0.1278666E+00
        2   -1    0    0  501    0  0.00000000000E+00  0.00000000000E+00  0.18782342605E+04  0.18782342605E+04  0.00000000000E+00 0. -1.
       -2   -1    0    0    0  501 -0.00000000000E+00 -0.00000000000E+00 -0.57417808655E+01  0.57417808655E+01  0.00000000000E+00 0.  1.
      -24    2    1    2    0    0 -0.57543904486E+02 -0.24602364337E+02  0.64958043795E+03  0.65681868928E+03  0.74427602076E+02 0.  0.
       24    2    1    2    0    0  0.57543904486E+02  0.24602364337E+02  0.12229120417E+04  0.12271573521E+04  0.80527807597E+02 0.  0.
      -13    1    4    4    0    0  0.24336288439E+02  0.11327689926E+02  0.96119887661E+02  0.99797817100E+02  0.00000000000E+00 0.  1.
       14    1    4    4    0    0  0.33207616047E+02  0.13274674412E+02  0.11267921540E+04  0.11273595350E+04  0.00000000000E+00 0. -1.
        1    1    3    3  502    0 -0.39626866397E+01 -0.16985124287E+02  0.44057215615E+03  0.44091725086E+03  0.00000000000E+00 0. -1.
       -2    1    3    3    0  502 -0.53581217846E+02 -0.76172400498E+01  0.20900828179E+03  0.21590143842E+03  0.00000000000E+00 0.  1.
</event>
<event>
 8   1  0.2279600E-02  0.1175418E+03  0.7546771E-02  0.1253345E+00
       -1   -1    0    0    0  501 -0.00000000000E+00  0.00000000000E+00  0.45821238370E+03  0.45821238370E+03  0.00000000000E+00 0.  1.
        1   -1    0    0  501    0  0.00000000000E+00 -0.00000000000E+00 -0.51638711569E+02  0.51638711569E+02  0.00000000000E+00 0. -1.
       24    2    1    2    0    0  0.72758484360E+02  0.36173435537E+00  0.38645783957E+03  0.40393779981E+03  0.92315526605E+02 0.  0.
      -24    2    1    2    0    0 -0.72758484360E+02 -0.36173435537E+00  0.20115832556E+02  0.10591329545E+03  0.74290319264E+02 0.  0.
      -13    1    3    3    0    0  0.82470864029E+02  0.14427675403E+02  0.37272161917E+03  0.38200917087E+03  0.00000000000E+00 0.  1.
       14    1    3    3    0    0 -0.97123796690E+01 -0.14065941048E+02  0.13736220401E+02  0.21928628943E+02  0.00000000000E+00 0. -1.
        1    1    4    4  502    0 -0.31353217810E+02  0.21360353312E+02 -0.21250343606E+02  0.43484089781E+02  0.00000000000E+00 0. -1.
       -2    1    4    4    0  502 -0.41405266549E+02 -0.21722087668E+02  0.41366176162E+02  0.62429205673E+02  0.00000000000E+00 0.  1.
</event>
<event>
 8   1  0.2279600E-02  0.1090486E+03  0.7546771E-02  0.1262365E+00
        1   -1    0    0  501    0  0.00000000000E+00  0.00000000000E+00  0.16222180390E+03  0.16222180390E+03  0.00000000000E+00 0. -1.
       -1   -1    0    0    0  501 -0.00000000000E+00 -0.00000000000E+00 -0.14472290411E+03  0.14472290411E+03  0.00000000000E+00 0.  1.
       24    2    1    2    0    0 -0.20377099901E+02 -0.70898621620E+02 -0.99086724145E+02  0.14734239782E+03  0.80310413678E+02 0.  0.
      -24    2    1    2    0    0  0.20377099901E+02  0.70898621620E+02  0.11658562394E+03  0.15960231019E+03  0.80242438657E+02 0.  0.
      -13    1    3    3    0    0 -0.11060643590E+02  0.14391317692E+02 -0.37712947507E+02  0.41853485771E+02  0.00000000000E+00 0.  1.
       14    1    3    3    0    0 -0.93164563111E+01 -0.85289939312E+02 -0.61373776638E+02  0.10548891205E+03  0.00000000000E+00 0. -1.
        1    1    4    4  502    0  0.85676498873E+01 -0.17233175157E+02  0.13740374756E+02  0.23647089652E+02  0.00000000000E+00 0. -1.
       -2    1    4    4    0  502  0.11809450014E+02  0.88131796777E+02  0.10284524918E+03  0.13595522054E+03  0.00000000000E+00 0.  1.
</event>
<event>
 8   1  0.2279600E-02  0.1257195E+03  0.7546771E-02  0.1234697E+00
       -1   -1    0    0    0  501 -0.00000000000E+00  0.00000000000E+00  0.44030905679E+02  0.44030905679E+02  0.00000000000E+00 0.  1.
        1   -1    0    0  501    0  0.00000000000E+00 -0.00000000000E+00 -0.36420837291E+03  0.36420837291E+03  0.00000000000E+00 0. -1.
       24    2    1    2    0    0  0.94144044542E+02  0.80755498369E+01 -0.19625043147E+03  0.23306569159E+03  0.82928096081E+02 0.  0.
      -24    2    1    2    0    0 -0.94144044542E+02 -0.80755498369E+01 -0.12392703576E+03  0.17517358699E+03  0.79997248447E+02 0.  0.
      -13    1    3    3    0    0  0.93493127121E+02  0.32059848315E+02 -0.13524154332E+03  0.16750842884E+03  0.00000000000E+00 0.  1.
       14    1    3    3    0    0  0.65091742160E+00 -0.23984298478E+02 -0.61008888150E+02  0.65557262758E+02  0.00000000000E+00 0. -1.
        3    1    4    4  502    0 -0.89648794520E+02  0.20236234460E+02 -0.75685639637E+02  0.11905766498E+03  0.00000000000E+00 0. -1.
       -4    1    4    4    0  502 -0.44952500229E+01 -0.28311784297E+02 -0.48241396127E+02  0.56115922011E+02  0.00000000000E+00 0.  1.
</event>
<event>
 8   1  0.2279600E-02  0.2100531E+03  0.7546771E-02  0.1141792E+00
        2   -1    0    0  501    0  0.00000000000E+00  0.00000000000E+00  0.65599459241E+03  0.65599459241E+03  0.00000000000E+00 0. -1.
       -2   -1    0    0    0  501 -0.00000000000E+00 -0.00000000000E+00 -0.66855605043E+02  0.66855605043E+02  0.00000000000E+00 0.  1.
       24    2    1    2    0    0 -0.10020906778E+03 -0.16498438495E+03  0.28834917968E+03  0.35674576399E+03  0.82828655417E+02 0.  0.
      -24    2    1    2    0    0  0.10020906778E+03  0.16498438495E+03  0.30078980769E+03  0.36610443347E+03  0.79348870521E+02 0.  0.
      -13    1    3    3    0    0  0.75212588284E+01 -0.19948828157E+02  0.71070029380E+01  0.22472974213E+02  0.00000000000E+00 0.  1.
       14    1    3    3    0    0 -0.10773032660E+03 -0.14503555679E+03  0.28124217674E+03  0.33427278977E+03  0.00000000000E+00 0. -1.
        3    1    4    4  502    0 -0.12521686182E+02  0.30646992795E+02  0.54259128702E+02  0.63561653847E+02  0.00000000000E+00 0. -1.
       -4    1    4    4    0  502  0.11273075396E+03  0.13433739216E+03  0.24653067899E+03  0.30254277962E+03  0.00000000000E+00 0.  1.
</event>
<event>
 8   1  0.2279600E-02  0.8953167E+02  0.7546771E-02  0.1304515E+00
        1   -1    0    0  501    0  0.00000000000E+00  0.00000000000E+00  0.71419354224E+03  0.71419354224E+03  0.00000000000E+00 0. -1.
       -1   -1    0    0    0  501 -0.00000000000E+00 -0.00000000000E+00 -0.14677430722E+02  0.14677430722E+02  0.00000000000E+00 0.  1.
       24    2    1    2    0    0  0.58484622161E+01 -0.38379513771E+02  0.16897982475E+03  0.19083317613E+03  0.79724076353E+02 0.  0.
      -24    2    1    2    0    0 -0.58484622161E+01  0.38379513771E+02  0.53053628677E+03  0.53803779684E+03  0.80676685972E+02 0.  0.
      -13    1    3    3    0    0  0.38541325803E+02 -0.40462146860E+02  0.10393464257E+03  0.11800436030E+03  0.00000000000E+00 0.  1.
       14    1    3    3    0    0 -0.32692863587E+02  0.20826330894E+01  0.65045182183E+02  0.72828815831E+02  0.00000000000E+00 0. -1.
        3    1    4    4  502    0  0.19564150584E+02  0.39242811051E+02  0.47427087887E+03  0.47629362871E+03  0.00000000000E+00 0. -1.
       -4    1    4    4    0  502 -0.25412612800E+02 -0.86329727977E+00  0.56265407899E+02  0.61744168126E+02  0.00000000000E+00 0.  1.
</event>
<event>
 8   1  0.2279600E-02  0.9011990E+02  0.7546771E-02  0.1305370E+00
       -1   -1    0    0    0  501 -0.00000000000E+00  0.00000000000E+00  0.10024066972E+02  0.10024066972E+02  0.00000000000E+00 0.  1.
        1   -1    0    0  501    0  0.00000000000E+00 -0.00000000000E+00 -0.78181635819E+03  0.78181635819E+03  0.00000000000E+00 0. -1.
       24    2    1    2    0    0 -0.37507422024E+02  0.18021773895E+02 -0.32763960559E+03  0.33863715506E+03  0.74805217705E+02 0.  0.
      -24    2    1    2    0    0  0.37507422024E+02 -0.18021773895E+02 -0.44415268564E+03  0.45320327011E+03  0.79937505825E+02 0.  0.
      -13    1    3    3    0    0 -0.54757051323E+02 -0.64656264075E+01 -0.19409445808E+03  0.20177412533E+03  0.00000000000E+00 0.  1.
       14    1    3    3    0    0  0.17249629299E+02  0.24487400302E+02 -0.13354514751E+03  0.13686302973E+03  0.00000000000E+00 0. -1.
        1    1    4    4  502    0 -0.12833103502E+02 -0.45203944396E+01 -0.29302526042E+03  0.29334097183E+03  0.00000000000E+00 0. -1.
       -2    1    4    4    0  502  0.50340525526E+02 -0.13501379455E+02 -0.15112742521E+03  0.15986229827E+03  0.00000000000E+00 0.  1.
</event>
<event>
 8   1  0.2279600E-02  0.8776713E+02  0.7546771E-02  0.1308743E+00
        1   -1    0    0  501    0  0.00000000000E+00  0.00000000000E+00  0.77665693307E+03  0.77665693307E+03  0.00000000000E+00 0. -1.
       -1   -1    0    0    0  501 -0.00000000000E+00 -0.00000000000E+00 -0.37834151534E+02  0.37834151534E+02  0.00000000000E+00 0.  1.
       24    2    1    2    0    0 -0.48945307922E+01  0.34911281603E+02  0.19497673040E+02  0.89906774123E+02  0.80376083286E+02 0.  0.
      -24    2    1    2    0    0  0.48945307922E+01 -0.34911281603E+02  0.71932510850E+03  0.72458431048E+03  0.79693520862E+02 0.  0.
      -13    1    3    3    0    0 -0.33625485465E+02  0.43023428894E+02  0.24123738140E+02  0.59696259920E+02  0.00000000000E+00 0.  1.
       14    1    3    3    0    0  0.28730954673E+02 -0.81121472909E+01 -0.46260651001E+01  0.30210514203E+02  0.00000000000E+00 0. -1.
        1    1    4    4  502    0 -0.17024868144E+02 -0.28680624695E+02  0.66280044896E+03  0.66363910336E+03  0.00000000000E+00 0. -1.
       -2    1    4    4    0  502  0.21919398936E+02 -0.62306569084E+01  0.56524659536E+02  0.60945207120E+02  0.00000000000E+00 0.  1.
</event>
<event>
 8   1  0.2279600E-02  0.9127421E+02  0.7546771E-02  0.1303108E+00
       -1   -1    0    0    0  501 -0.00000000000E+00  0.00000000000E+00  0.73418013911E+02  0.73418013911E+02  0.00000000000E+00 0.  1.
        1   -1    0    0  501    0  0.00000000000E+00 -0.00000000000E+00 -0.10831267618E+03  0.10831267618E+03  0.00000000000E+00 0. -1.
       24    2    1    2    0    0  0.29092845252E+02 -0.33658289695E+02 -0.74649415811E+01  0.91578962322E+02  0.79697596432E+02 0.  0.
      -24    2    1    2    0    0 -0.29092845252E+02  0.33658289695E+02 -0.27429720692E+02  0.90151727774E+02  0.73455226726E+02 0.  0.
      -13    1    3    3    0    0  0.96948764136E+01 -0.14369342674E+02  0.36152214490E+02  0.40093032438E+02  0.00000000000E+00 0.  1.
       14    1    3    3    0    0  0.19397968839E+02 -0.19288947021E+02 -0.43617156071E+02  0.51485929883E+02  0.00000000000E+00 0. -1.
        3    1    4    4  502    0  0.44813529968E+01  0.24850918371E+02  0.19412299856E+02  0.31851029093E+02  0.00000000000E+00 0. -1.
       -4    1    4    4    0  502 -0.33574198249E+02  0.88073713244E+01 -0.46842020549E+02  0.58300698682E+02  0.00000000000E+00 0.  1.
</event>
<event>
 8   1  0.2279600E-02  0.8156394E+02  0.7546771E-02  0.1326838E+00
       -2   -1    0    0    0  501 -0.00000000000E+00  0.00000000000E+00  0.52555488371E+02  0.52555488371E+02  0.00000000000E+00 0.  1.
        2   -1    0    0  501    0  0.00000000000E+00 -0.00000000000E+00 -0.23830267064E+03  0.23830267064E+03  0.00000000000E+00 0. -1.
      -24    2    1    2    0    0  0.15962180728E+02 -0.66230218514E+01  0.96857720150E+01  0.79087725745E+02  0.76566301674E+02 0.  0.
       24    2    1    2    0    0 -0.15962180728E+02  0.66230218514E+01 -0.19543295428E+03  0.21177043326E+03  0.79712114220E+02 0.  0.
      -13    1    4    4    0    0  0.94235218819E+01 -0.33022910876E+02 -0.88738451296E+02  0.95151606112E+02  0.00000000000E+00 0.  1.
       14    1    4    4    0    0 -0.25385702609E+02  0.39645932727E+02 -0.10669450298E+03  0.11661882715E+03  0.00000000000E+00 0. -1.
        1    1    3    3  502    0 -0.23970979871E+02 -0.98065852876E+01 -0.16975544704E+02  0.30966855006E+02  0.00000000000E+00 0. -1.
       -2    1    3    3    0  502  0.39933160598E+02  0.31835634363E+01  0.26661316719E+02  0.48120870739E+02  0.00000000000E+00 0.  1.
</event>
<event>
 8   1  0.2279600E-02  0.8748876E+02  0.7546771E-02  0.1309655E+00
       -1   -1    0    0    0  501 -0.00000000000E+00  0.00000000000E+00  0.10476794977E+02  0.10476794977E+02  0.00000000000E+00 0.  1.
        1   -1    0    0  501    0  0.00000000000E+00 -0.00000000000E+00 -0.74022550575E+03  0.74022550575E+03  0.00000000000E+00 0. -1.
       24    2    1    2    0    0 -0.75726931385E+01 -0.32554975220E+02 -0.30895563646E+03  0.32110413862E+03  0.80852399130E+02 0.  0.
      -24    2    1    2    0    0  0.75726931385E+01  0.32554975220E+02 -0.42079307431E+03  0.42959816210E+03  0.79816022224E+02 0.  0.
      -13    1    3    3    0    0 -0.40044699080E+02 -0.17577561249E+02 -0.10049098364E+03  0.10959464575E+03  0.00000000000E+00 0.  1.
       14    1    3    3    0    0  0.32472005941E+02 -0.14977413971E+02 -0.20846465282E+03  0.21150949287E+03  0.00000000000E+00 0. -1.
        3    1    4    4  502    0  0.13050089418E+02  0.47531394428E+02 -0.40173942335E+03  0.40475190248E+03  0.00000000000E+00 0. -1.
       -4    1    4    4    0  502 -0.54773962791E+01 -0.14976419208E+02 -0.19053650961E+02  0.24846259622E+02  0.00000000000E+00 0.  1.
</event>
<event>
 8   1  0.2279600E-02  0.1612584E+03  0.7546771E-02  0.1187414E+00
       -1   -1    0    0    0  501 -0.00000000000E+00  0.00000000000E+00  0.42092806017E+02  0.42092806017E+02  0.00000000000E+00 0.  1.
        1   -1    0    0  501    0  0.00000000000E+00 -0.00000000000E+00 -0.71545093478E+03  0.71545093478E+03  0.00000000000E+00 0. -1.
       24    2    1    2    0    0  0.10367092559E+03  0.92262573188E+02 -0.19504278553E+03  0.25277662396E+03  0.81205235102E+02 0.  0.
      -24    2    1    2    0    0 -0.10367092559E+03 -0.92262573188E+02 -0.47831534324E+03  0.50476711684E+03  0.82123269817E+02 0.  0.
      -13    1    3    3    0    0  0.78406173627E+02  0.10467524873E+03 -0.17380374285E+03  0.21751362437E+03  0.00000000000E+00 0.  1.
       14    1    3    3    0    0  0.25264751964E+02 -0.12412675539E+02 -0.21239042683E+02  0.35262999588E+02  0.00000000000E+00 0. -1.
        3    1    4    4  502    0 -0.95657886337E+02 -0.96127071639E+02 -0.47684025991E+03  0.49574941108E+03  0.00000000000E+00 0. -1.
       -4    1    4    4    0  502 -0.80130392538E+01  0.38644984510E+01 -0.14750833312E+01  0.90177057612E+01  0.00000000000E+00 0.  1.
</event>
<event>
 8   1  0.2279600E-02  0.1444345E+03  0.7546771E-02  0.1214726E+00
       -2   -1    0    0    0  501 -0.00000000000E+00  0.00000000000E+00  0.18102712376E+02  0.18102712376E+02  0.00000000000E+00 0.  1.
        2   -1    0    0  501    0  0.00000000000E+00 -0.00000000000E+00 -0.14579280556E+04  0.14579280556E+04  0.00000000000E+00 0. -1.
       24    2    1    2    0    0  0.88062611965E+02  0.35299261966E+02 -0.11734197522E+04  0.11822754552E+04  0.10890489187E+03 0.  0.
      -24    2    1    2    0    0 -0.88062611965E+02 -0.35299261966E+02 -0.26640559106E+03  0.29375531287E+03  0.79493291328E+02 0.  0.
      -13    1    3    3    0    0  0.12425462013E+02  0.79823185672E+01 -0.80697914482E+03  0.80711427301E+03  0.00000000000E+00 0.  1.
       14    1    3    3    0    0  0.75637149952E+02  0.27316943399E+02 -0.36644060738E+03  0.37516118214E+03  0.00000000000E+00 0. -1.
        1    1    4    4  502    0 -0.48689058957E+02 -0.47405277265E+02 -0.22622620673E+03  0.23621215334E+03  0.00000000000E+00 0. -1.
       -2    1    4    4    0  502 -0.39373553008E+02  0.12106015299E+02 -0.40179384337E+02  0.57543159529E+02  0.00000000000E+00 0.  1.
</event>
<event>
 8   1  0.2279600E-02  0.1114210E+03  0.7546771E-02  0.1257990E+00
        1   -1    0    0  501    0  0.00000000000E+00  0.00000000000E+00  0.53621680988E+03  0.53621680988E+03  0.00000000000E+00 0. -1.
       -1   -1    0    0    0  501 -0.00000000000E+00 -0.00000000000E+00 -0.34153063898E+02  0.34153063898E+02  0.00000000000E+00 0.  1.
       24    2    1    2    0    0  0.75857577688E+02  0.13011226125E+02  0.89029047262E+02  0.14257049855E+03  0.80476777416E+02 0.  0.
      -24    2    1    2    0    0 -0.75857577688E+02 -0.13011226125E+02  0.41303469872E+03  0.42779937522E+03  0.80566612173E+02 0.  0.
      -13    1    3    3    0    0  0.46123836218E+02 -0.11961460350E+02  0.24844810357E+01  0.47714331675E+02  0.00000000000E+00 0.  1.
       14    1    3    3    0    0  0.29733741470E+02  0.24972686475E+02  0.86544566226E+02  0.94856166879E+02  0.00000000000E+00 0. -1.
        1    1    4    4  502    0 -0.80145056387E+02 -0.17693528904E+02  0.41337245182E+03  0.42144166258E+03  0.00000000000E+00 0. -1.
       -2    1    4    4    0  502  0.42874786989E+01  0.46823027797E+01 -0.33775310624E+00  0.63577126449E+01  0.00000000000E+00 0.  1.
</event>
<event>
 8   1  0.2279600E-02  0.8728846E+02  0.7546771E-02  0.1309730E+00
        1   -1    0    0  501    0  0.00000000000E+00  0.00000000000E+00  0.31524229394E+02  0.31524229394E+02  0.00000000000E+00 0. -1.
       -1   -1    0    0    0  501 -0.00000000000E+00 -0.00000000000E+00 -0.24972373843E+03  0.24972373843E+03  0.00000000000E+00 0.  1.
       24    2    1    2    0    0  0.31976836358E+02  0.37023925046E+01 -0.13532786056E+03  0.16088607426E+03  0.80836088942E+02 0.  0.
      -24    2    1    2    0    0 -0.31976836358E+02 -0.37023925046E+01 -0.82871648476E+02  0.12036189356E+03  0.81135994021E+02 0.  0.
      -13    1    3    3    0    0  0.33139043985E+02 -0.32771963488E+01 -0.91839886494E+01  0.34543912628E+02  0.00000000000E+00 0.  1.
       14    1    3    3    0    0 -0.11622076268E+01  0.69795888534E+01 -0.12614387191E+03  0.12634216163E+03  0.00000000000E+00 0. -1.
        1    1    4    4  502    0 -0.34945465228E+02 -0.38069195202E+02 -0.40077225582E+02  0.65395972152E+02  0.00000000000E+00 0. -1.
       -2    1    4    4    0  502  0.29686288704E+01  0.34366802698E+02 -0.42794422894E+02  0.54965921405E+02  0.00000000000E+00 0.  1.
</event>
<event>
 8   1  0.2279600E-02  0.8824657E+02  0.7546771E-02  0.1316975E+00
       -1   -1    0    0    0  501 -0.00000000000E+00  0.00000000000E+00  0.47691249678E+01  0.47691249678E+01  0.00000000000E+00 0.  1.
        1   -1    0    0  501    0  0.00000000000E+00 -0.00000000000E+00 -0.16032807544E+04  0.16032807544E+04  0.00000000000E+00 0. -1.
       24    2    1    2    0    0  0.88226892492E+01  0.35124186922E+02 -0.43796876324E+03  0.44415675656E+03  0.64397503669E+02 0.  0.
      -24    2    1    2    0    0 -0.88226892492E+01 -0.35124186922E+02 -0.11605428662E+04  0.11638931229E+04  0.80473030752E+02 0.  0.
      -13    1    3    3    0    0  0.21268936984E+02  0.49801565657E+02 -0.29938417942E+03  0.30424242063E+03  0.00000000000E+00 0.  1.
       14    1    3    3    0    0 -0.12446247735E+02 -0.14677378735E+02 -0.13858458382E+03  0.13991433594E+03  0.00000000000E+00 0. -1.
        1    1    4    4  502    0 -0.36301979265E+02 -0.28104946013E+02 -0.36938760106E+03  0.37222966231E+03  0.00000000000E+00 0. -1.
       -2    1    4    4    0  502  0.27479290016E+02 -0.70192409086E+01 -0.79115526519E+03  0.79166346054E+03  0.00000000000E+00 0.  1.
</event>
<event>
 8   1  0.2279600E-02  0.8797780E+02  0.7546771E-02  0.1308108E+00
        2   -1    0    0  501    0  0.00000000000E+00  0.00000000000E+00  0.17984979185E+04  0.17984979185E+04  0.00000000000E+00 0. -1.
       -2   -1    0    0    0  501 -0.00000000000E+00 -0.00000000000E+00 -0.77486517259E+01  0.77486517259E+01  0.00000000000E+00 0.  1.
      -24    2    1    2    0    0  0.30263594796E+00  0.34311240712E+02  0.29253596157E+03  0.30547893857E+03  0.81010741712E+02 0.  0.
       24    2    1    2    0    0 -0.30263594796E+00 -0.34311240712E+02  0.14982133052E+04  0.15007676317E+04  0.80517224839E+02 0.  0.
      -13    1    4    4    0    0  0.57264675757E+01  0.19298573372E+02  0.13552524130E+03  0.13701211039E+03  0.00000000000E+00 0.  1.
       14    1    4    4    0    0 -0.60291035237E+01 -0.53609814085E+02  0.13626880639E+04  0.13637555213E+04  0.00000000000E+00 0. -1.
        3    1    3    3  502    0 -0.35313135545E+01  0.28172072569E+02  0.29606719207E+03  0.29742548322E+03  0.00000000000E+00 0. -1.
       -4    1    3    3    0  502  0.38339495025E+01  0.61391681429E+01 -0.35312305010E+01  0.80534553532E+01  0.00000000000E+00 0.  1.
</event>
<event>
 8   1  0.2279600E-02  0.1213104E+03  0.7546771E-02  0.1243040E+00
       -1   -1    0    0    0  501 -0.00000000000E+00  0.00000000000E+00  0.68645915326E+02  0.68645915326E+02  0.00000000000E+00 0.  1.
        1   -1    0    0  501    0  0.00000000000E+00 -0.00000000000E+00 -0.24347609027E+03  0.24347609027E+03  0.00000000000E+00 0. -1.
       24    2    1    2    0    0  0.72719437104E+02 -0.53201114072E+02 -0.24309131392E+02  0.11880157788E+03  0.73514664968E+02 0.  0.
      -24    2    1    2    0    0 -0.72719437104E+02  0.53201114072E+02 -0.15052104355E+03  0.19332042772E+03  0.81226400578E+02 0.  0.
      -13    1    3    3    0    0  0.81696790444E+02 -0.42466170192E+02 -0.15539998420E+01  0.92087763004E+02  0.00000000000E+00 0.  1.
       14    1    3    3    0    0 -0.89773533400E+01 -0.10734943880E+02 -0.22755131550E+02  0.26713814871E+02  0.00000000000E+00 0. -1.
        1    1    4    4  502    0 -0.86651471336E+02  0.60229604838E+02 -0.12745128857E+03  0.16546876968E+03  0.00000000000E+00 0. -1.
       -2    1    4    4    0  502  0.13932034232E+02 -0.70284907654E+01 -0.23069754984E+02  0.27851658035E+02  0.00000000000E+00 0.  1.
</event>
<event>
 8   1  0.2279600E-02  0.8577965E+02  0.7546771E-02  0.1314668E+00
       -2   -1    0    0    0  501 -0.00000000000E+00  0.00000000000E+00  0.37201353560E+02  0.37201353560E+02  0.00000000000E+00 0.  1.
        2   -1    0    0  501    0  0.00000000000E+00 -0.00000000000E+00 -0.52055036266E+03  0.52055036266E+03  0.00000000000E+00 0. -1.
      -24    2    1    2    0    0  0.24815268389E+02  0.10455848789E+02 -0.19564915685E+02  0.86101598766E+02  0.79407663768E+02 0.  0.
       24    2    1    2    0    0 -0.24815268389E+02 -0.10455848789E+02 -0.46378409342E+03  0.47165011746E+03  0.81443389365E+02 0.  0.
      -13    1    4    4    0    0  0.15630495117E+01 -0.27935839064E+02 -0.55618658965E+02  0.62259854264E+02  0.00000000000E+00 0.  1.
       14    1    4    4    0    0 -0.26378317901E+02  0.17479990274E+02 -0.40816543445E+03  0.40939026319E+03  0.00000000000E+00 0. -1.
        1    1    3    3  502    0 -0.50361743893E+01 -0.29950108811E+02  0.39630287295E+01  0.30628053594E+02  0.00000000000E+00 0. -1.
       -2    1    3    3    0  502  0.29851442779E+02  0.40405957600E+02 -0.23527944415E+02  0.55473545172E+02  0.00000000000E+00 0.  1.
</event>
<event>
 8   1  0.2279600E-02  0.1173959E+03  0.7546771E-02  0.1247770E+00
       -2   -1    0    0    0  501 -0.00000000000E+00  0.00000000000E+00  0.31899382838E+02  0.31899382838E+02  0.00000000000E+00 0.  1.
        2   -1    0    0  501    0  0.00000000000E+00 -0.00000000000E+00 -0.50842535076E+03  0.50842535076E+03  0.00000000000E+00 0. -1.
       24    2    1    2    0    0 -0.74839348477E+02 -0.41080153497E+02 -0.34418792688E+03  0.36342038679E+03  0.79501832888E+02 0.  0.
      -24    2    1    2    0    0  0.74839348477E+02  0.41080153497E+02 -0.13233804104E+03  0.17690434681E+03  0.80580914124E+02 0.  0.
      -13    1    3    3    0    0  0.16967554059E+02 -0.84744827156E+01 -0.47528847078E+02  0.51173294330E+02  0.00000000000E+00 0.  1.
       14    1    3    3    0    0 -0.91806902536E+02 -0.32605670781E+02 -0.29665907980E+03  0.31224709246E+03  0.00000000000E+00 0. -1.
        3    1    4    4  502    0  0.61416335290E+02 -0.32619587474E+01 -0.10870019340E+03  0.12489330911E+03  0.00000000000E+00 0. -1.
       -4    1    4    4    0  502  0.13423013188E+02  0.44342112244E+02 -0.23637847642E+02  0.52011037698E+02  0.00000000000E+00 0.  1.
</event>
<event>
 8   1  0.2279600E-02  0.8181021E+02  0.7546771E-02  0.1331047E+00
       -3   -1    0    0    0  501 -0.00000000000E+00  0.00000000000E+00  0.93135944245E+02  0.93135944245E+02  0.00000000000E+00 0.  1.
        3   -1    0    0  501    0  0.00000000000E+00 -0.00000000000E+00 -0.10338681983E+03  0.10338681983E+03  0.00000000000E+00 0. -1.
       24    2    1    2    0    0  0.16034774770E+02  0.21143406846E+00  0.55886596712E+02  0.91322591947E+02  0.70422619957E+02 0.  0.
      -24    2    1    2    0    0 -0.16034774770E+02 -0.21143406846E+00 -0.66137472297E+02  0.10520017213E+03  0.80223140475E+02 0.  0.
      -13    1    3    3    0    0  0.17000824326E+02  0.31040522049E+02  0.11386037829E+02  0.37177733851E+02  0.00000000000E+00 0.  1.
       14    1    3    3    0    0 -0.96604955625E+00 -0.30829087980E+02  0.44500558883E+02  0.54144858097E+02  0.00000000000E+00 0. -1.
        3    1    4    4  502    0  0.19675335558E+02 -0.20947351410E+02 -0.55591946931E+02  0.62580946973E+02  0.00000000000E+00 0. -1.
       -4    1    4    4    0  502 -0.35710110328E+02  0.20735917342E+02 -0.10545525366E+02  0.42619225156E+02  0.00000000000E+00 0.  1.
</event>
<event>
 8   1  0.2279600E-02  0.1201010E+03  0.7546771E-02  0.1243213E+00
       -1   -1    0    0    0  501 -0.00000000000E+00  0.00000000000E+00  0.65782026437E+03  0.65782026437E+03  0.00000000000E+00 0.  1.
        1   -1    0    0  501    0  0.00000000000E+00 -0.00000000000E+00 -0.58676581851E+02  0.58676581851E+02  0.00000000000E+00 0. -1.
       24    2    1    2    0    0  0.34372463613E+02 -0.81674450357E+02  0.58324895947E+03  0.59534857883E+03  0.80052479674E+02 0.  0.
      -24    2    1    2    0    0 -0.34372463613E+02  0.81674450357E+02  0.15894723057E+02  0.12114826739E+03  0.81068356190E+02 0.  0.
      -13    1    3    3    0    0  0.36109966252E+02 -0.95196924202E+02  0.44849430840E+03  0.45990599986E+03  0.00000000000E+00 0.  1.
       14    1    3    3    0    0 -0.17375026389E+01  0.13522473845E+02  0.13475465107E+03  0.13544257898E+03  0.00000000000E+00 0. -1.
        3    1    4    4  502    0  0.23206397137E+01  0.55036570772E+02 -0.24624642988E+02  0.60338897349E+02  0.00000000000E+00 0. -1.
       -4    1    4    4    0  502 -0.36693103326E+02  0.26637879586E+02  0.40519366045E+02  0.60809370044E+02  0.00000000000E+00 0.  1.
</event>
<event>
 8   1  0.2279600E-02  0.9468931E+02  0.7546771E-02  0.1292895E+00
        1   -1    0    0  501    0  0.00000000000E+00  0.00000000000E+00  0.12375006849E+02  0.12375006849E+02  0.00000000000E+00 0. -1.
       -1   -1    0    0    0  501 -0.00000000000E+00 -0.00000000000E+00 -0.81684477892E+03  0.81684477892E+03  0.00000000000E+00 0.  1.
       24    2    1    2    0    0  0.44908958081E+02 -0.16695751861E+02 -0.55482105230E+03  0.56284319770E+03  0.81673144159E+02 0.  0.
      -24    2    1    2    0    0 -0.44908958081E+02  0.16695751861E+02 -0.24964871977E+03  0.26637658807E+03  0.79601763431E+02 0.  0.
      -13    1    3    3    0    0  0.16391637912E+02  0.27349143000E+02 -0.34846204262E+03  0.34991778543E+03  0.00000000000E+00 0.  1.
       14    1    3    3    0    0  0.28517320169E+02 -0.44044894861E+02 -0.20635900968E+03  0.21292541227E+03  0.00000000000E+00 0. -1.
        1    1    4    4  502    0 -0.36220301240E+02 -0.16847811613E+02 -0.51273840581E+02  0.64998197714E+02  0.00000000000E+00 0. -1.
       -2    1    4    4    0  502 -0.86886568409E+01  0.33543563474E+02 -0.19837487919E+03  0.20137839035E+03  0.00000000000E+00 0.  1.
</event>
<event>
 8   1  0.2279600E-02  0.8157345E+02  0.7546771E-02  0.1325704E+00
        1   -1    0    0  501    0  0.00000000000E+00  0.00000000000E+00  0.22272946255E+04  0.22272946255E+04  0.00000000000E+00 0. -1.
       -1   -1    0    0    0  501 -0.00000000000E+00 -0.00000000000E+00 -0.41946632448E+01  0.41946632448E+01  0.00000000000E+00 0.  1.
       24    2    1    2    0    0  0.55259879428E+01  0.63138122985E+01  0.50677577421E+03  0.51329904845E+03  0.81140785366E+02 0.  0.
      -24    2    1    2    0    0 -0.55259879428E+01 -0.63138122985E+01  0.17163241880E+04  0.17181902403E+04  0.79615215826E+02 0.  0.
      -13    1    3    3    0    0  0.23762125584E+02 -0.27995499139E+02  0.15068167525E+03  0.15509143703E+03  0.00000000000E+00 0.  1.
       14    1    3    3    0    0 -0.18236137641E+02  0.34309311438E+02  0.35609409896E+03  0.35820761143E+03  0.00000000000E+00 0. -1.
        1    1    4    4  502    0  0.70896823693E+01  0.12058321984E+02  0.15795715081E+04  0.15796334435E+04  0.00000000000E+00 0. -1.
       -2    1    4    4    0  502 -0.12615670312E+02 -0.18372134283E+02  0.13675267994E+03  0.13855679675E+03  0.00000000000E+00 0.  1.
</event>
<event>
 8   1  0.2279600E-02  0.1813585E+03  0.7546771E-02  0.1166679E+00
        2   -1    0    0  501    0  0.00000000000E+00  0.00000000000E+00  0.38778260436E+03  0.38778260436E+03  0.00000000000E+00 0. -1.
       -2   -1    0    0    0  501 -0.00000000000E+00 -0.00000000000E+00 -0.11355674996E+03  0.11355674996E+03  0.00000000000E+00 0.  1.
      -24    2    1    2    0    0  0.74443656467E+02 -0.14432249975E+03  0.10440272940E+02  0.18165872110E+03  0.80746824882E+02 0.  0.
       24    2    1    2    0    0 -0.74443656467E+02  0.14432249975E+03  0.26378558146E+03  0.31968063323E+03  0.79006533582E+02 0.  0.
      -13    1    4    4    0    0 -0.20550325015E+02  0.35919536713E+02  0.16879496425E+02  0.44692800041E+02  0.00000000000E+00 0.  1.
       14    1    4    4    0    0 -0.53893331452E+02  0.10840296304E+03  0.24690608504E+03  0.27498783319E+03  0.00000000000E+00 0. -1.
        1    1    3    3  502    0  0.53434545549E+02 -0.22967348673E+02  0.16422585293E+01  0.58184592258E+02  0.00000000000E+00 0. -1.
       -2    1    3    3    0  502  0.21009110917E+02 -0.12135515108E+03  0.87980144111E+01  0.12347412884E+03  0.00000000000E+00 0.  1.
</event>
<event>
 8   1  0.2279600E-02  0.9524166E+02  0.7546771E-02  0.1291235E+00
        2   -1    0    0  501    0  0.00000000000E+00  0.00000000000E+00  0.29570124813E+03  0.29570124813E+03  0.00000000000E+00 0. -1.
       -2   -1    0    0    0  501 -0.00000000000E+00 -0.00000000000E+00 -0.42814847284E+02  0.42814847284E+02  0.00000000000E+00 0.  1.
      -24    2    1    2    0    0 -0.37647646017E+01 -0.51712794526E+02  0.34552886880E+02  0.10031345560E+03  0.78616161270E+02 0.  0.
       24    2    1    2    0    0  0.37647646017E+01  0.51712794526E+02  0.21833351396E+03  0.23820263981E+03  0.79891099145E+02 0.  0.
      -13    1    4    4    0    0  0.35884971756E+01  0.14753124239E+02 -0.15244881177E+01  0.15259621581E+02  0.00000000000E+00 0.  1.
       14    1    4    4    0    0  0.17626742612E+00  0.36959670288E+02  0.21985800208E+03  0.22294301823E+03  0.00000000000E+00 0. -1.
        1    1    3    3  502    0 -0.33969965353E+02 -0.42074785699E+02  0.41120428040E+02  0.67934790350E+02  0.00000000000E+00 0. -1.
       -2    1    3    3    0  502  0.30205200752E+02 -0.96380088278E+01 -0.65675411596E+01  0.32378665252E+02  0.00000000000E+00 0.  1.
</event>
<event>
 8   1  0.2279600E-02  0.9416979E+02  0.7546771E-02  0.1295234E+00
        1   -1    0    0  501    0  0.00000000000E+00  0.00000000000E+00  0.72796668813E+02  0.72796668813E+02  0.00000000000E+00 0. -1.
       -1   -1    0    0    0  501 -0.00000000000E+00 -0.00000000000E+00 -0.17150913944E+03  0.17150913944E+03  0.00000000000E+00 0.  1.
       24    2    1    2    0    0 -0.40730035063E+02 -0.68961509297E+01 -0.11750965314E+03  0.14827829789E+03  0.80445275750E+02 0.  0.
      -24    2    1    2    0    0  0.40730035063E+02  0.68961509297E+01  0.18797182510E+02  0.96027510364E+02  0.84625386395E+02 0.  0.
      -13    1    3    3    0    0 -0.15038968834E+02  0.83969818982E+01 -0.11711757196E+03  0.11837738615E+03  0.00000000000E+00 0.  1.
       14    1    3    3    0    0 -0.25691066229E+02 -0.15293132828E+02 -0.39208118156E+00  0.29900911748E+02  0.00000000000E+00 0. -1.
        1    1    4    4  502    0  0.28523035881E+02  0.24357130375E+02  0.47347778298E+02  0.60404018788E+02  0.00000000000E+00 0. -1.
       -2    1    4    4    0  502  0.12206999182E+02 -0.17460979445E+02 -0.28550595788E+02  0.35623491576E+02  0.00000000000E+00 0.  1.
</event>
<event>
 8   1  0.2279600E-02  0.8846686E+02  0.7546771E-02  0.1306823E+00
       -2   -1    0    0    0  501 -0.00000000000E+00  0.00000000000E+00  0.24095946910E+02  0.24095946910E+02  0.00000000000E+00 0.  1.
        2   -1    0    0  501    0  0.00000000000E+00 -0.00000000000E+00 -0.33296886908E+03  0.33296886908E+03  0.00000000000E+00 0. -1.
      -24    2    1    2    0    0  0.20864213886E+02 -0.32824673115E+02 -0.12408380420E+03  0.15219070092E+03  0.79072399708E+02 0.  0.
       24    2    1    2    0    0 -0.20864213886E+02  0.32824673115E+02 -0.18478911796E+03  0.20487411506E+03  0.79458230026E+02 0.  0.
      -13    1    4    4    0    0 -0.26820800880E+01  0.11113584890E+02  0.53607347209E+01  0.12627066146E+02  0.00000000000E+00 0.  1.
       14    1    4    4    0    0 -0.18182133798E+02  0.21711088225E+02 -0.19014985269E+03  0.19224704892E+03  0.00000000000E+00 0. -1.
        3    1    3    3  502    0  0.29764524924E+02 -0.24165269204E+02 -0.13101546027E+02  0.40515894263E+02  0.00000000000E+00 0. -1.
       -4    1    3    3    0  502 -0.89003110377E+01 -0.86594039109E+01 -0.11098225817E+03  0.11167480666E+03  0.00000000000E+00 0.  1.
</event>
<event>
 8   1  0.2279600E-02  0.9455540E+02  0.7546771E-02  0.1292518E+00
        2   -1    0    0  501    0  0.00000000000E+00  0.00000000000E+00  0.33626692723E+03  0.33626692723E+03  0.00000000000E+00 0. -1.
       -2   -1    0    0    0  501 -0.00000000000E+00 -0.00000000000E+00 -0.34463104461E+02  0.34463104461E+02  0.00000000000E+00 0.  1.
      -24    2    1    2    0    0  0.42716065004E+02 -0.26851947773E+02  0.60997941808E+02  0.11202518685E+03  0.79266665603E+02 0.  0.
       24    2    1    2    0    0 -0.42716065004E+02  0.26851947773E+02  0.24080588097E+03  0.25870484484E+03  0.79968963538E+02 0.  0.
      -13    1    4    4    0    0 -0.41773078810E+02 -0.11632109588E+02  0.61107913638E+02  0.74929788442E+02  0.00000000000E+00 0.  1.
       14    1    4    4    0    0 -0.94298619396E+00  0.38484057361E+02  0.17969796733E+03  0.18377505640E+03  0.00000000000E+00 0. -1.
        3    1    3    3  502    0 -0.71345728741E+01 -0.14940411628E+02  0.58404229675E+02  0.60705618139E+02  0.00000000000E+00 0. -1.
       -4    1    3    3    0  502  0.49850637878E+02 -0.11911536145E+02  0.25937121321E+01  0.51319568712E+02  0.00000000000E+00 0.  1.
</event>
<event>
 8   1  0.2279600E-02  0.8383435E+02  0.7546771E-02  0.1318716E+00
        2   -1    0    0  501    0  0.00000000000E+00  0.00000000000E+00  0.15586536944E+04  0.15586536944E+04  0.00000000000E+00 0. -1.
       -2   -1    0    0    0  501 -0.00000000000E+00 -0.00000000000E+00 -0.46604346042E+01  0.46604346042E+01  0.00000000000E+00 0.  1.
       24    2    1    2    0    0  0.17437843666E+02 -0.13606549458E+02  0.92675495863E+03  0.93053906515E+03  0.80863971182E+02 0.  0.
      -24    2    1    2    0    0 -0.17437843666E+02  0.13606549458E+02  0.62723830118E+03  0.63277506387E+03  0.80543022127E+02 0.  0.
      -13    1    3    3    0    0  0.39887507288E+02 -0.13333403150E+02  0.25784541137E+03  0.26125284504E+03  0.00000000000E+00 0.  1.
       14    1    3    3    0    0 -0.22449663623E+02 -0.27314630858E+00  0.66890954727E+03  0.66928622011E+03  0.00000000000E+00 0. -1.
        3    1    4    4  502    0 -0.49208346566E+02  0.86592147107E+01  0.32287174043E+03  0.32671486672E+03  0.00000000000E+00 0. -1.
       -4    1    4    4    0  502  0.31770502900E+02  0.49473347477E+01  0.30436656075E+03  0.30606019715E+03  0.00000000000E+00 0.  1.
</event>
<event>
 8   1  0.2279600E-02  0.8943937E+02  0.7546771E-02  0.1304235E+00
        1   -1    0    0  501    0  0.00000000000E+00  0.00000000000E+00  0.79447686185E+02  0.79447686185E+02  0.00000000000E+00 0. -1.
       -1   -1    0    0    0  501 -0.00000000000E+00 -0.00000000000E+00 -0.18634748188E+03  0.18634748188E+03  0.00000000000E+00 0.  1.
       24    2    1    2    0    0 -0.12423397657E+02 -0.39248989115E+02 -0.14356806136E+03  0.16913099728E+03  0.79364236547E+02 0.  0.
      -24    2    1    2    0    0  0.12423397657E+02  0.39248989115E+02  0.36668265671E+02  0.96664170780E+02  0.79401361760E+02 0.  0.
      -13    1    3    3    0    0 -0.26771203325E+02 -0.18266199185E+02 -0.13971105408E+03  0.14342081436E+03  0.00000000000E+00 0.  1.
       14    1    3    3    0    0  0.14347805668E+02 -0.20982789930E+02 -0.38570072845E+01  0.25710182923E+02  0.00000000000E+00 0. -1.
        3    1    4    4  502    0  0.19719684174E+02  0.55631897730E+02  0.37070335942E+01  0.59139801209E+02  0.00000000000E+00 0. -1.
       -4    1    4    4    0  502 -0.72962865168E+01 -0.16382908615E+02  0.32961232077E+02  0.37524369570E+02  0.00000000000E+00 0.  1.
</event>
<event>
 8   1  0.2279600E-02  0.1091169E+03  0.7546771E-02  0.1263462E+00
       -2   -1    0    0    0  501 -0.00000000000E+00  0.00000000000E+00  0.62344208596E+02  0.62344208596E+02  0.00000000000E+00 0.  1.
        2   -1    0    0  501    0  0.00000000000E+00 -0.00000000000E+00 -0.36974420157E+03  0.36974420157E+03  0.00000000000E+00 0. -1.
      -24    2    1    2    0    0 -0.61457110901E+02 -0.33128783149E+02 -0.25187068505E+01  0.10914592773E+03  0.83857002699E+02 0.  0.
       24    2    1    2    0    0  0.61457110901E+02  0.33128783149E+02 -0.30488128613E+03  0.32294248244E+03  0.80403703794E+02 0.  0.
      -13    1    4    4    0    0  0.41941971008E+02 -0.20007151123E+02 -0.98041691297E+02  0.10849695047E+03  0.00000000000E+00 0.  1.
       14    1    4    4    0    0  0.19515139894E+02  0.53135934272E+02 -0.20683959483E+03  0.21444553198E+03  0.00000000000E+00 0. -1.
        1    1    3    3  502    0  0.69381918327E+01 -0.21637541004E+02 -0.27280459094E+02  0.35504156588E+02  0.00000000000E+00 0. -1.
       -2    1    3    3    0  502 -0.68395302734E+02 -0.11491242144E+02  0.24761752244E+02  0.73641771138E+02  0.00000000000E+00 0.  1.
</event>
<event>
 8   1  0.2279600E-02  0.8276210E+02  0.7546771E-02  0.1321808E+00
        2   -1    0    0  501    0  0.00000000000E+00  0.00000000000E+00  0.35003340993E+03  0.35003340993E+03  0.00000000000E+00 0. -1.
       -2   -1    0    0    0  501 -0.00000000000E+00 -0.00000000000E+00 -0.29119885083E+02  0.29119885083E+02  0.00000000000E+00 0.  1.
       24    2    1    2    0    0  0.74006742552E+01  0.13219772434E+02  0.26945220995E+03  0.28169647069E+03  0.80739555294E+02 0.  0.
      -24    2    1    2    0    0 -0.74006742552E+01 -0.13219772434E+02  0.51461314901E+02  0.97456824327E+02  0.81363587150E+02 0.  0.
      -13    1    3    3    0    0 -0.33587568833E+02  0.10656170422E+02  0.73805499216E+02  0.81785881806E+02  0.00000000000E+00 0.  1.
       14    1    3    3    0    0  0.40988243089E+02  0.25636020125E+01  0.19564671073E+03  0.19991058888E+03  0.00000000000E+00 0. -1.
        1    1    4    4  502    0 -0.82156699667E+01 -0.75650950920E+01  0.73676820496E+02  0.74518466001E+02  0.00000000000E+00 0. -1.
       -2    1    4    4    0  502  0.81499571153E+00 -0.56546773421E+01 -0.22215505595E+02  0.22938358326E+02  0.00000000000E+00 0.  1.
</event>
<event>
 8   1  0.2279600E-02  0.1168550E+03  0.7546771E-02  0.1250771E+00
       -1   -1    0    0    0  501 -0.00000000000E+00  0.00000000000E+00  0.14699361591E+04  0.14699361591E+04  0.00000000000E+00 0.  1.
        1   -1    0    0  501    0  0.00000000000E+00 -0.00000000000E+00 -0.10362025545E+02  0.10362025545E+02  0.00000000000E+00 0. -1.
       24    2    1    2    0    0  0.13900422679E+02 -0.88504029226E+02  0.10263794433E+04  0.10330100926E+04  0.75026028021E+02 0.  0.
      -24    2    1    2    0    0 -0.13900422679E+02  0.88504029226E+02  0.43319469023E+03  0.44728809200E+03  0.66202814619E+02 0.  0.
      -13    1    3    3    0    0  0.10665454755E+01 -0.98814957074E+02  0.92990588139E+03  0.93514195794E+03  0.00000000000E+00 0.  1.
       14    1    3    3    0    0  0.12833877204E+02  0.10310927848E+02  0.96473561933E+02  0.97868134698E+02  0.00000000000E+00 0. -1.
        1    1    4    4  502    0 -0.81554935993E+01  0.96284200580E+02  0.33615226317E+03  0.34976492590E+03  0.00000000000E+00 0. -1.
       -2    1    4    4    0  502 -0.57449290799E+01 -0.77801713536E+01  0.97042427061E+02  0.97523166100E+02  0.00000000000E+00 0.  1.
</event>
<event>
 8   1  0.2279600E-02  0.1073981E+03  0.7546771E-02  0.1265666E+00
        2   -1    0    0  501    0  0.00000000000E+00  0.00000000000E+00  0.66490242179E+03  0.66490242179E+03  0.00000000000E+00 0. -1.
       -2   -1    0    0    0  501 -0.00000000000E+00 -0.00000000000E+00 -0.42931654891E+02  0.42931654891E+02  0.00000000000E+00 0.  1.
       24    2    1    2    0    0  0.28053823911E+01  0.70939439310E+02  0.58431230062E+03  0.59402498757E+03  0.80028413586E+02 0.  0.
      -24    2    1    2    0    0 -0.28053823911E+01 -0.70939439310E+02  0.37658466279E+02  0.11380908911E+03  0.80585820477E+02 0.  0.
      -13    1    3    3    0    0 -0.33732915396E+02  0.37230761448E+02  0.18762444817E+03  0.19423432428E+03  0.00000000000E+00 0.  1.
       14    1    3    3    0    0  0.36538297787E+02  0.33708677861E+02  0.39668785245E+03  0.39979066329E+03  0.00000000000E+00 0. -1.
        1    1    4    4  502    0  0.36475353971E+02 -0.45947362461E+02  0.32232001907E+02  0.66936638035E+02  0.00000000000E+00 0. -1.
       -2    1    4    4    0  502 -0.39280736362E+02 -0.24992076848E+02  0.54264643718E+01  0.46872451076E+02  0.00000000000E+00 0.  1.
</event>
<event>
 8   1  0.2279600E-02  0.9023557E+02  0.7546771E-02  0.1302531E+00
       -2   -1    0    0    0  501 -0.00000000000E+00  0.00000000000E+00  0.23540616760E+03  0.23540616760E+03  0.00000000000E+00 0.  1.
        2   -1    0    0  501    0  0.00000000000E+00 -0.00000000000E+00 -0.33210081325E+03  0.33210081325E+03  0.00000000000E+00 0. -1.
      -24    2    1    2    0    0  0.15820509496E+02  0.38022981206E+02  0.22030570759E+03  0.23791377322E+03  0.79826831789E+02 0.  0.
       24    2    1    2    0    0 -0.15820509496E+02 -0.38022981206E+02 -0.31700035323E+03  0.32959320763E+03  0.80289619162E+02 0.  0.
      -13    1    4    4    0    0  0.19589255758E+00  0.25762736011E+01  0.44757717933E+01  0.51679872975E+01  0.00000000000E+00 0.  1.
       14    1    4    4    0    0 -0.16016402053E+02 -0.40599254807E+02 -0.32147612502E+03  0.32442522033E+03  0.00000000000E+00 0. -1.
        3    1    3    3  502    0 -0.31643742324E+02  0.59321204720E+01  0.69640676302E+02  0.76722488733E+02  0.00000000000E+00 0. -1.
       -4    1    3    3    0  502  0.47464251820E+02  0.32090860734E+02  0.15066503128E+03  0.16119128449E+03  0.00000000000E+00 0.  1.
</event>
<event>
 8   1  0.2279600E-02  0.2963674E+03  0.7546771E-02  0.1087141E+00
        2   -1    0    0  501    0  0.00000000000E+00  0.00000000000E+00  0.12290461645E+04  0.12290461645E+04  0.00000000000E+00 0. -1.
       -2   -1    0    0    0  501 -0.00000000000E+00 -0.00000000000E+00 -0.73277063234E+02  0.73277063234E+02  0.00000000000E+00 0.  1.
      -24    2    1    2    0    0  0.27169542012E+03 -0.87090998325E+02  0.47127152001E+03  0.55642069347E+03  0.78127455151E+02 0.  0.
       24    2    1    2    0    0 -0.27169542012E+03  0.87090998325E+02  0.68449758128E+03  0.74590253428E+03  0.80189828389E+02 0.  0.
      -13    1    4    4    0    0 -0.19039926530E+02 -0.68833836088E+01  0.10287209824E+03  0.10484544992E+03  0.00000000000E+00 0.  1.
       14    1    4    4    0    0 -0.25265549359E+03  0.93974381934E+02  0.58162548304E+03  0.64105708437E+03  0.00000000000E+00 0. -1.
        1    1    3    3  502    0  0.12095878464E+03 -0.39968165982E+02  0.28522572197E+03  0.31238148848E+03  0.00000000000E+00 0. -1.
       -2    1    3    3    0  502  0.15073663548E+03 -0.47122832344E+02  0.18604579804E+03  0.24403920499E+03  0.00000000000E+00 0.  1.
</event>
<event>
 8   1  0.2279600E-02  0.9155475E+02  0.7546771E-02  0.1300822E+00
       -2   -1    0    0    0  501 -0.00000000000E+00  0.00000000000E+00  0.65520008180E+01  0.65520008180E+01  0.00000000000E+00 0.  1.
        2   -1    0    0  501    0  0.00000000000E+00 -0.00000000000E+00 -0.24412203699E+04  0.24412203699E+04  0.00000000000E+00 0. -1.
      -24    2    1    2    0    0  0.35786226975E+02 -0.98894473366E+00 -0.34934700831E+03  0.36044215004E+03  0.81200857492E+02 0.  0.
       24    2    1    2    0    0 -0.35786226975E+02  0.98894473366E+00 -0.20853213607E+04  0.20873302206E+04  0.84265297788E+02 0.  0.
      -13    1    4    4    0    0  0.18830431890E+02  0.24984920553E+02 -0.83636982066E+03  0.83695478272E+03  0.00000000000E+00 0.  1.
       14    1    4    4    0    0 -0.54616658865E+02 -0.23995975820E+02 -0.12489515401E+04  0.12503754379E+04  0.00000000000E+00 0. -1.
        1    1    3    3  502    0  0.26464838648E+02  0.39254566577E+02 -0.19467725004E+03  0.20035104283E+03  0.00000000000E+00 0. -1.
       -2    1    3    3    0  502  0.93213883261E+01 -0.40243511310E+02 -0.15466975827E+03  0.16009110721E+03  0.00000000000E+00 0.  1.
</event>
<event>
 8   1  0.2279600E-02  0.8441099E+02  0.7546771E-02  0.1319332E+00
        1   -1    0    0  501    0  0.00000000000E+00  0.00000000000E+00  0.15158583224E+03  0.15158583224E+03  0.00000000000E+00 0. -1.
       -1   -1    0    0    0  501 -0.00000000000E+00 -0.00000000000E+00 -0.63942612717E+02  0.63942612717E+02  0.00000000000E+00 0.  1.
       24    2    1    2    0    0 -0.20001806048E+02  0.18642898845E+02 -0.15343073137E+02  0.82369171986E+02  0.76168501875E+02 0.  0.
      -24    2    1    2    0    0  0.20001806048E+02 -0.18642898845E+02  0.10298629267E+03  0.13315927298E+03  0.79859787001E+02 0.  0.
      -13    1    3    3    0    0 -0.20219432134E+02  0.41111056437E+02  0.11626160361E+02  0.47266394002E+02  0.00000000000E+00 0.  1.
       14    1    3    3    0    0  0.21762608605E+00 -0.22468157592E+02 -0.26969233499E+02  0.35102777984E+02  0.00000000000E+00 0. -1.
        3    1    4    4  502    0  0.19847632802E+02 -0.48508694334E+02  0.50567641752E+02  0.72829309664E+02  0.00000000000E+00 0. -1.
       -4    1    4    4    0  502  0.15417324559E+00  0.29865795489E+02  0.52418650913E+02  0.60329963311E+02  0.00000000000E+00 0.  1.
</event>
<event>
 8   1  0.2279600E-02  0.8395099E+02  0.7546771E-02  0.1320144E+00
       -1   -1    0    0    0  501 -0.00000000000E+00  0.00000000000E+00  0.14973565166E+02  0.14973565166E+02  0.00000000000E+00 0.  1.
        1   -1    0    0  501    0  0.00000000000E+00 -0.00000000000E+00 -0.45681074086E+03  0.45681074086E+03  0.00000000000E+00 0. -1.
       24    2    1    2    0    0 -0.17184161364E+02  0.17216097095E+02 -0.20879844967E+03  0.22504346547E+03  0.80349731588E+02 0.  0.
      -24    2    1    2    0    0  0.17184161364E+02 -0.17216097095E+02 -0.23303872603E+03  0.24674084056E+03  0.77345362945E+02 0.  0.
      -13    1    3    3    0    0  0.23753625841E+02  0.30370201713E+02 -0.72380958989E+02  0.82009676971E+02  0.00000000000E+00 0.  1.
       14    1    3    3    0    0 -0.40937787204E+02 -0.13154104618E+02 -0.13641749068E+03  0.14303378850E+03  0.00000000000E+00 0. -1.
        3    1    4    4  502    0  0.23051188593E+02 -0.30728303282E+02 -0.22793741848E+03  0.23115157940E+03  0.00000000000E+00 0. -1.
       -4    1    4    4    0  502 -0.58670272292E+01  0.13512206187E+02 -0.51013075467E+01  0.15589261151E+02  0.00000000000E+00 0.  1.
</event>
<event>
 8   1  0.2279600E-02  0.1165470E+03  0.7546771E-02  0.1249100E+00
        1   -1    0    0  501    0  0.00000000000E+00  0.00000000000E+00  0.75264273866E+02  0.75264273866E+02  0.00000000000E+00 0. -1.
       -1   -1    0    0    0  501 -0.00000000000E+00 -0.00000000000E+00 -0.51225293829E+03  0.51225293829E+03  0.00000000000E+00 0.  1.
       24    2    1    2    0    0  0.22353447951E+02 -0.81863208072E+02 -0.45530795692E+03  0.46998780445E+03  0.79887040438E+02 0.  0.
      -24    2    1    2    0    0 -0.22353447951E+02  0.81863208072E+02  0.18319292491E+02  0.11752940771E+03  0.79223126216E+02 0.  0.
      -13    1    3    3    0    0  0.32804968371E+01 -0.72089162975E+02 -0.43330230135E+03  0.43927041038E+03  0.00000000000E+00 0.  1.
       14    1    3    3    0    0  0.19072951114E+02 -0.97740450971E+01 -0.22005655566E+02  0.30717394073E+02  0.00000000000E+00 0. -1.
        1    1    4    4  502    0  0.24962016289E+02  0.57816800967E+02  0.11522552434E+02  0.64020730595E+02  0.00000000000E+00 0. -1.
       -2    1    4    4    0  502 -0.47315464240E+02  0.24046407105E+02  0.67967400568E+01  0.53508677112E+02  0.00000000000E+00 0.  1.
</event>
<event>
 8   1  0.2279600E-02  0.1039692E+03  0.7546771E-02  0.1272186E+00
        1   -1    0    0  501    0  0.00000000000E+00  0.00000000000E+00  0.99152766071E+02  0.99152766071E+02  0.00000000000E+00 0. -1.
       -1   -1    0    0    0  501 -0.00000000000E+00 -0.00000000000E+00 -0.10933089102E+03  0.10933089102E+03  0.00000000000E+00 0.  1.
       24    2    1    2    0    0 -0.64843495291E+02  0.22019166243E+01  0.87824066900E+00  0.10397292648E+03  0.81240819892E+02 0.  0.
      -24    2    1    2    0    0  0.64843495291E+02 -0.22019166243E+01 -0.11056365617E+02  0.10451073061E+03  0.81183263502E+02 0.  0.
      -13    1    3    3    0    0 -0.52682557939E+02  0.38359209407E+02 -0.50672432726E+01  0.65364805604E+02  0.00000000000E+00 0.  1.
       14    1    3    3    0    0 -0.12160937352E+02 -0.36157292782E+02  0.59454839416E+01  0.38608120880E+02  0.00000000000E+00 0. -1.
        1    1    4    4  502    0  0.43176833721E+02 -0.38668044346E+02  0.70551235406E+01  0.58388623823E+02  0.00000000000E+00 0. -1.
       -2    1    4    4    0  502  0.21666661570E+02  0.36466127722E+02 -0.18111489157E+02  0.46122106783E+02  0.00000000000E+00 0.  1.
</event>
<event>
 8   1  0.2279600E-02  0.9117631E+02  0.7546771E-02  0.1300867E+00
        1   -1    0    0  501    0  0.00000000000E+00  0.00000000000E+00  0.12764794630E+02  0.12764794630E+02  0.00000000000E+00 0. -1.
       -1   -1    0    0    0  501 -0.00000000000E+00 -0.00000000000E+00 -0.96308671027E+03  0.96308671027E+03  0.00000000000E+00 0.  1.
       24    2    1    2    0    0  0.28025625018E+02  0.30870483755E+02 -0.75474634160E+03  0.76006706308E+03  0.79507721607E+02 0.  0.
      -24    2    1    2    0    0 -0.28025625018E+02 -0.30870483755E+02 -0.19557557404E+03  0.21578444182E+03  0.81084509902E+02 0.  0.
      -13    1    3    3    0    0 -0.28688300791E+01  0.33068182148E+02 -0.64976250996E+03  0.65060975570E+03  0.00000000000E+00 0.  1.
       14    1    3    3    0    0  0.30894455097E+02 -0.21976983923E+01 -0.10498383164E+03  0.10945730738E+03  0.00000000000E+00 0. -1.
        1    1    4    4  502    0 -0.39816015673E+02 -0.52434081371E+02 -0.12926028185E+03  0.14506160229E+03  0.00000000000E+00 0. -1.
       -2    1    4    4    0  502  0.11790390655E+02  0.21563597616E+02 -0.66315292188E+02  0.70722839535E+02  0.00000000000E+00 0.  1.
</event>
<event>
 8   1  0.2279600E-02  0.1064225E+03  0.7546771E-02  0.1268190E+00
       -1   -1    0    0    0  501 -0.00000000000E+00  0.00000000000E+00  0.81856720600E+02  0.81856720600E+02  0.00000000000E+00 0.  1.
        1   -1    0    0  501    0  0.00000000000E+00 -0.00000000000E+00 -0.15898875820E+03  0.15898875820E+03  0.00000000000E+00 0. -1.
       24    2    1    2    0    0 -0.19220949863E+02  0.66188938662E+02 -0.83974097928E+02  0.13420326022E+03  0.78793688936E+02 0.  0.
      -24    2    1    2    0    0  0.19220949863E+02 -0.66188938662E+02  0.68420603254E+01  0.10664221858E+03  0.81088399169E+02 0.  0.
      -13    1    3    3    0    0 -0.23816789392E+02  0.75181192948E+02 -0.92092828761E+02  0.12124578483E+03  0.00000000000E+00 0.  1.
       14    1    3    3    0    0  0.45958395294E+01 -0.89922542858E+01  0.81187308335E+01  0.12957475389E+02  0.00000000000E+00 0. -1.
        1    1    4    4  502    0 -0.37039263556E+01 -0.31664816761E+02 -0.35280513604E+02  0.47550965617E+02  0.00000000000E+00 0. -1.
       -2    1    4    4    0  502  0.22924876218E+02 -0.34524121901E+02  0.42122573929E+02  0.59091252966E+02  0.00000000000E+00 0.  1.
</event>
<event>
 8   1  0.2279600E-02  0.4850539E+03  0.7546771E-02  0.1017771E+00
       -2   -1    0    0    0  501 -0.00000000000E+00  0.00000000000E+00  0.55248908366E+02  0.55248908366E+02  0.00000000000E+00 0.  1.
        2   -1    0    0  501    0  0.00000000000E+00 -0.00000000000E+00 -0.43964243126E+04  0.43964243126E+04  0.00000000000E+00 0. -1.
       24    2    1    2    0    0  0.46555282914E+03  0.11007183310E+03 -0.25672633280E+04  0.26126405119E+04  0.78703265743E+02 0.  0.
      -24    2    1    2    0    0 -0.46555282914E+03 -0.11007183310E+03 -0.17739120763E+04  0.18390327091E+04  0.80137416915E+02 0.  0.
      -13    1    3    3    0    0  0.34341426729E+03  0.72067311357E+02 -0.20487579600E+04  0.20785899632E+04  0.00000000000E+00 0.  1.
       14    1    3    3    0    0  0.12213856186E+03  0.38004521742E+02 -0.51850536796E+03  0.53405054870E+03  0.00000000000E+00 0. -1.
        3    1    4    4  502    0 -0.34276220970E+03 -0.11522523765E+03 -0.13608617831E+04  0.14080864961E+04  0.00000000000E+00 0. -1.
       -4    1    4    4    0  502 -0.12279061944E+03  0.51534045542E+01 -0.41305029314E+03  0.43094621296E+03  0.00000000000E+00 0.  1.
</event>
<event>
 8   1  0.2279600E-02  0.9499762E+02  0.7546771E-02  0.1292076E+00
       -2   -1    0    0    0  501 -0.00000000000E+00  0.00000000000E+00  0.15481044659E+02  0.15481044659E+02  0.00000000000E+00 0.  1.
        2   -1    0    0  501    0  0.00000000000E+00 -0.00000000000E+00 -0.88204615146E+03  0.88204615146E+03  0.00000000000E+00 0. -1.
      -24    2    1    2    0    0 -0.47999701107E+02 -0.12838404758E+02 -0.17014625315E+03  0.19486994677E+03  0.80967603094E+02 0.  0.
       24    2    1    2    0    0  0.47999701107E+02  0.12838404758E+02 -0.69641885365E+03  0.70265724934E+03  0.79115070602E+02 0.  0.
      -13    1    4    4    0    0  0.11306383194E+01 -0.22875362063E+02 -0.38702630450E+03  0.38770339296E+03  0.00000000000E+00 0.  1.
       14    1    4    4    0    0  0.46869062788E+02  0.35713766821E+02 -0.30939254915E+03  0.31495385639E+03  0.00000000000E+00 0. -1.
        1    1    3    3  502    0  0.11521952593E+02 -0.10969402382E+01 -0.10580602023E+03  0.10643717671E+03  0.00000000000E+00 0. -1.
       -2    1    3    3    0  502 -0.59521653700E+02 -0.11741464520E+02 -0.64340232918E+02  0.88432770058E+02  0.00000000000E+00 0.  1.
</event>
<event>
 8   1  0.2279600E-02  0.8656179E+02  0.7546771E-02  0.1311547E+00
       -2   -1    0    0    0  501 -0.00000000000E+00  0.00000000000E+00  0.40403354210E+02  0.40403354210E+02  0.00000000000E+00 0.  1.
        2   -1    0    0  501    0  0.00000000000E+00 -0.00000000000E+00 -0.30465327074E+03  0.30465327074E+03  0.00000000000E+00 0. -1.
      -24    2    1    2    0    0  0.31342656029E+02  0.46493731075E+01 -0.24088857095E+02  0.89851077872E+02  0.80554108532E+02 0.  0.
       24    2    1    2    0    0 -0.31342656029E+02 -0.46493731075E+01 -0.24016105943E+03  0.25520554708E+03  0.80302914227E+02 0.  0.
      -13    1    4    4    0    0  0.12076226798E+02 -0.73639667073E+01 -0.34889000609E+01  0.14568310917E+02  0.00000000000E+00 0.  1.
       14    1    4    4    0    0 -0.43418882828E+02  0.27145935998E+01 -0.23667215937E+03  0.24063723616E+03  0.00000000000E+00 0. -1.
        3    1    3    3  502    0  0.44657883112E+01 -0.57458777163E+00 -0.51154140051E+02  0.51351917790E+02  0.00000000000E+00 0. -1.
       -4    1    3    3    0  502  0.26876867718E+02  0.52239608792E+01  0.27065282955E+02  0.38499160082E+02  0.00000000000E+00 0.  1.
</event>
<event>
 8   1  0.2279600E-02  0.1094853E+03  0.7546771E-02  0.1261776E+00
       -2   -1    0    0    0  501 -0.00000000000E+00  0.00000000000E+00  0.17567578707E+03  0.17567578707E+03  0.00000000000E+00 0.  1.
        2   -1    0    0  501    0  0.00000000000E+00 -0.00000000000E+00 -0.75890219261E+02  0.75890219261E+02  0.00000000000E+00 0. -1.
      -24    2    1    2    0    0 -0.23160650002E+02 -0.71116334879E+02  0.90816064126E+02  0.14224833484E+03  0.79956753719E+02 0.  0.
       24    2    1    2    0    0  0.23160650002E+02  0.71116334879E+02  0.89695036801E+01  0.10931767149E+03  0.79220909544E+02 0.  0.
      -13    1    4    4    0    0  0.21048392932E+02  0.86519247730E+02  0.18688359814E+02  0.90982799832E+02  0.00000000000E+00 0.  1.
       14    1    4    4    0    0  0.21122570697E+01 -0.15402912851E+02 -0.97188561342E+01  0.18334871660E+02  0.00000000000E+00 0. -1.
        3    1    3    3  502    0 -0.68112257362E+01 -0.52765674266E+02  0.55282769174E+01  0.53489915147E+02  0.00000000000E+00 0. -1.
       -4    1    3    3    0  502 -0.16349424266E+02 -0.18350660613E+02  0.85287787209E+02  0.88758419689E+02  0.00000000000E+00 0.  1.
</event>
<event>
 8   1  0.2279600E-02  0.8310972E+02  0.7546771E-02  0.1320770E+00
        1   -1    0    0  501    0  0.00000000000E+00  0.00000000000E+00  0.16010812449E+03  0.16010812449E+03  0.00000000000E+00 0. -1.
       -1   -1    0    0    0  501 -0.00000000000E+00 -0.00000000000E+00 -0.15785217021E+03  0.15785217021E+03  0.00000000000E+00 0.  1.
       24    2    1    2    0    0 -0.97740330545E+01  0.66241343931E+01 -0.13454060747E+03  0.15814044810E+03  0.82266733188E+02 0.  0.
      -24    2    1    2    0    0  0.97740330545E+01 -0.66241343931E+01  0.13679656175E+03  0.15981984660E+03  0.81790422310E+02 0.  0.
      -13    1    3    3    0    0  0.35797216325E+02 -0.21541531589E+01 -0.47705021820E+02  0.59681238085E+02  0.00000000000E+00 0.  1.
       14    1    3    3    0    0 -0.45571249380E+02  0.87782875520E+01 -0.86835585649E+02  0.98459210018E+02  0.00000000000E+00 0. -1.
        1    1    4    4  502    0  0.28098846971E+02 -0.33201756412E+02  0.10849066573E+03  0.11688509906E+03  0.00000000000E+00 0. -1.
       -2    1    4    4    0  502 -0.18324813916E+02  0.26577622019E+02  0.28305896015E+02  0.42934747541E+02  0.00000000000E+00 0.  1.
</event>
<event>
 8   1  0.2279600E-02  0.8305826E+02  0.7546771E-02  0.1321362E+00
       -2   -1    0    0    0  501 -0.00000000000E+00  0.00000000000E+00  0.47083956839E+01  0.47083956839E+01  0.00000000000E+00 0.  1.
        2   -1    0    0  501    0  0.00000000000E+00 -0.00000000000E+00 -0.14458381294E+04  0.14458381294E+04  0.00000000000E+00 0. -1.
      -24    2    1    2    0    0  0.76263889985E+01  0.12024203583E+02 -0.71057036578E+03  0.71540821807E+03  0.81828665335E+02 0.  0.
       24    2    1    2    0    0 -0.76263889985E+01 -0.12024203583E+02 -0.73055936797E+03  0.73513830705E+03  0.80675876725E+02 0.  0.
      -13    1    4    4    0    0 -0.23275214268E+02 -0.41733228609E+02 -0.38595902441E+03  0.38890585814E+03  0.00000000000E+00 0.  1.
       14    1    4    4    0    0  0.15648825270E+02  0.29709025026E+02 -0.34460034356E+03  0.34623244891E+03  0.00000000000E+00 0. -1.
        1    1    3    3  502    0  0.24905491424E+02  0.41765352732E+02 -0.40597151005E+03  0.40887344640E+03  0.00000000000E+00 0. -1.
       -2    1    3    3    0  502 -0.17279102426E+02 -0.29741149149E+02 -0.30459885573E+03  0.30653477167E+03  0.00000000000E+00 0.  1.
</event>
<event>
 8   1  0.2279600E-02  0.8889566E+02  0.7546771E-02  0.1307109E+00
        3   -1    0    0  501    0  0.00000000000E+00  0.00000000000E+00  0.14342719923E+03  0.14342719923E+03  0.00000000000E+00 0. -1.
       -3   -1    0    0    0  501 -0.00000000000E+00 -0.00000000000E+00 -0.66578799874E+02  0.66578799874E+02  0.00000000000E+00 0.  1.
       24    2    1    2    0    0 -0.18259435040E+02  0.32561951748E+02 -0.75625965993E+01  0.89216760699E+02  0.80676823517E+02 0.  0.
      -24    2    1    2    0    0  0.18259435040E+02 -0.32561951748E+02  0.84410995953E+02  0.12078923840E+03  0.77917496149E+02 0.  0.
      -13    1    3    3    0    0 -0.42222879185E+02 -0.60422036932E+01  0.23248969578E+01  0.42716330578E+02  0.00000000000E+00 0.  1.
       14    1    3    3    0    0  0.23963444145E+02  0.38604155441E+02 -0.98874935572E+01  0.46500430121E+02  0.00000000000E+00 0. -1.
        3    1    4    4  502    0  0.14149712514E+02 -0.58113959351E+02  0.65736320911E+02  0.88874689999E+02  0.00000000000E+00 0. -1.
       -4    1    4    4    0  502  0.41097225259E+01  0.25552007603E+02  0.18674675042E+02  0.31914548402E+02  0.00000000000E+00 0.  1.
</event>
<event>
 8   1  0.2279600E-02  0.9367838E+02  0.7546771E-02  0.1294705E+00
        2   -1    0    0  501    0  0.00000000000E+00  0.00000000000E+00  0.36011874646E+04  0.36011874646E+04  0.00000000000E+00 0. -1.
       -2   -1    0    0    0  501 -0.00000000000E+00 -0.00000000000E+00 -0.24681214442E+01  0.24681214442E+01  0.00000000000E+00 0.  1.
       24    2    1    2    0    0 -0.46286060034E+02  0.15355445769E+02  0.15221614011E+04  0.15249856926E+04  0.78916681486E+02 0.  0.
      -24    2    1    2    0    0  0.46286060034E+02 -0.15355445769E+02  0.20765579421E+04  0.20786698934E+04  0.79984061298E+02 0.  0.
      -13    1    3    3    0    0 -0.35578509315E+02 -0.88088358181E+01  0.26244831817E+03  0.26499536906E+03  0.00000000000E+00 0.  1.
       14    1    3    3    0    0 -0.10707550719E+02  0.24164281587E+02  0.12597130830E+04  0.12599903236E+04  0.00000000000E+00 0. -1.
        1    1    4    4  502    0  0.24246408515E+00 -0.38796400718E+02  0.11678829710E+04  0.11685272155E+04  0.00000000000E+00 0. -1.
       -2    1    4    4    0  502  0.46043595949E+02  0.23440954949E+02  0.90867497107E+03  0.91014267790E+03  0.00000000000E+00 0.  1.
</event>
<event>
 8   1  0.2279600E-02  0.1138540E+03  0.7546771E-02  0.1254789E+00
        2   -1    0    0  501    0  0.00000000000E+00  0.00000000000E+00  0.36147816479E+04  0.36147816479E+04  0.00000000000E+00 0. -1.
       -2   -1    0    0    0  501 -0.00000000000E+00 -0.00000000000E+00 -0.46567992175E+01  0.46567992175E+01  0.00000000000E+00 0.  1.
      -24    2    1    2    0    0  0.40856512131E+02  0.64956049972E+02  0.88805348390E+03  0.89498708123E+03  0.80463297841E+02 0.  0.
       24    2    1    2    0    0 -0.40856512131E+02 -0.64956049972E+02  0.27220713648E+04  0.27244513659E+04  0.84108186745E+02 0.  0.
      -13    1    4    4    0    0 -0.19748724085E+02 -0.52588257432E+02  0.70590236423E+03  0.70813394548E+03  0.00000000000E+00 0.  1.
       14    1    4    4    0    0 -0.21107788045E+02 -0.12367792540E+02  0.20161690005E+04  0.20163174204E+04  0.00000000000E+00 0. -1.
        1    1    3    3  502    0  0.16955307303E+02  0.15075907034E+02  0.65751447063E+03  0.65790580215E+03  0.00000000000E+00 0. -1.
       -2    1    3    3    0  502  0.23901204828E+02  0.49880142938E+02  0.23053901327E+03  0.23708127908E+03  0.00000000000E+00 0.  1.
</event>
<event>
 8   1  0.2279600E-02  0.1066472E+03  0.7546771E-02  0.1266940E+00
       -2   -1    0    0    0  501 -0.00000000000E+00  0.00000000000E+00  0.47035330600E+01  0.47035330600E+01  0.00000000000E+00 0.  1.
        2   -1    0    0  501    0  0.00000000000E+00 -0.00000000000E+00 -0.25826773101E+04  0.25826773101E+04  0.00000000000E+00 0. -1.
       24    2    1    2    0    0  0.22824264352E+02  0.66475710879E+02 -0.16174076715E+04  0.16209198625E+04  0.80210083865E+02 0.  0.
      -24    2    1    2    0    0 -0.22824264352E+02 -0.66475710879E+02 -0.96056610557E+03  0.96646098072E+03  0.80122511804E+02 0.  0.
      -13    1    3    3    0    0  0.51798376375E+02  0.40308378301E+02 -0.85640460606E+03  0.85891599499E+03  0.00000000000E+00 0.  1.
       14    1    3    3    0    0 -0.28974112022E+02  0.26167332578E+02 -0.76100306545E+03  0.76200386750E+03  0.00000000000E+00 0. -1.
        3    1    4    4  502    0 -0.24408669016E+02 -0.40122043490E+02 -0.88800650566E+03  0.88924749963E+03  0.00000000000E+00 0. -1.
       -4    1    4    4    0  502  0.15844046634E+01 -0.26353667389E+02 -0.72559599909E+02  0.77213481090E+02  0.00000000000E+00 0.  1.
</event>
<event>
 8   1  0.2279600E-02  0.8935937E+02  0.7546771E-02  0.1305644E+00
        1   -1    0    0  501    0  0.00000000000E+00  0.00000000000E+00  0.54957799238E+03  0.54957799238E+03  0.00000000000E+00 0. -1.
       -1   -1    0    0    0  501 -0.00000000000E+00 -0.00000000000E+00 -0.32062907232E+02  0.32062907232E+02  0.00000000000E+00 0.  1.
       24    2    1    2    0    0  0.23677955408E+02 -0.24664893666E+02  0.43030520045E+02  0.99180252717E+02  0.82559640998E+02 0.  0.
      -24    2    1    2    0    0 -0.23677955408E+02  0.24664893666E+02  0.47448456511E+03  0.48246064690E+03  0.80396957220E+02 0.  0.
      -13    1    3    3    0    0  0.21340979346E+02 -0.34612350494E+02 -0.12638265408E+02  0.42581427391E+02  0.00000000000E+00 0.  1.
       14    1    3    3    0    0  0.23369760621E+01  0.99474568280E+01  0.55668785453E+02  0.56598825325E+02  0.00000000000E+00 0. -1.
        3    1    4    4  502    0 -0.50511995475E+02  0.44595519632E+01  0.34421535131E+03  0.34793039155E+03  0.00000000000E+00 0. -1.
       -4    1    4    4    0  502  0.26834040067E+02  0.20205341703E+02  0.13026921380E+03  0.13453025535E+03  0.00000000000E+00 0.  1.
</event>
<event>
 8   1  0.2279600E-02  0.1276383E+03  0.7546771E-02  0.1231162E+00
        3   -1    0    0  501    0  0.00000000000E+00  0.00000000000E+00  0.96692314570E+02  0.96692314570E+02  0.00000000000E+00 0. -1.
       -3   -1    0    0    0  501 -0.00000000000E+00 -0.00000000000E+00 -0.25909359983E+03  0.25909359983E+03  0.00000000000E+00 0.  1.
       24    2    1    2    0    0 -0.96825378310E+02 -0.21548700062E+02 -0.18680415640E+03  0.22624614942E+03  0.80324510090E+02 0.  0.
      -24    2    1    2    0    0  0.96825378310E+02  0.21548700062E+02  0.24402871134E+02  0.12953976498E+03  0.79658962037E+02 0.  0.
      -13    1    3    3    0    0 -0.28002366234E+02 -0.34056765204E+02 -0.12624675734E+03  0.13372449106E+03  0.00000000000E+00 0.  1.
       14    1    3    3    0    0 -0.68823012076E+02  0.12508065142E+02 -0.60557399057E+02  0.92521658358E+02  0.00000000000E+00 0. -1.
        1    1    4    4  502    0  0.10007410585E+03  0.36596995735E+02  0.77142660189E+01  0.10683481015E+03  0.00000000000E+00 0. -1.
       -2    1    4    4    0  502 -0.32487275437E+01 -0.15048295674E+02  0.16688605115E+02  0.22704954834E+02  0.00000000000E+00 0.  1.
</event>
<event>
 8   1  0.2279600E-02  0.8423672E+02  0.7546771E-02  0.1318454E+00
        4   -1    0    0  501    0  0.00000000000E+00  0.00000000000E+00  0.38598048364E+02  0.38598048364E+02  0.00000000000E+00 0. -1.
       -4   -1    0    0    0  501 -0.00000000000E+00 -0.00000000000E+00 -0.26565416121E+03  0.26565416121E+03  0.00000000000E+00 0.  1.
       24    2    1    2    0    0 -0.24018301335E+02  0.18473612992E+02 -0.26723585048E+02  0.86929992899E+02  0.76970906786E+02 0.  0.
      -24    2    1    2    0    0  0.24018301335E+02 -0.18473612992E+02 -0.20033252780E+03  0.21732221667E+03  0.78598161497E+02 0.  0.
      -13    1    3    3    0    0  0.25739230238E+02  0.12625648206E+02 -0.22885378192E+02  0.36683177355E+02  0.00000000000E+00 0.  1.
       14    1    3    3    0    0 -0.49757531573E+02  0.58479647860E+01 -0.38382068568E+01  0.50246815544E+02  0.00000000000E+00 0. -1.
        3    1    4    4  502    0  0.27214624162E+02 -0.47649143100E+02 -0.13235424548E+03  0.14327848025E+03  0.00000000000E+00 0. -1.
       -4    1    4    4    0  502 -0.31963228270E+01  0.29175530109E+02 -0.67978282315E+02  0.74043736422E+02  0.00000000000E+00 0.  1.
</event>
<event>
 8   1  0.2279600E-02  0.8733642E+02  0.7546771E-02  0.1312134E+00
        2   -1    0    0  501    0  0.00000000000E+00  0.00000000000E+00  0.46890158373E+04  0.46890158373E+04  0.00000000000E+00 0. -1.
       -2   -1    0    0    0  501 -0.00000000000E+00 -0.00000000000E+00 -0.33346580695E+01  0.33346580695E+01  0.00000000000E+00 0.  1.
      -24    2    1    2    0    0 -0.14617732001E+02  0.19354689252E+02  0.65331367640E+03  0.65912548826E+03  0.83900938140E+02 0.  0.
       24    2    1    2    0    0  0.14617732001E+02 -0.19354689252E+02  0.40323675029E+04  0.40332250071E+04  0.79548714552E+02 0.  0.
      -13    1    4    4    0    0 -0.51352287264E+01  0.13770418915E+02  0.16198396416E+03  0.16264931496E+03  0.00000000000E+00 0.  1.
       14    1    4    4    0    0  0.19752960728E+02 -0.33125108167E+02  0.38703835387E+04  0.38705756922E+04  0.00000000000E+00 0. -1.
        1    1    3    3  502    0 -0.32747915757E+02  0.13107574846E+02  0.61745147151E+03  0.61845820730E+03  0.00000000000E+00 0. -1.
       -2    1    3    3    0  502  0.18130183756E+02  0.62471144061E+01  0.35862204891E+02  0.40667280965E+02  0.00000000000E+00 0.  1.
</event>
<event>
 8   1  0.2279600E-02  0.1249777E+03  0.7546771E-02  0.1236130E+00
       -1   -1    0    0    0  501 -0.00000000000E+00  0.00000000000E+00  0.84293114724E+02  0.84293114724E+02  0.00000000000E+00 0.  1.
        1   -1    0    0  501    0  0.00000000000E+00 -0.00000000000E+00 -0.55444982292E+03  0.55444982292E+03  0.00000000000E+00 0. -1.
       24    2    1    2    0    0  0.49220728179E+02  0.74898856268E+02  0.27668233248E+02  0.12547002191E+03  0.83334725739E+02 0.  0.
      -24    2    1    2    0    0 -0.49220728179E+02 -0.74898856268E+02 -0.49782494145E+03  0.51327291574E+03  0.87102783830E+02 0.  0.
      -13    1    3    3    0    0  0.15132296269E+02  0.75613079944E+02  0.42769997107E+02  0.88179345095E+02  0.00000000000E+00 0.  1.
       14    1    3    3    0    0  0.34088431910E+02 -0.71422367519E+00 -0.15101763859E+02  0.37290676814E+02  0.00000000000E+00 0. -1.
        1    1    4    4  502    0 -0.60144447173E+01 -0.76555474028E+02 -0.38196753992E+03  0.38961020995E+03  0.00000000000E+00 0. -1.
       -2    1    4    4    0  502 -0.43206283462E+02  0.16566177596E+01 -0.11585740153E+03  0.12366270578E+03  0.00000000000E+00 0.  1.
</event>
<event>
 8   1  0.2279600E-02  0.8195075E+02  0.7546771E-02  0.1324961E+00
       -1   -1    0    0    0  501 -0.00000000000E+00  0.00000000000E+00  0.69582719470E+01  0.69582719470E+01  0.00000000000E+00 0.  1.
        1   -1    0    0  501    0  0.00000000000E+00 -0.00000000000E+00 -0.10144622769E+04  0.10144622769E+04  0.00000000000E+00 0. -1.
       24    2    1    2    0    0 -0.93276574120E+01 -0.46922805671E+01 -0.36197290246E+03  0.37070837761E+03  0.79317693009E+02 0.  0.
      -24    2    1    2    0    0  0.93276574120E+01  0.46922805671E+01 -0.64553110245E+03  0.65071217119E+03  0.81282856875E+02 0.  0.
      -13    1    3    3    0    0 -0.26649817108E+02  0.29786446847E+02 -0.21916344664E+03  0.22277805437E+03  0.00000000000E+00 0.  1.
       14    1    3    3    0    0  0.17322159696E+02 -0.34478727414E+02 -0.14280945582E+03  0.14793032323E+03  0.00000000000E+00 0. -1.
        1    1    4    4  502    0  0.13719234914E+02  0.37412068071E+02 -0.49510838279E+03  0.49670936265E+03  0.00000000000E+00 0. -1.
       -2    1    4    4    0  502 -0.43915775018E+01 -0.32719787504E+02 -0.15042271966E+03  0.15400280854E+03  0.00000000000E+00 0.  1.
</event>
<event>
 8   1  0.2279600E-02  0.9556523E+02  0.7546771E-02  0.1290242E+00
       -2   -1    0    0    0  501 -0.00000000000E+00  0.00000000000E+00  0.56321320241E+03  0.56321320241E+03  0.00000000000E+00 0.  1.
        2   -1    0    0  501    0  0.00000000000E+00 -0.00000000000E+00 -0.16118519428E+02  0.16118519428E+02  0.00000000000E+00 0. -1.
       24    2    1    2    0    0 -0.19423715275E+02  0.44361213719E+02  0.26977342469E+03  0.28619995451E+03  0.82386378104E+02 0.  0.
      -24    2    1    2    0    0  0.19423715275E+02 -0.44361213719E+02  0.27732125829E+03  0.29313176733E+03  0.81694275906E+02 0.  0.
      -13    1    3    3    0    0 -0.26499840867E+02 -0.55761671416E+01  0.26991538878E+02  0.38234518135E+02  0.00000000000E+00 0.  1.
       14    1    3    3    0    0  0.70761255917E+01  0.49937380860E+02  0.24278188581E+03  0.24796543638E+03  0.00000000000E+00 0. -1.
        3    1    4    4  502    0  0.31431439450E+02 -0.30501700095E+02  0.56198726440E+02  0.71250164547E+02  0.00000000000E+00 0. -1.
       -4    1    4    4    0  502 -0.12007724175E+02 -0.13859513624E+02  0.22112253185E+03  0.22188160278E+03  0.00000000000E+00 0.  1.
</event>
<event>
 8   1  0.2279600E-02  0.9060301E+02  0.7546771E-02  0.1301555E+00
        2   -1    0    0  501    0  0.00000000000E+00  0.00000000000E+00  0.59492963856E+03  0.59492963856E+03  0.00000000000E+00 0. -1.
       -2   -1    0    0    0  501 -0.00000000000E+00 -0.00000000000E+00 -0.14306063518E+02  0.14306063518E+02  0.00000000000E+00 0.  1.
      -24    2    1    2    0    0 -0.16948804505E+01  0.41865699388E+02  0.23110607855E+03  0.24823159643E+03  0.80332412647E+02 0.  0.
       24    2    1    2    0    0  0.16948804505E+01 -0.41865699388E+02  0.34951749649E+03  0.36100410564E+03  0.80036707393E+02 0.  0.
      -13    1    4    4    0    0  0.39539447027E+02 -0.20273936969E+02  0.21716475306E+03  0.22166400331E+03  0.00000000000E+00 0.  1.
       14    1    4    4    0    0 -0.37844566577E+02 -0.21591762419E+02  0.13235274344E+03  0.13934010234E+03  0.00000000000E+00 0. -1.
        3    1    3    3  502    0  0.28128966367E+01  0.14214253767E+02  0.21584007644E+03  0.21632590228E+03  0.00000000000E+00 0. -1.
       -4    1    3    3    0  502 -0.45077770872E+01  0.27651445621E+02  0.15266002101E+02  0.31905694153E+02  0.00000000000E+00 0.  1.
</event>
<event>
 8   1  0.2279600E-02  0.8273928E+02  0.7546771E-02  0.1322189E+00
        1   -1    0    0  501    0  0.00000000000E+00  0.00000000000E+00  0.21713550048E+04  0.21713550048E+04  0.00000000000E+00 0. -1.
       -1   -1    0    0    0  501 -0.00000000000E+00 -0.00000000000E+00 -0.33974351522E+01  0.33974351522E+01  0.00000000000E+00 0.  1.
       24    2    1    2    0    0  0.10837686008E+02  0.64091842375E+00  0.14057566233E+04  0.14081894306E+04  0.82023913627E+02 0.  0.
      -24    2    1    2    0    0 -0.10837686008E+02 -0.64091842375E+00  0.76220094631E+03  0.76656300928E+03  0.80936384981E+02 0.  0.
      -13    1    3    3    0    0 -0.31597400540E+02  0.55497463115E+01  0.91966254583E+03  0.92022192629E+03  0.00000000000E+00 0.  1.
       14    1    3    3    0    0  0.42435086549E+02 -0.49088278877E+01  0.48609407745E+03  0.48796750435E+03  0.00000000000E+00 0. -1.
        1    1    4    4  502    0 -0.17921806242E+02  0.46252245589E-01  0.75817323382E+03  0.75838502475E+03  0.00000000000E+00 0. -1.
       -2    1    4    4    0  502  0.70841202335E+01 -0.68717066934E+00  0.40277124913E+01  0.81779845270E+01  0.00000000000E+00 0.  1.
</event>
<event>
 8   1  0.2279600E-02  0.1033753E+03  0.7546771E-02  0.1273539E+00
        2   -1    0    0  501    0  0.00000000000E+00  0.00000000000E+00  0.30859105960E+03  0.30859105960E+03  0.00000000000E+00 0. -1.
       -2   -1    0    0    0  501 -0.00000000000E+00 -0.00000000000E+00 -0.34691613894E+02  0.34691613894E+02  0.00000000000E+00 0.  1.
      -24    2    1    2    0    0 -0.40847333953E+02 -0.50175077755E+02  0.12466543440E+03  0.16195038867E+03  0.80625149541E+02 0.  0.
       24    2    1    2    0    0  0.40847333953E+02  0.50175077755E+02  0.14923401131E+03  0.18133228483E+03  0.80153379650E+02 0.  0.
      -13    1    4    4    0    0  0.36896034595E+02  0.48474777075E+02  0.15921083553E+03  0.17046762605E+03  0.00000000000E+00 0.  1.
       14    1    4    4    0    0  0.39512993584E+01  0.17003006800E+01 -0.99768242131E+01  0.10864658780E+02  0.00000000000E+00 0. -1.
        1    1    3    3  502    0 -0.54840186047E+02 -0.12771721806E+02  0.10070749549E+03  0.11538007857E+03  0.00000000000E+00 0. -1.
       -2    1    3    3    0  502  0.13992852094E+02 -0.37403355949E+02  0.23957938906E+02  0.46570310098E+02  0.00000000000E+00 0.  1.
</event>
<event>
 8   1  0.2279600E-02  0.9446050E+02  0.7546771E-02  0.1293314E+00
       -1   -1    0    0    0  501 -0.00000000000E+00  0.00000000000E+00  0.22401076967E+03  0.22401076967E+03  0.00000000000E+00 0.  1.
        1   -1    0    0  501    0  0.00000000000E+00 -0.00000000000E+00 -0.39222050927E+02  0.39222050927E+02  0.00000000000E+00 0. -1.
       24    2    1    2    0    0 -0.32311110131E+02 -0.26957419795E+02  0.87907209311E+02  0.12903667580E+03  0.84569946981E+02 0.  0.
      -24    2    1    2    0    0  0.32311110131E+02  0.26957419795E+02  0.96881509433E+02  0.13419614480E+03  0.82776011556E+02 0.  0.
      -13    1    3    3    0    0 -0.54827938821E+02 -0.39126660101E+02  0.73376352596E+02  0.99604656148E+02  0.00000000000E+00 0.  1.
       14    1    3    3    0    0  0.22516828690E+02  0.12169240306E+02  0.14530856714E+02  0.29432019651E+02  0.00000000000E+00 0. -1.
        1    1    4    4  502    0  0.59844596369E+02  0.26049647079E+02  0.66286888276E+02  0.93026401547E+02  0.00000000000E+00 0. -1.
       -2    1    4    4    0  502 -0.27533486238E+02  0.90777271566E+00  0.30594621157E+02  0.41169743252E+02  0.00000000000E+00 0.  1.
</event>
<event>
 8   1  0.2279600E-02  0.1010559E+03  0.7546771E-02  0.1283610E+00
        2   -1    0    0  501    0  0.00000000000E+00  0.00000000000E+00  0.68848586530E+02  0.68848586530E+02  0.00000000000E+00 0. -1.
       -2   -1    0    0    0  501 -0.00000000000E+00 -0.00000000000E+00 -0.13421816325E+03  0.13421816325E+03  0.00000000000E+00 0.  1.
      -24    2    1    2    0    0  0.39895051844E+02  0.27884299995E+02 -0.35684005356E+02  0.97740927348E+02  0.76881670720E+02 0.  0.
       24    2    1    2    0    0 -0.39895051844E+02 -0.27884299995E+02 -0.29685571367E+02  0.10532582244E+03  0.88561540053E+02 0.  0.
      -13    1    4    4    0    0 -0.95376202145E+01  0.28565121462E+02  0.77540522328E+01  0.31097551182E+02  0.00000000000E+00 0.  1.
       14    1    4    4    0    0 -0.30357431629E+02 -0.56449421458E+02 -0.37439623600E+02  0.74228271254E+02  0.00000000000E+00 0. -1.
        1    1    3    3  502    0  0.24234089227E+02 -0.69254056836E+01  0.18639635800E+02  0.31347860330E+02  0.00000000000E+00 0. -1.
       -2    1    3    3    0  502  0.15660962617E+02  0.34809705679E+02 -0.54323641156E+02  0.66393067018E+02  0.00000000000E+00 0.  1.
</event>
<event>
 8   1  0.2279600E-02  0.1000404E+03  0.7546771E-02  0.1280494E+00
       -2   -1    0    0    0  501 -0.00000000000E+00  0.00000000000E+00  0.64154086142E+01  0.64154086142E+01  0.00000000000E+00 0.  1.
        2   -1    0    0  501    0  0.00000000000E+00 -0.00000000000E+00 -0.16185859654E+04  0.16185859654E+04  0.00000000000E+00 0. -1.
      -24    2    1    2    0    0  0.58906050136E+02 -0.48432851524E+01 -0.96924073043E+03  0.97433491094E+03  0.80047142407E+02 0.  0.
       24    2    1    2    0    0 -0.58906050136E+02  0.48432851524E+01 -0.64292982640E+03  0.65066646312E+03  0.80713718738E+02 0.  0.
      -13    1    4    4    0    0 -0.22631002393E+02  0.21171295332E+02 -0.72428639749E+02  0.78780034725E+02  0.00000000000E+00 0.  1.
       14    1    4    4    0    0 -0.36275047742E+02 -0.16328010180E+02 -0.57050118665E+03  0.57188642839E+03  0.00000000000E+00 0. -1.
        1    1    3    3  502    0  0.70280163901E+02  0.19092886195E+02 -0.68430796742E+03  0.68817238685E+03  0.00000000000E+00 0. -1.
       -2    1    3    3    0  502 -0.11374113766E+02 -0.23936171347E+02 -0.28493276300E+03  0.28616252409E+03  0.00000000000E+00 0.  1.
</event>
<event>
 8   1  0.2279600E-02  0.8520923E+02  0.7546771E-02  0.1316455E+00
        1   -1    0    0  501    0  0.00000000000E+00  0.00000000000E+00  0.26178512701E+03  0.26178512701E+03  0.00000000000E+00 0. -1.
       -1   -1    0    0    0  501 -0.00000000000E+00 -0.00000000000E+00 -0.95558145511E+02  0.95558145511E+02  0.00000000000E+00 0.  1.
       24    2    1    2    0    0  0.17254078619E+02  0.11181934045E+02 -0.68587175804E+02  0.10754675294E+03  0.80245651000E+02 0.  0.
      -24    2    1    2    0    0 -0.17254078619E+02 -0.11181934045E+02  0.23481415730E+03  0.24979651958E+03  0.82691437576E+02 0.  0.
      -13    1    3    3    0    0  0.28488926325E+02  0.18873195051E+02 -0.81752378227E+02  0.88607379830E+02  0.00000000000E+00 0.  1.
       14    1    3    3    0    0 -0.11234847705E+02 -0.76912610055E+01  0.13165202423E+02  0.18939373106E+02  0.00000000000E+00 0. -1.
        3    1    4    4  502    0 -0.26547045755E+02  0.31270912785E+02  0.97752676726E+02  0.10601038360E+03  0.00000000000E+00 0. -1.
       -4    1    4    4    0  502  0.92929671354E+01 -0.42452846831E+02  0.13706148057E+03  0.14378613598E+03  0.00000000000E+00 0.  1.
</event>
<event>
 8   1  0.2279600E-02  0.1169878E+03  0.7546771E-02  0.1248387E+00
       -3   -1    0    0    0  501 -0.00000000000E+00  0.00000000000E+00  0.36663809549E+02  0.36663809549E+02  0.00000000000E+00 0.  1.
        3   -1    0    0  501    0  0.00000000000E+00 -0.00000000000E+00 -0.50643768423E+03  0.50643768423E+03  0.00000000000E+00 0. -1.
       24    2    1    2    0    0 -0.82335221187E+02 -0.11878357406E+01 -0.95139882750E+02  0.15079037760E+03  0.83100187032E+02 0.  0.
      -24    2    1    2    0    0  0.82335221187E+02  0.11878357406E+01 -0.37463399193E+03  0.39231111618E+03  0.82321834092E+02 0.  0.
      -13    1    3    3    0    0 -0.58716628761E+02  0.13482208331E+02 -0.98012855005E+01  0.61036690867E+02  0.00000000000E+00 0.  1.
       14    1    3    3    0    0 -0.23618592426E+02 -0.14670044072E+02 -0.85338597249E+02  0.89753686731E+02  0.00000000000E+00 0. -1.
        1    1    4    4  502    0  0.73020572980E+02  0.32657813729E+02 -0.30524621949E+03  0.31555315145E+03  0.00000000000E+00 0. -1.
       -2    1    4    4    0  502  0.93146482067E+01 -0.31469977988E+02 -0.69387772442E+02  0.76757964735E+02  0.00000000000E+00 0.  1.
</event>
<event>
 8   1  0.2279600E-02  0.8094494E+02  0.7546771E-02  0.1327153E+00
       -3   -1    0    0    0  501 -0.00000000000E+00  0.00000000000E+00  0.82761200352E+02  0.82761200352E+02  0.00000000000E+00 0.  1.
        3   -1    0    0  501    0  0.00000000000E+00 -0.00000000000E+00 -0.80400863831E+02  0.80400863831E+02  0.00000000000E+00 0. -1.
       24    2    1    2    0    0  0.10918986351E+02  0.78528304373E+01  0.14936144406E+02  0.81246048998E+02  0.78720650780E+02 0.  0.
      -24    2    1    2    0    0 -0.10918986351E+02 -0.78528304373E+01 -0.12575807884E+02  0.81916015186E+02  0.79819743116E+02 0.  0.
      -13    1    3    3    0    0  0.20482800105E+02 -0.20162199362E+02  0.35146849194E+02  0.45402206901E+02  0.00000000000E+00 0.  1.
       14    1    3    3    0    0 -0.95638137543E+01  0.28015029800E+02 -0.20210704788E+02  0.35843842096E+02  0.00000000000E+00 0. -1.
        1    1    4    4  502    0 -0.38705571149E+02 -0.26984697173E+02 -0.63238486709E+01  0.47605526796E+02  0.00000000000E+00 0. -1.
       -2    1    4    4    0  502  0.27786584799E+02  0.19131866735E+02 -0.62519592132E+01  0.34310488390E+02  0.00000000000E+00 0.  1.
</event>
<event>
 8   1  0.2279600E-02  0.8520056E+02  0.7546771E-02  0.1315050E+00
       -2   -1    0    0    0  501 -0.00000000000E+00  0.00000000000E+00  0.10734025527E+02  0.10734025527E+02  0.00000000000E+00 0.  1.
        2   -1    0    0  501    0  0.00000000000E+00 -0.00000000000E+00 -0.16358804316E+04  0.16358804316E+04  0.00000000000E+00 0. -1.
      -24    2    1    2    0    0 -0.27778093601E+02 -0.12797809332E+02 -0.18186624436E+03  0.20083442659E+03  0.79521881650E+02 0.  0.
       24    2    1    2    0    0  0.27778093601E+02  0.12797809332E+02 -0.14432801617E+04  0.14457800306E+04  0.79289753908E+02 0.  0.
      -13    1    4    4    0    0 -0.26286423776E+02 -0.73369723465E+01 -0.46082215220E+03  0.46162957357E+03  0.00000000000E+00 0.  1.
       14    1    4    4    0    0  0.54064517377E+02  0.20134781679E+02 -0.98245800954E+03  0.98415045698E+03  0.00000000000E+00 0. -1.
        3    1    3    3  502    0 -0.21459282293E+02  0.22153856278E+02 -0.14993032701E+03  0.15306990920E+03  0.00000000000E+00 0. -1.
       -4    1    3    3    0  502 -0.63188113087E+01 -0.34951665611E+02 -0.31935917346E+02  0.47764517396E+02  0.00000000000E+00 0.  1.
</event>
<event>
 8   1  0.2279600E-02  0.1019449E+03  0.7546771E-02  0.1276966E+00
       -1   -1    0    0    0  501 -0.00000000000E+00  0.00000000000E+00  0.43774287149E+02  0.43774287149E+02  0.00000000000E+00 0.  1.
        1   -1    0    0  501    0  0.00000000000E+00 -0.00000000000E+00 -0.22840939158E+04  0.22840939158E+04  0.00000000000E+00 0. -1.
       24    2    1    2    0    0  0.40373254017E+02  0.45991367457E+02 -0.16746774488E+02  0.10195962375E+03  0.79812936919E+02 0.  0.
      -24    2    1    2    0    0 -0.40373254017E+02 -0.45991367457E+02 -0.22235728542E+04  0.22259085792E+04  0.81532568036E+02 0.  0.
      -13    1    3    3    0    0  0.55251447484E+02  0.51163550330E+02  0.45859228002E+01  0.75441779004E+02  0.00000000000E+00 0.  1.
       14    1    3    3    0    0 -0.14878193467E+02 -0.51721828732E+01 -0.21332697288E+02  0.26517844748E+02  0.00000000000E+00 0. -1.
        3    1    4    4  502    0 -0.14503044196E+02 -0.64114493719E+02 -0.17795436031E+04  0.17807572664E+04  0.00000000000E+00 0. -1.
       -4    1    4    4    0  502 -0.25870209821E+02  0.18123126263E+02 -0.44402925109E+03  0.44515131280E+03  0.00000000000E+00 0.  1.
</event>
<event>
 8   1  0.2279600E-02  0.1055891E+03  0.7546771E-02  0.1269313E+00
        2   -1    0    0  501    0  0.00000000000E+00  0.00000000000E+00  0.69882088346E+03  0.69882088346E+03  0.00000000000E+00 0. -1.
       -2   -1    0    0    0  501 -0.00000000000E+00 -0.00000000000E+00 -0.15929799279E+02  0.15929799279E+02  0.00000000000E+00 0.  1.
       24    2    1    2    0    0 -0.44383266336E+02 -0.52214965537E+02  0.36839946510E+03  0.38323258550E+03  0.80329146304E+02 0.  0.
      -24    2    1    2    0    0  0.44383266336E+02  0.52214965537E+02  0.31449161909E+03  0.33151809724E+03  0.79391393540E+02 0.  0.
      -13    1    3    3    0    0 -0.13899670733E+02 -0.25468244167E+02  0.27653346016E+02  0.40081664802E+02  0.00000000000E+00 0.  1.
       14    1    3    3    0    0 -0.30483595603E+02 -0.26746721370E+02  0.34074611908E+03  0.34315092069E+03  0.00000000000E+00 0. -1.
        1    1    4    4  502    0  0.49311436264E+02  0.70426032502E+02  0.26124530659E+03  0.27502827857E+03  0.00000000000E+00 0. -1.
       -2    1    4    4    0  502 -0.49281699287E+01 -0.18211066965E+02  0.53246312498E+02  0.56489818671E+02  0.00000000000E+00 0.  1.
</event>
<event>
 8   1  0.2279600E-02  0.8182561E+02  0.7546771E-02  0.1324435E+00
        1   -1    0    0  501    0  0.00000000000E+00  0.00000000000E+00  0.22565614337E+03  0.22565614337E+03  0.00000000000E+00 0. -1.
       -1   -1    0    0    0  501 -0.00000000000E+00 -0.00000000000E+00 -0.43829679069E+02  0.43829679069E+02  0.00000000000E+00 0.  1.
       24    2    1    2    0    0 -0.54372124635E+01 -0.22682865934E+00  0.13909284410E+02  0.82999385779E+02  0.81644443266E+02 0.  0.
      -24    2    1    2    0    0  0.54372124635E+01  0.22682865934E+00  0.16791717989E+03  0.18648643666E+03  0.80940700673E+02 0.  0.
      -13    1    3    3    0    0 -0.37067181403E+02  0.34901937407E+01 -0.14854625827E+02  0.40085125645E+02  0.00000000000E+00 0.  1.
       14    1    3    3    0    0  0.31629968940E+02 -0.37170224000E+01  0.28763910238E+02  0.42914260134E+02  0.00000000000E+00 0. -1.
        3    1    4    4  502    0  0.30578398436E+02 -0.29277974058E+02  0.89968469247E+02  0.99431200709E+02  0.00000000000E+00 0. -1.
       -4    1    4    4    0  502 -0.25141185973E+02  0.29504802718E+02  0.77948710647E+02  0.87055235954E+02  0.00000000000E+00 0.  1.
</event>
<event>
 8   1  0.2279600E-02  0.1125049E+03  0.7546771E-02  0.1257105E+00
       -2   -1    0    0    0  501 -0.00000000000E+00  0.00000000000E+00  0.15762625888E+03  0.15762625888E+03  0.00000000000E+00 0.  1.
        2   -1    0    0  501    0  0.00000000000E+00 -0.00000000000E+00 -0.11050791270E+03  0.11050791270E+03  0.00000000000E+00 0. -1.
      -24    2    1    2    0    0  0.13700297410E+02  0.76806733564E+02  0.95441793024E+02  0.14569027041E+03  0.77650154962E+02 0.  0.
       24    2    1    2    0    0 -0.13700297410E+02 -0.76806733564E+02 -0.48323446843E+02  0.12244390116E+03  0.81057886400E+02 0.  0.
      -13    1    4    4    0    0  0.33666118146E+02 -0.23009907756E+02 -0.15789626562E+02  0.43728430946E+02  0.00000000000E+00 0.  1.
       14    1    4    4    0    0 -0.47366415556E+02 -0.53796825808E+02 -0.32533820281E+02  0.78715470219E+02  0.00000000000E+00 0. -1.
        3    1    3    3  502    0 -0.97312052664E+01  0.25668516283E+02 -0.74341692384E+01  0.28440041427E+02  0.00000000000E+00 0. -1.
       -4    1    3    3    0  502  0.23431502676E+02  0.51138217281E+02  0.10287596226E+03  0.11725022898E+03  0.00000000000E+00 0.  1.
</event>
<event>
 8   1  0.2279600E-02  0.2845725E+03  0.7546771E-02  0.1093375E+00
       -4   -1    0    0    0  501 -0.00000000000E+00  0.00000000000E+00  0.29922532318E+03  0.29922532318E+03  0.00000000000E+00 0.  1.
        4   -1    0    0  501    0  0.00000000000E+00 -0.00000000000E+00 -0.32459330667E+03  0.32459330667E+03  0.00000000000E+00 0. -1.
      -24    2    1    2    0    0 -0.84328068193E+01  0.27151991369E+03 -0.14113661442E+03  0.31659902390E+03  0.80754085019E+02 0.  0.
       24    2    1    2    0    0  0.84328068193E+01 -0.27151991369E+03  0.11576863094E+03  0.30721960595E+03  0.84778149377E+02 0.  0.
      -13    1    4    4    0    0 -0.10507031482E+02 -0.13706356350E+03  0.10111190492E+03  0.17064710799E+03  0.00000000000E+00 0.  1.
       14    1    4    4    0    0  0.18939838302E+02 -0.13445635019E+03  0.14656726015E+02  0.13657249796E+03  0.00000000000E+00 0. -1.
        3    1    3    3  502    0  0.35512655756E+01  0.19416086957E+03 -0.58597475661E+02  0.20284161041E+03  0.00000000000E+00 0. -1.
       -4    1    3    3    0  502 -0.11984072395E+02  0.77359044114E+02 -0.82539138757E+02  0.11375741349E+03  0.00000000000E+00 0.  1.
</event>
<event>
 8   1  0.2279600E-02  0.8165992E+02  0.7546771E-02  0.1324866E+00
        2   -1    0    0  501    0  0.00000000000E+00  0.00000000000E+00  0.18027101421E+04  0.18027101421E+04  0.00000000000E+00 0. -1.
       -2   -1    0    0    0  501 -0.00000000000E+00 -0.00000000000E+00 -0.37863552612E+01  0.37863552612E+01  0.00000000000E+00 0.  1.
      -24    2    1    2    0    0 -0.14042685942E+01  0.15204128544E+02  0.10548941037E+04  0.10579989944E+04  0.79543477016E+02 0.  0.
       24    2    1    2    0    0  0.14042685942E+01 -0.15204128544E+02  0.74402968319E+03  0.74849750297E+03  0.80219729380E+02 0.  0.
      -13    1    4    4    0    0  0.75886902678E+01  0.25191183863E+02  0.52684727349E+03  0.52750377586E+03  0.00000000000E+00 0.  1.
       14    1    4    4    0    0 -0.61844216736E+01 -0.40395312407E+02  0.21718240970E+03  0.22099372710E+03  0.00000000000E+00 0. -1.
        3    1    3    3  502    0 -0.11773616427E+01 -0.28037759313E+02  0.68688812039E+03  0.68746112040E+03  0.00000000000E+00 0. -1.
       -4    1    3    3    0  502 -0.22690695149E+00  0.43241887857E+02  0.36800598330E+03  0.37053787403E+03  0.00000000000E+00 0.  1.
</event>
<event>
 8   1  0.2279600E-02  0.9057880E+02  0.7546771E-02  0.1307423E+00
       -1   -1    0    0    0  501 -0.00000000000E+00  0.00000000000E+00  0.45187658139E+03  0.45187658139E+03  0.00000000000E+00 0.  1.
        1   -1    0    0  501    0  0.00000000000E+00 -0.00000000000E+00 -0.24287176895E+02  0.24287176895E+02  0.00000000000E+00 0. -1.
       24    2    1    2    0    0  0.45242596782E+00  0.19360782295E+02  0.35780646501E+03  0.36909346346E+03  0.88484313803E+02 0.  0.
      -24    2    1    2    0    0 -0.45242596782E+00 -0.19360782295E+02  0.69782939491E+02  0.10707029483E+03  0.78862822736E+02 0.  0.
      -13    1    3    3    0    0 -0.10617139055E+02  0.41473522935E+02  0.32602975309E+03  0.32882849123E+03  0.00000000000E+00 0.  1.
       14    1    3    3    0    0  0.11069565023E+02 -0.22112740640E+02  0.31776711919E+02  0.40264972231E+02  0.00000000000E+00 0. -1.
        3    1    4    4  502    0 -0.24695693506E+02 -0.29922088541E+02  0.76498409750E+01  0.39544010005E+02  0.00000000000E+00 0. -1.
       -4    1    4    4    0  502  0.24243267538E+02  0.10561306246E+02  0.62133098516E+02  0.67526284821E+02  0.00000000000E+00 0.  1.
</event>
<event>
 8   1  0.2279600E-02  0.8815638E+02  0.7546771E-02  0.1307972E+00
       -2   -1    0    0    0  501 -0.00000000000E+00  0.00000000000E+00  0.37832975104E+02  0.37832975104E+02  0.00000000000E+00 0.  1.
        2   -1    0    0  501    0  0.00000000000E+00 -0.00000000000E+00 -0.93064016824E+03  0.93064016824E+03  0.00000000000E+00 0. -1.
      -24    2    1    2    0    0 -0.33075949647E+02  0.14959412936E+01 -0.18816346949E+02  0.90142127230E+02  0.81702459594E+02 0.  0.
       24    2    1    2    0    0  0.33075949647E+02 -0.14959412936E+01 -0.87399084619E+03  0.87833101611E+03  0.80679107356E+02 0.  0.
      -13    1    4    4    0    0 -0.20600854206E+02  0.17413182074E+02 -0.17990603180E+03  0.18191699861E+03  0.00000000000E+00 0.  1.
       14    1    4    4    0    0  0.53676803853E+02 -0.18909123367E+02 -0.69408481439E+03  0.69641401751E+03  0.00000000000E+00 0. -1.
        1    1    3    3  502    0  0.13600617462E+02 -0.25880223654E+02 -0.20982256599E+02  0.35986356633E+02  0.00000000000E+00 0. -1.
       -2    1    3    3    0  502 -0.46676567109E+02  0.27376164948E+02  0.21659096495E+01  0.54155770597E+02  0.00000000000E+00 0.  1.
</event>
<event>
 8   1  0.2279600E-02  0.1563353E+03  0.7546771E-02  0.1196161E+00
        1   -1    0    0  501    0  0.00000000000E+00  0.00000000000E+00  0.16038370300E+02  0.16038370300E+02  0.00000000000E+00 0. -1.
       -1   -1    0    0    0  501 -0.00000000000E+00 -0.00000000000E+00 -0.22460723479E+04  0.22460723479E+04  0.00000000000E+00 0.  1.
       24    2    1    2    0    0 -0.85033302271E+02  0.87129721387E+02 -0.17752556869E+04  0.17812115261E+04  0.79746447059E+02 0.  0.
      -24    2    1    2    0    0  0.85033302271E+02 -0.87129721387E+02 -0.45477829064E+03  0.48089919210E+03  0.98073892917E+02 0.  0.
      -13    1    3    3    0    0  0.11157460828E+02  0.24688817923E+02 -0.52803620652E+03  0.52873080302E+03  0.00000000000E+00 0.  1.
       14    1    3    3    0    0 -0.96190763099E+02  0.62440903465E+02 -0.12472194804E+04  0.12524807230E+04  0.00000000000E+00 0. -1.
        3    1    4    4  502    0  0.67369433309E+02 -0.35086453068E+01 -0.25137274382E+03  0.26026756900E+03  0.00000000000E+00 0. -1.
       -4    1    4    4    0  502  0.17663868963E+02 -0.83621076080E+02 -0.20340554682E+03  0.22063162309E+03  0.00000000000E+00 0.  1.
</event>
<event>
 8   1  0.2279600E-02  0.8726494E+02  0.7546771E-02  0.1312521E+00
        2   -1    0    0  501    0  0.00000000000E+00  0.00000000000E+00  0.11941145135E+04  0.11941145135E+04  0.00000000000E+00 0. -1.
       -2   -1    0    0    0  501 -0.00000000000E+00 -0.00000000000E+00 -0.60547587632E+01  0.60547587632E+01  0.00000000000E+00 0.  1.
      -24    2    1    2    0    0  0.17098686694E+02  0.53842012972E+01  0.61536747384E+03  0.62152417325E+03  0.85403836928E+02 0.  0.
       24    2    1    2    0    0 -0.17098686694E+02 -0.53842012972E+01  0.57269228087E+03  0.57864509898E+03  0.80822937983E+02 0.  0.
      -13    1    4    4    0    0  0.12697818288E+02  0.32048732330E+02  0.27075560401E+03  0.27294129943E+03  0.00000000000E+00 0.  1.
       14    1    4    4    0    0 -0.29796504982E+02 -0.37432933628E+02  0.30193667685E+03  0.30570379955E+03  0.00000000000E+00 0. -1.
        3    1    3    3  502    0 -0.18028530862E+02 -0.29910389024E+02  0.33019576042E+03  0.33203749712E+03  0.00000000000E+00 0. -1.
       -4    1    3    3    0  502  0.35127217556E+02  0.35294590322E+02  0.28517171343E+03  0.28948667613E+03  0.00000000000E+00 0.  1.
</event>
<event>
 8   1  0.2279600E-02  0.1157390E+03  0.7546771E-02  0.1251273E+00
        2   -1    0    0  501    0  0.00000000000E+00  0.00000000000E+00  0.38055121353E+03  0.38055121353E+03  0.00000000000E+00 0. -1.
       -2   -1    0    0    0  501 -0.00000000000E+00 -0.00000000000E+00 -0.43224542139E+02  0.43224542139E+02  0.00000000000E+00 0.  1.
      -24    2    1    2    0    0 -0.49513492696E+02  0.68290902400E+02  0.72293863093E+02  0.13457356156E+03  0.75950033046E+02 0.  0.
       24    2    1    2    0    0  0.49513492696E+02 -0.68290902400E+02  0.26503280830E+03  0.28920219412E+03  0.79248257365E+02 0.  0.
      -13    1    4    4    0    0  0.18175252070E+02 -0.63237059649E+02  0.90984433810E+02  0.11228282458E+03  0.00000000000E+00 0.  1.
       14    1    4    4    0    0  0.31338240626E+02 -0.50538427508E+01  0.17404837449E+03  0.17691936953E+03  0.00000000000E+00 0. -1.
        3    1    3    3  502    0 -0.36546298269E+02  0.14884703265E+02  0.69037133620E+02  0.79519256328E+02  0.00000000000E+00 0. -1.
       -4    1    3    3    0  502 -0.12967194426E+02  0.53406199135E+02  0.32567294726E+01  0.55054305229E+02  0.00000000000E+00 0.  1.
</event>
<event>
 8   1  0.2279600E-02  0.8696018E+02  0.7546771E-02  0.1310463E+00
       -3   -1    0    0    0  501 -0.00000000000E+00  0.00000000000E+00  0.45481695864E+03  0.45481695864E+03  0.00000000000E+00 0.  1.
        3   -1    0    0  501    0  0.00000000000E+00 -0.00000000000E+00 -0.21861748961E+02  0.21861748961E+02  0.00000000000E+00 0. -1.
       24    2    1    2    0    0  0.83513659155E+01 -0.31711194788E+02  0.33348958498E+03  0.34464093739E+03  0.80540221314E+02 0.  0.
      -24    2    1    2    0    0 -0.83513659155E+01  0.31711194788E+02  0.99465624706E+02  0.13203777021E+03  0.80406573596E+02 0.  0.
      -13    1    3    3    0    0  0.18242730838E+02  0.21853272131E+02  0.16862826827E+03  0.17101419705E+03  0.00000000000E+00 0.  1.
       14    1    3    3    0    0 -0.98913649228E+01 -0.53564466919E+02  0.16486131670E+03  0.17362674034E+03  0.00000000000E+00 0. -1.
        1    1    4    4  502    0 -0.13091734680E+02 -0.20722935026E+02  0.67621805063E+01  0.25427556670E+02  0.00000000000E+00 0. -1.
       -2    1    4    4    0  502  0.47403687642E+01  0.52434129814E+02  0.92703444200E+02  0.10661021354E+03  0.00000000000E+00 0.  1.
</event>
<event>
 8   1  0.2279600E-02  0.9681638E+02  0.7546771E-02  0.1287774E+00
        1   -1    0    0  501    0  0.00000000000E+00  0.00000000000E+00  0.41657722281E+03  0.41657722281E+03  0.00000000000E+00 0. -1.
       -1   -1    0    0    0  501 -0.00000000000E+00 -0.00000000000E+00 -0.24586263175E+02  0.24586263175E+02  0.00000000000E+00 0.  1.
       24    2    1    2    0    0 -0.22417214163E+02  0.47474678054E+02  0.26528820168E+03  0.28240262238E+03  0.81345157399E+02 0.  0.
      -24    2    1    2    0    0  0.22417214163E+02 -0.47474678054E+02  0.12670275796E+03  0.15876086360E+03  0.79969033946E+02 0.  0.
      -13    1    3    3    0    0  0.29987352475E+02  0.17491302257E+02  0.72529805470E+02  0.80409947424E+02  0.00000000000E+00 0.  1.
       14    1    3    3    0    0 -0.52404566639E+02  0.29983375797E+02  0.19275839621E+03  0.20199267496E+03  0.00000000000E+00 0. -1.
        1    1    4    4  502    0 -0.17712834885E+02 -0.49355481515E+02  0.90938383208E+02  0.10497379490E+03  0.00000000000E+00 0. -1.
       -2    1    4    4    0  502  0.40130049048E+02  0.18808034607E+01  0.35764374751E+02  0.53787068702E+02  0.00000000000E+00 0.  1.
</event>
<event>
 8   1  0.2279600E-02  0.9463013E+02  0.7546771E-02  0.1293717E+00
        4   -1    0    0  501    0  0.00000000000E+00  0.00000000000E+00  0.60425987098E+02  0.60425987098E+02  0.00000000000E+00 0. -1.
       -4   -1    0    0    0  501 -0.00000000000E+00 -0.00000000000E+00 -0.20689544491E+03  0.20689544491E+03  0.00000000000E+00 0.  1.
       24    2    1    2    0    0 -0.46259052506E+02 -0.18690185616E+02  0.14994827083E+01  0.91680693462E+02  0.76901743336E+02 0.  0.
      -24    2    1    2    0    0  0.46259052506E+02  0.18690185616E+02 -0.14796894052E+03  0.17564073854E+03  0.80409195375E+02 0.  0.
      -13    1    3    3    0    0 -0.67815671151E+02 -0.15514136450E+02  0.43614707910E+01  0.69704204400E+02  0.00000000000E+00 0.  1.
       14    1    3    3    0    0  0.21556618645E+02 -0.31760491654E+01 -0.28619880828E+01  0.21976489062E+02  0.00000000000E+00 0. -1.
        1    1    4    4  502    0  0.13450928996E+02 -0.22405191166E+02 -0.99832666872E+01  0.27974733167E+02  0.00000000000E+00 0. -1.
       -2    1    4    4    0  502  0.32808123510E+02  0.41095376781E+02 -0.13798567383E+03  0.14766600538E+03  0.00000000000E+00 0.  1.
</event>
<event>
 8   1  0.2279600E-02  0.9644911E+02  0.7546771E-02  0.1299930E+00
        2   -1    0    0  501    0  0.00000000000E+00  0.00000000000E+00  0.14189404600E+04  0.14189404600E+04  0.00000000000E+00 0. -1.
       -2   -1    0    0    0  501 -0.00000000000E+00 -0.00000000000E+00 -0.55268508181E+01  0.55268508181E+01  0.00000000000E+00 0.  1.
      -24    2    1    2    0    0 -0.29945769368E+02 -0.19302001930E+02  0.64208990974E+03  0.64929337270E+03  0.89627647867E+02 0.  0.
       24    2    1    2    0    0  0.29945769368E+02  0.19302001930E+02  0.77132369945E+03  0.77517393812E+03  0.68447561195E+02 0.  0.
      -13    1    4    4    0    0 -0.12600530940E+02  0.16974126987E+02  0.87250355407E+02  0.89774823228E+02  0.00000000000E+00 0.  1.
       14    1    4    4    0    0  0.42546300309E+02  0.23278749433E+01  0.68407334404E+03  0.68539911489E+03  0.00000000000E+00 0. -1.
        1    1    3    3  502    0  0.12376423748E+02 -0.45150475085E+02  0.32134422701E+03  0.32473659094E+03  0.00000000000E+00 0. -1.
       -2    1    3    3    0  502 -0.42322193117E+02  0.25848473155E+02  0.32074568273E+03  0.32455678176E+03  0.00000000000E+00 0.  1.
</event>
<event>
 8   1  0.2279600E-02  0.9216430E+02  0.7546771E-02  0.1298948E+00
        2   -1    0    0  501    0  0.00000000000E+00  0.00000000000E+00  0.94123224094E+03  0.94123224094E+03  0.00000000000E+00 0. -1.
       -2   -1    0    0    0  501 -0.00000000000E+00 -0.00000000000E+00 -0.90779440541E+01  0.90779440541E+01  0.00000000000E+00 0.  1.
      -24    2    1    2    0    0 -0.53758437690E+01  0.38485967284E+02  0.38058465667E+03  0.39109347672E+03  0.81236428239E+02 0.  0.
       24    2    1    2    0    0  0.53758437690E+01 -0.38485967284E+02  0.55156964022E+03  0.55921670827E+03  0.83571462960E+02 0.  0.
      -13    1    4    4    0    0 -0.13508701220E+02  0.19717507405E+02  0.27100028953E+03  0.27205224137E+03  0.00000000000E+00 0.  1.
       14    1    4    4    0    0  0.18884544989E+02 -0.58203474689E+02  0.28056935069E+03  0.28716446690E+03  0.00000000000E+00 0. -1.
        1    1    3    3  502    0  0.88401525681E+01  0.47547425072E+02  0.36482309306E+03  0.36801466704E+03  0.00000000000E+00 0. -1.
       -2    1    3    3    0  502 -0.14215996337E+02 -0.90614577879E+01  0.15761563609E+02  0.23078809685E+02  0.00000000000E+00 0.  1.
</event>
<event>
 8   1  0.2279600E-02  0.8777388E+02  0.7546771E-02  0.1309744E+00
       -2   -1    0    0    0  501 -0.00000000000E+00  0.00000000000E+00  0.45938302867E+02  0.45938302867E+02  0.00000000000E+00 0.  1.
        2   -1    0    0  501    0  0.00000000000E+00 -0.00000000000E+00 -0.21888137744E+03  0.21888137744E+03  0.00000000000E+00 0. -1.
       24    2    1    2    0    0  0.27465036746E+02  0.24921143550E+01 -0.15390373895E+03  0.17717397016E+03  0.83328962329E+02 0.  0.
      -24    2    1    2    0    0 -0.27465036746E+02 -0.24921143550E+01 -0.19039335628E+02  0.87645710149E+02  0.80986019342E+02 0.  0.
      -13    1    3    3    0    0  0.21526525753E+02 -0.11969084406E+01  0.15010923267E+01  0.21611968420E+02  0.00000000000E+00 0.  1.
       14    1    3    3    0    0  0.59385109934E+01  0.36890227956E+01 -0.15540483127E+03  0.15556200174E+03  0.00000000000E+00 0. -1.
        1    1    4    4  502    0  0.26760340080E+02 -0.13226611875E+02 -0.25414108920E+01  0.29958601974E+02  0.00000000000E+00 0. -1.
       -2    1    4    4    0  502 -0.54225376827E+02  0.10734497520E+02 -0.16497924736E+02  0.57687108175E+02  0.00000000000E+00 0.  1.
</event>
<event>
 8   1  0.2279600E-02  0.8470567E+02  0.7546771E-02  0.1318314E+00
       -2   -1    0    0    0  501 -0.00000000000E+00  0.00000000000E+00  0.56971650465E+02  0.56971650465E+02  0.00000000000E+00 0.  1.
        2   -1    0    0  501    0  0.00000000000E+00 -0.00000000000E+00 -0.30206023259E+03  0.30206023259E+03  0.00000000000E+00 0. -1.
      -24    2    1    2    0    0 -0.23434311184E+01  0.11868022962E+02  0.17245657753E+02  0.83361238489E+02  0.80655698699E+02 0.  0.
       24    2    1    2    0    0  0.23434311184E+01 -0.11868022962E+02 -0.26233423988E+03  0.27567064457E+03  0.83837397530E+02 0.  0.
      -13    1    4    4    0    0 -0.21622413192E+02 -0.56371969475E+01 -0.14578093284E+02  0.26680096429E+02  0.00000000000E+00 0.  1.
       14    1    4    4    0    0  0.23965844311E+02 -0.62308260144E+01 -0.24775614660E+03  0.24899054814E+03  0.00000000000E+00 0. -1.
        1    1    3    3  502    0  0.36700499083E+02  0.19815956735E+02  0.92662751845E+01  0.42725433059E+02  0.00000000000E+00 0. -1.
       -2    1    3    3    0  502 -0.39043930201E+02 -0.79479337733E+01  0.79793825684E+01  0.40635805430E+02  0.00000000000E+00 0.  1.
</event>
<event>
 8   1  0.2279600E-02  0.1094220E+03  0.7546771E-02  0.1263009E+00
        2   -1    0    0  501    0  0.00000000000E+00  0.00000000000E+00  0.35403734059E+02  0.35403734059E+02  0.00000000000E+00 0. -1.
       -2   -1    0    0    0  501 -0.00000000000E+00 -0.00000000000E+00 -0.10820042491E+04  0.10820042491E+04  0.00000000000E+00 0.  1.
      -24    2    1    2    0    0  0.89931166203E+01  0.69441616132E+02 -0.99140080623E+03  0.99742104460E+03  0.84084287632E+02 0.  0.
       24    2    1    2    0    0 -0.89931166203E+01 -0.69441616132E+02 -0.55199708858E+02  0.11998693860E+03  0.80292237357E+02 0.  0.
      -13    1    4    4    0    0  0.12448599267E+02  0.74532812525E+01 -0.34636353790E+02  0.37552576862E+02  0.00000000000E+00 0.  1.
       14    1    4    4    0    0 -0.21441715887E+02 -0.76894897384E+02 -0.20563355068E+02  0.82434361741E+02  0.00000000000E+00 0. -1.
        3    1    3    3  502    0 -0.23817478216E+02  0.55306179456E+02 -0.35926755300E+03  0.36427904193E+03  0.00000000000E+00 0. -1.
       -4    1    3    3    0  502  0.32810594836E+02  0.14135436676E+02 -0.63213325323E+03  0.63314200267E+03  0.00000000000E+00 0.  1.
</event>
<event>
 8   1  0.2279600E-02  0.1430820E+03  0.7546771E-02  0.1213583E+00
        2   -1    0    0  501    0  0.00000000000E+00  0.00000000000E+00  0.12632131549E+03  0.12632131549E+03  0.00000000000E+00 0. -1.
       -2   -1    0    0    0  501 -0.00000000000E+00 -0.00000000000E+00 -0.15668143063E+03  0.15668143063E+03  0.00000000000E+00 0.  1.
       24    2    1    2    0    0 -0.10353147941E+03 -0.30543172309E+01 -0.48995442332E+02  0.15123826388E+03  0.98713540152E+02 0.  0.
      -24    2    1    2    0    0  0.10353147941E+03  0.30543172309E+01  0.18635327186E+02  0.13176448224E+03  0.79287497622E+02 0.  0.
      -13    1    3    3    0    0 -0.35932481766E+02 -0.20950637929E+02 -0.67153310062E+02  0.78991388947E+02  0.00000000000E+00 0.  1.
       14    1    3    3    0    0 -0.67598997643E+02  0.17896320698E+02  0.18157867730E+02  0.72246874932E+02  0.00000000000E+00 0. -1.
        1    1    4    4  502    0  0.58961987156E+02 -0.78793375523E+01  0.48720140417E+02  0.76891169661E+02  0.00000000000E+00 0. -1.
       -2    1    4    4    0  502  0.44569492253E+02  0.10933654783E+02 -0.30084813231E+02  0.54873312582E+02  0.00000000000E+00 0.  1.
</event>
<event>
 8   1  0.2279600E-02  0.8494438E+02  0.7546771E-02  0.1317438E+00
        2   -1    0    0  501    0  0.00000000000E+00  0.00000000000E+00  0.22886815147E+04  0.22886815147E+04  0.00000000000E+00 0. -1.
       -2   -1    0    0    0  501 -0.00000000000E+00 -0.00000000000E+00 -0.30828827028E+01  0.30828827028E+01  0.00000000000E+00 0.  1.
      -24    2    1    2    0    0  0.11112716871E+02 -0.69612680879E+01  0.12800844432E+04  0.12828997350E+04  0.83926137906E+02 0.  0.
       24    2    1    2    0    0 -0.11112716871E+02  0.69612680879E+01  0.10055141887E+04  0.10088646623E+04  0.81099762221E+02 0.  0.
      -13    1    4    4    0    0  0.26016787898E+02 -0.20322542005E+02  0.29106320286E+03  0.29292945742E+03  0.00000000000E+00 0.  1.
       14    1    4    4    0    0 -0.37129504769E+02  0.27283810093E+02  0.71445098586E+03  0.71593520490E+03  0.00000000000E+00 0. -1.
        1    1    3    3  502    0 -0.34123788107E+02 -0.12241468738E+02  0.40067225000E+03  0.40230900859E+03  0.00000000000E+00 0. -1.
       -2    1    3    3    0  502  0.45236504978E+02  0.52802006497E+01  0.87941219324E+03  0.88059072645E+03  0.00000000000E+00 0.  1.
</event>
<event>
 8   1  0.2279600E-02  0.8107379E+02  0.7546771E-02  0.1326092E+00
       -2   -1    0    0    0  501 -0.00000000000E+00  0.00000000000E+00  0.59891722379E+02  0.59891722379E+02  0.00000000000E+00 0.  1.
        2   -1    0    0  501    0  0.00000000000E+00 -0.00000000000E+00 -0.12289708184E+03  0.12289708184E+03  0.00000000000E+00 0. -1.
      -24    2    1    2    0    0  0.18722388227E+02  0.40581093329E+01 -0.14592326393E+01  0.81000367610E+02  0.78688843687E+02 0.  0.
       24    2    1    2    0    0 -0.18722388227E+02 -0.40581093329E+01 -0.61546126820E+02  0.10178843661E+03  0.78777941253E+02 0.  0.
      -13    1    4    4    0    0  0.12435258798E+02 -0.10764306240E+02  0.12837762203E+02  0.20864181953E+02  0.00000000000E+00 0.  1.
       14    1    4    4    0    0 -0.31157647025E+02  0.67061969070E+01 -0.74383889023E+02  0.80924254654E+02  0.00000000000E+00 0. -1.
        1    1    3    3  502    0 -0.14502772257E+02  0.33518061574E+02  0.90762717140E+00  0.36532377994E+02  0.00000000000E+00 0. -1.
       -2    1    3    3    0  502  0.33225160484E+02 -0.29459952241E+02 -0.23668598107E+01  0.44467989617E+02  0.00000000000E+00 0.  1.
</event>
<event>
 8   1  0.2279600E-02  0.1139436E+03  0.7546771E-02  0.1253699E+00
        2   -1    0    0  501    0  0.00000000000E+00  0.00000000000E+00  0.24214297292E+04  0.24214297292E+04  0.00000000000E+00 0. -1.
       -2   -1    0    0    0  501 -0.00000000000E+00 -0.00000000000E+00 -0.54028578170E+01  0.54028578170E+01  0.00000000000E+00 0.  1.
       24    2    1    2    0    0  0.75429287372E+02  0.26577486820E+02  0.13419316013E+04  0.13467104662E+04  0.80328805827E+02 0.  0.
      -24    2    1    2    0    0 -0.75429287372E+02 -0.26577486820E+02  0.10740952701E+04  0.10801221208E+04  0.81161606889E+02 0.  0.
      -13    1    3    3    0    0  0.80753346924E+02 -0.39166298046E+01  0.10618532879E+04  0.10649266867E+04  0.00000000000E+00 0.  1.
       14    1    3    3    0    0 -0.53240595517E+01  0.30494116624E+02  0.28007831335E+03  0.28178377947E+03  0.00000000000E+00 0. -1.
        1    1    4    4  502    0 -0.34337167236E+02 -0.92765896157E+01  0.88979005574E+03  0.89050066786E+03  0.00000000000E+00 0. -1.
       -2    1    4    4    0  502 -0.41092120136E+02 -0.17300897204E+02  0.18430521435E+03  0.18962145295E+03  0.00000000000E+00 0.  1.
</event>
<event>
 8   1  0.2279600E-02  0.1284565E+03  0.7546771E-02  0.1230230E+00
       -2   -1    0    0    0  501 -0.00000000000E+00  0.00000000000E+00  0.22175727769E+02  0.22175727769E+02  0.00000000000E+00 0.  1.
        2   -1    0    0  501    0  0.00000000000E+00 -0.00000000000E+00 -0.11545873497E+04  0.11545873497E+04  0.00000000000E+00 0. -1.
      -24    2    1    2    0    0  0.98317623949E+02  0.11556700780E+02 -0.21409640242E+03  0.24967647266E+03  0.81860606889E+02 0.  0.
       24    2    1    2    0    0 -0.98317623949E+02 -0.11556700780E+02 -0.91831521952E+03  0.92708660482E+03  0.79917569501E+02 0.  0.
      -13    1    4    4    0    0 -0.34354509779E+01  0.27371750395E+01 -0.67585730813E+00  0.44442360107E+01  0.00000000000E+00 0.  1.
       14    1    4    4    0    0 -0.94882172971E+02 -0.14293875819E+02 -0.91763936221E+03  0.92264236881E+03  0.00000000000E+00 0. -1.
        3    1    3    3  502    0  0.45576726708E+02 -0.34076804458E+02 -0.11726072574E+03  0.13034011056E+03  0.00000000000E+00 0. -1.
       -4    1    3    3    0  502  0.52740897241E+02  0.45633505238E+02 -0.96835676683E+02  0.11933636211E+03  0.00000000000E+00 0.  1.
</event>
<event>
 8   1  0.2279600E-02  0.9286098E+02  0.7546771E-02  0.1297973E+00
        2   -1    0    0  501    0  0.00000000000E+00  0.00000000000E+00  0.19966842498E+04  0.19966842498E+04  0.00000000000E+00 0. -1.
       -2   -1    0    0    0  501 -0.00000000000E+00 -0.00000000000E+00 -0.80486889557E+01  0.80486889557E+01  0.00000000000E+00 0.  1.
      -24    2    1    2    0    0 -0.32091139556E+02 -0.33972876233E+02  0.28947532693E+03  0.30303711924E+03  0.76495314752E+02 0.  0.
       24    2    1    2    0    0  0.32091139556E+02  0.33972876233E+02  0.16991602339E+04  0.17016958195E+04  0.80244402181E+02 0.  0.
      -13    1    4    4    0    0  0.34990664070E+02 -0.18327275758E+02  0.85511791665E+03  0.85602972319E+03  0.00000000000E+00 0.  1.
       14    1    4    4    0    0 -0.28995245145E+01  0.52300151990E+02  0.84404231724E+03  0.84566609630E+03  0.00000000000E+00 0. -1.
        3    1    3    3  502    0 -0.68175206575E+01 -0.67525174830E+01  0.24457916150E+03  0.24476732078E+03  0.00000000000E+00 0. -1.
       -4    1    3    3    0  502 -0.25273618899E+02 -0.27220358750E+02  0.44896165430E+02  0.58269798464E+02  0.00000000000E+00 0.  1.
</event>
<event>
 8   1  0.2279600E-02  0.1235247E+03  0.7546771E-02  0.1237462E+00
        2   -1    0    0  501    0  0.00000000000E+00  0.00000000000E+00  0.36099980504E+03  0.36099980504E+03  0.00000000000E+00 0. -1.
       -2   -1    0    0    0  501 -0.00000000000E+00 -0.00000000000E+00 -0.19766675529E+03  0.19766675529E+03  0.00000000000E+00 0.  1.
       24    2    1    2    0    0  0.58545554070E+02 -0.73512715238E+02  0.32940046943E+03  0.35179970119E+03  0.80166447451E+02 0.  0.
      -24    2    1    2    0    0 -0.58545554070E+02  0.73512715238E+02 -0.16606741968E+03  0.20686685914E+03  0.79898737979E+02 0.  0.
      -13    1    3    3    0    0 -0.18935055996E+02 -0.38412352343E+01  0.52721164458E+02  0.56149911981E+02  0.00000000000E+00 0.  1.
       14    1    3    3    0    0  0.77480610066E+02 -0.69671480004E+02  0.27667930497E+03  0.29564978921E+03  0.00000000000E+00 0. -1.
        1    1    4    4  502    0  0.19550546003E+02  0.70819016972E+01 -0.29711908866E+02  0.36265337571E+02  0.00000000000E+00 0. -1.
       -2    1    4    4    0  502 -0.78096100073E+02  0.66430813541E+02 -0.13635551081E+03  0.17060152157E+03  0.00000000000E+00 0.  1.
</event>
<event>
 8   1  0.2279600E-02  0.9994053E+02  0.7546771E-02  0.1281762E+00
        1   -1    0    0  501    0  0.00000000000E+00  0.00000000000E+00  0.35861716713E+03  0.35861716713E+03  0.00000000000E+00 0. -1.
       -1   -1    0    0    0  501 -0.00000000000E+00 -0.00000000000E+00 -0.28828145002E+02  0.28828145002E+02  0.00000000000E+00 0.  1.
       24    2    1    2    0    0  0.35497794856E+02  0.44256836729E+02  0.20957363796E+03  0.23111281698E+03  0.79203935576E+02 0.  0.
      -24    2    1    2    0    0 -0.35497794856E+02 -0.44256836729E+02  0.12021538417E+03  0.15633249514E+03  0.82276056120E+02 0.  0.
      -13    1    3    3    0    0  0.58633547079E+02  0.25626103334E+02  0.16990403224E+03  0.18155431746E+03  0.00000000000E+00 0.  1.
       14    1    3    3    0    0 -0.23135752222E+02  0.18630733395E+02  0.39669605711E+02  0.49558499523E+02  0.00000000000E+00 0. -1.
        3    1    4    4  502    0 -0.20213163988E+02 -0.53193240867E+02  0.12554767418E+03  0.13784161695E+03  0.00000000000E+00 0. -1.
       -4    1    4    4    0  502 -0.15284630869E+02  0.89364041378E+01 -0.53322900078E+01  0.18490878195E+02  0.00000000000E+00 0.  1.
</event>
<event>
 8   1  0.2279600E-02  0.8440687E+02  0.7546771E-02  0.1317426E+00
       -2   -1    0    0    0  501 -0.00000000000E+00  0.00000000000E+00  0.35456481020E+01  0.35456481020E+01  0.00000000000E+00 0.  1.
        2   -1    0    0  501    0  0.00000000000E+00 -0.00000000000E+00 -0.21800288718E+04  0.21800288718E+04  0.00000000000E+00 0. -1.
      -24    2    1    2    0    0 -0.12425476237E+02  0.46566975304E+01 -0.76523523563E+03  0.76980459367E+03  0.82692619374E+02 0.  0.
       24    2    1    2    0    0  0.12425476237E+02 -0.46566975304E+01 -0.14112479880E+04  0.14137699262E+04  0.83357322363E+02 0.  0.
      -13    1    4    4    0    0 -0.24953842571E+02 -0.27123842443E+02 -0.86451564913E+03  0.86530093301E+03  0.00000000000E+00 0.  1.
       14    1    4    4    0    0  0.37379318808E+02  0.22467144913E+02 -0.54673233891E+03  0.54846899318E+03  0.00000000000E+00 0. -1.
        1    1    3    3  502    0  0.19779121490E+00  0.42646257231E+02 -0.45576404685E+03  0.45775496587E+03  0.00000000000E+00 0. -1.
       -2    1    3    3    0  502 -0.12623267452E+02 -0.37989559701E+02 -0.30947118878E+03  0.31204962780E+03  0.00000000000E+00 0.  1.
</event>
<event>
 8   1  0.2279600E-02  0.8916686E+02  0.7546771E-02  0.1305520E+00
       -2   -1    0    0    0  501 -0.00000000000E+00  0.00000000000E+00  0.14138875373E+03  0.14138875373E+03  0.00000000000E+00 0.  1.
        2   -1    0    0  501    0  0.00000000000E+00 -0.00000000000E+00 -0.79084057652E+02  0.79084057652E+02  0.00000000000E+00 0. -1.
       24    2    1    2    0    0 -0.59075020082E+01  0.40264997546E+02 -0.29067764267E+02  0.92802704732E+02  0.78174410639E+02 0.  0.
      -24    2    1    2    0    0  0.59075020082E+01 -0.40264997546E+02  0.91372460349E+02  0.12767010665E+03  0.79338269552E+02 0.  0.
      -13    1    3    3    0    0 -0.18732685297E+01 -0.12763277391E+02 -0.36861117563E+02  0.39053199263E+02  0.00000000000E+00 0.  1.
       14    1    3    3    0    0 -0.40342334785E+01  0.53028274937E+02  0.77933532955E+01  0.53749505468E+02  0.00000000000E+00 0. -1.
        1    1    4    4  502    0 -0.31779725309E+02 -0.16631253971E+00  0.20012175276E+02  0.37556168067E+02  0.00000000000E+00 0. -1.
       -2    1    4    4    0  502  0.37687227317E+02 -0.40098685006E+02  0.71360285073E+02  0.90113938588E+02  0.00000000000E+00 0.  1.
</event>
<event>
 8   1  0.2279600E-02  0.1524177E+03  0.7546771E-02  0.1203312E+00
        2   -1    0    0  501    0  0.00000000000E+00  0.00000000000E+00  0.13860899937E+04  0.13860899937E+04  0.00000000000E+00 0. -1.
       -2   -1    0    0    0  501 -0.00000000000E+00 -0.00000000000E+00 -0.28887157971E+02  0.28887157971E+02  0.00000000000E+00 0.  1.
      -24    2    1    2    0    0 -0.66419341211E+02  0.84892720263E+02  0.20762919207E+03  0.25756752203E+03  0.10776290719E+03 0.  0.
       24    2    1    2    0    0  0.66419341211E+02 -0.84892720263E+02  0.11495736436E+04  0.11574096296E+04  0.80369059602E+02 0.  0.
      -13    1    4    4    0    0  0.44455268521E+02 -0.37665424892E+02  0.26621316055E+03  0.27251495735E+03  0.00000000000E+00 0.  1.
       14    1    4    4    0    0  0.21964072690E+02 -0.47227295371E+02  0.88336048310E+03  0.88489467227E+03  0.00000000000E+00 0. -1.
        3    1    3    3  502    0 -0.17001121040E+02 -0.20569421427E+02  0.82112340097E+02  0.86339884240E+02  0.00000000000E+00 0. -1.
       -4    1    3    3    0  502 -0.49418220171E+02  0.10546214169E+03  0.12551685197E+03  0.17122763779E+03  0.00000000000E+00 0.  1.
</event>
<event>
 8   1  0.2279600E-02  0.2254206E+03  0.7546771E-02  0.1129915E+00
       -2   -1    0    0    0  501 -0.00000000000E+00  0.00000000000E+00  0.54817571582E+02  0.54817571582E+02  0.00000000000E+00 0.  1.
        2   -1    0    0  501    0  0.00000000000E+00 -0.00000000000E+00 -0.12864860761E+04  0.12864860761E+04  0.00000000000E+00 0. -1.
      -24    2    1    2    0    0 -0.61602408203E+02  0.20088370860E+03 -0.26124895212E+03  0.34505861233E+03  0.81641349066E+02 0.  0.
       24    2    1    2    0    0  0.61602408203E+02 -0.20088370860E+03 -0.97041955242E+03  0.99624503538E+03  0.81491973356E+02 0.  0.
      -13    1    4    4    0    0 -0.14227371209E+02 -0.22343846060E+02 -0.63322403221E+02  0.68639582589E+02  0.00000000000E+00 0.  1.
       14    1    4    4    0    0  0.75829779412E+02 -0.17853986254E+03 -0.90709714920E+03  0.92760545280E+03  0.00000000000E+00 0. -1.
        3    1    3    3  502    0 -0.26336961415E+02  0.15354109952E+03 -0.13682030912E+03  0.20733620467E+03  0.00000000000E+00 0. -1.
       -4    1    3    3    0  502 -0.35265446787E+02  0.47342609083E+02 -0.12442864300E+03  0.13772240766E+03  0.00000000000E+00 0.  1.
</event>
<event>
 8   1  0.2279600E-02  0.8665295E+02  0.7546771E-02  0.1312599E+00
        1   -1    0    0  501    0  0.00000000000E+00  0.00000000000E+00  0.27303439477E+04  0.27303439477E+04  0.00000000000E+00 0. -1.
       -1   -1    0    0    0  501 -0.00000000000E+00 -0.00000000000E+00 -0.16239255686E+02  0.16239255686E+02  0.00000000000E+00 0.  1.
       24    2    1    2    0    0  0.15499789163E+02 -0.17016504365E+02  0.99305282317E+02  0.13034837310E+03  0.81236410486E+02 0.  0.
      -24    2    1    2    0    0 -0.15499789163E+02  0.17016504365E+02  0.26147994097E+04  0.26162348303E+04  0.83539986638E+02 0.  0.
      -13    1    3    3    0    0  0.24574363956E+02 -0.99659647356E+01 -0.36371065793E+01  0.26766553032E+02  0.00000000000E+00 0.  1.
       14    1    3    3    0    0 -0.90745747933E+01 -0.70505396299E+01  0.10294238890E+03  0.10358182007E+03  0.00000000000E+00 0. -1.
        1    1    4    4  502    0 -0.24661753255E+02  0.64915188390E+01  0.25409889608E+04  0.25411169278E+04  0.00000000000E+00 0. -1.
       -2    1    4    4    0  502  0.91619640919E+01  0.10524985526E+02  0.73810448945E+02  0.75117902526E+02  0.00000000000E+00 0.  1.
</event>
<event>
 8   1  0.2279600E-02  0.8583594E+02  0.7546771E-02  0.1313354E+00
       -2   -1    0    0    0  501 -0.00000000000E+00  0.00000000000E+00  0.56818685428E+03  0.56818685428E+03  0.00000000000E+00 0.  1.
        2   -1    0    0  501    0  0.00000000000E+00 -0.00000000000E+00 -0.84268224430E+02  0.84268224430E+02  0.00000000000E+00 0. -1.
      -24    2    1    2    0    0  0.20780812563E+02 -0.20270804991E+02  0.54211575642E+03  0.54886911130E+03  0.80777845196E+02 0.  0.
       24    2    1    2    0    0 -0.20780812563E+02  0.20270804991E+02 -0.58197126570E+02  0.10358596741E+03  0.80625054403E+02 0.  0.
      -13    1    4    4    0    0 -0.10979717489E+01  0.40994760748E+02 -0.26234044229E+01  0.41093286574E+02  0.00000000000E+00 0.  1.
       14    1    4    4    0    0 -0.19682840814E+02 -0.20723955757E+02 -0.55573722147E+02  0.62492680835E+02  0.00000000000E+00 0. -1.
        3    1    3    3  502    0 -0.24946344051E+02 -0.29745856805E+02  0.22286361317E+03  0.22621964139E+03  0.00000000000E+00 0. -1.
       -4    1    3    3    0  502  0.45727156614E+02  0.94750518138E+01  0.31925214325E+03  0.32264946991E+03  0.00000000000E+00 0.  1.
</event>
<event>
 8   1  0.2279600E-02  0.9043652E+02  0.7546771E-02  0.1306244E+00
        2   -1    0    0  501    0  0.00000000000E+00  0.00000000000E+00  0.52509333051E+03  0.52509333051E+03  0.00000000000E+00 0. -1.
       -2   -1    0    0    0  501 -0.00000000000E+00 -0.00000000000E+00 -0.15868855135E+02  0.15868855135E+02  0.00000000000E+00 0.  1.
       24    2    1    2    0    0 -0.17050724596E+02 -0.13637691402E+02  0.32797189872E+03  0.33840044154E+03  0.80452337755E+02 0.  0.
      -24    2    1    2    0    0  0.17050724596E+02  0.13637691402E+02  0.18125257665E+03  0.20256174410E+03  0.87761322878E+02 0.  0.
      -13    1    3    3    0    0  0.20065306363E+02  0.22959607336E+02  0.10000135799E+03  0.10454679186E+03  0.00000000000E+00 0.  1.
       14    1    3    3    0    0 -0.37116030959E+02 -0.36597298738E+02  0.22797054073E+03  0.23385364968E+03  0.00000000000E+00 0. -1.
        3    1    4    4  502    0 -0.34912573544E+02 -0.40156733629E+01  0.80380693297E+02  0.87727243653E+02  0.00000000000E+00 0. -1.
       -4    1    4    4    0  502  0.51963298140E+02  0.17653364765E+02  0.10087188336E+03  0.11483450045E+03  0.00000000000E+00 0.  1.
</event>
<event>
 8   1  0.2279600E-02  0.9332433E+02  0.7546771E-02  0.1296040E+00
        3   -1    0    0  501    0  0.00000000000E+00  0.00000000000E+00  0.14836062877E+02  0.14836062877E+02  0.00000000000E+00 0. -1.
       -3   -1    0    0    0  501 -0.00000000000E+00 -0.00000000000E+00 -0.72788981526E+03  0.72788981526E+03  0.00000000000E+00 0.  1.
       24    2    1    2    0    0 -0.24845799172E+01 -0.48449547559E+02 -0.52352536207E+03  0.53146669950E+03  0.77617756721E+02 0.  0.
      -24    2    1    2    0    0  0.24845799172E+01  0.48449547559E+02 -0.18952839032E+03  0.21125917864E+03  0.79723886161E+02 0.  0.
      -13    1    3    3    0    0 -0.32471804251E+02 -0.14300966346E+02 -0.35998056900E+03  0.36172495873E+03  0.00000000000E+00 0.  1.
       14    1    3    3    0    0  0.29987224334E+02 -0.34148581213E+02 -0.16354479307E+03  0.16974174077E+03  0.00000000000E+00 0. -1.
        1    1    4    4  502    0  0.10116267481E+02  0.63533638056E+02 -0.18146147184E+03  0.19252825194E+03  0.00000000000E+00 0. -1.
       -2    1    4    4    0  502 -0.76316875642E+01 -0.15084090498E+02 -0.80669184832E+01  0.18730926700E+02  0.00000000000E+00 0.  1.
</event>
<event>
 8   1  0.2279600E-02  0.9866478E+02  0.7546771E-02  0.1283336E+00
       -2   -1    0    0    0  501 -0.00000000000E+00  0.00000000000E+00  0.44920795354E+01  0.44920795354E+01  0.00000000000E+00 0.  1.
        2   -1    0    0  501    0  0.00000000000E+00 -0.00000000000E+00 -0.21887304273E+04  0.21887304273E+04  0.00000000000E+00 0. -1.
      -24    2    1    2    0    0  0.35521686588E+02  0.45599384529E+02 -0.12228529554E+04  0.12268268375E+04  0.79960267721E+02 0.  0.
       24    2    1    2    0    0 -0.35521686588E+02 -0.45599384529E+02 -0.96138539232E+03  0.96639566937E+03  0.79483476969E+02 0.  0.
      -13    1    4    4    0    0  0.22362630132E+02 -0.58104775713E+01 -0.39436162147E+03  0.39503789358E+03  0.00000000000E+00 0.  1.
       14    1    4    4    0    0 -0.57884316719E+02 -0.39788906958E+02 -0.56702377085E+03  0.57135777578E+03  0.00000000000E+00 0. -1.
        3    1    3    3  502    0 -0.35357124310E+01 -0.71238322582E+01 -0.67668108788E+03  0.67672782190E+03  0.00000000000E+00 0. -1.
       -4    1    3    3    0  502  0.39057399019E+02  0.52723216787E+02 -0.54617186757E+03  0.55009901557E+03  0.00000000000E+00 0.  1.
</event>
<event>
 8   1  0.2279600E-02  0.1947996E+03  0.7546771E-02  0.1154300E+00
        2   -1    0    0  501    0  0.00000000000E+00  0.00000000000E+00  0.10695054381E+04  0.10695054381E+04  0.00000000000E+00 0. -1.
       -2   -1    0    0    0  501 -0.00000000000E+00 -0.00000000000E+00 -0.41440851404E+02  0.41440851404E+02  0.00000000000E+00 0.  1.
      -24    2    1    2    0    0  0.16591666037E+03 -0.60694283869E+02  0.30142857115E+03  0.35865193919E+03  0.80993183026E+02 0.  0.
       24    2    1    2    0    0 -0.16591666037E+03  0.60694283869E+02  0.72663601550E+03  0.75229435027E+03  0.82065560038E+02 0.  0.
      -13    1    4    4    0    0 -0.14657712874E+03  0.27352705861E+02  0.47883994011E+03  0.50151840787E+03  0.00000000000E+00 0.  1.
       14    1    4    4    0    0 -0.19339531624E+02  0.33341578008E+02  0.24779607539E+03  0.25077594240E+03  0.00000000000E+00 0. -1.
        1    1    3    3  502    0  0.80199538864E+02 -0.64018966534E+02  0.20724124194E+03  0.23125597608E+03  0.00000000000E+00 0. -1.
       -2    1    3    3    0  502  0.85717121503E+02  0.33246826652E+01  0.94187329207E+02  0.12739596311E+03  0.00000000000E+00 0.  1.
</event>
<event>
 8   1  0.2279600E-02  0.9073042E+02  0.7546771E-02  0.1301381E+00
        2   -1    0    0  501    0  0.00000000000E+00  0.00000000000E+00  0.23347159490E+04  0.23347159490E+04  0.00000000000E+00 0. -1.
       -2   -1    0    0    0  501 -0.00000000000E+00 -0.00000000000E+00 -0.15682212644E+02  0.15682212644E+02  0.00000000000E+00 0.  1.
      -24    2    1    2    0    0 -0.43001909725E+02 -0.10078594773E+02  0.12472710371E+03  0.15423637530E+03  0.79254443114E+02 0.  0.
       24    2    1    2    0    0  0.43001909725E+02  0.10078594773E+02  0.21943066327E+04  0.21961617864E+04  0.78703566677E+02 0.  0.
      -13    1    4    4    0    0  0.35809555300E+02  0.10682411404E+02  0.37837952061E+03  0.38022033058E+03  0.00000000000E+00 0.  1.
       14    1    4    4    0    0  0.71923544249E+01 -0.60381663033E+00  0.18159271121E+04  0.18159414558E+04  0.00000000000E+00 0. -1.
        3    1    3    3  502    0  0.23304554092E+02 -0.63755254578E+01  0.37422665332E+02  0.44544421052E+02  0.00000000000E+00 0. -1.
       -4    1    3    3    0  502 -0.66306463817E+02 -0.37030693155E+01  0.87304438376E+02  0.10969195425E+03  0.00000000000E+00 0.  1.
</event>
<event>
 8   1  0.2279600E-02  0.8605408E+02  0.7546771E-02  0.1312944E+00
        1   -1    0    0  501    0  0.00000000000E+00  0.00000000000E+00  0.13276400176E+04  0.13276400176E+04  0.00000000000E+00 0. -1.
       -1   -1    0    0    0  501 -0.00000000000E+00 -0.00000000000E+00 -0.70665043472E+01  0.70665043472E+01  0.00000000000E+00 0.  1.
       24    2    1    2    0    0  0.18424564826E+02  0.24858676878E+02  0.35260308082E+03  0.36295211336E+03  0.80298727190E+02 0.  0.
      -24    2    1    2    0    0 -0.18424564826E+02 -0.24858676878E+02  0.96797043245E+03  0.97175440859E+03  0.79890263027E+02 0.  0.
      -13    1    3    3    0    0 -0.87395009011E+01  0.31576841047E+02  0.54875364841E+02  0.63912294850E+02  0.00000000000E+00 0.  1.
       14    1    3    3    0    0  0.27164065727E+02 -0.67181641693E+01  0.29772771598E+03  0.29903981851E+03  0.00000000000E+00 0. -1.
        3    1    4    4  502    0  0.73558674836E+01 -0.49069671349E+02  0.50323239907E+03  0.50567261040E+03  0.00000000000E+00 0. -1.
       -4    1    4    4    0  502 -0.25780432309E+02  0.24210994472E+02  0.46473803338E+03  0.46608179820E+03  0.00000000000E+00 0.  1.
</event>
<event>
 8   1  0.2279600E-02  0.8801657E+02  0.7546771E-02  0.1309114E+00
       -1   -1    0    0    0  501 -0.00000000000E+00  0.00000000000E+00  0.32642509882E+02  0.32642509882E+02  0.00000000000E+00 0.  1.
        1   -1    0    0  501    0  0.00000000000E+00 -0.00000000000E+00 -0.37684699268E+03  0.37684699268E+03  0.00000000000E+00 0. -1.
       24    2    1    2    0    0 -0.22691211822E+02  0.20959491303E+02 -0.43598656171E+02  0.96263098305E+02  0.80072154371E+02 0.  0.
      -24    2    1    2    0    0  0.22691211822E+02 -0.20959491303E+02 -0.30060582663E+03  0.31322640426E+03  0.82417995322E+02 0.  0.
      -13    1    3    3    0    0  0.29666672167E+02  0.76700273240E+01 -0.83419728538E+01  0.31757349822E+02  0.00000000000E+00 0.  1.
       14    1    3    3    0    0 -0.52357883990E+02  0.13289463979E+02 -0.35256683318E+02  0.64505748483E+02  0.00000000000E+00 0. -1.
        1    1    4    4  502    0 -0.27377403819E+02  0.93005978168E+01 -0.82926655361E+02  0.87822853113E+02  0.00000000000E+00 0. -1.
       -2    1    4    4    0  502  0.50068615641E+02 -0.30260089120E+02 -0.21767917127E+03  0.22540355115E+03  0.00000000000E+00 0.  1.
</event>
<event>
 8   1  0.2279600E-02  0.1449457E+03  0.7546771E-02  0.1208700E+00
        2   -1    0    0  501    0  0.00000000000E+00  0.00000000000E+00  0.38122262622E+03  0.38122262622E+03  0.00000000000E+00 0. -1.
       -2   -1    0    0    0  501 -0.00000000000E+00 -0.00000000000E+00 -0.88763227809E+02  0.88763227809E+02  0.00000000000E+00 0.  1.
       24    2    1    2    0    0 -0.32656568544E+02 -0.10622048781E+03  0.29720768363E+03  0.33066850828E+03  0.93059183617E+02 0.  0.
      -24    2    1    2    0    0  0.32656568544E+02  0.10622048781E+03 -0.47482852243E+01  0.13931734575E+03  0.83890006044E+02 0.  0.
      -13    1    3    3    0    0  0.70647060071E+01  0.15427486943E+02  0.33638103297E+02  0.37675448475E+02  0.00000000000E+00 0.  1.
       14    1    3    3    0    0 -0.39721274552E+02 -0.12164797475E+03  0.26356958034E+03  0.29299305980E+03  0.00000000000E+00 0. -1.
        1    1    4    4  502    0  0.40448003732E+02  0.21503486774E+02 -0.24544537008E+02  0.51969945606E+02  0.00000000000E+00 0. -1.
       -2    1    4    4    0  502 -0.77914351878E+01  0.84717001038E+02  0.19796251784E+02  0.87347400144E+02  0.00000000000E+00 0.  1.
</event>
<event>
 8   1  0.2279600E-02  0.8900004E+02  0.7546771E-02  0.1305968E+00
       -4   -1    0    0    0  501 -0.00000000000E+00  0.00000000000E+00  0.12516568422E+03  0.12516568422E+03  0.00000000000E+00 0.  1.
        4   -1    0    0  501    0  0.00000000000E+00 -0.00000000000E+00 -0.78262762219E+02  0.78262762219E+02  0.00000000000E+00 0. -1.
       24    2    1    2    0    0  0.22561484927E+02  0.26100521695E+02  0.68970316465E+02  0.11173342330E+03  0.80852925079E+02 0.  0.
      -24    2    1    2    0    0 -0.22561484927E+02 -0.26100521695E+02 -0.22067394461E+02  0.91695023144E+02  0.82041145386E+02 0.  0.
      -13    1    3    3    0    0  0.16197588684E+02 -0.15408326754E+02  0.65944327729E+02  0.69630688436E+02  0.00000000000E+00 0.  1.
       14    1    3    3    0    0  0.63638962431E+01  0.41508848450E+02  0.30259887368E+01  0.42102734862E+02  0.00000000000E+00 0. -1.
        3    1    4    4  502    0  0.30797139758E+01 -0.40967542156E+02 -0.39763414540E+02  0.57174760903E+02  0.00000000000E+00 0. -1.
       -4    1    4    4    0  502 -0.25641198903E+02  0.14867020461E+02  0.17696020078E+02  0.34520262241E+02  0.00000000000E+00 0.  1.
</event>
<event>
 8   1  0.2279600E-02  0.9138633E+02  0.7546771E-02  0.1302293E+00
       -4   -1    0    0    0  501 -0.00000000000E+00  0.00000000000E+00  0.44958809514E+02  0.44958809514E+02  0.00000000000E+00 0.  1.
        4   -1    0    0  501    0  0.00000000000E+00 -0.00000000000E+00 -0.27524392327E+03  0.27524392327E+03  0.00000000000E+00 0. -1.
       24    2    1    2    0    0 -0.28866001702E+02 -0.95096454015E+01 -0.21282091468E+03  0.23161218306E+03  0.86184582181E+02 0.  0.
      -24    2    1    2    0    0  0.28866001702E+02  0.95096454015E+01 -0.17464199075E+02  0.88590549725E+02  0.81360972471E+02 0.  0.
      -13    1    3    3    0    0  0.16927167541E+02  0.49092740018E+01 -0.50032922453E+01  0.18321105465E+02  0.00000000000E+00 0.  1.
       14    1    3    3    0    0 -0.45793169243E+02 -0.14418919403E+02 -0.20781762244E+03  0.21329107760E+03  0.00000000000E+00 0. -1.
        1    1    4    4  502    0 -0.19656802311E+02 -0.18099052750E+02  0.70248398049E+01  0.27628137140E+02  0.00000000000E+00 0. -1.
       -2    1    4    4    0  502  0.48522804013E+02  0.27608698152E+02 -0.24489038880E+02  0.60962412585E+02  0.00000000000E+00 0.  1.
</event>
<event>
 8   1  0.2279600E-02  0.8434587E+02  0.7546771E-02  0.1318680E+00
        1   -1    0    0  501    0  0.00000000000E+00  0.00000000000E+00  0.74366762487E+02  0.74366762487E+02  0.00000000000E+00 0. -1.
       -1   -1    0    0    0  501 -0.00000000000E+00 -0.00000000000E+00 -0.13684383481E+03  0.13684383481E+03  0.00000000000E+00 0.  1.
       24    2    1    2    0    0  0.17155433644E+02 -0.25287864218E+01 -0.91235596762E+02  0.12425039141E+03  0.82544060861E+02 0.  0.
      -24    2    1    2    0    0 -0.17155433644E+02  0.25287864218E+01  0.28758524441E+02  0.86960205889E+02  0.80214219538E+02 0.  0.
      -13    1    3    3    0    0  0.88516244829E+01  0.37748462837E+02 -0.24509938174E+02  0.45869758794E+02  0.00000000000E+00 0.  1.
       14    1    3    3    0    0  0.83038091614E+01 -0.40277249259E+02 -0.66725658588E+02  0.78380632611E+02  0.00000000000E+00 0. -1.
        3    1    4    4  502    0 -0.31119334899E+02  0.15416316199E+02  0.48439773772E+02  0.59602747359E+02  0.00000000000E+00 0. -1.
       -4    1    4    4    0  502  0.13963901255E+02 -0.12887529777E+02 -0.19681249331E+02  0.27357458530E+02  0.00000000000E+00 0.  1.
</event>
<event>
 8   1  0.2279600E-02  0.8514133E+02  0.7546771E-02  0.1315661E+00
       -2   -1    0    0    0  501 -0.00000000000E+00  0.00000000000E+00  0.16024154549E+03  0.16024154549E+03  0.00000000000E+00 0.  1.
        2   -1    0    0  501    0  0.00000000000E+00 -0.00000000000E+00 -0.59692464514E+02  0.59692464514E+02  0.00000000000E+00 0. -1.
      -24    2    1    2    0    0  0.17722464340E+02 -0.18588846062E+02  0.10548613911E+03  0.13555947915E+03  0.81175217303E+02 0.  0.
       24    2    1    2    0    0 -0.17722464340E+02  0.18588846062E+02 -0.49370581335E+01  0.84374530849E+02  0.80218800620E+02 0.  0.
      -13    1    4    4    0    0  0.27991440153E+02  0.19719785993E+02 -0.15274587865E+02  0.37492715504E+02  0.00000000000E+00 0.  1.
       14    1    4    4    0    0 -0.45713904493E+02 -0.11309399312E+01  0.10337529731E+02  0.46881815345E+02  0.00000000000E+00 0. -1.
        1    1    3    3  502    0  0.12397710375E+02 -0.14667218642E+02 -0.87696361906E+01  0.21112485504E+02  0.00000000000E+00 0. -1.
       -2    1    3    3    0  502  0.53247539653E+01 -0.39216274201E+01  0.11425577530E+03  0.11444699365E+03  0.00000000000E+00 0.  1.
</event>
<event>
 8   1  0.2279600E-02  0.2560017E+03  0.7546771E-02  0.1109613E+00
       -1   -1    0    0    0  501 -0.00000000000E+00  0.00000000000E+00  0.13823302038E+03  0.13823302038E+03  0.00000000000E+00 0.  1.
        1   -1    0    0  501    0  0.00000000000E+00 -0.00000000000E+00 -0.58691006405E+03  0.58691006405E+03  0.00000000000E+00 0. -1.
       24    2    1    2    0    0 -0.20830011422E+03  0.12522510613E+03 -0.64918030059E+02  0.26383207186E+03  0.79515701125E+02 0.  0.
      -24    2    1    2    0    0  0.20830011422E+03 -0.12522510613E+03 -0.38375901362E+03  0.46131101257E+03  0.80415203768E+02 0.  0.
      -13    1    3    3    0    0 -0.79174580217E+02  0.72170493270E+02  0.59048874191E+01  0.10729427733E+03  0.00000000000E+00 0.  1.
       14    1    3    3    0    0 -0.12912553400E+03  0.53054612859E+02 -0.70822917478E+02  0.15653779453E+03  0.00000000000E+00 0. -1.
        3    1    4    4  502    0  0.18143969019E+03 -0.72872693728E+02 -0.27167675607E+03  0.33472234831E+03  0.00000000000E+00 0. -1.
       -4    1    4    4    0  502  0.26860424032E+02 -0.52352412401E+02 -0.11208225755E+03  0.12658866426E+03  0.00000000000E+00 0.  1.
</event>
<event>
 8   1  0.2279600E-02  0.1351646E+03  0.7546771E-02  0.1223018E+00
       -1   -1    0    0    0  501 -0.00000000000E+00  0.00000000000E+00  0.50529372446E+03  0.50529372446E+03  0.00000000000E+00 0.  1.
        1   -1    0    0  501    0  0.00000000000E+00 -0.00000000000E+00 -0.35081657293E+02  0.35081657293E+02  0.00000000000E+00 0. -1.
       24    2    1    2    0    0 -0.77587372062E+02 -0.75533669233E+02  0.19417938871E+03  0.23659057518E+03  0.80897031923E+02 0.  0.
      -24    2    1    2    0    0  0.77587372062E+02  0.75533669233E+02  0.27603267846E+03  0.30378480658E+03  0.66075968672E+02 0.  0.
      -13    1    3    3    0    0 -0.85162528610E+02 -0.42943365718E+02  0.17128214860E+03  0.19604683973E+03  0.00000000000E+00 0.  1.
       14    1    3    3    0    0  0.75751565481E+01 -0.32590303515E+02  0.22897240111E+02  0.40543735455E+02  0.00000000000E+00 0. -1.
        3    1    4    4  502    0  0.58414192002E+02  0.13297676900E+02  0.10680982060E+03  0.12246380614E+03  0.00000000000E+00 0. -1.
       -4    1    4    4    0  502  0.19173180060E+02  0.62235992333E+02  0.16922285786E+03  0.18132100043E+03  0.00000000000E+00 0.  1.
</event>
<event>
 8   1  0.2279600E-02  0.8326280E+02  0.7546771E-02  0.1320438E+00
        2   -1    0    0  501    0  0.00000000000E+00  0.00000000000E+00  0.10125136616E+04  0.10125136616E+04  0.00000000000E+00 0. -1.
       -2   -1    0    0    0  501 -0.00000000000E+00 -0.00000000000E+00 -0.37981377875E+02  0.37981377875E+02  0.00000000000E+00 0.  1.
      -24    2    1    2    0    0  0.62894485552E+01  0.16032497187E+02  0.11032074147E+02  0.83403861297E+02  0.80857277286E+02 0.  0.
       24    2    1    2    0    0 -0.62894485552E+01 -0.16032497187E+02  0.96350020954E+03  0.96709117813E+03  0.81462230033E+02 0.  0.
      -13    1    4    4    0    0  0.31495747304E+02 -0.27273823098E+02  0.38456013146E+03  0.38681046810E+03  0.00000000000E+00 0.  1.
       14    1    4    4    0    0 -0.37785195859E+02  0.11241325910E+02  0.57894007807E+03  0.58028071003E+03  0.00000000000E+00 0. -1.
        3    1    3    3  502    0  0.90998362724E+01  0.45633486015E+01  0.45679164109E+02  0.46799756456E+02  0.00000000000E+00 0. -1.
       -4    1    3    3    0  502 -0.28103877172E+01  0.11469148586E+02 -0.34647089962E+02  0.36604104841E+02  0.00000000000E+00 0.  1.
</event>
<event>
 8   1  0.2279600E-02  0.8645752E+02  0.7546771E-02  0.1312347E+00
       -1   -1    0    0    0  501 -0.00000000000E+00  0.00000000000E+00  0.34290657891E+02  0.34290657891E+02  0.00000000000E+00 0.  1.
        1   -1    0    0  501    0  0.00000000000E+00 -0.00000000000E+00 -0.37446673899E+03  0.37446673899E+03  0.00000000000E+00 0. -1.
       24    2    1    2    0    0  0.23419577817E+02 -0.86001631260E+01 -0.37455494565E+02  0.94222168186E+02  0.82779607837E+02 0.  0.
      -24    2    1    2    0    0 -0.23419577817E+02  0.86001631260E+01 -0.30272058654E+03  0.31453522870E+03  0.81671397365E+02 0.  0.
      -13    1    3    3    0    0  0.15899348993E+02 -0.45126939529E+02 -0.29114473991E+02  0.56007879494E+02  0.00000000000E+00 0.  1.
       14    1    3    3    0    0  0.75202288247E+01  0.36526776403E+02 -0.83410205736E+01  0.38214288691E+02  0.00000000000E+00 0. -1.
        3    1    4    4  502    0  0.26249964494E+02 -0.44134192256E+01 -0.17276919636E+03  0.17480770611E+03  0.00000000000E+00 0. -1.
       -4    1    4    4    0  502 -0.49669542311E+02  0.13013582352E+02 -0.12995139018E+03  0.13972752259E+03  0.00000000000E+00 0.  1.
</event>
<event>
 8   1  0.2279600E-02  0.8591923E+02  0.7546771E-02  0.1313402E+00
       -2   -1    0    0    0  501 -0.00000000000E+00  0.00000000000E+00  0.97308875620E+02  0.97308875620E+02  0.00000000000E+00 0.  1.
        2   -1    0    0  501    0  0.00000000000E+00 -0.00000000000E+00 -0.10831161857E+03  0.10831161857E+03  0.00000000000E+00 0. -1.
      -24    2    1    2    0    0 -0.39815517913E+00 -0.30239439201E+02  0.51202757709E+02  0.99546752554E+02  0.79832645806E+02 0.  0.
       24    2    1    2    0    0  0.39815517913E+00  0.30239439201E+02 -0.62205500657E+02  0.10607374163E+03  0.80420968294E+02 0.  0.
      -13    1    4    4    0    0 -0.27124940803E+02 -0.12186104820E+02 -0.57630838732E+01  0.30289877847E+02  0.00000000000E+00 0.  1.
       14    1    4    4    0    0  0.27523095983E+02  0.42425544021E+02 -0.56442416784E+02  0.75783863786E+02  0.00000000000E+00 0. -1.
        1    1    3    3  502    0 -0.72680731083E+01 -0.45507345073E+02  0.43135109284E+00  0.46086108602E+02  0.00000000000E+00 0. -1.
       -2    1    3    3    0  502  0.68699179292E+01  0.15267905872E+02  0.50771406616E+02  0.53460643953E+02  0.00000000000E+00 0.  1.
</event>
<event>
 8   1  0.2279600E-02  0.8310027E+02  0.7546771E-02  0.1320736E+00
       -4   -1    0    0    0  501 -0.00000000000E+00  0.00000000000E+00  0.78357996307E+02  0.78357996307E+02  0.00000000000E+00 0.  1.
        4   -1    0    0  501    0  0.00000000000E+00 -0.00000000000E+00 -0.20774697686E+03  0.20774697686E+03  0.00000000000E+00 0. -1.
      -24    2    1    2    0    0 -0.18226944846E+02  0.16859281721E+01  0.44102108736E+02  0.93738621873E+02  0.80665168218E+02 0.  0.
       24    2    1    2    0    0  0.18226944846E+02 -0.16859281721E+01 -0.17349108929E+03  0.19236635129E+03  0.81059183165E+02 0.  0.
      -13    1    4    4    0    0 -0.24055840069E+02  0.22360051022E+02 -0.89102351605E+02  0.94962542008E+02  0.00000000000E+00 0.  1.
       14    1    4    4    0    0  0.42282784915E+02 -0.24045979194E+02 -0.84388737684E+02  0.97403809286E+02  0.00000000000E+00 0. -1.
        3    1    3    3  502    0 -0.54286960592E+01  0.40800676133E+02  0.17446116365E+02  0.44704953753E+02  0.00000000000E+00 0. -1.
       -4    1    3    3    0  502 -0.12798248786E+02 -0.39114747961E+02  0.26655992371E+02  0.49033668120E+02  0.00000000000E+00 0.  1.
</event>
<event>
 8   1  0.2279600E-02  0.1620086E+03  0.7546771E-02  0.1187339E+00
        1   -1    0    0  501    0  0.00000000000E+00  0.00000000000E+00  0.25451901122E+04  0.25451901122E+04  0.00000000000E+00 0. -1.
       -1   -1    0    0    0  501 -0.00000000000E+00 -0.00000000000E+00 -0.28168782310E+02  0.28168782310E+02  0.00000000000E+00 0.  1.
       24    2    1    2    0    0 -0.77988853938E+02  0.11325319111E+03  0.22931541353E+04  0.22988698667E+04  0.85663465010E+02 0.  0.
      -24    2    1    2    0    0  0.77988853938E+02 -0.11325319111E+03  0.22386719457E+03  0.27448902777E+03  0.79493137608E+02 0.  0.
      -13    1    3    3    0    0 -0.69193955545E+02  0.78328887976E+02  0.10487902364E+04  0.10539849041E+04  0.00000000000E+00 0.  1.
       14    1    3    3    0    0 -0.87948983928E+01  0.34924303133E+02  0.12443638989E+04  0.12448849626E+04  0.00000000000E+00 0. -1.
        3    1    4    4  502    0  0.87179960104E+02 -0.75319360513E+02  0.19281214173E+03  0.22461049288E+03  0.00000000000E+00 0. -1.
       -4    1    4    4    0  502 -0.91911061657E+01 -0.37933830597E+02  0.31055052841E+02  0.49878534895E+02  0.00000000000E+00 0.  1.
</event>
<event>
 8   1  0.2279600E-02  0.8702963E+02  0.7546771E-02  0.1312403E+00
        2   -1    0    0  501    0  0.00000000000E+00  0.00000000000E+00  0.50954235802E+03  0.50954235802E+03  0.00000000000E+00 0. -1.
       -2   -1    0    0    0  501 -0.00000000000E+00 -0.00000000000E+00 -0.14473015959E+02  0.14473015959E+02  0.00000000000E+00 0.  1.
      -24    2    1    2    0    0 -0.22341561917E+02  0.13360849093E+02  0.21331123716E+03  0.22912253696E+03  0.79484560539E+02 0.  0.
       24    2    1    2    0    0  0.22341561917E+02 -0.13360849093E+02  0.28175810490E+03  0.29489283703E+03  0.83045156235E+02 0.  0.
      -13    1    4    4    0    0  0.31262811615E+02  0.26388950058E+02  0.19217709265E+03  0.19648352352E+03  0.00000000000E+00 0.  1.
       14    1    4    4    0    0 -0.89212496977E+01 -0.39749799151E+02  0.89581012248E+02  0.98409313503E+02  0.00000000000E+00 0. -1.
        3    1    3    3  502    0 -0.50395723691E+02  0.20850376405E+02  0.13490131927E+03  0.14550887637E+03  0.00000000000E+00 0. -1.
       -4    1    3    3    0  502  0.28054161774E+02 -0.74895273121E+01  0.78409917896E+02  0.83613660586E+02  0.00000000000E+00 0.  1.
</event>
<event>
 8   1  0.2279600E-02  0.1005821E+03  0.7546771E-02  0.1280066E+00
       -1   -1    0    0    0  501 -0.00000000000E+00  0.00000000000E+00  0.13807903159E+03  0.13807903159E+03  0.00000000000E+00 0.  1.
        1   -1    0    0  501    0  0.00000000000E+00 -0.00000000000E+00 -0.23422744321E+03  0.23422744321E+03  0.00000000000E+00 0. -1.
       24    2    1    2    0    0  0.56838304405E+02  0.17653749240E+02  0.10675127298E+03  0.14667174047E+03  0.81083398186E+02 0.  0.
      -24    2    1    2    0    0 -0.56838304405E+02 -0.17653749240E+02 -0.20289968460E+03  0.22563473433E+03  0.78743276641E+02 0.  0.
      -13    1    3    3    0    0  0.17761474392E+02  0.11902045171E+02  0.10497902637E+03  0.10713414316E+03  0.00000000000E+00 0.  1.
       14    1    3    3    0    0  0.39076830013E+02  0.57517040687E+01  0.17722466053E+01  0.39537597316E+02  0.00000000000E+00 0. -1.
        1    1    4    4  502    0 -0.33147300111E+02 -0.93178122139E+01 -0.19680060756E+03  0.19979000041E+03  0.00000000000E+00 0. -1.
       -2    1    4    4    0  502 -0.23691004293E+02 -0.83359370256E+01 -0.60990770390E+01  0.25844733917E+02  0.00000000000E+00 0.  1.
</event>
<event>
 8   1  0.2279600E-02  0.9276634E+02  0.7546771E-02  0.1297192E+00
        2   -1    0    0  501    0  0.00000000000E+00  0.00000000000E+00  0.10342491874E+04  0.10342491874E+04  0.00000000000E+00 0. -1.
       -2   -1    0    0    0  501 -0.00000000000E+00 -0.00000000000E+00 -0.28536371914E+02  0.28536371914E+02  0.00000000000E+00 0.  1.
      -24    2    1    2    0    0  0.31461738334E+02 -0.28761922021E+02  0.55287244537E+02  0.10799200625E+03  0.82392383550E+02 0.  0.
       24    2    1    2    0    0 -0.31461738334E+02  0.28761922021E+02  0.95042557098E+03  0.95479355310E+03  0.80652798667E+02 0.  0.
      -13    1    4    4    0    0 -0.14372902088E+02  0.12008364803E+01  0.25473884930E+02  0.29273556944E+02  0.00000000000E+00 0.  1.
       14    1    4    4    0    0 -0.17088836246E+02  0.27561085541E+02  0.92495168605E+03  0.92551999616E+03  0.00000000000E+00 0. -1.
        1    1    3    3  502    0  0.54021082790E+02 -0.25298841909E+01  0.48691783755E+02  0.72770650025E+02  0.00000000000E+00 0. -1.
       -2    1    3    3    0  502 -0.22559344456E+02 -0.26232037831E+02  0.65954607824E+01  0.35221356220E+02  0.00000000000E+00 0.  1.
</event>
<event>
 8   1  0.2279600E-02  0.9263596E+02  0.7546771E-02  0.1297400E+00
        1   -1    0    0  501    0  0.00000000000E+00  0.00000000000E+00  0.21216781391E+03  0.21216781391E+03  0.00000000000E+00 0. -1.
       -1   -1    0    0    0  501 -0.00000000000E+00 -0.00000000000E+00 -0.41833245805E+02  0.41833245805E+02  0.00000000000E+00 0.  1.
       24    2    1    2    0    0 -0.16456144107E+02 -0.40177859156E+02  0.56889149443E+02  0.10753849235E+03  0.80268841821E+02 0.  0.
      -24    2    1    2    0    0  0.16456144107E+02  0.40177859156E+02  0.11344541866E+03  0.14646256737E+03  0.81831262843E+02 0.  0.
      -13    1    3    3    0    0 -0.25722944765E+02 -0.44747782571E+02  0.19657881999E+01  0.51651701382E+02  0.00000000000E+00 0.  1.
       14    1    3    3    0    0  0.92668006577E+01  0.45699234149E+01  0.54923361243E+02  0.55886790968E+02  0.00000000000E+00 0. -1.
        1    1    4    4  502    0  0.44590370871E+02  0.43460106424E+02  0.62809596636E+02  0.88442791987E+02  0.00000000000E+00 0. -1.
       -2    1    4    4    0  502 -0.28134226763E+02 -0.32822472686E+01  0.50635822027E+02  0.58019775379E+02  0.00000000000E+00 0.  1.
</event>
<event>
 8   1  0.2279600E-02  0.1017750E+03  0.7546771E-02  0.1279897E+00
       -2   -1    0    0    0  501 -0.00000000000E+00  0.00000000000E+00  0.47619063191E+02  0.47619063191E+02  0.00000000000E+00 0.  1.
        2   -1    0    0  501    0  0.00000000000E+00 -0.00000000000E+00 -0.20455693253E+03  0.20455693253E+03  0.00000000000E+00 0. -1.
      -24    2    1    2    0    0  0.52470097427E+02 -0.67411704902E+01 -0.73652316234E+02  0.12066695567E+03  0.79607135367E+02 0.  0.
       24    2    1    2    0    0 -0.52470097427E+02  0.67411704902E+01 -0.83285553107E+02  0.13150904005E+03  0.86945901312E+02 0.  0.
      -13    1    4    4    0    0  0.15772591600E+02  0.14199120038E+02 -0.51810240367E+02  0.55988308266E+02  0.00000000000E+00 0.  1.
       14    1    4    4    0    0 -0.68242689027E+02 -0.74579495481E+01 -0.31475312740E+02  0.75520731784E+02  0.00000000000E+00 0. -1.
        1    1    3    3  502    0 -0.15797042791E+02 -0.20086589005E+02 -0.25248762017E+02  0.35923774888E+02  0.00000000000E+00 0. -1.
       -2    1    3    3    0  502  0.68267140217E+02  0.13345418515E+02 -0.48403554216E+02  0.84743180785E+02  0.00000000000E+00 0.  1.
</event>
<event>
 8   1  0.2279600E-02  0.9662053E+02  0.7546771E-02  0.1288830E+00
       -1   -1    0    0    0  501 -0.00000000000E+00  0.00000000000E+00  0.54005018704E+01  0.54005018704E+01  0.00000000000E+00 0.  1.
        1   -1    0    0  501    0  0.00000000000E+00 -0.00000000000E+00 -0.27743703913E+04  0.27743703913E+04  0.00000000000E+00 0. -1.
       24    2    1    2    0    0 -0.68126506543E+01 -0.49259870108E+02 -0.52492688905E+03  0.53374503748E+03  0.82840685503E+02 0.  0.
      -24    2    1    2    0    0  0.68126506543E+01  0.49259870108E+02 -0.22440430003E+04  0.22460258556E+04  0.80188589379E+02 0.  0.
      -13    1    3    3    0    0 -0.35226352895E+02 -0.10784084616E+02 -0.36402923246E+03  0.36588860942E+03  0.00000000000E+00 0.  1.
       14    1    3    3    0    0  0.28413702241E+02 -0.38475785491E+02 -0.16089765659E+03  0.16785642806E+03  0.00000000000E+00 0. -1.
        3    1    4    4  502    0 -0.86373007190E+01  0.47819689262E+02 -0.21609588332E+04  0.21615051248E+04  0.00000000000E+00 0. -1.
       -4    1    4    4    0  502  0.15449951373E+02  0.14401808451E+01 -0.83084167092E+02  0.84520730828E+02  0.00000000000E+00 0.  1.
</event>
<event>
 8   1  0.2279600E-02  0.9487135E+02  0.7546771E-02  0.1295831E+00
       -1   -1    0    0    0  501 -0.00000000000E+00  0.00000000000E+00  0.93145019200E+02  0.93145019200E+02  0.00000000000E+00 0.  1.
        1   -1    0    0  501    0  0.00000000000E+00 -0.00000000000E+00 -0.34822504955E+03  0.34822504955E+03  0.00000000000E+00 0. -1.
       24    2    1    2    0    0  0.12548862204E+02 -0.33833870305E+02  0.61412800952E+02  0.11301373979E+03  0.87740347260E+02 0.  0.
      -24    2    1    2    0    0 -0.12548862204E+02  0.33833870305E+02 -0.31649283130E+03  0.32835632897E+03  0.79674097313E+02 0.  0.
      -13    1    3    3    0    0  0.27378633491E+02  0.54553343235E+01  0.65123883903E+02  0.70855278555E+02  0.00000000000E+00 0.  1.
       14    1    3    3    0    0 -0.14829771287E+02 -0.39289204628E+02 -0.37110829512E+01  0.42158461232E+02  0.00000000000E+00 0. -1.
        3    1    4    4  502    0 -0.44207186416E+02  0.26947237845E+02 -0.23550036517E+03  0.24112414013E+03  0.00000000000E+00 0. -1.
       -4    1    4    4    0  502  0.31658324213E+02  0.68866324599E+01 -0.80992466134E+02  0.87232188836E+02  0.00000000000E+00 0.  1.
</event>
<event>
 8   1  0.2279600E-02  0.8948630E+02  0.7546771E-02  0.1304476E+00
       -1   -1    0    0    0  501 -0.00000000000E+00  0.00000000000E+00  0.43895059418E+02  0.43895059418E+02  0.00000000000E+00 0.  1.
        1   -1    0    0  501    0  0.00000000000E+00 -0.00000000000E+00 -0.18197393365E+03  0.18197393365E+03  0.00000000000E+00 0. -1.
       24    2    1    2    0    0 -0.35635986132E+02 -0.15032022895E+02 -0.76253926153E+02  0.11710263237E+03  0.80015498706E+02 0.  0.
      -24    2    1    2    0    0  0.35635986132E+02  0.15032022895E+02 -0.61824948080E+02  0.10876636070E+03  0.80696417489E+02 0.  0.
      -13    1    3    3    0    0 -0.36089054881E+02 -0.42789658799E+02 -0.68131371894E+02  0.88177426921E+02  0.00000000000E+00 0.  1.
       14    1    3    3    0    0  0.45306874875E+00  0.27757635904E+02 -0.81225542594E+01  0.28925205444E+02  0.00000000000E+00 0. -1.
        3    1    4    4  502    0  0.33560011329E+02  0.40776735912E+02 -0.63848184891E+02  0.82858960083E+02  0.00000000000E+00 0. -1.
       -4    1    4    4    0  502  0.20759748037E+01 -0.25744713017E+02  0.20232368110E+01  0.25907400620E+02  0.00000000000E+00 0.  1.
</event>
<event>
 8   1  0.2279600E-02  0.1006314E+03  0.7546771E-02  0.1279230E+00
        1   -1    0    0  501    0  0.00000000000E+00  0.00000000000E+00  0.10161543255E+04  0.10161543255E+04  0.00000000000E+00 0. -1.
       -1   -1    0    0    0  501 -0.00000000000E+00 -0.00000000000E+00 -0.13490961749E+02  0.13490961749E+02  0.00000000000E+00 0.  1.
       24    2    1    2    0    0 -0.18680491405E+02  0.56481948931E+02  0.23546497447E+03  0.25587526922E+03  0.80555743950E+02 0.  0.
      -24    2    1    2    0    0  0.18680491405E+02 -0.56481948931E+02  0.76719838930E+03  0.77377001805E+03  0.81163421366E+02 0.  0.
      -13    1    3    3    0    0 -0.18919620138E+02  0.77030284432E+02  0.19427396083E+03  0.20984277115E+03  0.00000000000E+00 0.  1.
       14    1    3    3    0    0  0.23912873290E+00 -0.20548335501E+02  0.41191013641E+02  0.46032498077E+02  0.00000000000E+00 0. -1.
        3    1    4    4  502    0 -0.10478827047E+02 -0.20633023506E+02  0.59586713654E+03  0.59631633541E+03  0.00000000000E+00 0. -1.
       -4    1    4    4    0  502  0.29159318452E+02 -0.35848925425E+02  0.17133125276E+03  0.17745368263E+03  0.00000000000E+00 0.  1.
</event>
<event>
 8   1  0.2279600E-02  0.8818699E+02  0.7546771E-02  0.1308500E+00
        2   -1    0    0  501    0  0.00000000000E+00  0.00000000000E+00  0.17336579551E+04  0.17336579551E+04  0.00000000000E+00 0. -1.
       -2   -1    0    0    0  501 -0.00000000000E+00 -0.00000000000E+00 -0.46362517663E+01  0.46362517663E+01  0.00000000000E+00 0.  1.
      -24    2    1    2    0    0 -0.30670281158E+02  0.16450071819E+02  0.65513450381E+03  0.66079215968E+03  0.78954348845E+02 0.  0.
       24    2    1    2    0    0  0.30670281158E+02 -0.16450071819E+02  0.10738871996E+04  0.10775020472E+04  0.81028842910E+02 0.  0.
      -13    1    4    4    0    0 -0.25044546817E+02  0.38101017216E+01  0.19854865411E+03  0.20015822304E+03  0.00000000000E+00 0.  1.
       14    1    4    4    0    0  0.55714827975E+02 -0.20260173540E+02  0.87533854545E+03  0.87734382418E+03  0.00000000000E+00 0. -1.
        1    1    3    3  502    0  0.55839236893E+00  0.27753586984E+02  0.54625963169E+03  0.54696449483E+03  0.00000000000E+00 0. -1.
       -2    1    3    3    0  502 -0.31228673527E+02 -0.11303515166E+02  0.10887487212E+03  0.11382766485E+03  0.00000000000E+00 0.  1.
</event>
<event>
 8   1  0.2279600E-02  0.9904355E+02  0.7546771E-02  0.1282544E+00
        2   -1    0    0  501    0  0.00000000000E+00  0.00000000000E+00  0.15191741269E+03  0.15191741269E+03  0.00000000000E+00 0. -1.
       -2   -1    0    0    0  501 -0.00000000000E+00 -0.00000000000E+00 -0.78309213706E+02  0.78309213706E+02  0.00000000000E+00 0.  1.
      -24    2    1    2    0    0 -0.71160237597E+01  0.58063978322E+02 -0.11949958154E+02  0.99345679744E+02  0.79402136062E+02 0.  0.
       24    2    1    2    0    0  0.71160237597E+01 -0.58063978322E+02  0.85558157140E+02  0.13088094665E+03  0.79922215756E+02 0.  0.
      -13    1    4    4    0    0 -0.33001145345E+01  0.11384194091E+02 -0.77036110049E+01  0.14136345127E+02  0.00000000000E+00 0.  1.
       14    1    4    4    0    0  0.10416138294E+02 -0.69448172412E+02  0.93261768145E+02  0.11674460153E+03  0.00000000000E+00 0. -1.
        1    1    3    3  502    0 -0.10411320602E+02  0.28616228588E+02  0.33384427716E+02  0.45186327016E+02  0.00000000000E+00 0. -1.
       -2    1    3    3    0  502  0.32952968421E+01  0.29447749734E+02 -0.45334385870E+02  0.54159352728E+02  0.00000000000E+00 0.  1.
</event>
<event>
 8   1  0.2279600E-02  0.8869571E+02  0.7546771E-02  0.1307548E+00
        2   -1    0    0  501    0  0.00000000000E+00  0.00000000000E+00  0.25567331519E+04  0.25567331519E+04  0.00000000000E+00 0. -1.
       -2   -1    0    0    0  501 -0.00000000000E+00 -0.00000000000E+00 -0.37408859139E+01  0.37408859139E+01  0.00000000000E+00 0.  1.
      -24    2    1    2    0    0 -0.15842862504E+02  0.27280664429E+02  0.69048584340E+03  0.69585689124E+03  0.80317384164E+02 0.  0.
       24    2    1    2    0    0  0.15842862504E+02 -0.27280664429E+02  0.18625064226E+04  0.18646171466E+04  0.82895706759E+02 0.  0.
      -13    1    4    4    0    0  0.44717770422E+02 -0.49026022057E+01  0.64707759343E+03  0.64863944254E+03  0.00000000000E+00 0.  1.
       14    1    4    4    0    0 -0.28874907918E+02 -0.22378062224E+02  0.12154288292E+04  0.12159777040E+04  0.00000000000E+00 0. -1.
        3    1    3    3  502    0 -0.39717739645E+02 -0.53485308497E+01  0.46914965390E+03  0.47085826251E+03  0.00000000000E+00 0. -1.
       -4    1    3    3    0  502  0.23874877142E+02  0.32629195279E+02  0.22133618951E+03  0.22499862873E+03  0.00000000000E+00 0.  1.
</event>
<event>
 8   1  0.2279600E-02  0.8990808E+02  0.7546771E-02  0.1303591E+00
       -2   -1    0    0    0  501 -0.00000000000E+00  0.00000000000E+00  0.43495945106E+03  0.43495945106E+03  0.00000000000E+00 0.  1.
        2   -1    0    0  501    0  0.00000000000E+00 -0.00000000000E+00 -0.35631040874E+02  0.35631040874E+02  0.00000000000E+00 0. -1.
      -24    2    1    2    0    0  0.18958077076E+02 -0.32055347288E+02  0.36275575808E+03  0.37352854611E+03  0.80900437319E+02 0.  0.
       24    2    1    2    0    0 -0.18958077076E+02  0.32055347288E+02  0.36572652108E+02  0.97061945830E+02  0.81832197025E+02 0.  0.
      -13    1    4    4    0    0  0.11597585206E+02 -0.22494793267E+02  0.20327295990E+02  0.32461033085E+02  0.00000000000E+00 0.  1.
       14    1    4    4    0    0 -0.30555662282E+02  0.54550140555E+02  0.16245356118E+02  0.64600912745E+02  0.00000000000E+00 0. -1.
        3    1    3    3  502    0  0.63643865329E+01 -0.84233448295E+01  0.80440000527E+00  0.10587974945E+02  0.00000000000E+00 0. -1.
       -4    1    3    3    0  502  0.12593690544E+02 -0.23632002459E+02  0.36195135808E+03  0.36294057116E+03  0.00000000000E+00 0.  1.
</event>
<event>
 8   1  0.2279600E-02  0.1052199E+03  0.7546771E-02  0.1270373E+00
       -2   -1    0    0    0  501 -0.00000000000E+00  0.00000000000E+00  0.82039899947E+03  0.82039899947E+03  0.00000000000E+00 0.  1.
        2   -1    0    0  501    0  0.00000000000E+00 -0.00000000000E+00 -0.18777612868E+02  0.18777612868E+02  0.00000000000E+00 0. -1.
      -24    2    1    2    0    0  0.66587702057E+02  0.59069391416E+01  0.62517728427E+03  0.63374109285E+03  0.79450122738E+02 0.  0.
       24    2    1    2    0    0 -0.66587702057E+02 -0.59069391416E+01  0.17644410234E+03  0.20543551949E+03  0.81255260905E+02 0.  0.
      -13    1    4    4    0    0 -0.44624252834E+02  0.32488183981E+02  0.13032745108E+03  0.14153462667E+03  0.00000000000E+00 0.  1.
       14    1    4    4    0    0 -0.21963449223E+02 -0.38395123123E+02  0.46116651254E+02  0.63900892828E+02  0.00000000000E+00 0. -1.
        3    1    3    3  502    0 -0.12671106293E+01 -0.98501854205E+01  0.82997646890E+01  0.12942867382E+02  0.00000000000E+00 0. -1.
       -4    1    3    3    0  502  0.67854812686E+02  0.15757124562E+02  0.61687751958E+03  0.62079822547E+03  0.00000000000E+00 0.  1.
</event>
<event>
 8   1  0.2279600E-02  0.9147722E+02  0.7546771E-02  0.1299733E+00
        2   -1    0    0  501    0  0.00000000000E+00  0.00000000000E+00  0.22857156532E+02  0.22857156532E+02  0.00000000000E+00 0. -1.
       -2   -1    0    0    0  501 -0.00000000000E+00 -0.00000000000E+00 -0.37609819861E+03  0.37609819861E+03  0.00000000000E+00 0.  1.
       24    2    1    2    0    0  0.14745837057E+02  0.41513944484E+02 -0.13914526719E+03  0.16613550566E+03  0.79364687113E+02 0.  0.
      -24    2    1    2    0    0 -0.14745837057E+02 -0.41513944484E+02 -0.21409577488E+03  0.23281984949E+03  0.80170033016E+02 0.  0.
      -13    1    3    3    0    0 -0.31975497992E+02  0.15239994687E+02 -0.40010108109E+02  0.53436866121E+02  0.00000000000E+00 0.  1.
       14    1    3    3    0    0  0.46721335049E+02  0.26273949797E+02 -0.99135159083E+02  0.11269863954E+03  0.00000000000E+00 0. -1.
        3    1    4    4  502    0 -0.10746106415E+02 -0.39186931293E+02 -0.34899091892E+02  0.53563429708E+02  0.00000000000E+00 0. -1.
       -4    1    4    4    0  502 -0.39997306424E+01 -0.23270131905E+01 -0.17919668299E+03  0.17925641978E+03  0.00000000000E+00 0.  1.
</event>
<event>
 8   1  0.2279600E-02  0.1137584E+03  0.7546771E-02  0.1255428E+00
        1   -1    0    0  501    0  0.00000000000E+00  0.00000000000E+00  0.18096727904E+03  0.18096727904E+03  0.00000000000E+00 0. -1.
       -1   -1    0    0    0  501 -0.00000000000E+00 -0.00000000000E+00 -0.90736842733E+02  0.90736842733E+02  0.00000000000E+00 0.  1.
       24    2    1    2    0    0  0.75668092042E+02 -0.14583609808E+02 -0.21619804100E+02  0.11216902248E+03  0.78588369668E+02 0.  0.
      -24    2    1    2    0    0 -0.75668092042E+02  0.14583609808E+02  0.11185024040E+03  0.15953509929E+03  0.83681717226E+02 0.  0.
      -13    1    3    3    0    0  0.37030885930E+01 -0.18905604159E+02 -0.33942749666E+02  0.39028771293E+02  0.00000000000E+00 0.  1.
       14    1    3    3    0    0  0.71965003449E+02  0.43219943514E+01  0.12322945566E+02  0.73140251189E+02  0.00000000000E+00 0. -1.
        3    1    4    4  502    0 -0.78086923685E+02  0.27333930785E+02  0.50719856342E+02  0.97042337410E+02  0.00000000000E+00 0. -1.
       -4    1    4    4    0  502  0.24188316424E+01 -0.12750320977E+02  0.61130384060E+02  0.62492761876E+02  0.00000000000E+00 0.  1.
</event>
<event>
 8   1  0.2279600E-02  0.8819783E+02  0.7546771E-02  0.1319842E+00
        2   -1    0    0  501    0  0.00000000000E+00  0.00000000000E+00  0.30568139704E+02  0.30568139704E+02  0.00000000000E+00 0. -1.
       -2   -1    0    0    0  501 -0.00000000000E+00 -0.00000000000E+00 -0.23154740360E+03  0.23154740360E+03  0.00000000000E+00 0.  1.
      -24    2    1    2    0    0 -0.37058293219E+02 -0.13878360670E+02 -0.66814781534E+02  0.11064841757E+03  0.78822149733E+02 0.  0.
       24    2    1    2    0    0  0.37058293219E+02  0.13878360670E+02 -0.13416448236E+03  0.15146712573E+03  0.58105557899E+02 0.  0.
      -13    1    4    4    0    0  0.24107388466E+02  0.11194731851E+02 -0.13010331400E+02  0.29593190484E+02  0.00000000000E+00 0.  1.
       14    1    4    4    0    0  0.12950904753E+02  0.26836288186E+01 -0.12115415096E+03  0.12187393524E+03  0.00000000000E+00 0. -1.
        1    1    3    3  502    0 -0.45009228122E+02 -0.38133000649E+02 -0.60190113481E+02  0.84278147319E+02  0.00000000000E+00 0. -1.
       -2    1    3    3    0  502  0.79509349035E+01  0.24254639979E+02 -0.66246680528E+01  0.26370270252E+02  0.00000000000E+00 0.  1.
</event>
<event>
 8   1  0.2279600E-02  0.1195931E+03  0.7546771E-02  0.1244193E+00
       -2   -1    0    0    0  501 -0.00000000000E+00  0.00000000000E+00  0.89185698515E+01  0.89185698515E+01  0.00000000000E+00 0.  1.
        2   -1    0    0  501    0  0.00000000000E+00 -0.00000000000E+00 -0.17274110048E+04  0.17274110048E+04  0.00000000000E+00 0. -1.
      -24    2    1    2    0    0  0.70473579120E+02  0.54332179119E+02 -0.11006663642E+04  0.11070350710E+04  0.78368949242E+02 0.  0.
       24    2    1    2    0    0 -0.70473579120E+02 -0.54332179119E+02 -0.61782607080E+03  0.62929450366E+03  0.79899984538E+02 0.  0.
      -13    1    4    4    0    0  0.45907654897E+01  0.14479067721E+02 -0.45186341617E+02  0.47670997457E+02  0.00000000000E+00 0.  1.
       14    1    4    4    0    0 -0.75064344610E+02 -0.68811246840E+02 -0.57263972919E+03  0.58162350620E+03  0.00000000000E+00 0. -1.
        3    1    3    3  502    0  0.47667462392E+02  0.44313489244E+02 -0.10309482007E+04  0.10330005154E+04  0.00000000000E+00 0. -1.
       -4    1    3    3    0  502  0.22806116729E+02  0.10018689875E+02 -0.69718163460E+02  0.74034555603E+02  0.00000000000E+00 0.  1.
</event>
<event>
 8   1  0.2279600E-02  0.8670799E+02  0.7546771E-02  0.1311758E+00
        1   -1    0    0  501    0  0.00000000000E+00  0.00000000000E+00  0.15096124624E+03  0.15096124624E+03  0.00000000000E+00 0. -1.
       -1   -1    0    0    0  501 -0.00000000000E+00 -0.00000000000E+00 -0.62908000304E+02  0.62908000304E+02  0.00000000000E+00 0.  1.
       24    2    1    2    0    0  0.79921208358E+00  0.33418965437E+02 -0.57549930098E+01  0.86898761968E+02  0.80005055442E+02 0.  0.
      -24    2    1    2    0    0 -0.79921208358E+00 -0.33418965437E+02  0.93808238943E+02  0.12697048457E+03  0.78765806466E+02 0.  0.
      -13    1    3    3    0    0  0.74514233135E+01  0.46226127924E+02 -0.32162550080E+02  0.56805001891E+02  0.00000000000E+00 0.  1.
       14    1    3    3    0    0 -0.66522112299E+01 -0.12807162486E+02  0.26407557070E+02  0.30093760077E+02  0.00000000000E+00 0. -1.
        3    1    4    4  502    0  0.16748568623E+02 -0.97382269286E+01  0.95502760825E+02  0.97448062782E+02  0.00000000000E+00 0. -1.
       -4    1    4    4    0  502 -0.17547780706E+02 -0.23680738509E+02 -0.16945218820E+01  0.29522421792E+02  0.00000000000E+00 0.  1.
</event>
<event>
 8   1  0.2279600E-02  0.8211126E+02  0.7546771E-02  0.1324254E+00
       -2   -1    0    0    0  501 -0.00000000000E+00  0.00000000000E+00  0.54493271502E+02  0.54493271502E+02  0.00000000000E+00 0.  1.
        2   -1    0    0  501    0  0.00000000000E+00 -0.00000000000E+00 -0.14365658215E+03  0.14365658215E+03  0.00000000000E+00 0. -1.
      -24    2    1    2    0    0 -0.80247788973E+01 -0.47959717631E+01 -0.83242056009E+02  0.11582537642E+03  0.79992996654E+02 0.  0.
       24    2    1    2    0    0  0.80247788973E+01  0.47959717631E+01 -0.59212546395E+01  0.82324477229E+02  0.81577324503E+02 0.  0.
      -13    1    4    4    0    0 -0.47643007267E+01  0.31437658446E+02  0.24327668646E+02  0.40035738931E+02  0.00000000000E+00 0.  1.
       14    1    4    4    0    0  0.12789079624E+02 -0.26641686683E+02 -0.30248923286E+02  0.42288738299E+02  0.00000000000E+00 0. -1.
        1    1    3    3  502    0  0.21586654471E+02 -0.33070809057E+02 -0.43788559931E+02  0.58966940261E+02  0.00000000000E+00 0. -1.
       -2    1    3    3    0  502 -0.29611433368E+02  0.28274837294E+02 -0.39453496078E+02  0.56858436163E+02  0.00000000000E+00 0.  1.
</event>
<event>
 8   1  0.2279600E-02  0.8338847E+02  0.7546771E-02  0.1320636E+00
       -2   -1    0    0    0  501 -0.00000000000E+00  0.00000000000E+00  0.20410680345E+02  0.20410680345E+02  0.00000000000E+00 0.  1.
        2   -1    0    0  501    0  0.00000000000E+00 -0.00000000000E+00 -0.59789575651E+03  0.59789575651E+03  0.00000000000E+00 0. -1.
       24    2    1    2    0    0 -0.22035720078E+02  0.86015281043E+01 -0.49236064010E+03  0.49914349237E+03  0.78521760108E+02 0.  0.
      -24    2    1    2    0    0  0.22035720078E+02 -0.86015281043E+01 -0.85124436068E+02  0.11916294449E+03  0.79962981923E+02 0.  0.
      -13    1    3    3    0    0  0.19803997955E+02  0.15803998644E+02 -0.66359052412E+02  0.71031602440E+02  0.00000000000E+00 0.  1.
       14    1    3    3    0    0 -0.41839718033E+02 -0.72024705392E+01 -0.42600158769E+03  0.42811188993E+03  0.00000000000E+00 0. -1.
        3    1    4    4  502    0  0.27426976039E+02 -0.35055238200E+02 -0.80195387255E+02  0.91719184890E+02  0.00000000000E+00 0. -1.
       -4    1    4    4    0  502 -0.53912559614E+01  0.26453710096E+02 -0.49290488137E+01  0.27443759598E+02  0.00000000000E+00 0.  1.
</event>
<event>
 8   1  0.2279600E-02  0.1339633E+03  0.7546771E-02  0.1222253E+00
       -1   -1    0    0    0  501 -0.00000000000E+00  0.00000000000E+00  0.18493143092E+03  0.18493143092E+03  0.00000000000E+00 0.  1.
        1   -1    0    0  501    0  0.00000000000E+00 -0.00000000000E+00 -0.11030886459E+03  0.11030886459E+03  0.00000000000E+00 0. -1.
       24    2    1    2    0    0  0.10204547426E+03 -0.30918035310E+02 -0.15831570259E+02  0.13489555071E+03  0.81098503433E+02 0.  0.
      -24    2    1    2    0    0 -0.10204547426E+03  0.30918035310E+02  0.90454136588E+02  0.16034474480E+03  0.78481097311E+02 0.  0.
      -13    1    3    3    0    0  0.52022891137E+02  0.61030863273E+00  0.30024581424E+02  0.60068537260E+02  0.00000000000E+00 0.  1.
       14    1    3    3    0    0  0.50022583128E+02 -0.31528343943E+02 -0.45856151684E+02  0.74827013450E+02  0.00000000000E+00 0. -1.
        1    1    4    4  502    0 -0.18617580168E+02 -0.25419753717E+02  0.25564159830E+02  0.40574677302E+02  0.00000000000E+00 0. -1.
       -2    1    4    4    0  502 -0.83427894096E+02  0.56337789027E+02  0.64889976758E+02  0.11977006750E+03  0.00000000000E+00 0.  1.
</event>
<event>
 8   1  0.2279600E-02  0.1182146E+03  0.7546771E-02  0.1248896E+00
        1   -1    0    0  501    0  0.00000000000E+00  0.00000000000E+00  0.53072196765E+03  0.53072196765E+03  0.00000000000E+00 0. -1.
       -1   -1    0    0    0  501 -0.00000000000E+00 -0.00000000000E+00 -0.35526260714E+02  0.35526260714E+02  0.00000000000E+00 0.  1.
       24    2    1    2    0    0  0.35219708058E+02  0.71170423545E+02  0.97721845713E+02  0.15337617212E+03  0.87573021077E+02 0.  0.
      -24    2    1    2    0    0 -0.35219708058E+02 -0.71170423545E+02  0.39747386122E+03  0.41287205624E+03  0.78563397647E+02 0.  0.
      -13    1    3    3    0    0  0.37897734410E+02  0.35798497811E+02  0.29870481233E+01  0.52217747705E+02  0.00000000000E+00 0.  1.
       14    1    3    3    0    0 -0.26780263513E+01  0.35371925734E+02  0.94734797589E+02  0.10115842441E+03  0.00000000000E+00 0. -1.
        3    1    4    4  502    0 -0.56083384007E+02 -0.71297434796E+02  0.31514450050E+03  0.32794012619E+03  0.00000000000E+00 0. -1.
       -4    1    4    4    0  502  0.20863675949E+02  0.12701125035E+00  0.82329360718E+02  0.84931930051E+02  0.00000000000E+00 0.  1.
</event>
<event>
 8   1  0.2279600E-02  0.9816996E+02  0.7546771E-02  0.1284610E+00
        2   -1    0    0  501    0  0.00000000000E+00  0.00000000000E+00  0.45166101055E+03  0.45166101055E+03  0.00000000000E+00 0. -1.
       -2   -1    0    0    0  501 -0.00000000000E+00 -0.00000000000E+00 -0.26966561794E+02  0.26966561794E+02  0.00000000000E+00 0.  1.
      -24    2    1    2    0    0 -0.55175099721E+02  0.21798096762E+01  0.32264250525E+03  0.33702269543E+03  0.80231339524E+02 0.  0.
       24    2    1    2    0    0  0.55175099721E+02 -0.21798096762E+01  0.10205194350E+03  0.14160487691E+03  0.81168336144E+02 0.  0.
      -13    1    4    4    0    0  0.28412298562E+02  0.24209691214E+02  0.51654690230E+01  0.37683549839E+02  0.00000000000E+00 0.  1.
       14    1    4    4    0    0  0.26762801159E+02 -0.26389500890E+02  0.96886474474E+02  0.10392132707E+03  0.00000000000E+00 0. -1.
        3    1    3    3  502    0 -0.36637545654E+02 -0.38165004768E+02  0.16808305116E+03  0.17621234187E+03  0.00000000000E+00 0. -1.
       -4    1    3    3    0  502 -0.18537554067E+02  0.40344814444E+02  0.15455945409E+03  0.16081035356E+03  0.00000000000E+00 0.  1.
</event>
<event>
 8   1  0.2279600E-02  0.8740126E+02  0.7546771E-02  0.1310650E+00
        1   -1    0    0  501    0  0.00000000000E+00  0.00000000000E+00  0.27031282964E+03  0.27031282964E+03  0.00000000000E+00 0. -1.
       -1   -1    0    0    0  501 -0.00000000000E+00 -0.00000000000E+00 -0.59097977340E+02  0.59097977340E+02  0.00000000000E+00 0.  1.
       24    2    1    2    0    0 -0.65530157317E-01 -0.32414343377E+02 -0.14081929867E+02  0.88528423579E+02  0.81168264006E+02 0.  0.
      -24    2    1    2    0    0  0.65530157317E-01  0.32414343377E+02  0.22529678216E+03  0.24088238340E+03  0.78835199169E+02 0.  0.
      -13    1    3    3    0    0 -0.19727990494E+02 -0.21910381397E+01 -0.39640389861E+02  0.44332321904E+02  0.00000000000E+00 0.  1.
       14    1    3    3    0    0  0.19662460337E+02 -0.30223305237E+02  0.25558459995E+02  0.44196101675E+02  0.00000000000E+00 0. -1.
        3    1    4    4  502    0 -0.21813595346E+01  0.30049906477E+02  0.23172420330E+03  0.23367469184E+03  0.00000000000E+00 0. -1.
       -4    1    4    4    0  502  0.22468896919E+01  0.23644368994E+01 -0.64274211398E+01  0.72076915616E+01  0.00000000000E+00 0.  1.
</event>
<event>
 8   1  0.2279600E-02  0.1098089E+03  0.7546771E-02  0.1260980E+00
        2   -1    0    0  501    0  0.00000000000E+00  0.00000000000E+00  0.44721358385E+03  0.44721358385E+03  0.00000000000E+00 0. -1.
       -2   -1    0    0    0  501 -0.00000000000E+00 -0.00000000000E+00 -0.33638720395E+02  0.33638720395E+02  0.00000000000E+00 0.  1.
       24    2    1    2    0    0  0.75212436676E+02 -0.25971842969E+01  0.31404186478E+03  0.33264701726E+03  0.79800308650E+02 0.  0.
      -24    2    1    2    0    0 -0.75212436676E+02  0.25971842969E+01  0.99532998669E+02  0.14820528698E+03  0.79964575078E+02 0.  0.
      -13    1    3    3    0    0  0.38394476358E+02  0.33786951359E+02  0.21376918406E+03  0.21980208814E+03  0.00000000000E+00 0.  1.
       14    1    3    3    0    0  0.36817960318E+02 -0.36384135656E+02  0.10027268072E+03  0.11284492912E+03  0.00000000000E+00 0. -1.
        3    1    4    4  502    0 -0.63990097620E+02 -0.30963032577E+02  0.82593180286E+02  0.10897281959E+03  0.00000000000E+00 0. -1.
       -4    1    4    4    0  502 -0.11222339056E+02  0.33560216874E+02  0.16939818383E+02  0.39232467388E+02  0.00000000000E+00 0.  1.
</event>
<event>
 8   1  0.2279600E-02  0.8453275E+02  0.7546771E-02  0.1318884E+00
        1   -1    0    0  501    0  0.00000000000E+00  0.00000000000E+00  0.28092127757E+03  0.28092127757E+03  0.00000000000E+00 0. -1.
       -1   -1    0    0    0  501 -0.00000000000E+00 -0.00000000000E+00 -0.25806658508E+03  0.25806658508E+03  0.00000000000E+00 0.  1.
       24    2    1    2    0    0 -0.16760758967E+02  0.13726653190E+02 -0.24495528273E+03  0.25913100270E+03  0.81709497457E+02 0.  0.
      -24    2    1    2    0    0  0.16760758967E+02 -0.13726653190E+02  0.26780997522E+03  0.27985685995E+03  0.78283684029E+02 0.  0.
      -13    1    3    3    0    0  0.24318736379E+02  0.24691172749E+02 -0.16472308222E+03  0.16832928672E+03  0.00000000000E+00 0.  1.
       14    1    3    3    0    0 -0.41079495346E+02 -0.10964519558E+02 -0.80232200514E+02  0.90801715988E+02  0.00000000000E+00 0. -1.
        1    1    4    4  502    0  0.23328677439E+02 -0.22981541248E+02  0.26641820618E+03  0.26842324604E+03  0.00000000000E+00 0. -1.
       -2    1    4    4    0  502 -0.65679184720E+01  0.92548880572E+01  0.13917690376E+01  0.11433613911E+02  0.00000000000E+00 0.  1.
</event>
<event>
 8   1  0.2279600E-02  0.9188102E+02  0.7546771E-02  0.1298995E+00
        2   -1    0    0  501    0  0.00000000000E+00  0.00000000000E+00  0.91243183960E+03  0.91243183960E+03  0.00000000000E+00 0. -1.
       -2   -1    0    0    0  501 -0.00000000000E+00 -0.00000000000E+00 -0.43529074148E+02  0.43529074148E+02  0.00000000000E+00 0.  1.
      -24    2    1    2    0    0  0.37075834690E+02  0.20577532171E+02  0.10172266486E+02  0.92442397330E+02  0.81511161631E+02 0.  0.
       24    2    1    2    0    0 -0.37075834690E+02 -0.20577532171E+02  0.85873049897E+03  0.86351851642E+03  0.80300099588E+02 0.  0.
      -13    1    4    4    0    0 -0.92551180824E+01 -0.27504010202E+02  0.96980245061E+02  0.10122892729E+03  0.00000000000E+00 0.  1.
       14    1    4    4    0    0 -0.27820716607E+02  0.69264780307E+01  0.76175025391E+03  0.76228958913E+03  0.00000000000E+00 0. -1.
        3    1    3    3  502    0  0.14503410098E+01 -0.28931651584E+02 -0.54564444939E+01  0.29477393693E+02  0.00000000000E+00 0. -1.
       -4    1    3    3    0  502  0.35625493680E+02  0.49509183756E+02  0.15628710980E+02  0.62965003637E+02  0.00000000000E+00 0.  1.
</event>
<event>
 8   1  0.2279600E-02  0.9310578E+02  0.7546771E-02  0.1296712E+00
       -3   -1    0    0    0  501 -0.00000000000E+00  0.00000000000E+00  0.41376851124E+02  0.41376851124E+02  0.00000000000E+00 0.  1.
        3   -1    0    0  501    0  0.00000000000E+00 -0.00000000000E+00 -0.24124194710E+03  0.24124194710E+03  0.00000000000E+00 0. -1.
       24    2    1    2    0    0 -0.35143924925E+02  0.26511276592E+02 -0.46024716577E+02  0.10386029109E+03  0.82041101184E+02 0.  0.
      -24    2    1    2    0    0  0.35143924925E+02 -0.26511276592E+02 -0.15384037940E+03  0.17875850713E+03  0.79685621624E+02 0.  0.
      -13    1    3    3    0    0 -0.27212324086E+02  0.33702497075E+02  0.11926064163E+02  0.44928831475E+02  0.00000000000E+00 0.  1.
       14    1    3    3    0    0 -0.79316008384E+01 -0.71912204828E+01 -0.57950780740E+02  0.58931459614E+02  0.00000000000E+00 0. -1.
        3    1    4    4  502    0 -0.92786583008E+01 -0.21655388607E+02 -0.12107601999E+03  0.12334687662E+03  0.00000000000E+00 0. -1.
       -4    1    4    4    0  502  0.44422583225E+02 -0.48558879855E+01 -0.32764359407E+02  0.55411630511E+02  0.00000000000E+00 0.  1.
</event>
<event>
 8   1  0.2279600E-02  0.8501578E+02  0.7546771E-02  0.1315487E+00
       -1   -1    0    0    0  501 -0.00000000000E+00  0.00000000000E+00  0.53117542455E+03  0.53117542455E+03  0.00000000000E+00 0.  1.
        1   -1    0    0  501    0  0.00000000000E+00 -0.00000000000E+00 -0.14569489866E+02  0.14569489866E+02  0.00000000000E+00 0. -1.
       24    2    1    2    0    0  0.15816238050E+01 -0.30209402798E+02  0.32907728493E+03  0.33984523817E+03  0.79295755877E+02 0.  0.
      -24    2    1    2    0    0 -0.15816238050E+01  0.30209402798E+02  0.18752864975E+03  0.20589967624E+03  0.79451700091E+02 0.  0.
      -13    1    3    3    0    0  0.12705738588E+02 -0.53204106977E+02  0.26994781335E+03  0.27543408417E+03  0.00000000000E+00 0.  1.
       14    1    3    3    0    0 -0.11124114783E+02  0.22994704180E+02  0.59129471578E+02  0.64411153996E+02  0.00000000000E+00 0. -1.
        3    1    4    4  502    0 -0.37141654762E+02  0.27786036013E+02  0.78357390072E+02  0.91057382428E+02  0.00000000000E+00 0. -1.
       -4    1    4    4    0  502  0.35560030957E+02  0.24233667846E+01  0.10917125968E+03  0.11484229381E+03  0.00000000000E+00 0.  1.
</event>
<event>
 8   1  0.2279600E-02  0.8499058E+02  0.7546771E-02  0.1316361E+00
       -4   -1    0    0    0  501 -0.00000000000E+00  0.00000000000E+00  0.50746822985E+02  0.50746822985E+02  0.00000000000E+00 0.  1.
        4   -1    0    0  501    0  0.00000000000E+00 -0.00000000000E+00 -0.14868853379E+03  0.14868853379E+03  0.00000000000E+00 0. -1.
      -24    2    1    2    0    0  0.60213991255E+01  0.19282631244E+02 -0.24569608499E+02  0.87155063065E+02  0.81143467026E+02 0.  0.
       24    2    1    2    0    0 -0.60213991255E+01 -0.19282631244E+02 -0.73372102302E+02  0.11228029371E+03  0.82554962560E+02 0.  0.
      -13    1    4    4    0    0 -0.31776578365E+02 -0.40212962464E+02 -0.38199917540E+02  0.63922351199E+02  0.00000000000E+00 0.  1.
       14    1    4    4    0    0  0.25755179239E+02  0.20930331220E+02 -0.35172184762E+02  0.48357942507E+02  0.00000000000E+00 0. -1.
        1    1    3    3  502    0  0.24670891155E+02  0.45303002491E+02 -0.16124428418E+02  0.54046388380E+02  0.00000000000E+00 0. -1.
       -2    1    3    3    0  502 -0.18649492029E+02 -0.26020371247E+02 -0.84451800811E+01  0.33108674685E+02  0.00000000000E+00 0.  1.
</event>
<event>
 8   1  0.2279600E-02  0.1644895E+03  0.7546771E-02  0.1183990E+00
       -2   -1    0    0    0  501 -0.00000000000E+00  0.00000000000E+00  0.32493515672E+02  0.32493515672E+02  0.00000000000E+00 0.  1.
        2   -1    0    0  501    0  0.00000000000E+00 -0.00000000000E+00 -0.14342196307E+04  0.14342196307E+04  0.00000000000E+00 0. -1.
      -24    2    1    2    0    0 -0.52278184405E+02  0.13251480840E+03 -0.11790006496E+04  0.11904198177E+04  0.82241275734E+02 0.  0.
       24    2    1    2    0    0  0.52278184405E+02 -0.13251480840E+03 -0.22272546543E+03  0.27629332874E+03  0.80238317214E+02 0.  0.
      -13    1    4    4    0    0  0.50687742407E+02 -0.13497292242E+03 -0.22828973055E+03  0.27000581122E+03  0.00000000000E+00 0.  1.
       14    1    4    4    0    0  0.15904419989E+01  0.24581140203E+01  0.55642651233E+01  0.62875175269E+01  0.00000000000E+00 0. -1.
        3    1    3    3  502    0 -0.21430932655E+02  0.12361612432E+03 -0.76929224281E+03  0.77945544190E+03  0.00000000000E+00 0. -1.
       -4    1    3    3    0  502 -0.30847251751E+02  0.88986840729E+01 -0.40970840682E+03  0.41096437575E+03  0.00000000000E+00 0.  1.
</event>
<event>
 8   1  0.2279600E-02  0.8872265E+02  0.7546771E-02  0.1307915E+00
       -1   -1    0    0    0  501 -0.00000000000E+00  0.00000000000E+00  0.24863580471E+02  0.24863580471E+02  0.00000000000E+00 0.  1.
        1   -1    0    0  501    0  0.00000000000E+00 -0.00000000000E+00 -0.41637860773E+03  0.41637860773E+03  0.00000000000E+00 0. -1.
       24    2    1    2    0    0 -0.27349763563E+02  0.15870086356E+02 -0.79474530241E+02  0.11683352653E+03  0.79586448316E+02 0.  0.
      -24    2    1    2    0    0  0.27349763563E+02 -0.15870086356E+02 -0.31204049701E+03  0.32440866167E+03  0.82896554704E+02 0.  0.
      -13    1    3    3    0    0 -0.38128881569E+02  0.12769463805E+02 -0.38639479113E+01  0.40395555560E+02  0.00000000000E+00 0.  1.
       14    1    3    3    0    0  0.10779118005E+02  0.31006225503E+01 -0.75610582330E+02  0.76437970966E+02  0.00000000000E+00 0. -1.
        3    1    4    4  502    0  0.42176620239E+02 -0.10457986513E+02 -0.30323931093E+03  0.30633693292E+03  0.00000000000E+00 0. -1.
       -4    1    4    4    0  502 -0.14826856676E+02 -0.54120998423E+01 -0.88011860852E+01  0.18071728752E+02  0.00000000000E+00 0.  1.
</event>
<event>
 8   1  0.2279600E-02  0.8989250E+02  0.7546771E-02  0.1305037E+00
       -2   -1    0    0    0  501 -0.00000000000E+00  0.00000000000E+00  0.17672460812E+02  0.17672460812E+02  0.00000000000E+00 0.  1.
        2   -1    0    0  501    0  0.00000000000E+00 -0.00000000000E+00 -0.20736231163E+04  0.20736231163E+04  0.00000000000E+00 0. -1.
      -24    2    1    2    0    0 -0.19264100376E+02  0.32525201320E+02 -0.10419920348E+03  0.13761590100E+03  0.81557758173E+02 0.  0.
       24    2    1    2    0    0  0.19264100376E+02 -0.32525201320E+02 -0.19517514520E+04  0.19536796761E+04  0.78112432743E+02 0.  0.
      -13    1    4    4    0    0  0.16491817798E+02 -0.54491450046E+00 -0.81543992538E+02  0.83196752972E+02  0.00000000000E+00 0.  1.
       14    1    4    4    0    0  0.27722825782E+01 -0.31980286820E+02 -0.18702074595E+04  0.18704829232E+04  0.00000000000E+00 0. -1.
        1    1    3    3  502    0  0.15764214521E+02 -0.18840397434E+02 -0.47479346575E+02  0.53458015172E+02  0.00000000000E+00 0. -1.
       -2    1    3    3    0  502 -0.35028314897E+02  0.51365598754E+02 -0.56719856900E+02  0.84157885825E+02  0.00000000000E+00 0.  1.
</event>
<event>
 8   1  0.2279600E-02  0.1038326E+03  0.7546771E-02  0.1282159E+00
       -1   -1    0    0    0  501 -0.00000000000E+00  0.00000000000E+00  0.10511967472E+02  0.10511967472E+02  0.00000000000E+00 0.  1.
        1   -1    0    0  501    0  0.00000000000E+00 -0.00000000000E+00 -0.17254215047E+04  0.17254215047E+04  0.00000000000E+00 0. -1.
       24    2    1    2    0    0  0.26684495669E+02  0.20307364569E+02 -0.20417461573E+03  0.22163455256E+03  0.79436451429E+02 0.  0.
      -24    2    1    2    0    0 -0.26684495669E+02 -0.20307364569E+02 -0.15107349215E+04  0.15142989196E+04  0.98268832981E+02 0.  0.
      -13    1    3    3    0    0  0.81298433295E+01  0.26096936470E+02 -0.14452833803E+02  0.30919716211E+02  0.00000000000E+00 0.  1.
       14    1    3    3    0    0  0.18554652340E+02 -0.57895719010E+01 -0.18972178192E+03  0.19071483635E+03  0.00000000000E+00 0. -1.
        1    1    4    4  502    0  0.90285416259E+01 -0.21921236608E+02 -0.13217399711E+04  0.13219525734E+04  0.00000000000E+00 0. -1.
       -2    1    4    4    0  502 -0.35713037295E+02  0.16138720395E+01 -0.18899495045E+03  0.19234634624E+03  0.00000000000E+00 0.  1.
</event>
<event>
 8   1  0.2279600E-02  0.1214777E+03  0.7546771E-02  0.1240824E+00
       -2   -1    0    0    0  501 -0.00000000000E+00  0.00000000000E+00  0.11008980899E+02  0.11008980899E+02  0.00000000000E+00 0.  1.
        2   -1    0    0  501    0  0.00000000000E+00 -0.00000000000E+00 -0.28288379227E+04  0.28288379227E+04  0.00000000000E+00 0. -1.
      -24    2    1    2    0    0 -0.35276828463E+02  0.84151338161E+02 -0.37662178696E+03  0.39561917426E+03  0.79653363360E+02 0.  0.
       24    2    1    2    0    0  0.35276828463E+02 -0.84151338161E+02 -0.24412071548E+04  0.24442277293E+04  0.80193002485E+02 0.  0.
      -13    1    4    4    0    0 -0.15761389439E+02 -0.39769664140E-01 -0.13398986061E+03  0.13491369733E+03  0.00000000000E+00 0.  1.
       14    1    4    4    0    0  0.51038217902E+02 -0.84111568497E+02 -0.23072172942E+04  0.23093140320E+04  0.00000000000E+00 0. -1.
        1    1    3    3  502    0 -0.55859035000E+02  0.64606161866E+02 -0.33139566898E+03  0.34222401635E+03  0.00000000000E+00 0. -1.
       -2    1    3    3    0  502  0.20582206537E+02  0.19545176294E+02 -0.45226117972E+02  0.53395157918E+02  0.00000000000E+00 0.  1.
</event>
<event>
 8   1  0.2279600E-02  0.8185298E+02  0.7546771E-02  0.1324177E+00
        2   -1    0    0  501    0  0.00000000000E+00  0.00000000000E+00  0.30555765609E+04  0.30555765609E+04  0.00000000000E+00 0. -1.
       -2   -1    0    0    0  501 -0.00000000000E+00 -0.00000000000E+00 -0.15362554308E+02  0.15362554308E+02  0.00000000000E+00 0.  1.
      -24    2    1    2    0    0 -0.91387040256E+01  0.82533200917E+01  0.98379378045E+02  0.12797817450E+03  0.80921430541E+02 0.  0.
       24    2    1    2    0    0  0.91387040256E+01 -0.82533200917E+01  0.29418346285E+04  0.29429609407E+04  0.80476602797E+02 0.  0.
      -13    1    4    4    0    0  0.15643615413E+02  0.26850838825E+02  0.56197673727E+03  0.56283527207E+03  0.00000000000E+00 0.  1.
       14    1    4    4    0    0 -0.65049113875E+01 -0.35104158916E+02  0.23798578912E+04  0.23801256686E+04  0.00000000000E+00 0. -1.
        1    1    3    3  502    0 -0.30310816785E+01 -0.70670537302E+01  0.10840483516E+03  0.10867722388E+03  0.00000000000E+00 0. -1.
       -2    1    3    3    0  502 -0.61076223471E+01  0.15320373822E+02 -0.10025457111E+02  0.19300950626E+02  0.00000000000E+00 0.  1.
</event>
<event>
 8   1  0.2279600E-02  0.9578508E+02  0.7546771E-02  0.1289718E+00
       -2   -1    0    0    0  501 -0.00000000000E+00  0.00000000000E+00  0.28592190493E+02  0.28592190493E+02  0.00000000000E+00 0.  1.
        2   -1    0    0  501    0  0.00000000000E+00 -0.00000000000E+00 -0.21078998674E+04  0.21078998674E+04  0.00000000000E+00 0. -1.
       24    2    1    2    0    0 -0.47677706890E+02  0.15617197827E+02 -0.20232870428E+04  0.20255276800E+04  0.80962115024E+02 0.  0.
      -24    2    1    2    0    0  0.47677706890E+02 -0.15617197827E+02 -0.56020634104E+02  0.11096437794E+03  0.81594859669E+02 0.  0.
      -13    1    3    3    0    0 -0.55362632348E+01  0.38548417504E+02 -0.13363384551E+04  0.13369057922E+04  0.00000000000E+00 0.  1.
       14    1    3    3    0    0 -0.42141443655E+02 -0.22931219677E+02 -0.68694858774E+03  0.68862188776E+03  0.00000000000E+00 0. -1.
        1    1    4    4  502    0  0.39532377554E+01 -0.31628566171E+02 -0.55959155775E+02  0.64400476721E+02  0.00000000000E+00 0. -1.
       -2    1    4    4    0  502  0.43724469134E+02  0.16011368344E+02 -0.61478328486E-01  0.46563901221E+02  0.00000000000E+00 0.  1.
</event>
<event>
 8   1  0.2279600E-02  0.8530707E+02  0.7546771E-02  0.1315143E+00
       -2   -1    0    0    0  501 -0.00000000000E+00  0.00000000000E+00  0.47520295562E+01  0.47520295562E+01  0.00000000000E+00 0.  1.
        2   -1    0    0  501    0  0.00000000000E+00 -0.00000000000E+00 -0.15178596136E+04  0.15178596136E+04  0.00000000000E+00 0. -1.
      -24    2    1    2    0    0  0.24391044660E+02  0.18528179124E+02 -0.74671029435E+03  0.75156740263E+03  0.79618342950E+02 0.  0.
       24    2    1    2    0    0 -0.24391044660E+02 -0.18528179124E+02 -0.76639728972E+03  0.77104424054E+03  0.78779430752E+02 0.  0.
      -13    1    4    4    0    0 -0.15127585528E+02  0.30460759637E+02 -0.35904756926E+03  0.36065476389E+03  0.00000000000E+00 0.  1.
       14    1    4    4    0    0 -0.92634591312E+01 -0.48988938762E+02 -0.40734972046E+03  0.41038947666E+03  0.00000000000E+00 0. -1.
        1    1    3    3  502    0  0.53302350488E+02  0.18372725625E+02 -0.48678863506E+03  0.49004272552E+03  0.00000000000E+00 0. -1.
       -2    1    3    3    0  502 -0.28911305829E+02  0.15545349926E+00 -0.25992165929E+03  0.26152467711E+03  0.00000000000E+00 0.  1.
</event>
<event>
 8   1  0.2279600E-02  0.8853297E+02  0.7546771E-02  0.1306748E+00
       -1   -1    0    0    0  501 -0.00000000000E+00  0.00000000000E+00  0.79771924247E+02  0.79771924247E+02  0.00000000000E+00 0.  1.
        1   -1    0    0  501    0  0.00000000000E+00 -0.00000000000E+00 -0.91584050200E+03  0.91584050200E+03  0.00000000000E+00 0. -1.
       24    2    1    2    0    0 -0.30164156148E+02 -0.15183225204E+02  0.52590625657E+02  0.10255404848E+03  0.81308992790E+02 0.  0.
      -24    2    1    2    0    0  0.30164156148E+02  0.15183225204E+02 -0.88865920341E+03  0.89305837777E+03  0.81839352724E+02 0.  0.
      -13    1    3    3    0    0 -0.34020758118E+02  0.61003766171E+01  0.67806928568E+02  0.76107858593E+02  0.00000000000E+00 0.  1.
       14    1    3    3    0    0  0.38566019691E+01 -0.21283601821E+02 -0.15216302910E+02  0.26446189886E+02  0.00000000000E+00 0. -1.
        3    1    4    4  502    0  0.56667125306E+02 -0.21974604707E+01 -0.59285260896E+03  0.59555873587E+03  0.00000000000E+00 0. -1.
       -4    1    4    4    0  502 -0.26502969157E+02  0.17380685675E+02 -0.29580659445E+03  0.29749964190E+03  0.00000000000E+00 0.  1.
</event>
<event>
 8   1  0.2279600E-02  0.8137925E+02  0.7546771E-02  0.1326453E+00
        2   -1    0    0  501    0  0.00000000000E+00  0.00000000000E+00  0.96626610040E+03  0.96626610040E+03  0.00000000000E+00 0. -1.
       -2   -1    0    0    0  501 -0.00000000000E+00 -0.00000000000E+00 -0.12213106618E+02  0.12213106618E+02  0.00000000000E+00 0.  1.
      -24    2    1    2    0    0  0.97038970488E+00  0.73401563307E+01  0.14545008894E+03  0.16579154242E+03  0.79223024506E+02 0.  0.
       24    2    1    2    0    0 -0.97038970488E+00 -0.73401563307E+01  0.80860290484E+03  0.81268766460E+03  0.81041735742E+02 0.  0.
      -13    1    4    4    0    0  0.84402205548E+01  0.22748484170E+02  0.84919640088E+02  0.88318039651E+02  0.00000000000E+00 0.  1.
       14    1    4    4    0    0 -0.94106102597E+01 -0.30088640500E+02  0.72368326475E+03  0.72436962495E+03  0.00000000000E+00 0. -1.
        3    1    3    3  502    0  0.12826351438E+02  0.29609325515E+02  0.20296631103E+02  0.38120607062E+02  0.00000000000E+00 0. -1.
       -4    1    3    3    0  502 -0.11855961733E+02 -0.22269169184E+02  0.12515345784E+03  0.12767093535E+03  0.00000000000E+00 0.  1.
</event>
<event>
 8   1  0.2279600E-02  0.8234997E+02  0.7546771E-02  0.1325354E+00
        1   -1    0    0  501    0  0.00000000000E+00  0.00000000000E+00  0.43009787216E+02  0.43009787216E+02  0.00000000000E+00 0. -1.
       -1   -1    0    0    0  501 -0.00000000000E+00 -0.00000000000E+00 -0.23754852395E+03  0.23754852395E+03  0.00000000000E+00 0.  1.
       24    2    1    2    0    0  0.21289426583E+02  0.83154276221E+01 -0.18085943005E+03  0.19707992429E+03  0.74886428001E+02 0.  0.
      -24    2    1    2    0    0 -0.21289426583E+02 -0.83154276221E+01 -0.13679306682E+02  0.83478386877E+02  0.79114673882E+02 0.  0.
      -13    1    3    3    0    0 -0.31627752793E+01  0.31165149727E+02 -0.14368640146E+03  0.14706138742E+03  0.00000000000E+00 0.  1.
       14    1    3    3    0    0  0.24452201863E+02 -0.22849722105E+02 -0.37173028596E+02  0.50018536876E+02  0.00000000000E+00 0. -1.
        1    1    4    4  502    0  0.17970645722E+02  0.11917786751E+02  0.18837317205E+02  0.28632538626E+02  0.00000000000E+00 0. -1.
       -2    1    4    4    0  502 -0.39260072305E+02 -0.20233214373E+02 -0.32516623887E+02  0.54845848250E+02  0.00000000000E+00 0.  1.
</event>
<event>
 8   1  0.2279600E-02  0.1464380E+03  0.7546771E-02  0.1205070E+00
        2   -1    0    0  501    0  0.00000000000E+00  0.00000000000E+00  0.11220660635E+04  0.11220660635E+04  0.00000000000E+00 0. -1.
       -2   -1    0    0    0  501 -0.00000000000E+00 -0.00000000000E+00 -0.30946441252E+02  0.30946441252E+02  0.00000000000E+00 0.  1.
      -24    2    1    2    0    0 -0.42630545238E+02  0.11526084969E+03  0.18756787957E+03  0.23767112204E+03  0.78761830509E+02 0.  0.
       24    2    1    2    0    0  0.42630545238E+02 -0.11526084969E+03  0.90355174273E+03  0.91534138276E+03  0.79634592723E+02 0.  0.
      -13    1    4    4    0    0  0.20593911561E+02 -0.19283359310E+02  0.62848614337E+02  0.68890532468E+02  0.00000000000E+00 0.  1.
       14    1    4    4    0    0  0.22036633678E+02 -0.95977490381E+02  0.84070312839E+03  0.84645085030E+03  0.00000000000E+00 0. -1.
        3    1    3    3  502    0  0.89618020933E+01  0.62310546262E+02  0.12832181103E+03  0.14293147050E+03  0.00000000000E+00 0. -1.
       -4    1    3    3    0  502 -0.51592347331E+02  0.52950303429E+02  0.59246068536E+02  0.94739651537E+02  0.00000000000E+00 0.  1.
</event>
<event>
 8   1  0.2279600E-02  0.1315145E+03  0.7546771E-02  0.1225342E+00
       -2   -1    0    0    0  501 -0.00000000000E+00  0.00000000000E+00  0.25280806478E+02  0.25280806478E+02  0.00000000000E+00 0.  1.
        2   -1    0    0  501    0  0.00000000000E+00 -0.00000000000E+00 -0.77131614558E+03  0.77131614558E+03  0.00000000000E+00 0. -1.
      -24    2    1    2    0    0 -0.10370123574E+03 -0.43144739472E+01 -0.23746643006E+03  0.27129856142E+03  0.80249878763E+02 0.  0.
       24    2    1    2    0    0  0.10370123574E+03  0.43144739472E+01 -0.50856890904E+03  0.52529839064E+03  0.80768205277E+02 0.  0.
      -13    1    4    4    0    0  0.39340157977E+02 -0.20939525753E+02 -0.83549513649E+02  0.94692306971E+02  0.00000000000E+00 0.  1.
       14    1    4    4    0    0  0.64361077768E+02  0.25253999701E+02 -0.42501939539E+03  0.43060608367E+03  0.00000000000E+00 0. -1.
        1    1    3    3  502    0 -0.55133938265E+02 -0.41089348700E+02 -0.10522058277E+03  0.12569589000E+03  0.00000000000E+00 0. -1.
       -2    1    3    3    0  502 -0.48567297480E+02  0.36774874753E+02 -0.13224584729E+03  0.14560267141E+03  0.00000000000E+00 0.  1.
</event>
<event>
 8   1  0.2279600E-02  0.8389205E+02  0.7546771E-02  0.1318643E+00
       -1   -1    0    0    0  501 -0.00000000000E+00  0.00000000000E+00  0.10071821161E+02  0.10071821161E+02  0.00000000000E+00 0.  1.
        1   -1    0    0  501    0  0.00000000000E+00 -0.00000000000E+00 -0.97662130657E+03  0.97662130657E+03  0.00000000000E+00 0. -1.
       24    2    1    2    0    0 -0.84592308779E+01 -0.23327784065E+02 -0.21755473079E+03  0.23301480249E+03  0.79687471987E+02 0.  0.
      -24    2    1    2    0    0  0.84592308779E+01  0.23327784065E+02 -0.74899475462E+03  0.75367832525E+03  0.80138201881E+02 0.  0.
      -13    1    3    3    0    0 -0.14397326487E+02 -0.89014743771E+01 -0.21695230726E+01  0.17065347533E+02  0.00000000000E+00 0.  1.
       14    1    3    3    0    0  0.59380956090E+01 -0.14426309688E+02 -0.21538520772E+03  0.21594945495E+03  0.00000000000E+00 0. -1.
        1    1    4    4  502    0  0.41066925113E+02 -0.28110563452E+01 -0.31553557671E+03  0.31820919935E+03  0.00000000000E+00 0. -1.
       -2    1    4    4    0  502 -0.32607694235E+02  0.26138840410E+02 -0.43345917791E+03  0.43546912590E+03  0.00000000000E+00 0.  1.
</event>
<event>
 8   1  0.2279600E-02  0.1023760E+03  0.7546771E-02  0.1276540E+00
        2   -1    0    0  501    0  0.00000000000E+00  0.00000000000E+00  0.20491059767E+03  0.20491059767E+03  0.00000000000E+00 0. -1.
       -2   -1    0    0    0  501 -0.00000000000E+00 -0.00000000000E+00 -0.16521575791E+03  0.16521575791E+03  0.00000000000E+00 0.  1.
      -24    2    1    2    0    0 -0.95588545278E+01  0.63110678816E+02 -0.13474077414E+03  0.16786753476E+03  0.77136914169E+02 0.  0.
       24    2    1    2    0    0  0.95588545278E+01 -0.63110678816E+02  0.17443561391E+03  0.20225882083E+03  0.80040725410E+02 0.  0.
      -13    1    4    4    0    0  0.33881941570E+01  0.18390798232E+02  0.19091225421E+02  0.26724075425E+02  0.00000000000E+00 0.  1.
       14    1    4    4    0    0  0.61706603708E+01 -0.81501477048E+02  0.15534438849E+03  0.17553474540E+03  0.00000000000E+00 0. -1.
        3    1    3    3  502    0  0.27780784025E+02  0.11948319487E+01 -0.36270739998E+02  0.45703021392E+02  0.00000000000E+00 0. -1.
       -4    1    3    3    0  502 -0.37339638552E+02  0.61915846867E+02 -0.98470034147E+02  0.12216451336E+03  0.00000000000E+00 0.  1.
</event>
<event>
 8   1  0.2279600E-02  0.8980269E+02  0.7546771E-02  0.1303458E+00
       -2   -1    0    0    0  501 -0.00000000000E+00  0.00000000000E+00  0.26221317589E+02  0.26221317589E+02  0.00000000000E+00 0.  1.
        2   -1    0    0  501    0  0.00000000000E+00 -0.00000000000E+00 -0.52462452266E+03  0.52462452266E+03  0.00000000000E+00 0. -1.
       24    2    1    2    0    0  0.40838528227E+02  0.10445660641E+02 -0.42682952105E+03  0.43617423432E+03  0.79294548535E+02 0.  0.
      -24    2    1    2    0    0 -0.40838528227E+02 -0.10445660641E+02 -0.71573684018E+02  0.11467160593E+03  0.79056231562E+02 0.  0.
      -13    1    3    3    0    0  0.18483732439E+02 -0.30446542367E+02 -0.27655215650E+03  0.27883639570E+03  0.00000000000E+00 0.  1.
       14    1    3    3    0    0  0.22354795788E+02  0.40892203008E+02 -0.15027736456E+03  0.15733783861E+03  0.00000000000E+00 0. -1.
        1    1    4    4  502    0 -0.48817266687E+02  0.11337212202E+02 -0.76017975651E+02  0.91051581696E+02  0.00000000000E+00 0. -1.
       -2    1    4    4    0  502  0.79787384597E+01 -0.21782872843E+02  0.44442916328E+01  0.23620024234E+02  0.00000000000E+00 0.  1.
</event>
<event>
 8   1  0.2279600E-02  0.8965846E+02  0.7546771E-02  0.1304338E+00
        1   -1    0    0  501    0  0.00000000000E+00  0.00000000000E+00  0.66507762921E+02  0.66507762921E+02  0.00000000000E+00 0. -1.
       -1   -1    0    0    0  501 -0.00000000000E+00 -0.00000000000E+00 -0.33393851134E+03  0.33393851134E+03  0.00000000000E+00 0.  1.
       24    2    1    2    0    0  0.39953754305E+02  0.19356790618E+02 -0.29390161335E+03  0.30696180021E+03  0.76657684755E+02 0.  0.
      -24    2    1    2    0    0 -0.39953754305E+02 -0.19356790618E+02  0.26470864933E+02  0.93484474050E+02  0.77895137025E+02 0.  0.
      -13    1    3    3    0    0  0.49470662650E+02  0.25001494774E+02 -0.28996810227E+03  0.29521843021E+03  0.00000000000E+00 0.  1.
       14    1    3    3    0    0 -0.95169083452E+01 -0.56447041563E+01 -0.39335110823E+01  0.11743369997E+02  0.00000000000E+00 0. -1.
        1    1    4    4  502    0 -0.20065795443E+02  0.29863164997E+02  0.54539967779E+01  0.36389433237E+02  0.00000000000E+00 0. -1.
       -2    1    4    4    0  502 -0.19887958862E+02 -0.49219955615E+02  0.21016868155E+02  0.57095040814E+02  0.00000000000E+00 0.  1.
</event>
<event>
 8   1  0.2279600E-02  0.9843213E+02  0.7546771E-02  0.1284427E+00
       -3   -1    0    0    0  501 -0.00000000000E+00  0.00000000000E+00  0.98286949252E+02  0.98286949252E+02  0.00000000000E+00 0.  1.
        3   -1    0    0  501    0  0.00000000000E+00 -0.00000000000E+00 -0.10775473038E+03  0.10775473038E+03  0.00000000000E+00 0. -1.
       24    2    1    2    0    0  0.55631718026E+02  0.65128750087E+01  0.27621568603E+02  0.10223422249E+03  0.80941828522E+02 0.  0.
      -24    2    1    2    0    0 -0.55631718026E+02 -0.65128750087E+01 -0.37089349732E+02  0.10380745714E+03  0.79139514174E+02 0.  0.
      -13    1    3    3    0    0  0.39190621287E+02 -0.32426970990E+02  0.31431774620E+02  0.59794395224E+02  0.00000000000E+00 0.  1.
       14    1    3    3    0    0  0.16441096739E+02  0.38939845999E+02 -0.38102060164E+01  0.42439827265E+02  0.00000000000E+00 0. -1.
        1    1    4    4  502    0 -0.10811302234E+02  0.33191126609E+02 -0.33223385515E+01  0.35065268786E+02  0.00000000000E+00 0. -1.
       -2    1    4    4    0  502 -0.44820415792E+02 -0.39704001617E+02 -0.33767011180E+02  0.68742188358E+02  0.00000000000E+00 0.  1.
</event>
<event>
 8   1  0.2279600E-02  0.9217593E+02  0.7546771E-02  0.1298714E+00
        2   -1    0    0  501    0  0.00000000000E+00  0.00000000000E+00  0.21904676449E+03  0.21904676449E+03  0.00000000000E+00 0. -1.
       -2   -1    0    0    0  501 -0.00000000000E+00 -0.00000000000E+00 -0.38149018134E+02  0.38149018134E+02  0.00000000000E+00 0.  1.
      -24    2    1    2    0    0  0.13368917771E+02  0.39248402116E+02  0.97957587162E+02  0.13450684215E+03  0.82323973855E+02 0.  0.
       24    2    1    2    0    0 -0.13368917771E+02 -0.39248402116E+02  0.82940159189E+02  0.12268894047E+03  0.80338913837E+02 0.  0.
      -13    1    4    4    0    0  0.14471450625E+02 -0.54360093265E+02  0.38710737459E+02  0.68285897648E+02  0.00000000000E+00 0.  1.
       14    1    4    4    0    0 -0.27840368396E+02  0.15111691149E+02  0.44229421730E+02  0.54403042823E+02  0.00000000000E+00 0. -1.
        1    1    3    3  502    0 -0.47709695608E+01  0.17505944214E+02  0.10398533254E+03  0.10555647596E+03  0.00000000000E+00 0. -1.
       -2    1    3    3    0  502  0.18139887331E+02  0.21742457902E+02 -0.60277453809E+01  0.28950366188E+02  0.00000000000E+00 0.  1.
</event>
<event>
 8   1  0.2279600E-02  0.8495342E+02  0.7546771E-02  0.1320530E+00
       -2   -1    0    0    0  501 -0.00000000000E+00  0.00000000000E+00  0.17329078565E+03  0.17329078565E+03  0.00000000000E+00 0.  1.
        2   -1    0    0  501    0  0.00000000000E+00 -0.00000000000E+00 -0.12409863154E+03  0.12409863154E+03  0.00000000000E+00 0. -1.
      -24    2    1    2    0    0 -0.44734296706E+01  0.16888605422E+02  0.14862716832E+03  0.17119322294E+03  0.83137523717E+02 0.  0.
       24    2    1    2    0    0  0.44734296706E+01 -0.16888605422E+02 -0.99435014218E+02  0.12619619426E+03  0.75716053952E+02 0.  0.
      -13    1    4    4    0    0 -0.63598275377E+01 -0.11291790523E+01  0.11733957967E+02  0.13394335415E+02  0.00000000000E+00 0.  1.
       14    1    4    4    0    0  0.10833257208E+02 -0.15759426370E+02 -0.11116897219E+03  0.11280185884E+03  0.00000000000E+00 0. -1.
        1    1    3    3  502    0 -0.18957629503E+02 -0.21039747179E+02  0.16079668512E+02  0.32567137073E+02  0.00000000000E+00 0. -1.
       -2    1    3    3    0  502  0.14484199832E+02  0.37928352600E+02  0.13254749981E+03  0.13862608587E+03  0.00000000000E+00 0.  1.
</event>
<event>
 8   1  0.2279600E-02  0.8459682E+02  0.7546771E-02  0.1316494E+00
       -2   -1    0    0    0  501 -0.00000000000E+00  0.00000000000E+00  0.38111675124E+02  0.38111675124E+02  0.00000000000E+00 0.  1.
        2   -1    0    0  501    0  0.00000000000E+00 -0.00000000000E+00 -0.14113827798E+04  0.14113827798E+04  0.00000000000E+00 0. -1.
      -24    2    1    2    0    0  0.18630937232E+02  0.13230583200E+01 -0.11820732534E+02  0.85418682772E+02  0.82509147028E+02 0.  0.
       24    2    1    2    0    0 -0.18630937232E+02 -0.13230583200E+01 -0.13614503722E+04  0.13640757722E+04  0.82502933674E+02 0.  0.
      -13    1    4    4    0    0  0.62989245624E+01 -0.26455319579E+02 -0.17526382251E+03  0.17736112276E+03  0.00000000000E+00 0.  1.
       14    1    4    4    0    0 -0.24929861794E+02  0.25132261259E+02 -0.11861865497E+04  0.11867146494E+04  0.00000000000E+00 0. -1.
        1    1    3    3  502    0 -0.17938214869E+02 -0.27895122054E+02 -0.18753303091E+02  0.38099918161E+02  0.00000000000E+00 0. -1.
       -2    1    3    3    0  502  0.36569152101E+02  0.29218180374E+02  0.69325705567E+01  0.47318764610E+02  0.00000000000E+00 0.  1.
</event>
<event>
 8   1  0.2279600E-02  0.1516199E+03  0.7546771E-02  0.1200156E+00
        2   -1    0    0  501    0  0.00000000000E+00  0.00000000000E+00  0.33615835952E+04  0.33615835952E+04  0.00000000000E+00 0. -1.
       -2   -1    0    0    0  501 -0.00000000000E+00 -0.00000000000E+00 -0.12478734290E+02  0.12478734290E+02  0.00000000000E+00 0.  1.
       24    2    1    2    0    0  0.26683217573E+02  0.12537121592E+03  0.28485132153E+04  0.28525455539E+04  0.80985573897E+02 0.  0.
      -24    2    1    2    0    0 -0.26683217573E+02 -0.12537121592E+03  0.50059164559E+03  0.52151677562E+03  0.70411758512E+02 0.  0.
      -13    1    3    3    0    0  0.38358866338E+01 -0.74501357158E+01  0.56288384033E+03  0.56294621079E+03  0.00000000000E+00 0.  1.
       14    1    3    3    0    0  0.22847330939E+02  0.13282135163E+03  0.22856293750E+04  0.22895993431E+04  0.00000000000E+00 0. -1.
        1    1    4    4  502    0 -0.23084925547E+02 -0.52630868768E+01  0.12328180922E+03  0.12553492883E+03  0.00000000000E+00 0. -1.
       -2    1    4    4    0  502 -0.35982920255E+01 -0.12010812904E+03  0.37730983636E+03  0.39598184679E+03  0.00000000000E+00 0.  1.
</event>
<event>
 8   1  0.2279600E-02  0.8191097E+02  0.7546771E-02  0.1324282E+00
        2   -1    0    0  501    0  0.00000000000E+00  0.00000000000E+00  0.40253903664E+03  0.40253903664E+03  0.00000000000E+00 0. -1.
       -2   -1    0    0    0  501 -0.00000000000E+00 -0.00000000000E+00 -0.17523394361E+02  0.17523394361E+02  0.00000000000E+00 0.  1.
      -24    2    1    2    0    0 -0.95278514939E+01 -0.97939115309E+00  0.24415952258E+03  0.25753306604E+03  0.81349053318E+02 0.  0.
       24    2    1    2    0    0  0.95278514939E+01  0.97939115309E+00  0.14085611970E+03  0.16252936497E+03  0.80520859767E+02 0.  0.
      -13    1    4    4    0    0 -0.24041159537E+02 -0.11863235641E+02  0.13146954568E+02  0.29858937124E+02  0.00000000000E+00 0.  1.
       14    1    4    4    0    0  0.33569011031E+02  0.12842626794E+02  0.12770916513E+03  0.13267042784E+03  0.00000000000E+00 0. -1.
        3    1    3    3  502    0  0.33397127516E+02  0.11933332439E+02  0.83083949069E+02  0.90336676617E+02  0.00000000000E+00 0. -1.
       -4    1    3    3    0  502 -0.42924979010E+02 -0.12912723593E+02  0.16107557351E+03  0.16719638942E+03  0.00000000000E+00 0.  1.
</event>
<event>
 8   1  0.2279600E-02  0.8142317E+02  0.7546771E-02  0.1331411E+00
       -2   -1    0    0    0  501 -0.00000000000E+00  0.00000000000E+00  0.21224697818E+04  0.21224697818E+04  0.00000000000E+00 0.  1.
        2   -1    0    0  501    0  0.00000000000E+00 -0.00000000000E+00 -0.28932899371E+01  0.28932899371E+01  0.00000000000E+00 0. -1.
      -24    2    1    2    0    0  0.21546618251E+02 -0.14305639785E+01  0.11915519050E+04  0.11937733731E+04  0.69517052652E+02 0.  0.
       24    2    1    2    0    0 -0.21546618251E+02  0.14305639785E+01  0.92802458681E+03  0.93158969864E+03  0.78507513120E+02 0.  0.
      -13    1    4    4    0    0 -0.91010091868E+00  0.12416006427E+02  0.85110081070E+03  0.85119185586E+03  0.00000000000E+00 0.  1.
       14    1    4    4    0    0 -0.20636517332E+02 -0.10985442448E+02  0.76923776102E+02  0.80397842777E+02  0.00000000000E+00 0. -1.
        3    1    3    3  502    0 -0.25462945711E+02 -0.22305496956E+01  0.37669866466E+03  0.37756485657E+03  0.00000000000E+00 0. -1.
       -4    1    3    3    0  502  0.47009563963E+02  0.79998571707E+00  0.81485324034E+03  0.81620851648E+03  0.00000000000E+00 0.  1.
</event>
<event>
 8   1  0.2279600E-02  0.1072286E+03  0.7546771E-02  0.1266695E+00
        1   -1    0    0  501    0  0.00000000000E+00  0.00000000000E+00  0.36627857764E+02  0.36627857764E+02  0.00000000000E+00 0. -1.
       -1   -1    0    0    0  501 -0.00000000000E+00 -0.00000000000E+00 -0.10288125207E+04  0.10288125207E+04  0.00000000000E+00 0.  1.
       24    2    1    2    0    0 -0.11001960810E+02  0.68048743045E+02 -0.94315963935E+03  0.94923551747E+03  0.82135788498E+02 0.  0.
      -24    2    1    2    0    0  0.11001960810E+02 -0.68048743045E+02 -0.49025023626E+02  0.11620486103E+03  0.79677112240E+02 0.  0.
      -13    1    3    3    0    0 -0.31579294551E+02  0.46437900948E+02 -0.83922809027E+03  0.84110493875E+03  0.00000000000E+00 0.  1.
       14    1    3    3    0    0  0.20577333740E+02  0.21610842097E+02 -0.10393154907E+03  0.10813057871E+03  0.00000000000E+00 0. -1.
        1    1    4    4  502    0  0.19472455284E+02 -0.29888468030E+02  0.16969464822E+02  0.39502655257E+02  0.00000000000E+00 0. -1.
       -2    1    4    4    0  502 -0.84704944735E+01 -0.38160275015E+02 -0.65994488447E+02  0.76702205778E+02  0.00000000000E+00 0.  1.
</event>
<event>
 8   1  0.2279600E-02  0.8325092E+02  0.7546771E-02  0.1322856E+00
       -1   -1    0    0    0  501 -0.00000000000E+00  0.00000000000E+00  0.78802965939E+01  0.78802965939E+01  0.00000000000E+00 0.  1.
        1   -1    0    0  501    0  0.00000000000E+00 -0.00000000000E+00 -0.23973361804E+04  0.23973361804E+04  0.00000000000E+00 0. -1.
       24    2    1    2    0    0 -0.11954564296E+02  0.17814215848E+02 -0.21438826803E+03  0.22855622574E+03  0.76258514014E+02 0.  0.
      -24    2    1    2    0    0  0.11954564296E+02 -0.17814215848E+02 -0.21750676158E+04  0.21766602512E+04  0.80439159112E+02 0.  0.
      -13    1    3    3    0    0  0.32224430036E+02  0.35851221081E+01 -0.77326135427E+02  0.83848662551E+02  0.00000000000E+00 0.  1.
       14    1    3    3    0    0 -0.44178994331E+02  0.14229093740E+02 -0.13706213261E+03  0.14470756319E+03  0.00000000000E+00 0. -1.
        1    1    4    4  502    0  0.16458704411E+02 -0.92183229891E+01 -0.21446313181E+04  0.21447142833E+04  0.00000000000E+00 0. -1.
       -2    1    4    4    0  502 -0.45041401157E+01 -0.85958928586E+01 -0.30436297618E+02  0.31945967897E+02  0.00000000000E+00 0.  1.
</event>
<event>
 8   1  0.2279600E-02  0.9667700E+02  0.7546771E-02  0.1288537E+00
        1   -1    0    0  501    0  0.00000000000E+00  0.00000000000E+00  0.16442881893E+03  0.16442881893E+03  0.00000000000E+00 0. -1.
       -1   -1    0    0    0  501 -0.00000000000E+00 -0.00000000000E+00 -0.56325047668E+02  0.56325047668E+02  0.00000000000E+00 0.  1.
       24    2    1    2    0    0 -0.47364452521E+02 -0.26337689839E+02  0.42894172665E+02  0.10576555776E+03  0.80058590367E+02 0.  0.
      -24    2    1    2    0    0  0.47364452521E+02  0.26337689839E+02  0.65209598596E+02  0.11498830883E+03  0.77672093770E+02 0.  0.
      -13    1    3    3    0    0 -0.42659450821E+02 -0.13810386633E+02 -0.14270649447E+02  0.47055360576E+02  0.00000000000E+00 0.  1.
       14    1    3    3    0    0 -0.47050017007E+01 -0.12527303207E+02  0.57164822112E+02  0.58710197187E+02  0.00000000000E+00 0. -1.
        1    1    4    4  502    0 -0.12404953950E+01 -0.77665423442E+01 -0.13962262393E+02  0.16025067237E+02  0.00000000000E+00 0. -1.
       -2    1    4    4    0  502  0.48604947916E+02  0.34104232183E+02  0.79171860990E+02  0.98963241597E+02  0.00000000000E+00 0.  1.
</event>
<event>
 8   1  0.2279600E-02  0.1030533E+03  0.7546771E-02  0.1275456E+00
        1   -1    0    0  501    0  0.00000000000E+00  0.00000000000E+00  0.23630568985E+02  0.23630568985E+02  0.00000000000E+00 0. -1.
       -1   -1    0    0    0  501 -0.00000000000E+00 -0.00000000000E+00 -0.45525644618E+03  0.45525644618E+03  0.00000000000E+00 0.  1.
       24    2    1    2    0    0  0.48010129934E+01 -0.64416794974E+02 -0.26645963603E+03  0.28569340057E+03  0.80295755175E+02 0.  0.
      -24    2    1    2    0    0 -0.48010129934E+01  0.64416794974E+02 -0.16516624117E+03  0.19319361459E+03  0.76624488884E+02 0.  0.
      -13    1    3    3    0    0  0.81437694188E+01 -0.14074088234E+01 -0.17139500511E+03  0.17159414197E+03  0.00000000000E+00 0.  1.
       14    1    3    3    0    0 -0.33427564254E+01 -0.63009386150E+02 -0.95064630914E+02  0.11409925861E+03  0.00000000000E+00 0. -1.
        1    1    4    4  502    0 -0.12830620117E+02  0.73773977474E+02 -0.90253078887E+02  0.11727251517E+03  0.00000000000E+00 0. -1.
       -2    1    4    4    0  502  0.80296071235E+01 -0.93571825000E+01 -0.74913162282E+02  0.75921099425E+02  0.00000000000E+00 0.  1.
</event>
<event>
 8   1  0.2279600E-02  0.8277635E+02  0.7546771E-02  0.1322047E+00
       -2   -1    0    0    0  501 -0.00000000000E+00  0.00000000000E+00  0.23329979921E+02  0.23329979921E+02  0.00000000000E+00 0.  1.
        2   -1    0    0  501    0  0.00000000000E+00 -0.00000000000E+00 -0.33020072196E+03  0.33020072196E+03  0.00000000000E+00 0. -1.
      -24    2    1    2    0    0  0.71402544331E+01 -0.17712153394E+02 -0.90994434919E+02  0.12232840181E+03  0.79495579074E+02 0.  0.
       24    2    1    2    0    0 -0.71402544331E+01  0.17712153394E+02 -0.21587630712E+03  0.23120230007E+03  0.80543280105E+02 0.  0.
      -13    1    4    4    0    0 -0.15522571177E+02  0.48239685627E+02 -0.12097631643E+03  0.13116130001E+03  0.00000000000E+00 0.  1.
       14    1    4    4    0    0  0.83823167444E+01 -0.30527532233E+02 -0.94899990696E+02  0.10004100006E+03  0.00000000000E+00 0. -1.
        1    1    3    3  502    0 -0.20823171010E+02  0.12907734328E+02 -0.25326916697E+01  0.24629831171E+02  0.00000000000E+00 0. -1.
       -2    1    3    3    0  502  0.27963425443E+02 -0.30619887722E+02 -0.88461743249E+02  0.97698570641E+02  0.00000000000E+00 0.  1.
</event>
<event>
 8   1  0.2279600E-02  0.8009755E+02  0.7546771E-02  0.1331779E+00
        2   -1    0    0  501    0  0.00000000000E+00  0.00000000000E+00  0.12387287416E+04  0.12387287416E+04  0.00000000000E+00 0. -1.
       -2   -1    0    0    0  501 -0.00000000000E+00 -0.00000000000E+00 -0.64123469081E+01  0.64123469081E+01  0.00000000000E+00 0.  1.
      -24    2    1    2    0    0  0.51348602866E+01 -0.28149187581E+01  0.90433560826E+03  0.90752145929E+03  0.75749694054E+02 0.  0.
       24    2    1    2    0    0 -0.51348602866E+01  0.28149187581E+01  0.32798078640E+03  0.33761962919E+03  0.79883209786E+02 0.  0.
      -13    1    4    4    0    0  0.26313293732E+02 -0.25919277576E+02  0.17242230041E+03  0.17633391068E+03  0.00000000000E+00 0.  1.
       14    1    4    4    0    0 -0.31448154018E+02  0.28734196334E+02  0.15555848599E+03  0.16128571850E+03  0.00000000000E+00 0. -1.
        3    1    3    3  502    0 -0.11135838260E+02  0.65772760200E+01  0.84871812532E+03  0.84881666083E+03  0.00000000000E+00 0. -1.
       -4    1    3    3    0  502  0.16270698547E+02 -0.93921947781E+01  0.55617482941E+02  0.58704798463E+02  0.00000000000E+00 0.  1.
</event>
<event>
 8   1  0.2279600E-02  0.8751055E+02  0.7546771E-02  0.1310074E+00
        2   -1    0    0  501    0  0.00000000000E+00  0.00000000000E+00  0.88836696839E+03  0.88836696839E+03  0.00000000000E+00 0. -1.
       -2   -1    0    0    0  501 -0.00000000000E+00 -0.00000000000E+00 -0.92275899660E+01  0.92275899660E+01  0.00000000000E+00 0.  1.
      -24    2    1    2    0    0 -0.13066155568E+02  0.27358056547E+02  0.30567048804E+03  0.31748709831E+03  0.80277161474E+02 0.  0.
       24    2    1    2    0    0  0.13066155568E+02 -0.27358056547E+02  0.57346889038E+03  0.58010746005E+03  0.82090859938E+02 0.  0.
      -13    1    4    4    0    0  0.99334839896E+00  0.16197448309E+02  0.25163585562E+02  0.29942446645E+02  0.00000000000E+00 0.  1.
       14    1    4    4    0    0  0.12072807169E+02 -0.43555504856E+02  0.54830530482E+03  0.55016501340E+03  0.00000000000E+00 0. -1.
        3    1    3    3  502    0  0.14961356386E+01  0.86121946141E+01  0.28739895568E+03  0.28753185570E+03  0.00000000000E+00 0. -1.
       -4    1    3    3    0  502 -0.14562291207E+02  0.18745861932E+02  0.18271532360E+02  0.29955242606E+02  0.00000000000E+00 0.  1.
</event>
<event>
 8   1  0.2279600E-02  0.8973454E+02  0.7546771E-02  0.1304408E+00
       -2   -1    0    0    0  501 -0.00000000000E+00  0.00000000000E+00  0.15070036048E+03  0.15070036048E+03  0.00000000000E+00 0.  1.
        2   -1    0    0  501    0  0.00000000000E+00 -0.00000000000E+00 -0.53515244542E+02  0.53515244542E+02  0.00000000000E+00 0. -1.
      -24    2    1    2    0    0 -0.27691092358E+02 -0.26506350517E+02  0.61900430692E+02  0.10779311567E+03  0.79487793100E+02 0.  0.
       24    2    1    2    0    0  0.27691092358E+02  0.26506350517E+02  0.35284685245E+02  0.96422489353E+02  0.81135098610E+02 0.  0.
      -13    1    4    4    0    0  0.47122668781E+02  0.39609058413E+02  0.10744555593E+02  0.62488950194E+02  0.00000000000E+00 0.  1.
       14    1    4    4    0    0 -0.19431576423E+02 -0.13102707896E+02  0.24540129653E+02  0.33933539159E+02  0.00000000000E+00 0. -1.
        1    1    3    3  502    0 -0.43244459140E+02 -0.43758010143E+02  0.30310016480E+02  0.68582386930E+02  0.00000000000E+00 0. -1.
       -2    1    3    3    0  502  0.15553366781E+02  0.17251659626E+02  0.31590414212E+02  0.39210728739E+02  0.00000000000E+00 0.  1.
</event>
<event>
 8   1  0.2279600E-02  0.1114803E+03  0.7546771E-02  0.1258479E+00
        2   -1    0    0  501    0  0.00000000000E+00  0.00000000000E+00  0.14442232567E+04  0.14442232567E+04  0.00000000000E+00 0. -1.
       -2   -1    0    0    0  501 -0.00000000000E+00 -0.00000000000E+00 -0.95576671878E+01  0.95576671878E+01  0.00000000000E+00 0.  1.
       24    2    1    2    0    0  0.66847932463E+02  0.36387493562E+02  0.96308126308E+03  0.96951192244E+03  0.81456446648E+02 0.  0.
      -24    2    1    2    0    0 -0.66847932463E+02 -0.36387493562E+02  0.47158432641E+03  0.48426900143E+03  0.79573821457E+02 0.  0.
      -13    1    3    3    0    0  0.91578588252E+01 -0.11571574647E+02  0.51366925536E+03  0.51388118434E+03  0.00000000000E+00 0.  1.
       14    1    3    3    0    0  0.57690073638E+02  0.47959068209E+02  0.44941200773E+03  0.45563073811E+03  0.00000000000E+00 0. -1.
        1    1    4    4  502    0  0.10131247003E+02 -0.31235412338E+02  0.13051441469E+03  0.13458196607E+03  0.00000000000E+00 0. -1.
       -2    1    4    4    0  502 -0.76979179467E+02 -0.51520812241E+01  0.34106991172E+03  0.34968703535E+03  0.00000000000E+00 0.  1.
</event>
<event>
 8   1  0.2279600E-02  0.1034110E+03  0.7546771E-02  0.1277433E+00
       -1   -1    0    0    0  501 -0.00000000000E+00  0.00000000000E+00  0.16876743034E+03  0.16876743034E+03  0.00000000000E+00 0.  1.
        1   -1    0    0  501    0  0.00000000000E+00 -0.00000000000E+00 -0.10153826081E+04  0.10153826081E+04  0.00000000000E+00 0. -1.
       24    2    1    2    0    0  0.41841586951E+01  0.49600615668E+02  0.15237110912E+03  0.17982566793E+03  0.81502071713E+02 0.  0.
      -24    2    1    2    0    0 -0.41841586951E+01 -0.49600615668E+02 -0.99898628687E+03  0.10043243705E+04  0.90642769007E+02 0.  0.
      -13    1    3    3    0    0 -0.11619604909E+02  0.68023126984E+02  0.12807121817E+03  0.14547988846E+03  0.00000000000E+00 0.  1.
       14    1    3    3    0    0  0.15803763604E+02 -0.18422511316E+02  0.24299890952E+02  0.34345779472E+02  0.00000000000E+00 0. -1.
        3    1    4    4  502    0  0.34676677062E+02 -0.39934715960E+02 -0.77378703329E+03  0.77559243573E+03  0.00000000000E+00 0. -1.
       -4    1    4    4    0  502 -0.38860835757E+02 -0.96658997081E+01 -0.22519925358E+03  0.22873193477E+03  0.00000000000E+00 0.  1.
</event>
<event>
 8   1  0.2279600E-02  0.1114698E+03  0.7546771E-02  0.1258346E+00
       -2   -1    0    0    0  501 -0.00000000000E+00  0.00000000000E+00  0.17977985073E+02  0.17977985073E+02  0.00000000000E+00 0.  1.
        2   -1    0    0  501    0  0.00000000000E+00 -0.00000000000E+00 -0.26293677663E+04  0.26293677663E+04  0.00000000000E+00 0. -1.
      -24    2    1    2    0    0 -0.10564638727E+02  0.76016747921E+02 -0.16576690803E+03  0.19918383893E+03  0.79406399840E+02 0.  0.
       24    2    1    2    0    0  0.10564638727E+02 -0.76016747921E+02 -0.24456228732E+04  0.24481619124E+04  0.80841536969E+02 0.  0.
      -13    1    4    4    0    0  0.40922084919E+01 -0.15727003696E+02 -0.73971053596E+02  0.75735075003E+02  0.00000000000E+00 0.  1.
       14    1    4    4    0    0  0.64724302347E+01 -0.60289744225E+02 -0.23716518196E+04  0.23724268374E+04  0.00000000000E+00 0. -1.
        3    1    3    3  502    0 -0.60187273615E+01 -0.13465950233E+02 -0.53776089552E+02  0.55762215722E+02  0.00000000000E+00 0. -1.
       -4    1    3    3    0  502 -0.45459113650E+01  0.89482698154E+02 -0.11199081848E+03  0.14342162320E+03  0.00000000000E+00 0.  1.
</event>
<event>
 8   1  0.2279600E-02  0.8242922E+02  0.7546771E-02  0.1322664E+00
        1   -1    0    0  501    0  0.00000000000E+00  0.00000000000E+00  0.85565112774E+03  0.85565112774E+03  0.00000000000E+00 0. -1.
       -1   -1    0    0    0  501 -0.00000000000E+00 -0.00000000000E+00 -0.25757742874E+02  0.25757742874E+02  0.00000000000E+00 0.  1.
       24    2    1    2    0    0 -0.11711282345E+02  0.10937134136E+02  0.48301029169E+02  0.95538295971E+02  0.80856672830E+02 0.  0.
      -24    2    1    2    0    0  0.11711282345E+02 -0.10937134136E+02  0.78159235570E+03  0.78587057465E+03  0.80306752947E+02 0.  0.
      -13    1    3    3    0    0 -0.34236651068E+02 -0.22529712303E+02  0.32125800151E+02  0.52074977179E+02  0.00000000000E+00 0.  1.
       14    1    3    3    0    0  0.22525368723E+02  0.33466846439E+02  0.16175229017E+02  0.43463318793E+02  0.00000000000E+00 0. -1.
        3    1    4    4  502    0  0.26710370167E+02 -0.40627048769E+02  0.45968064743E+03  0.46224484701E+03  0.00000000000E+00 0. -1.
       -4    1    4    4    0  502 -0.14999087822E+02  0.29689914633E+02  0.32191170827E+03  0.32362572764E+03  0.00000000000E+00 0.  1.
</event>
<event>
 8   1  0.2279600E-02  0.9420849E+02  0.7546771E-02  0.1294233E+00
        2   -1    0    0  501    0  0.00000000000E+00  0.00000000000E+00  0.19329494008E+03  0.19329494008E+03  0.00000000000E+00 0. -1.
       -2   -1    0    0    0  501 -0.00000000000E+00 -0.00000000000E+00 -0.94251373071E+02  0.94251373071E+02  0.00000000000E+00 0.  1.
      -24    2    1    2    0    0 -0.27269835636E+02 -0.37910374578E+02 -0.54836970486E+02  0.10711777108E+03  0.79286083981E+02 0.  0.
       24    2    1    2    0    0  0.27269835636E+02  0.37910374578E+02  0.15388053749E+03  0.18042854207E+03  0.81819304183E+02 0.  0.
      -13    1    4    4    0    0 -0.22998361820E+02  0.22731293458E+00  0.13592677335E+02  0.26715860358E+02  0.00000000000E+00 0.  1.
       14    1    4    4    0    0  0.50268197456E+02  0.37683061643E+02  0.14028786016E+03  0.15371268171E+03  0.00000000000E+00 0. -1.
        1    1    3    3  502    0  0.25296967847E+02 -0.60905213584E+01 -0.20331025972E+01  0.26099129082E+02  0.00000000000E+00 0. -1.
       -2    1    3    3    0  502 -0.52566803483E+02 -0.31819853220E+02 -0.52803867889E+02  0.81018641999E+02  0.00000000000E+00 0.  1.
</event>
<event>
 8   1  0.2279600E-02  0.1341488E+03  0.7546771E-02  0.1221663E+00
       -1   -1    0    0    0  501 -0.00000000000E+00  0.00000000000E+00  0.33235174402E+03  0.33235174402E+03  0.00000000000E+00 0.  1.
        1   -1    0    0  501    0  0.00000000000E+00 -0.00000000000E+00 -0.67450161967E+02  0.67450161967E+02  0.00000000000E+00 0. -1.
       24    2    1    2    0    0 -0.30177207572E+01 -0.10743359433E+03  0.22237787874E+03  0.25970718293E+03  0.80279611860E+02 0.  0.
      -24    2    1    2    0    0  0.30177207572E+01  0.10743359433E+03  0.42523703310E+02  0.14009472306E+03  0.79165537055E+02 0.  0.
      -13    1    3    3    0    0  0.33240440481E+02 -0.69547573299E+02  0.97680793658E+02  0.12443202676E+03  0.00000000000E+00 0.  1.
       14    1    3    3    0    0 -0.36258161238E+02 -0.37886021030E+02  0.12469708509E+03  0.13527515616E+03  0.00000000000E+00 0. -1.
        1    1    4    4  502    0 -0.28534161225E+02  0.68146237859E+02 -0.43365345210E+00  0.73880282529E+02  0.00000000000E+00 0. -1.
       -2    1    4    4    0  502  0.31551881982E+02  0.39287356470E+02  0.42957356762E+02  0.66214440532E+02  0.00000000000E+00 0.  1.
</event>
<event>
 8   1  0.2279600E-02  0.9001270E+02  0.7546771E-02  0.1303288E+00
        3   -1    0    0  501    0  0.00000000000E+00  0.00000000000E+00  0.25605729623E+02  0.25605729623E+02  0.00000000000E+00 0. -1.
       -3   -1    0    0    0  501 -0.00000000000E+00 -0.00000000000E+00 -0.51063503563E+03  0.51063503563E+03  0.00000000000E+00 0.  1.
       24    2    1    2    0    0 -0.33371594489E+02  0.20777355409E+02 -0.40964868093E+03  0.41942142139E+03  0.80974842479E+02 0.  0.
      -24    2    1    2    0    0  0.33371594489E+02 -0.20777355409E+02 -0.75380625068E+02  0.11681934386E+03  0.80119652065E+02 0.  0.
      -13    1    3    3    0    0 -0.17232068441E+02 -0.17373094608E+02 -0.36273584283E+02  0.43755474123E+02  0.00000000000E+00 0.  1.
       14    1    3    3    0    0 -0.16139526048E+02  0.38150450018E+02 -0.37337509665E+03  0.37566594727E+03  0.00000000000E+00 0. -1.
        3    1    4    4  502    0  0.19230350002E+01  0.20377147222E+02  0.51173585834E+01  0.21097714364E+02  0.00000000000E+00 0. -1.
       -4    1    4    4    0  502  0.31448559489E+02 -0.41154502632E+02 -0.80497983652E+02  0.95721629493E+02  0.00000000000E+00 0.  1.
</event>
<event>
 8   1  0.2279600E-02  0.8851614E+02  0.7546771E-02  0.1307253E+00
       -1   -1    0    0    0  501 -0.00000000000E+00  0.00000000000E+00  0.20138474394E+04  0.20138474394E+04  0.00000000000E+00 0.  1.
        1   -1    0    0  501    0  0.00000000000E+00 -0.00000000000E+00 -0.38400018909E+01  0.38400018909E+01  0.00000000000E+00 0. -1.
       24    2    1    2    0    0  0.28847866858E+02  0.22507717228E+02  0.10414416438E+04  0.10451965384E+04  0.80599688187E+02 0.  0.
      -24    2    1    2    0    0 -0.28847866858E+02 -0.22507717228E+02  0.96856579374E+03  0.97249090290E+03  0.79246846364E+02 0.  0.
      -13    1    3    3    0    0 -0.11867603930E+02 -0.83923363907E+01  0.68034979088E+03  0.68050503986E+03  0.00000000000E+00 0.  1.
       14    1    3    3    0    0  0.40715470788E+02  0.30900053619E+02  0.36109185294E+03  0.36469149857E+03  0.00000000000E+00 0. -1.
        3    1    4    4  502    0 -0.46871434057E+02  0.89513050809E+01  0.41395527456E+03  0.41669656410E+03  0.00000000000E+00 0. -1.
       -4    1    4    4    0  502  0.18023567199E+02 -0.31459022309E+02  0.55461051918E+03  0.55579433880E+03  0.00000000000E+00 0.  1.
</event>
<event>
 8   1  0.2279600E-02  0.1032575E+03  0.7546771E-02  0.1273731E+00
       -1   -1    0    0    0  501 -0.00000000000E+00  0.00000000000E+00  0.37141049607E+02  0.37141049607E+02  0.00000000000E+00 0.  1.
        1   -1    0    0  501    0  0.00000000000E+00 -0.00000000000E+00 -0.29907790709E+03  0.29907790709E+03  0.00000000000E+00 0. -1.
       24    2    1    2    0    0  0.30608720148E+02  0.56278330867E+02 -0.96055688079E+02  0.14082530216E+03  0.80628321588E+02 0.  0.
      -24    2    1    2    0    0 -0.30608720148E+02 -0.56278330867E+02 -0.16588116940E+03  0.19539365454E+03  0.80981316339E+02 0.  0.
      -13    1    3    3    0    0 -0.55846295482E+01 -0.44798867439E+01  0.10637001229E+02  0.12821983761E+02  0.00000000000E+00 0.  1.
       14    1    3    3    0    0  0.36193349696E+02  0.60758217611E+02 -0.10669268931E+03  0.12800331840E+03  0.00000000000E+00 0. -1.
        3    1    4    4  502    0  0.20531069090E+02 -0.39162901279E+02 -0.10575014060E+03  0.11462264118E+03  0.00000000000E+00 0. -1.
       -4    1    4    4    0  502 -0.51139789239E+02 -0.17115429588E+02 -0.60131028806E+02  0.80771013356E+02  0.00000000000E+00 0.  1.
</event>
<event>
 8   1  0.2279600E-02  0.1124043E+03  0.7546771E-02  0.1256763E+00
        1   -1    0    0  501    0  0.00000000000E+00  0.00000000000E+00  0.18824080688E+03  0.18824080688E+03  0.00000000000E+00 0. -1.
       -1   -1    0    0    0  501 -0.00000000000E+00 -0.00000000000E+00 -0.10088199944E+03  0.10088199944E+03  0.00000000000E+00 0.  1.
       24    2    1    2    0    0  0.75875972760E+02  0.12768996724E+02 -0.40726084926E+02  0.11955478388E+03  0.81942185935E+02 0.  0.
      -24    2    1    2    0    0 -0.75875972760E+02 -0.12768996724E+02  0.12808489237E+03  0.16956802244E+03  0.80170842954E+02 0.  0.
      -13    1    3    3    0    0  0.80141178205E+02  0.29116707866E+02 -0.51409229612E+02  0.99565556346E+02  0.00000000000E+00 0.  1.
       14    1    3    3    0    0 -0.42652054455E+01 -0.16347711142E+02  0.10683144686E+02  0.19989227535E+02  0.00000000000E+00 0. -1.
        3    1    4    4  502    0 -0.86219003115E+02 -0.25024256870E+02  0.12387748121E+03  0.15298875868E+03  0.00000000000E+00 0. -1.
       -4    1    4    4    0  502  0.10343030356E+02  0.12255260147E+02  0.42074111612E+01  0.16579263762E+02  0.00000000000E+00 0.  1.
</event>
<event>
 8   1  0.2279600E-02  0.2817256E+03  0.7546771E-02  0.1094759E+00
       -2   -1    0    0    0  501 -0.00000000000E+00  0.00000000000E+00  0.10416445128E+03  0.10416445128E+03  0.00000000000E+00 0.  1.
        2   -1    0    0  501    0  0.00000000000E+00 -0.00000000000E+00 -0.12762425668E+04  0.12762425668E+04  0.00000000000E+00 0. -1.
      -24    2    1    2    0    0 -0.24433320045E+03  0.11578590594E+03 -0.14779204000E+03  0.31808349980E+03  0.78927415386E+02 0.  0.
       24    2    1    2    0    0  0.24433320045E+03 -0.11578590594E+03 -0.10242860755E+04  0.10623235183E+04  0.79146725569E+02 0.  0.
      -13    1    4    4    0    0  0.14496195219E+03 -0.11037522816E+03 -0.66617741791E+03  0.69064391021E+03  0.00000000000E+00 0.  1.
       14    1    4    4    0    0  0.99371248258E+02 -0.54106777799E+01 -0.35810865763E+03  0.37167960811E+03  0.00000000000E+00 0. -1.
        3    1    3    3  502    0 -0.13938789411E+03  0.80626262302E+02 -0.12788032649E+03  0.20562820113E+03  0.00000000000E+00 0. -1.
       -4    1    3    3    0  502 -0.10494530634E+03  0.35159643637E+02 -0.19911713515E+02  0.11245529867E+03  0.00000000000E+00 0.  1.
</event>
<event>
 8   1  0.2279600E-02  0.9241481E+02  0.7546771E-02  0.1300025E+00
        2   -1    0    0  501    0  0.00000000000E+00  0.00000000000E+00  0.14223821441E+04  0.14223821441E+04  0.00000000000E+00 0. -1.
       -2   -1    0    0    0  501 -0.00000000000E+00 -0.00000000000E+00 -0.11453221754E+02  0.11453221754E+02  0.00000000000E+00 0.  1.
       24    2    1    2    0    0  0.24917292850E+02  0.27671324651E+02  0.12043291487E+04  0.12075082511E+04  0.79252158141E+02 0.  0.
      -24    2    1    2    0    0 -0.24917292850E+02 -0.27671324651E+02  0.20659977363E+03  0.22632711466E+03  0.84580864703E+02 0.  0.
      -13    1    3    3    0    0  0.19738768866E+02  0.35465571957E+02  0.11879594339E+04  0.11886526163E+04  0.00000000000E+00 0.  1.
       14    1    3    3    0    0  0.51785239840E+01 -0.77942473058E+01  0.16369714781E+02  0.18855634801E+02  0.00000000000E+00 0. -1.
        3    1    4    4  502    0 -0.50237627254E+02 -0.28531983531E+02  0.18224817635E+03  0.19118653472E+03  0.00000000000E+00 0. -1.
       -4    1    4    4    0  502  0.25320334404E+02  0.86065888028E+00  0.24351597280E+02  0.35140579934E+02  0.00000000000E+00 0.  1.
</event>
<event>
 8   1  0.2279600E-02  0.8495785E+02  0.7546771E-02  0.1319664E+00
       -1   -1    0    0    0  501 -0.00000000000E+00  0.00000000000E+00  0.25535510182E+02  0.25535510182E+02  0.00000000000E+00 0.  1.
        1   -1    0    0  501    0  0.00000000000E+00 -0.00000000000E+00 -0.86525239235E+03  0.86525239235E+03  0.00000000000E+00 0. -1.
       24    2    1    2    0    0  0.39708951027E+01 -0.10286455203E+02 -0.53021651816E+02  0.10014555336E+03  0.84239284939E+02 0.  0.
      -24    2    1    2    0    0 -0.39708951027E+01  0.10286455203E+02 -0.78669523036E+03  0.79064234918E+03  0.78130401792E+02 0.  0.
      -13    1    3    3    0    0  0.24734540134E+02  0.18398239013E+02  0.59147975684E+01  0.31389130359E+02  0.00000000000E+00 0.  1.
       14    1    3    3    0    0 -0.20763645031E+02 -0.28684694217E+02 -0.58936449385E+02  0.68756422997E+02  0.00000000000E+00 0. -1.
        3    1    4    4  502    0 -0.25652965852E+02  0.36649014491E+02 -0.43433247738E+03  0.43663019344E+03  0.00000000000E+00 0. -1.
       -4    1    4    4    0  502  0.21682070749E+02 -0.26362559287E+02 -0.35236275298E+03  0.35401215574E+03  0.00000000000E+00 0.  1.
</event>
<event>
 8   1  0.2279600E-02  0.9745398E+02  0.7546771E-02  0.1288376E+00
       -1   -1    0    0    0  501 -0.00000000000E+00  0.00000000000E+00  0.24292044621E+02  0.24292044621E+02  0.00000000000E+00 0.  1.
        1   -1    0    0  501    0  0.00000000000E+00 -0.00000000000E+00 -0.69314304448E+03  0.69314304448E+03  0.00000000000E+00 0. -1.
       24    2    1    2    0    0 -0.44531874414E+02 -0.12867419957E+02 -0.85957845219E+02  0.12645141124E+03  0.80327765531E+02 0.  0.
      -24    2    1    2    0    0  0.44531874414E+02  0.12867419957E+02 -0.58289315464E+03  0.59098367786E+03  0.85724088993E+02 0.  0.
      -13    1    3    3    0    0 -0.21975546036E+02 -0.46849476164E+02 -0.43840464826E+02  0.67821710363E+02  0.00000000000E+00 0.  1.
       14    1    3    3    0    0 -0.22556328378E+02  0.33982056207E+02 -0.42117380394E+02  0.58629700879E+02  0.00000000000E+00 0. -1.
        3    1    4    4  502    0  0.38189023245E+02 -0.21811242514E+02 -0.48401260702E+03  0.48600651801E+03  0.00000000000E+00 0. -1.
       -4    1    4    4    0  502  0.63428511690E+01  0.34678662471E+02 -0.98880547627E+02  0.10497715985E+03  0.00000000000E+00 0.  1.
</event>
<event>
 8   1  0.2279600E-02  0.9622406E+02  0.7546771E-02  0.1289676E+00
       -1   -1    0    0    0  501 -0.00000000000E+00  0.00000000000E+00  0.17232586965E+03  0.17232586965E+03  0.00000000000E+00 0.  1.
        1   -1    0    0  501    0  0.00000000000E+00 -0.00000000000E+00 -0.10072225321E+03  0.10072225321E+03  0.00000000000E+00 0. -1.
       24    2    1    2    0    0  0.29719990560E+01 -0.53752544948E+02  0.13003961495E+03  0.16046999258E+03  0.77085330615E+02 0.  0.
      -24    2    1    2    0    0 -0.29719990560E+01  0.53752544948E+02 -0.58435998501E+02  0.11257813028E+03  0.79755254556E+02 0.  0.
      -13    1    3    3    0    0  0.83611891659E+01 -0.64212565832E+02  0.13335471312E+03  0.14824521108E+03  0.00000000000E+00 0.  1.
       14    1    3    3    0    0 -0.53891901099E+01  0.10460020884E+02 -0.33150981739E+01  0.12224781505E+02  0.00000000000E+00 0. -1.
        1    1    4    4  502    0 -0.17047429300E+02  0.32580538597E+02 -0.74095999018E+02  0.82718337819E+02  0.00000000000E+00 0. -1.
       -2    1    4    4    0  502  0.14075430244E+02  0.21172006351E+02  0.15660000517E+02  0.29859792459E+02  0.00000000000E+00 0.  1.
</event>
<event>
 8   1  0.2279600E-02  0.9163626E+02  0.7546771E-02  0.1300296E+00
        4   -1    0    0  501    0  0.00000000000E+00  0.00000000000E+00  0.10912775554E+03  0.10912775554E+03  0.00000000000E+00 0. -1.
       -4   -1    0    0    0  501 -0.00000000000E+00 -0.00000000000E+00 -0.75067510503E+02  0.75067510503E+02  0.00000000000E+00 0.  1.
      -24    2    1    2    0    0  0.29522720761E+02  0.30143594654E+02  0.18457302567E+02  0.93476607756E+02  0.81344802168E+02 0.  0.
       24    2    1    2    0    0 -0.29522720761E+02 -0.30143594654E+02  0.15602942466E+02  0.90718658282E+02  0.78779412330E+02 0.  0.
      -13    1    4    4    0    0 -0.30897672414E+02  0.21206726112E+02  0.11435585347E+02  0.39181169013E+02  0.00000000000E+00 0.  1.
       14    1    4    4    0    0  0.13749516527E+01 -0.51350320766E+02  0.41673571188E+01  0.51537489269E+02  0.00000000000E+00 0. -1.
        3    1    3    3  502    0 -0.35537971472E+01 -0.25993194903E+02  0.84085677280E+01  0.27549585599E+02  0.00000000000E+00 0. -1.
       -4    1    3    3    0  502  0.33076517909E+02  0.56136789557E+02  0.10048734839E+02  0.65927022157E+02  0.00000000000E+00 0.  1.
</event>
<event>
 8   1  0.2279600E-02  0.9200210E+02  0.7546771E-02  0.1305040E+00
       -3   -1    0    0    0  501 -0.00000000000E+00  0.00000000000E+00  0.11887439764E+03  0.11887439764E+03  0.00000000000E+00 0.  1.
        3   -1    0    0  501    0  0.00000000000E+00 -0.00000000000E+00 -0.10199526889E+03  0.10199526889E+03  0.00000000000E+00 0. -1.
       24    2    1    2    0    0  0.12724669854E+02 -0.42662150386E+02  0.76392199745E+02  0.11129689271E+03  0.67596256160E+02 0.  0.
      -24    2    1    2    0    0 -0.12724669854E+02  0.42662150386E+02 -0.59513070988E+02  0.10957277382E+03  0.80513420284E+02 0.  0.
      -13    1    3    3    0    0  0.93064068968E+01 -0.47479129951E+02  0.86774884494E+02  0.99351686293E+02  0.00000000000E+00 0.  1.
       14    1    3    3    0    0  0.34182629577E+01  0.48169795658E+01 -0.10382684749E+02  0.11945206418E+02  0.00000000000E+00 0. -1.
        1    1    4    4  502    0 -0.38605374837E+02  0.51746225529E+02 -0.40920770909E+02  0.76436616321E+02  0.00000000000E+00 0. -1.
       -2    1    4    4    0  502  0.25880704982E+02 -0.90840751432E+01 -0.18592300078E+02  0.33136157499E+02  0.00000000000E+00 0.  1.
</event>
<event>
 8   1  0.2279600E-02  0.8555129E+02  0.7546771E-02  0.1324361E+00
       -2   -1    0    0    0  501 -0.00000000000E+00  0.00000000000E+00  0.82891108740E+01  0.82891108740E+01  0.00000000000E+00 0.  1.
        2   -1    0    0  501    0  0.00000000000E+00 -0.00000000000E+00 -0.78187422837E+03  0.78187422837E+03  0.00000000000E+00 0. -1.
      -24    2    1    2    0    0  0.31961420825E+01  0.28285762586E+02 -0.32941463925E+03  0.34034251456E+03  0.80676656947E+02 0.  0.
       24    2    1    2    0    0 -0.31961420825E+01 -0.28285762586E+02 -0.44417047825E+03  0.44982082468E+03  0.65123428073E+02 0.  0.
      -13    1    4    4    0    0 -0.28949195607E+02  0.25919154861E+01 -0.13846985342E+03  0.14148736431E+03  0.00000000000E+00 0.  1.
       14    1    4    4    0    0  0.25753053524E+02 -0.30877678072E+02 -0.30570062483E+03  0.30833346038E+03  0.00000000000E+00 0. -1.
        1    1    3    3  502    0  0.71753986861E+01  0.57948506794E+01 -0.31063830169E+03  0.31077519385E+03  0.00000000000E+00 0. -1.
       -2    1    3    3    0  502 -0.39792566036E+01  0.22490911907E+02 -0.18776337567E+02  0.29567320709E+02  0.00000000000E+00 0.  1.
</event>
<event>
 8   1  0.2279600E-02  0.8447140E+02  0.7546771E-02  0.1317154E+00
        2   -1    0    0  501    0  0.00000000000E+00  0.00000000000E+00  0.20632462063E+03  0.20632462063E+03  0.00000000000E+00 0. -1.
       -2   -1    0    0    0  501 -0.00000000000E+00 -0.00000000000E+00 -0.49873384788E+02  0.49873384788E+02  0.00000000000E+00 0.  1.
      -24    2    1    2    0    0 -0.11701678283E+02  0.16142623228E+02  0.69836340230E+01  0.84759590997E+02  0.82084734040E+02 0.  0.
       24    2    1    2    0    0  0.11701678283E+02 -0.16142623228E+02  0.14946760182E+03  0.17143841442E+03  0.81566245387E+02 0.  0.
      -13    1    4    4    0    0  0.44164721270E+02  0.10609217318E+01  0.58308339599E+02  0.73154019893E+02  0.00000000000E+00 0.  1.
       14    1    4    4    0    0 -0.32463042987E+02 -0.17203544960E+02  0.91159262223E+02  0.98284394531E+02  0.00000000000E+00 0. -1.
        3    1    3    3  502    0 -0.37157802765E+02 -0.17630423044E+02 -0.32192212181E+01  0.41254060507E+02  0.00000000000E+00 0. -1.
       -4    1    3    3    0  502  0.25456124483E+02  0.33773046272E+02  0.10202855241E+02  0.43505530490E+02  0.00000000000E+00 0.  1.
</event>
<event>
 8   1  0.2279600E-02  0.8699173E+02  0.7546771E-02  0.1311669E+00
       -2   -1    0    0    0  501 -0.00000000000E+00  0.00000000000E+00  0.50671076440E+02  0.50671076440E+02  0.00000000000E+00 0.  1.
        2   -1    0    0  501    0  0.00000000000E+00 -0.00000000000E+00 -0.90663719231E+03  0.90663719231E+03  0.00000000000E+00 0. -1.
      -24    2    1    2    0    0 -0.88339124230E+01  0.31665859029E+02  0.96648818255E+01  0.87526970081E+02  0.80540647590E+02 0.  0.
       24    2    1    2    0    0  0.88339124230E+01 -0.31665859029E+02 -0.86563099769E+03  0.86978129867E+03  0.78241412979E+02 0.  0.
      -13    1    4    4    0    0 -0.74332747283E+01 -0.12031034074E+02 -0.24686668087E+02  0.28450499737E+02  0.00000000000E+00 0.  1.
       14    1    4    4    0    0  0.16267187151E+02 -0.19634824955E+02 -0.84094432961E+03  0.84133079893E+03  0.00000000000E+00 0. -1.
        3    1    3    3  502    0 -0.51848825283E+01  0.27034650559E+02 -0.33841198664E+02  0.43623182652E+02  0.00000000000E+00 0. -1.
       -4    1    3    3    0  502 -0.36490298948E+01  0.46312084700E+01  0.43506080490E+02  0.43903787429E+02  0.00000000000E+00 0.  1.
</event>
<event>
 8   1  0.2279600E-02  0.9262679E+02  0.7546771E-02  0.1297820E+00
        2   -1    0    0  501    0  0.00000000000E+00  0.00000000000E+00  0.17802861757E+04  0.17802861757E+04  0.00000000000E+00 0. -1.
       -2   -1    0    0    0  501 -0.00000000000E+00 -0.00000000000E+00 -0.52238146103E+01  0.52238146103E+01  0.00000000000E+00 0.  1.
       24    2    1    2    0    0 -0.15999693256E+02  0.38293319059E+02  0.11576461723E+04  0.11611843755E+04  0.80511646985E+02 0.  0.
      -24    2    1    2    0    0  0.15999693256E+02 -0.38293319059E+02  0.61741618881E+03  0.62432561479E+03  0.82809145653E+02 0.  0.
      -13    1    3    3    0    0 -0.45142215102E+02  0.38835876023E+02  0.87997740058E+03  0.88198994914E+03  0.00000000000E+00 0.  1.
       14    1    3    3    0    0  0.29142521846E+02 -0.54255696425E+00  0.27766877169E+03  0.27919442638E+03  0.00000000000E+00 0. -1.
        1    1    4    4  502    0  0.18530580489E+02 -0.33902250985E+02  0.61801556084E+03  0.61922207525E+03  0.00000000000E+00 0. -1.
       -2    1    4    4    0  502 -0.25308872329E+01 -0.43910680734E+01 -0.59937202652E+00  0.51035395401E+01  0.00000000000E+00 0.  1.
</event>
<event>
 8   1  0.2279600E-02  0.3738534E+03  0.7546771E-02  0.1053276E+00
        2   -1    0    0  501    0  0.00000000000E+00  0.00000000000E+00  0.35107783809E+04  0.35107783809E+04  0.00000000000E+00 0. -1.
       -2   -1    0    0    0  501 -0.00000000000E+00 -0.00000000000E+00 -0.18066670686E+03  0.18066670686E+03  0.00000000000E+00 0.  1.
       24    2    1    2    0    0 -0.35352832042E+03 -0.90006137427E+02  0.32948459376E+04  0.33159320150E+04  0.79448079500E+02 0.  0.
      -24    2    1    2    0    0  0.35352832042E+03  0.90006137427E+02  0.35265736421E+02  0.37551307276E+03  0.81749724955E+02 0.  0.
      -13    1    3    3    0    0 -0.23536801554E+02  0.11127388029E+02  0.34050367290E+03  0.34149751250E+03  0.00000000000E+00 0.  1.
       14    1    3    3    0    0 -0.32999151887E+03 -0.10113352546E+03  0.29543422648E+04  0.29744345025E+04  0.00000000000E+00 0. -1.
        3    1    4    4  502    0  0.22793787256E+00  0.27452026974E+01  0.10387593674E+02  0.10746636490E+02  0.00000000000E+00 0. -1.
       -4    1    4    4    0  502  0.35330038255E+03  0.87260934730E+02  0.24878142748E+02  0.36476643627E+03  0.00000000000E+00 0.  1.
</event>
<event>
 8   1  0.2279600E-02  0.1057453E+03  0.7546771E-02  0.1270624E+00
       -2   -1    0    0    0  501 -0.00000000000E+00  0.00000000000E+00  0.70795702481E+02  0.70795702481E+02  0.00000000000E+00 0.  1.
        2   -1    0    0  501    0  0.00000000000E+00 -0.00000000000E+00 -0.15456841535E+03  0.15456841535E+03  0.00000000000E+00 0. -1.
      -24    2    1    2    0    0  0.68207836832E+02 -0.68466361097E+01 -0.55320754851E+02  0.11585807400E+03  0.75256374888E+02 0.  0.
       24    2    1    2    0    0 -0.68207836832E+02  0.68466361097E+01 -0.28451958017E+02  0.10950604384E+03  0.80516298289E+02 0.  0.
      -13    1    4    4    0    0 -0.53720996861E+02  0.97322469719E+01  0.20543250154E+02  0.58332557476E+02  0.00000000000E+00 0.  1.
       14    1    4    4    0    0 -0.14486839971E+02 -0.28856108622E+01 -0.48995208171E+02  0.51173486359E+02  0.00000000000E+00 0. -1.
        3    1    3    3  502    0  0.18365478549E+02  0.23641640344E+02  0.66712270324E+01  0.30671211756E+02  0.00000000000E+00 0. -1.
       -4    1    3    3    0  502  0.49842358283E+02 -0.30488276453E+02 -0.61991981884E+02  0.85186862239E+02  0.00000000000E+00 0.  1.
</event>
<event>
 8   1  0.2279600E-02  0.1027597E+03  0.7546771E-02  0.1278289E+00
        3   -1    0    0  501    0  0.00000000000E+00  0.00000000000E+00  0.28288159492E+03  0.28288159492E+03  0.00000000000E+00 0. -1.
       -3   -1    0    0    0  501 -0.00000000000E+00 -0.00000000000E+00 -0.34924161157E+02  0.34924161157E+02  0.00000000000E+00 0.  1.
       24    2    1    2    0    0 -0.12032414239E+02  0.54505133545E+02  0.13677131803E+03  0.17107292508E+03  0.86278407997E+02 0.  0.
      -24    2    1    2    0    0  0.12032414239E+02 -0.54505133545E+02  0.11118611573E+03  0.14673283099E+03  0.77798346920E+02 0.  0.
      -13    1    3    3    0    0  0.32479026385E+02  0.16867550616E+01  0.56336529242E+02  0.65050263832E+02  0.00000000000E+00 0.  1.
       14    1    3    3    0    0 -0.44511440623E+02  0.52818378484E+02  0.80434788783E+02  0.10602266125E+03  0.00000000000E+00 0. -1.
        1    1    4    4  502    0  0.21764322128E+02  0.12882030003E+02  0.16839932020E+02  0.30384465194E+02  0.00000000000E+00 0. -1.
       -2    1    4    4    0  502 -0.97319078893E+01 -0.67387163548E+02  0.94346183714E+02  0.11634836580E+03  0.00000000000E+00 0.  1.
</event>
<event>
 8   1  0.2279600E-02  0.1148027E+03  0.7546771E-02  0.1252524E+00
       -2   -1    0    0    0  501 -0.00000000000E+00  0.00000000000E+00  0.50939699972E+02  0.50939699972E+02  0.00000000000E+00 0.  1.
        2   -1    0    0  501    0  0.00000000000E+00 -0.00000000000E+00 -0.62359478116E+03  0.62359478116E+03  0.00000000000E+00 0. -1.
      -24    2    1    2    0    0  0.57923911618E+02 -0.54061274063E+02 -0.26570729538E+02  0.11651316449E+03  0.81188133005E+02 0.  0.
       24    2    1    2    0    0 -0.57923911618E+02  0.54061274063E+02 -0.54608435165E+03  0.55802131664E+03  0.83077492862E+02 0.  0.
      -13    1    4    4    0    0 -0.23396458478E+02  0.11611340300E+02 -0.33279496319E+02  0.42305346803E+02  0.00000000000E+00 0.  1.
       14    1    4    4    0    0 -0.34527453140E+02  0.42449933763E+02 -0.51280485533E+03  0.51571596984E+03  0.00000000000E+00 0. -1.
        1    1    3    3  502    0 -0.17305059348E+02 -0.29582741851E+02 -0.63082346823E+01  0.34848206830E+02  0.00000000000E+00 0. -1.
       -2    1    3    3    0  502  0.75228970966E+02 -0.24478532211E+02 -0.20262494856E+02  0.81664957660E+02  0.00000000000E+00 0.  1.
</event>
<event>
 8   1  0.2279600E-02  0.1007035E+03  0.7546771E-02  0.1280722E+00
       -2   -1    0    0    0  501 -0.00000000000E+00  0.00000000000E+00  0.22482075620E+02  0.22482075620E+02  0.00000000000E+00 0.  1.
        2   -1    0    0  501    0  0.00000000000E+00 -0.00000000000E+00 -0.13272263639E+04  0.13272263639E+04  0.00000000000E+00 0. -1.
      -24    2    1    2    0    0 -0.61796092685E+02  0.10813241851E+02 -0.10301359970E+03  0.14405898449E+03  0.78775034244E+02 0.  0.
       24    2    1    2    0    0  0.61796092685E+02 -0.10813241851E+02 -0.12017306886E+04  0.12056494551E+04  0.74150369226E+02 0.  0.
      -13    1    4    4    0    0 -0.14552120923E+02 -0.12777708273E+02 -0.17098878514E+03  0.17208195343E+03  0.00000000000E+00 0.  1.
       14    1    4    4    0    0  0.76348213608E+02  0.19644664215E+01 -0.10307419035E+04  0.10335675016E+04  0.00000000000E+00 0. -1.
        1    1    3    3  502    0 -0.40548394097E+01  0.16813310009E+02 -0.79609574751E+02  0.81466640462E+02  0.00000000000E+00 0. -1.
       -2    1    3    3    0  502 -0.57741253276E+02 -0.60000681582E+01 -0.23404024949E+02  0.62592344033E+02  0.00000000000E+00 0.  1.
</event>
<event>
 8   1  0.2279600E-02  0.8129814E+02  0.7546771E-02  0.1326017E+00
        2   -1    0    0  501    0  0.00000000000E+00  0.00000000000E+00  0.12392265594E+04  0.12392265594E+04  0.00000000000E+00 0. -1.
       -2   -1    0    0    0  501 -0.00000000000E+00 -0.00000000000E+00 -0.55507590179E+01  0.55507590179E+01  0.00000000000E+00 0.  1.
      -24    2    1    2    0    0 -0.16086950210E+02 -0.90499496708E+01  0.48161811017E+03  0.48843156211E+03  0.79175092429E+02 0.  0.
       24    2    1    2    0    0  0.16086950210E+02  0.90499496708E+01  0.75205769017E+03  0.75634575627E+03  0.78277979841E+02 0.  0.
      -13    1    4    4    0    0  0.33669714469E+02 -0.24988803668E+02  0.36740850907E+03  0.36979332406E+03  0.00000000000E+00 0.  1.
       14    1    4    4    0    0 -0.17582764260E+02  0.34038753339E+02  0.38464918110E+03  0.38655243221E+03  0.00000000000E+00 0. -1.
        3    1    3    3  502    0 -0.43952118215E+02  0.62482444735E+00  0.38250166386E+03  0.38501909298E+03  0.00000000000E+00 0. -1.
       -4    1    3    3    0  502  0.27865168005E+02 -0.96747741181E+01  0.99116446314E+02  0.10341246913E+03  0.00000000000E+00 0.  1.
</event>
<event>
 8   1  0.2279600E-02  0.1297696E+03  0.7546771E-02  0.1228057E+00
        1   -1    0    0  501    0  0.00000000000E+00  0.00000000000E+00  0.82376271633E+03  0.82376271633E+03  0.00000000000E+00 0. -1.
       -1   -1    0    0    0  501 -0.00000000000E+00 -0.00000000000E+00 -0.47597701951E+02  0.47597701951E+02  0.00000000000E+00 0.  1.
       24    2    1    2    0    0  0.25347647941E+01 -0.10035069697E+03  0.57900855419E+02  0.14146758980E+03  0.81141127004E+02 0.  0.
      -24    2    1    2    0    0 -0.25347647941E+01  0.10035069697E+03  0.71826415896E+03  0.72989282848E+03  0.82240206714E+02 0.  0.
      -13    1    3    3    0    0  0.76000762294E+01 -0.59684361979E+02 -0.11131733528E+02  0.61187414677E+02  0.00000000000E+00 0.  1.
       14    1    3    3    0    0 -0.50653114353E+01 -0.40666334993E+02  0.69032588947E+02  0.80280175127E+02  0.00000000000E+00 0. -1.
        1    1    4    4  502    0  0.32140437572E+01  0.90401482241E+02  0.70999914508E+03  0.71573846067E+03  0.00000000000E+00 0. -1.
       -2    1    4    4    0  502 -0.57488085513E+01  0.99492147311E+01  0.82650138764E+01  0.14154367803E+02  0.00000000000E+00 0.  1.
</event>
<event>
 8   1  0.2279600E-02  0.1475186E+03  0.7546771E-02  0.1203648E+00
       -2   -1    0    0    0  501 -0.00000000000E+00  0.00000000000E+00  0.29130900075E+02  0.29130900075E+02  0.00000000000E+00 0.  1.
        2   -1    0    0  501    0  0.00000000000E+00 -0.00000000000E+00 -0.99976738426E+03  0.99976738426E+03  0.00000000000E+00 0. -1.
      -24    2    1    2    0    0  0.74280525493E+02 -0.98602194993E+02 -0.22626335316E+03  0.27010522380E+03  0.80757275939E+02 0.  0.
       24    2    1    2    0    0 -0.74280525493E+02  0.98602194993E+02 -0.74437313103E+03  0.75879306054E+03  0.80221949595E+02 0.  0.
      -13    1    4    4    0    0  0.73089926643E+01  0.16111644668E+02 -0.28255659152E+02  0.33337497533E+02  0.00000000000E+00 0.  1.
       14    1    4    4    0    0 -0.81589518157E+02  0.82490550325E+02 -0.71611747188E+03  0.72545556300E+03  0.00000000000E+00 0. -1.
        3    1    3    3  502    0 -0.87837878160E+01  0.24083385870E+01 -0.48897876063E+02  0.49738891289E+02  0.00000000000E+00 0. -1.
       -4    1    3    3    0  502  0.83064313309E+02 -0.10101053358E+03 -0.17736547709E+03  0.22036633251E+03  0.00000000000E+00 0.  1.
</event>
<event>
 8   1  0.2279600E-02  0.8960866E+02  0.7546771E-02  0.1304239E+00
       -1   -1    0    0    0  501 -0.00000000000E+00  0.00000000000E+00  0.17172203036E+03  0.17172203036E+03  0.00000000000E+00 0.  1.
        1   -1    0    0  501    0  0.00000000000E+00 -0.00000000000E+00 -0.61865073587E+02  0.61865073587E+02  0.00000000000E+00 0. -1.
       24    2    1    2    0    0 -0.38016939014E+02 -0.70050491534E+01  0.11318060632E+03  0.14391682432E+03  0.80049011918E+02 0.  0.
      -24    2    1    2    0    0  0.38016939014E+02  0.70050491534E+01 -0.33236495520E+01  0.89670279626E+02  0.80841536577E+02 0.  0.
      -13    1    3    3    0    0  0.16960923502E+02 -0.24023538302E+02  0.53228250149E+02  0.60811593735E+02  0.00000000000E+00 0.  1.
       14    1    3    3    0    0 -0.54977862517E+02  0.17018489149E+02  0.59952356174E+02  0.83105230586E+02  0.00000000000E+00 0. -1.
        3    1    4    4  502    0  0.54386645426E+02 -0.20065914362E+02 -0.24970936706E+01  0.58023991561E+02  0.00000000000E+00 0. -1.
       -4    1    4    4    0  502 -0.16369706411E+02  0.27070963516E+02 -0.82655588140E+00  0.31646288065E+02  0.00000000000E+00 0.  1.
</event>
<event>
 8   1  0.2279600E-02  0.1161783E+03  0.7546771E-02  0.1250859E+00
        2   -1    0    0  501    0  0.00000000000E+00  0.00000000000E+00  0.15226420801E+04  0.15226420801E+04  0.00000000000E+00 0. -1.
       -2   -1    0    0    0  501 -0.00000000000E+00 -0.00000000000E+00 -0.92558503143E+01  0.92558503143E+01  0.00000000000E+00 0.  1.
      -24    2    1    2    0    0  0.50512402119E+02 -0.59674664024E+02  0.94571463783E+03  0.95245989009E+03  0.81799130460E+02 0.  0.
       24    2    1    2    0    0 -0.50512402119E+02  0.59674664024E+02  0.56767159197E+03  0.57943804033E+03  0.85935079909E+02 0.  0.
      -13    1    4    4    0    0  0.11326053083E+02  0.51754922930E+02  0.22615584864E+03  0.23227853840E+03  0.00000000000E+00 0.  1.
       14    1    4    4    0    0 -0.61838455202E+02  0.79197410938E+01  0.34151574332E+03  0.34715950193E+03  0.00000000000E+00 0. -1.
        1    1    3    3  502    0 -0.97482267874E+01 -0.38318698701E+02  0.56784568863E+03  0.56922058702E+03  0.00000000000E+00 0. -1.
       -2    1    3    3    0  502  0.60260628906E+02 -0.21355965322E+02  0.37786894920E+03  0.38323930307E+03  0.00000000000E+00 0.  1.
</event>
<event>
 8   1  0.2279600E-02  0.8372413E+02  0.7546771E-02  0.1319024E+00
       -2   -1    0    0    0  501 -0.00000000000E+00  0.00000000000E+00  0.54976142828E+01  0.54976142828E+01  0.00000000000E+00 0.  1.
        2   -1    0    0  501    0  0.00000000000E+00 -0.00000000000E+00 -0.12715549124E+04  0.12715549124E+04  0.00000000000E+00 0. -1.
      -24    2    1    2    0    0 -0.22255604334E+02 -0.14496022657E+02 -0.61216671181E+03  0.61786552982E+03  0.79399516954E+02 0.  0.
       24    2    1    2    0    0  0.22255604334E+02  0.14496022657E+02 -0.65389058630E+03  0.65918699686E+03  0.79051574156E+02 0.  0.
      -13    1    4    4    0    0  0.23578010998E+02  0.45804711236E+02 -0.44190641349E+03  0.44489917111E+03  0.00000000000E+00 0.  1.
       14    1    4    4    0    0 -0.13224066643E+01 -0.31308688578E+02 -0.21198417281E+03  0.21428782574E+03  0.00000000000E+00 0. -1.
        1    1    3    3  502    0 -0.34014215581E+02 -0.35832646353E+02 -0.24733010589E+03  0.25221642826E+03  0.00000000000E+00 0. -1.
       -2    1    3    3    0  502  0.11758611247E+02  0.21336623695E+02 -0.36483660592E+03  0.36564910155E+03  0.00000000000E+00 0.  1.
</event>
<event>
 8   1  0.2279600E-02  0.9484141E+02  0.7546771E-02  0.1292422E+00
       -2   -1    0    0    0  501 -0.00000000000E+00  0.00000000000E+00  0.90452650845E+02  0.90452650845E+02  0.00000000000E+00 0.  1.
        2   -1    0    0  501    0  0.00000000000E+00 -0.00000000000E+00 -0.19465572599E+03  0.19465572599E+03  0.00000000000E+00 0. -1.
      -24    2    1    2    0    0  0.67229308306E+01  0.51337764025E+02  0.48662738437E+02  0.10521159862E+03  0.77592876977E+02 0.  0.
       24    2    1    2    0    0 -0.67229308306E+01 -0.51337764025E+02 -0.15286581358E+03  0.17989677822E+03  0.79461500344E+02 0.  0.
      -13    1    4    4    0    0 -0.65992834923E+01  0.90037408285E+01  0.39741155456E+01  0.11849535260E+02  0.00000000000E+00 0.  1.
       14    1    4    4    0    0 -0.12364733830E+00 -0.60341504854E+02 -0.15683992913E+03  0.16804724296E+03  0.00000000000E+00 0. -1.
        1    1    3    3  502    0  0.27001953019E+02  0.18244084301E+02 -0.10688884124E+02  0.34295835354E+02  0.00000000000E+00 0. -1.
       -2    1    3    3    0  502 -0.20279022189E+02  0.33093679724E+02  0.59351622561E+02  0.70915763264E+02  0.00000000000E+00 0.  1.
</event>
<event>
 8   1  0.2279600E-02  0.9477079E+02  0.7546771E-02  0.1295444E+00
       -2   -1    0    0    0  501 -0.00000000000E+00  0.00000000000E+00  0.44871489482E+03  0.44871489482E+03  0.00000000000E+00 0.  1.
        2   -1    0    0  501    0  0.00000000000E+00 -0.00000000000E+00 -0.28224678994E+03  0.28224678994E+03  0.00000000000E+00 0. -1.
       24    2    1    2    0    0  0.33003293658E+02 -0.13611331477E+02 -0.27011812973E+03  0.28420779012E+03  0.80844160086E+02 0.  0.
      -24    2    1    2    0    0 -0.33003293658E+02  0.13611331477E+02  0.43658623461E+03  0.44675389464E+03  0.87789614349E+02 0.  0.
      -13    1    3    3    0    0  0.45562380684E-01  0.26440785911E+02 -0.16370404236E+03  0.16582560333E+03  0.00000000000E+00 0.  1.
       14    1    3    3    0    0  0.32957731278E+02 -0.40052117388E+02 -0.10641408737E+03  0.11838218679E+03  0.00000000000E+00 0. -1.
        1    1    4    4  502    0 -0.95468562240E+01 -0.84017156530E+01  0.45273869833E+01  0.13499204516E+02  0.00000000000E+00 0. -1.
       -2    1    4    4    0  502 -0.23456437434E+02  0.22013047130E+02  0.43205884763E+03  0.43325469013E+03  0.00000000000E+00 0.  1.
</event>
<event>
 8   1  0.2279600E-02  0.1005433E+03  0.7546771E-02  0.1280203E+00
        2   -1    0    0  501    0  0.00000000000E+00  0.00000000000E+00  0.12683299299E+04  0.12683299299E+04  0.00000000000E+00 0. -1.
       -2   -1    0    0    0  501 -0.00000000000E+00 -0.00000000000E+00 -0.12410722956E+02  0.12410722956E+02  0.00000000000E+00 0.  1.
      -24    2    1    2    0    0  0.51948047392E+02 -0.22308798991E+02  0.24218288461E+03  0.26222416025E+03  0.83142519095E+02 0.  0.
       24    2    1    2    0    0 -0.51948047392E+02  0.22308798991E+02  0.10137363223E+04  0.10185164926E+04  0.80735570525E+02 0.  0.
      -13    1    4    4    0    0 -0.94654842487E+01 -0.13009721573E+02  0.38630873614E+02  0.41847253717E+02  0.00000000000E+00 0.  1.
       14    1    4    4    0    0 -0.42482563143E+02  0.35318520564E+02  0.97510544873E+03  0.97666923890E+03  0.00000000000E+00 0. -1.
        1    1    3    3  502    0  0.32297908013E+02 -0.99886243022E+01  0.23574154051E+03  0.23815331491E+03  0.00000000000E+00 0. -1.
       -2    1    3    3    0  502  0.19650139378E+02 -0.12320174689E+02  0.64413441002E+01  0.24070845348E+02  0.00000000000E+00 0.  1.
</event>
<event>
 8   1  0.2279600E-02  0.9665374E+02  0.7546771E-02  0.1288063E+00
       -2   -1    0    0    0  501 -0.00000000000E+00  0.00000000000E+00  0.28129575393E+03  0.28129575393E+03  0.00000000000E+00 0.  1.
        2   -1    0    0  501    0  0.00000000000E+00 -0.00000000000E+00 -0.19698939730E+03  0.19698939730E+03  0.00000000000E+00 0. -1.
      -24    2    1    2    0    0  0.51793041075E+02  0.24491797499E+01  0.26040352041E+03  0.27740668939E+03  0.80348990598E+02 0.  0.
       24    2    1    2    0    0 -0.51793041075E+02 -0.24491797499E+01 -0.17609716378E+03  0.20087846183E+03  0.81568546331E+02 0.  0.
      -13    1    4    4    0    0  0.22092619374E+01 -0.33312074314E+02 -0.76310041582E+02  0.83293442597E+02  0.00000000000E+00 0.  1.
       14    1    4    4    0    0 -0.54002303012E+02  0.30862894564E+02 -0.99787122202E+02  0.11758501924E+03  0.00000000000E+00 0. -1.
        1    1    3    3  502    0  0.52102575968E+02 -0.22864824728E+02  0.10030898225E+03  0.11532289691E+03  0.00000000000E+00 0. -1.
       -2    1    3    3    0  502 -0.30953489332E+00  0.25314004478E+02  0.16009453816E+03  0.16208379248E+03  0.00000000000E+00 0.  1.
</event>
<event>
 8   1  0.2279600E-02  0.1302367E+03  0.7546771E-02  0.1227136E+00
       -1   -1    0    0    0  501 -0.00000000000E+00  0.00000000000E+00  0.29073209940E+02  0.29073209940E+02  0.00000000000E+00 0.  1.
        1   -1    0    0  501    0  0.00000000000E+00 -0.00000000000E+00 -0.14256876552E+04  0.14256876552E+04  0.00000000000E+00 0. -1.
       24    2    1    2    0    0 -0.10741965857E+02 -0.10164180228E+03 -0.13918997171E+03  0.19061858258E+03  0.80716479111E+02 0.  0.
      -24    2    1    2    0    0  0.10741965857E+02  0.10164180228E+03 -0.12574244736E+04  0.12641422826E+04  0.80578893362E+02 0.  0.
      -13    1    3    3    0    0  0.31183551212E+02 -0.62798777638E+02 -0.56231573005E+02  0.89878196142E+02  0.00000000000E+00 0.  1.
       14    1    3    3    0    0 -0.41925517070E+02 -0.38843024647E+02 -0.82958398701E+02  0.10074038644E+03  0.00000000000E+00 0. -1.
        3    1    4    4  502    0 -0.33063753234E+02  0.50323775847E+02 -0.71657277629E+03  0.71909821159E+03  0.00000000000E+00 0. -1.
       -4    1    4    4    0  502  0.43805719092E+02  0.51318026438E+02 -0.54085169727E+03  0.54504407098E+03  0.00000000000E+00 0.  1.
</event>
<event>
 8   1  0.2279600E-02  0.8875563E+02  0.7546771E-02  0.1307631E+00
        1   -1    0    0  501    0  0.00000000000E+00  0.00000000000E+00  0.19392141774E+03  0.19392141774E+03  0.00000000000E+00 0. -1.
       -1   -1    0    0    0  501 -0.00000000000E+00 -0.00000000000E+00 -0.47160803471E+02  0.47160803471E+02  0.00000000000E+00 0.  1.
       24    2    1    2    0    0  0.10700729137E+02  0.40245460893E+02  0.23406985642E+02  0.89116173242E+02  0.75230330519E+02 0.  0.
      -24    2    1    2    0    0 -0.10700729137E+02 -0.40245460893E+02  0.12335362862E+03  0.15196604797E+03  0.78379584800E+02 0.  0.
      -13    1    3    3    0    0  0.43276106029E+02  0.20801586707E+02  0.11825244051E+02  0.49450619404E+02  0.00000000000E+00 0.  1.
       14    1    3    3    0    0 -0.32575376892E+02  0.19443874185E+02  0.11581741592E+02  0.39665553838E+02  0.00000000000E+00 0. -1.
        1    1    4    4  502    0 -0.44859244170E+02 -0.23665198178E+02  0.73450992157E+02  0.89260526781E+02  0.00000000000E+00 0. -1.
       -2    1    4    4    0  502  0.34158515032E+02 -0.16580262715E+02  0.49902636468E+02  0.62705521187E+02  0.00000000000E+00 0.  1.
</event>
<event>
 8   1  0.2279600E-02  0.9452259E+02  0.7546771E-02  0.1298506E+00
        2   -1    0    0  501    0  0.00000000000E+00  0.00000000000E+00  0.50558374965E+03  0.50558374965E+03  0.00000000000E+00 0. -1.
       -2   -1    0    0    0  501 -0.00000000000E+00 -0.00000000000E+00 -0.18097869360E+02  0.18097869360E+02  0.00000000000E+00 0.  1.
      -24    2    1    2    0    0 -0.17463547741E+02  0.19755824697E+02  0.13800696041E+03  0.16164566073E+03  0.79925780579E+02 0.  0.
       24    2    1    2    0    0  0.17463547741E+02 -0.19755824697E+02  0.34947891987E+03  0.36203595828E+03  0.90770323012E+02 0.  0.
      -13    1    4    4    0    0  0.31773040909E+02 -0.34750174825E+02  0.88597938913E+02  0.10033292360E+03  0.00000000000E+00 0.  1.
       14    1    4    4    0    0 -0.14309493168E+02  0.14994350128E+02  0.26088098096E+03  0.26170303467E+03  0.00000000000E+00 0. -1.
        1    1    3    3  502    0  0.19505484013E+02 -0.15331225051E+02  0.16267386525E+02  0.29667123765E+02  0.00000000000E+00 0. -1.
       -2    1    3    3    0  502 -0.36969031754E+02  0.35087049748E+02  0.12173957389E+03  0.13197853697E+03  0.00000000000E+00 0.  1.
</event>
<event>
 8   1  0.2279600E-02  0.1054310E+03  0.7546771E-02  0.1269911E+00
        1   -1    0    0  501    0  0.00000000000E+00  0.00000000000E+00  0.10988890523E+03  0.10988890523E+03  0.00000000000E+00 0. -1.
       -1   -1    0    0    0  501 -0.00000000000E+00 -0.00000000000E+00 -0.36857972788E+03  0.36857972788E+03  0.00000000000E+00 0.  1.
       24    2    1    2    0    0 -0.55170624675E+02 -0.37454909432E+02 -0.33337802428E+03  0.34926386202E+03  0.79985437247E+02 0.  0.
      -24    2    1    2    0    0  0.55170624675E+02  0.37454909432E+02  0.74687201632E+02  0.12920477109E+03  0.81664109115E+02 0.  0.
      -13    1    3    3    0    0 -0.53551445657E+02  0.30670961928E+01 -0.25951118343E+03  0.26499663910E+03  0.00000000000E+00 0.  1.
       14    1    3    3    0    0 -0.16191790179E+01 -0.40522005625E+02 -0.73866840848E+02  0.84267222913E+02  0.00000000000E+00 0. -1.
        3    1    4    4  502    0  0.68873572863E+01  0.50078347306E+02  0.17950377559E+02  0.53642265181E+02  0.00000000000E+00 0. -1.
       -4    1    4    4    0  502  0.48283267389E+02 -0.12623437874E+02  0.56736824073E+02  0.75562505910E+02  0.00000000000E+00 0.  1.
</event>
<event>
 8   1  0.2279600E-02  0.8755052E+02  0.7546771E-02  0.1308974E+00
       -1   -1    0    0    0  501 -0.00000000000E+00  0.00000000000E+00  0.20763861226E+03  0.20763861226E+03  0.00000000000E+00 0.  1.
        1   -1    0    0  501    0  0.00000000000E+00 -0.00000000000E+00 -0.52774950161E+02  0.52774950161E+02  0.00000000000E+00 0. -1.
       24    2    1    2    0    0  0.23205956037E+02  0.26391686367E+02  0.14896890030E+03  0.17279128264E+03  0.80187633676E+02 0.  0.
      -24    2    1    2    0    0 -0.23205956037E+02 -0.26391686367E+02  0.58947618020E+01  0.87622279784E+02  0.80049223563E+02 0.  0.
      -13    1    3    3    0    0  0.53972930304E+01  0.17200307190E+02  0.15152019691E+03  0.15258883121E+03  0.00000000000E+00 0.  1.
       14    1    3    3    0    0  0.17808663007E+02  0.91913791764E+01 -0.25512966093E+01  0.20202451427E+02  0.00000000000E+00 0. -1.
        3    1    4    4  502    0 -0.33131952650E+02 -0.48906347955E+02 -0.75995189862E+01  0.59559296886E+02  0.00000000000E+00 0. -1.
       -4    1    4    4    0  502  0.99259966130E+01  0.22514661588E+02  0.13494280788E+02  0.28062982899E+02  0.00000000000E+00 0.  1.
</event>
<event>
 8   1  0.2279600E-02  0.1038028E+03  0.7546771E-02  0.1272903E+00
        2   -1    0    0  501    0  0.00000000000E+00  0.00000000000E+00  0.52032148193E+02  0.52032148193E+02  0.00000000000E+00 0. -1.
       -2   -1    0    0    0  501 -0.00000000000E+00 -0.00000000000E+00 -0.21651193850E+03  0.21651193850E+03  0.00000000000E+00 0.  1.
       24    2    1    2    0    0 -0.41183063473E+02 -0.50511688949E+02 -0.11286193475E+03  0.15333897334E+03  0.80793248428E+02 0.  0.
      -24    2    1    2    0    0  0.41183063473E+02  0.50511688949E+02 -0.51617855553E+02  0.11520511335E+03  0.79751737868E+02 0.  0.
      -13    1    3    3    0    0 -0.27290426072E+02 -0.70211641453E+02 -0.10224670676E+03  0.12699933462E+03  0.00000000000E+00 0.  1.
       14    1    3    3    0    0 -0.13892637401E+02  0.19699952504E+02 -0.10615227995E+02  0.26339638722E+02  0.00000000000E+00 0. -1.
        3    1    4    4  502    0  0.57538489410E+02  0.49970571338E+02 -0.18738437809E+02  0.78478435350E+02  0.00000000000E+00 0. -1.
       -4    1    4    4    0  502 -0.16355425937E+02  0.54111761017E+00 -0.32879417744E+02  0.36726678002E+02  0.00000000000E+00 0.  1.
</event>
<event>
 8   1  0.2279600E-02  0.8705232E+02  0.7546771E-02  0.1333383E+00
        2   -1    0    0  501    0  0.00000000000E+00  0.00000000000E+00  0.26244028418E+02  0.26244028418E+02  0.00000000000E+00 0. -1.
       -2   -1    0    0    0  501 -0.00000000000E+00 -0.00000000000E+00 -0.50005157477E+03  0.50005157477E+03  0.00000000000E+00 0.  1.
      -24    2    1    2    0    0 -0.49264467341E+01  0.24094937855E+02 -0.45858525032E+03  0.46677461184E+03  0.83506110813E+02 0.  0.
       24    2    1    2    0    0  0.49264467341E+01 -0.24094937855E+02 -0.15222296038E+02  0.59520991349E+02  0.52021093865E+02 0.  0.
      -13    1    4    4    0    0 -0.15488511545E+02 -0.30625240164E+02 -0.16437746582E+02  0.38052579908E+02  0.00000000000E+00 0.  1.
       14    1    4    4    0    0  0.20414958279E+02  0.65303023082E+01  0.12154505444E+01  0.21468411441E+02  0.00000000000E+00 0. -1.
        1    1    3    3  502    0  0.36409142582E+02 -0.11050935595E+01 -0.14671254999E+03  0.15116685887E+03  0.00000000000E+00 0. -1.
       -2    1    3    3    0  502 -0.41335589316E+02  0.25200031415E+02 -0.31187270033E+03  0.31560775298E+03  0.00000000000E+00 0.  1.
</event>
<event>
 8   1  0.2279600E-02  0.1328773E+03  0.7546771E-02  0.1223374E+00
       -1   -1    0    0    0  501 -0.00000000000E+00  0.00000000000E+00  0.17455078239E+03  0.17455078239E+03  0.00000000000E+00 0.  1.
        1   -1    0    0  501    0  0.00000000000E+00 -0.00000000000E+00 -0.10230120679E+03  0.10230120679E+03  0.00000000000E+00 0. -1.
       24    2    1    2    0    0 -0.19232781849E+02 -0.10347596046E+03  0.19803766322E+02  0.13399913160E+03  0.80538213401E+02 0.  0.
      -24    2    1    2    0    0  0.19232781849E+02  0.10347596046E+03  0.52445809274E+02  0.14285285757E+03  0.81112278450E+02 0.  0.
      -13    1    3    3    0    0  0.28250060698E+02 -0.51739660210E+02  0.24006813865E+02  0.63650494735E+02  0.00000000000E+00 0.  1.
       14    1    3    3    0    0 -0.47482842547E+02 -0.51736300253E+02 -0.42030475436E+01  0.70348636866E+02  0.00000000000E+00 0. -1.
        1    1    4    4  502    0  0.28750836899E+02  0.10655456077E+03  0.63992458677E+02  0.12757554550E+03  0.00000000000E+00 0. -1.
       -2    1    4    4    0  502 -0.95180550496E+01 -0.30786003029E+01 -0.11546649403E+02  0.15277312073E+02  0.00000000000E+00 0.  1.
</event>
<event>
 8   1  0.2279600E-02  0.1793830E+03  0.7546771E-02  0.1168936E+00
        2   -1    0    0  501    0  0.00000000000E+00  0.00000000000E+00  0.15989702658E+04  0.15989702658E+04  0.00000000000E+00 0. -1.
       -2   -1    0    0    0  501 -0.00000000000E+00 -0.00000000000E+00 -0.19924628013E+02  0.19924628013E+02  0.00000000000E+00 0.  1.
       24    2    1    2    0    0  0.93756437993E+02 -0.12887139231E+03  0.74632024845E+03  0.76706754225E+03  0.77463512012E+02 0.  0.
      -24    2    1    2    0    0 -0.93756437993E+02  0.12887139231E+03  0.83272538933E+03  0.85182735156E+03  0.82341711291E+02 0.  0.
      -13    1    3    3    0    0  0.85373227472E+02 -0.10116252592E+03  0.44260650735E+03  0.46197723425E+03  0.00000000000E+00 0.  1.
       14    1    3    3    0    0  0.83832105208E+01 -0.27708866386E+02  0.30371374111E+03  0.30509030800E+03  0.00000000000E+00 0. -1.
        1    1    4    4  502    0 -0.40816735908E+02  0.19262077513E+02  0.39239153504E+03  0.39497867073E+03  0.00000000000E+00 0. -1.
       -2    1    4    4    0  502 -0.52939702085E+02  0.10960931480E+03  0.44033385428E+03  0.45684868083E+03  0.00000000000E+00 0.  1.
</event>
<event>
 8   1  0.2279600E-02  0.7906549E+02  0.7546771E-02  0.1335115E+00
        2   -1    0    0  501    0  0.00000000000E+00  0.00000000000E+00  0.14828928640E+04  0.14828928640E+04  0.00000000000E+00 0. -1.
       -2   -1    0    0    0  501 -0.00000000000E+00 -0.00000000000E+00 -0.39791772025E+01  0.39791772025E+01  0.00000000000E+00 0.  1.
      -24    2    1    2    0    0 -0.10049930639E+01  0.81266865945E+01  0.74134349432E+03  0.74554780375E+03  0.78640308079E+02 0.  0.
       24    2    1    2    0    0  0.10049930639E+01 -0.81266865945E+01  0.73757019247E+03  0.74132423745E+03  0.74059321913E+02 0.  0.
      -13    1    4    4    0    0 -0.13340846838E+02  0.25278783215E+02  0.15450199279E+03  0.15712371193E+03  0.00000000000E+00 0.  1.
       14    1    4    4    0    0  0.14345839901E+02 -0.33405469809E+02  0.58306819969E+03  0.58420052553E+03  0.00000000000E+00 0. -1.
        3    1    3    3  502    0  0.37327443215E+00 -0.26734816929E+02  0.57317958095E+03  0.57380285969E+03  0.00000000000E+00 0. -1.
       -4    1    3    3    0  502 -0.13782674960E+01  0.34861503524E+02  0.16816391337E+03  0.17174494406E+03  0.00000000000E+00 0.  1.
</event>
<event>
 8   1  0.2279600E-02  0.8726933E+02  0.7546771E-02  0.1313573E+00
        2   -1    0    0  501    0  0.00000000000E+00  0.00000000000E+00  0.23854463965E+04  0.23854463965E+04  0.00000000000E+00 0. -1.
       -2   -1    0    0    0  501 -0.00000000000E+00 -0.00000000000E+00 -0.44260684838E+01  0.44260684838E+01  0.00000000000E+00 0.  1.
      -24    2    1    2    0    0  0.12715886481E+02 -0.10896846593E+02  0.53537593386E+03  0.54244200212E+03  0.85647533964E+02 0.  0.
       24    2    1    2    0    0 -0.12715886481E+02  0.10896846593E+02  0.18456443942E+04  0.18474304629E+04  0.79471066418E+02 0.  0.
      -13    1    4    4    0    0  0.33726022809E+02  0.24903154456E+01  0.83537530957E+03  0.83605953982E+03  0.00000000000E+00 0.  1.
       14    1    4    4    0    0 -0.46441909290E+02  0.84065311470E+01  0.10102690846E+04  0.10113709230E+04  0.00000000000E+00 0. -1.
        3    1    3    3  502    0  0.85343454117E+01 -0.44964784091E+01  0.53467793418E+03  0.53476494525E+03  0.00000000000E+00 0. -1.
       -4    1    3    3    0  502  0.41815410697E+01 -0.64003681835E+01  0.69799967700E+00  0.76770568678E+01  0.00000000000E+00 0.  1.
</event>
<event>
 8   1  0.2279600E-02  0.8503229E+02  0.7546771E-02  0.1316656E+00
        2   -1    0    0  501    0  0.00000000000E+00  0.00000000000E+00  0.12732366921E+04  0.12732366921E+04  0.00000000000E+00 0. -1.
       -2   -1    0    0    0  501 -0.00000000000E+00 -0.00000000000E+00 -0.14308184257E+02  0.14308184257E+02  0.00000000000E+00 0.  1.
       24    2    1    2    0    0  0.26612352667E+02  0.29588385758E+00  0.11303214575E+04  0.11333687979E+04  0.78676107103E+02 0.  0.
      -24    2    1    2    0    0 -0.26612352667E+02 -0.29588385758E+00  0.12860705033E+03  0.15417607848E+03  0.80760045314E+02 0.  0.
      -13    1    3    3    0    0 -0.98963092496E+01 -0.88296793175E+01  0.89166396820E+03  0.89176259865E+03  0.00000000000E+00 0.  1.
       14    1    3    3    0    0  0.36508661916E+02  0.91255631751E+01  0.23865748932E+03  0.24160619923E+03  0.00000000000E+00 0. -1.
        3    1    4    4  502    0  0.57038940857E+01 -0.35632365722E+02  0.67513781483E+02  0.76552665433E+02  0.00000000000E+00 0. -1.
       -4    1    4    4    0  502 -0.32316246752E+02  0.35336481864E+02  0.61093268851E+02  0.77623413051E+02  0.00000000000E+00 0.  1.
</event>
<event>
 8   1  0.2279600E-02  0.1052651E+03  0.7546771E-02  0.1270209E+00
        2   -1    0    0  501    0  0.00000000000E+00  0.00000000000E+00  0.64730989143E+02  0.64730989143E+02  0.00000000000E+00 0. -1.
       -2   -1    0    0    0  501 -0.00000000000E+00 -0.00000000000E+00 -0.27670199913E+03  0.27670199913E+03  0.00000000000E+00 0.  1.
      -24    2    1    2    0    0 -0.66796392037E+02 -0.96471874254E+01 -0.21278770403E+03  0.23740125340E+03  0.80783178403E+02 0.  0.
       24    2    1    2    0    0  0.66796392037E+02  0.96471874254E+01  0.81669404433E+00  0.10403173488E+03  0.79165072208E+02 0.  0.
      -13    1    4    4    0    0  0.27806199135E+02  0.29217412471E+01 -0.38942659013E+02  0.47940087330E+02  0.00000000000E+00 0.  1.
       14    1    4    4    0    0  0.38990192902E+02  0.67254461783E+01  0.39759353057E+02  0.56091647546E+02  0.00000000000E+00 0. -1.
        1    1    3    3  502    0 -0.16060217021E+02  0.34464071920E+02 -0.75149151701E+02  0.84220530902E+02  0.00000000000E+00 0. -1.
       -2    1    3    3    0  502 -0.50736175016E+02 -0.44111259345E+02 -0.13763855233E+03  0.15318072250E+03  0.00000000000E+00 0.  1.
</event>
<event>
 8   1  0.2279600E-02  0.8931616E+02  0.7546771E-02  0.1305504E+00
       -1   -1    0    0    0  501 -0.00000000000E+00  0.00000000000E+00  0.47276356341E+03  0.47276356341E+03  0.00000000000E+00 0.  1.
        1   -1    0    0  501    0  0.00000000000E+00 -0.00000000000E+00 -0.57283017172E+02  0.57283017172E+02  0.00000000000E+00 0. -1.
       24    2    1    2    0    0  0.63684692743E+01 -0.34014822810E+02  0.43170007282E+03  0.44084274995E+03  0.82339612202E+02 0.  0.
      -24    2    1    2    0    0 -0.63684692743E+01  0.34014822810E+02 -0.16219526579E+02  0.89203830635E+02  0.80602014776E+02 0.  0.
      -13    1    3    3    0    0 -0.80488252333E+01 -0.56627373319E+02  0.35526159040E+03  0.35983640812E+03  0.00000000000E+00 0.  1.
       14    1    3    3    0    0  0.14417294508E+02  0.22612550509E+02  0.76438482427E+02  0.81006341833E+02  0.00000000000E+00 0. -1.
        1    1    4    4  502    0 -0.32364708178E+02  0.96461056327E+01 -0.35242851396E+02  0.48811681633E+02  0.00000000000E+00 0. -1.
       -2    1    4    4    0  502  0.25996238904E+02  0.24368717177E+02  0.19023324816E+02  0.40392149003E+02  0.00000000000E+00 0.  1.
</event>
<event>
 8   1  0.2279600E-02  0.1059367E+03  0.7546771E-02  0.1269152E+00
        1   -1    0    0  501    0  0.00000000000E+00  0.00000000000E+00  0.21643669133E+02  0.21643669133E+02  0.00000000000E+00 0. -1.
       -1   -1    0    0    0  501 -0.00000000000E+00 -0.00000000000E+00 -0.53224135664E+03  0.53224135664E+03  0.00000000000E+00 0.  1.
       24    2    1    2    0    0 -0.49942201350E+02 -0.42998741652E+02 -0.30996886780E+03  0.32700506716E+03  0.80675273079E+02 0.  0.
      -24    2    1    2    0    0  0.49942201350E+02  0.42998741652E+02 -0.20062881971E+03  0.22687995861E+03  0.82942613066E+02 0.  0.
      -13    1    3    3    0    0  0.31529043380E+01 -0.16382913945E+02 -0.21045337323E+03  0.21111362576E+03  0.00000000000E+00 0.  1.
       14    1    3    3    0    0 -0.53095105688E+02 -0.26615827707E+02 -0.99515494568E+02  0.11589144141E+03  0.00000000000E+00 0. -1.
        3    1    4    4  502    0 -0.12128745731E+02  0.41415424485E+02 -0.95224761587E+02  0.10454711415E+03  0.00000000000E+00 0. -1.
       -4    1    4    4    0  502  0.62070947081E+02  0.15833171665E+01 -0.10540405812E+03  0.12233284446E+03  0.00000000000E+00 0.  1.
</event>
<event>
 8   1  0.2279600E-02  0.1247703E+03  0.7546771E-02  0.1236324E+00
        1   -1    0    0  501    0  0.00000000000E+00  0.00000000000E+00  0.75818257715E+03  0.75818257715E+03  0.00000000000E+00 0. -1.
       -1   -1    0    0    0  501 -0.00000000000E+00 -0.00000000000E+00 -0.20997132899E+02  0.20997132899E+02  0.00000000000E+00 0.  1.
       24    2    1    2    0    0  0.94841746554E+02 -0.12266920625E+02  0.44953604253E+03  0.46653004481E+03  0.80138598368E+02 0.  0.
      -24    2    1    2    0    0 -0.94841746554E+02  0.12266920625E+02  0.28764940172E+03  0.31264966523E+03  0.76565009176E+02 0.  0.
      -13    1    3    3    0    0  0.66761855332E+02 -0.27130237734E+02  0.16276721037E+03  0.17800662881E+03  0.00000000000E+00 0.  1.
       14    1    3    3    0    0  0.28079891222E+02  0.14863317108E+02  0.28676883216E+03  0.28852341601E+03  0.00000000000E+00 0. -1.
        1    1    4    4  502    0 -0.25534218768E+02 -0.79210722440E+01  0.15103869792E+02  0.30706132878E+02  0.00000000000E+00 0. -1.
       -2    1    4    4    0  502 -0.69307527786E+02  0.20187992869E+02  0.27254553192E+03  0.28194353235E+03  0.00000000000E+00 0.  1.
</event>
<event>
 8   1  0.2279600E-02  0.1037172E+03  0.7546771E-02  0.1275829E+00
       -1   -1    0    0    0  501 -0.00000000000E+00  0.00000000000E+00  0.27609931343E+02  0.27609931343E+02  0.00000000000E+00 0.  1.
        1   -1    0    0  501    0  0.00000000000E+00 -0.00000000000E+00 -0.52135879516E+03  0.52135879516E+03  0.00000000000E+00 0. -1.
       24    2    1    2    0    0  0.21835794221E+02 -0.51244006987E+02 -0.92296196951E+02  0.13433453924E+03  0.80152543940E+02 0.  0.
      -24    2    1    2    0    0 -0.21835794221E+02  0.51244006987E+02 -0.40145266686E+03  0.41463418726E+03  0.87490087162E+02 0.  0.
      -13    1    3    3    0    0  0.41595304647E+02 -0.62231016496E+02 -0.67706541291E+02  0.10093088980E+03  0.00000000000E+00 0.  1.
       14    1    3    3    0    0 -0.19759510427E+02  0.10987009510E+02 -0.24589655660E+02  0.33403649438E+02  0.00000000000E+00 0. -1.
        1    1    4    4  502    0 -0.28642560723E+02  0.70515008165E+02 -0.36492651267E+03  0.37277891882E+03  0.00000000000E+00 0. -1.
       -2    1    4    4    0  502  0.68067665024E+01 -0.19271001179E+02 -0.36526154191E+02  0.41855268446E+02  0.00000000000E+00 0.  1.
</event>
<event>
 8   1  0.2279600E-02  0.1106842E+03  0.7546771E-02  0.1260179E+00
       -1   -1    0    0    0  501 -0.00000000000E+00  0.00000000000E+00  0.37949728177E+02  0.37949728177E+02  0.00000000000E+00 0.  1.
        1   -1    0    0  501    0  0.00000000000E+00 -0.00000000000E+00 -0.32884069311E+03  0.32884069311E+03  0.00000000000E+00 0. -1.
       24    2    1    2    0    0 -0.73052369011E+02 -0.31076275671E+01 -0.10998144486E+03  0.15470730379E+03  0.80573728120E+02 0.  0.
      -24    2    1    2    0    0  0.73052369011E+02  0.31076275671E+01 -0.18090952007E+03  0.21208311750E+03  0.83094454148E+02 0.  0.
      -13    1    3    3    0    0 -0.36760099616E+02  0.34747551048E+02 -0.29230209287E+02  0.58421762747E+02  0.00000000000E+00 0.  1.
       14    1    3    3    0    0 -0.36292269395E+02 -0.37855178615E+02 -0.80751235578E+02  0.96285541039E+02  0.00000000000E+00 0. -1.
        1    1    4    4  502    0  0.90662238072E+02 -0.52023716204E+01 -0.14165171536E+03  0.16826144701E+03  0.00000000000E+00 0. -1.
       -2    1    4    4    0  502 -0.17609869061E+02  0.83099991875E+01 -0.39257804702E+02  0.43821670493E+02  0.00000000000E+00 0.  1.
</event>
<event>
 8   1  0.2279600E-02  0.7423144E+03  0.7546771E-02  0.9647606E-01
        2   -1    0    0  501    0  0.00000000000E+00  0.00000000000E+00  0.29367640310E+04  0.29367640310E+04  0.00000000000E+00 0. -1.
       -2   -1    0    0    0  501 -0.00000000000E+00 -0.00000000000E+00 -0.20202519267E+03  0.20202519267E+03  0.00000000000E+00 0.  1.
      -24    2    1    2    0    0  0.66305266419E+03  0.32377364747E+03  0.94761572678E+03  0.12037467716E+04  0.81009347143E+02 0.  0.
       24    2    1    2    0    0 -0.66305266419E+03 -0.32377364747E+03  0.17871231116E+04  0.19350424521E+04  0.78179697142E+02 0.  0.
      -13    1    4    4    0    0 -0.26805545642E+03 -0.16952409658E+03  0.72049765717E+03  0.78721599388E+03  0.00000000000E+00 0.  1.
       14    1    4    4    0    0 -0.39499720777E+03 -0.15424955089E+03  0.10666254544E+04  0.11478264582E+04  0.00000000000E+00 0. -1.
        3    1    3    3  502    0  0.31352261959E+02  0.47248906500E+01  0.22028194424E+02  0.38607386225E+02  0.00000000000E+00 0. -1.
       -4    1    3    3    0  502  0.63170040223E+03  0.31904875682E+03  0.92558753235E+03  0.11651393854E+04  0.00000000000E+00 0.  1.
</event>
<event>
 8   1  0.2279600E-02  0.8127163E+02  0.7546771E-02  0.1325813E+00
       -1   -1    0    0    0  501 -0.00000000000E+00  0.00000000000E+00  0.75442309364E+03  0.75442309364E+03  0.00000000000E+00 0.  1.
        1   -1    0    0  501    0  0.00000000000E+00 -0.00000000000E+00 -0.25152173853E+02  0.25152173853E+02  0.00000000000E+00 0. -1.
       24    2    1    2    0    0 -0.71152770838E+01 -0.14308596512E+02  0.67947469891E+03  0.68426135328E+03  0.79198295578E+02 0.  0.
      -24    2    1    2    0    0  0.71152770838E+01  0.14308596512E+02  0.49796220872E+02  0.95313914214E+02  0.79685102293E+02 0.  0.
      -13    1    3    3    0    0 -0.24364760654E+02 -0.41767262821E+02  0.41267365634E+03  0.41549692230E+03  0.00000000000E+00 0.  1.
       14    1    3    3    0    0  0.17249483570E+02  0.27458666310E+02  0.26680104258E+03  0.26876443098E+03  0.00000000000E+00 0. -1.
        3    1    4    4  502    0  0.11008953815E+02  0.37313325949E+02  0.58632225699E+02  0.70364900681E+02  0.00000000000E+00 0. -1.
       -4    1    4    4    0  502 -0.38936767310E+01 -0.23004729437E+02 -0.88360048266E+01  0.24949013533E+02  0.00000000000E+00 0.  1.
</event>
<event>
 8   1  0.2279600E-02  0.8494524E+02  0.7546771E-02  0.1315632E+00
       -2   -1    0    0    0  501 -0.00000000000E+00  0.00000000000E+00  0.41095930161E+02  0.41095930161E+02  0.00000000000E+00 0.  1.
        2   -1    0    0  501    0  0.00000000000E+00 -0.00000000000E+00 -0.24891834230E+03  0.24891834230E+03  0.00000000000E+00 0. -1.
      -24    2    1    2    0    0  0.27578402282E+02  0.75094214930E+01 -0.25070109008E+02  0.88484874263E+02  0.79900581500E+02 0.  0.
       24    2    1    2    0    0 -0.27578402282E+02 -0.75094214930E+01 -0.18275230314E+03  0.20152939820E+03  0.79992089328E+02 0.  0.
      -13    1    4    4    0    0 -0.32391368037E+01 -0.39540035745E+02 -0.56608693791E+02  0.69126338299E+02  0.00000000000E+00 0.  1.
       14    1    4    4    0    0 -0.24339265478E+02  0.32030614252E+02 -0.12614360934E+03  0.13240305990E+03  0.00000000000E+00 0. -1.
        3    1    3    3  502    0  0.10353040612E+02  0.31734180462E+02 -0.42488616575E+02  0.54032640117E+02  0.00000000000E+00 0. -1.
       -4    1    3    3    0  502  0.17225361670E+02 -0.24224758969E+02  0.17418507567E+02  0.34452234146E+02  0.00000000000E+00 0.  1.
</event>
<event>
 8   1  0.2279600E-02  0.1031976E+03  0.7546771E-02  0.1284659E+00
        1   -1    0    0  501    0  0.00000000000E+00  0.00000000000E+00  0.17318311375E+04  0.17318311375E+04  0.00000000000E+00 0. -1.
       -1   -1    0    0    0  501 -0.00000000000E+00 -0.00000000000E+00 -0.56286397564E+01  0.56286397564E+01  0.00000000000E+00 0.  1.
       24    2    1    2    0    0  0.16483709235E+02  0.13335273748E+02  0.66539410972E+03  0.67334913775E+03  0.10099602894E+03 0.  0.
      -24    2    1    2    0    0 -0.16483709235E+02 -0.13335273748E+02  0.10608083880E+04  0.10641106395E+04  0.81039958132E+02 0.  0.
      -13    1    3    3    0    0 -0.60881668198E+01  0.12688231775E+02  0.93044013839E+01  0.16870947985E+02  0.00000000000E+00 0.  1.
       14    1    3    3    0    0  0.22571876054E+02  0.64704197311E+00  0.65608970834E+03  0.65647818977E+03  0.00000000000E+00 0. -1.
        1    1    4    4  502    0 -0.93463778670E+01  0.33977404119E+02  0.38432272944E+03  0.38593494159E+03  0.00000000000E+00 0. -1.
       -2    1    4    4    0  502 -0.71373313677E+01 -0.47312677867E+02  0.67648565860E+03  0.67817569794E+03  0.00000000000E+00 0.  1.
</event>
<event>
 8   1  0.2279600E-02  0.1049407E+03  0.7546771E-02  0.1270316E+00
       -4   -1    0    0    0  501 -0.00000000000E+00  0.00000000000E+00  0.64806649722E+03  0.64806649722E+03  0.00000000000E+00 0.  1.
        4   -1    0    0  501    0  0.00000000000E+00 -0.00000000000E+00 -0.18890518634E+02  0.18890518634E+02  0.00000000000E+00 0. -1.
      -24    2    1    2    0    0  0.26140606138E-01 -0.67863384762E+02  0.42079053748E+03  0.43363952902E+03  0.79831854687E+02 0.  0.
       24    2    1    2    0    0 -0.26140606138E-01  0.67863384762E+02  0.20838544110E+03  0.23331748683E+03  0.80044474650E+02 0.  0.
      -13    1    4    4    0    0 -0.10097657671E+02  0.33313359024E+01  0.13361692058E+03  0.13403932988E+03  0.00000000000E+00 0.  1.
       14    1    4    4    0    0  0.10071517065E+02  0.64532048860E+02  0.74768520521E+02  0.99278156948E+02  0.00000000000E+00 0. -1.
        1    1    3    3  502    0 -0.37076543993E+02 -0.15625070572E+02  0.18272440371E+03  0.18710163189E+03  0.00000000000E+00 0. -1.
       -2    1    3    3    0  502  0.37102684599E+02 -0.52238314190E+02  0.23806613377E+03  0.24653789713E+03  0.00000000000E+00 0.  1.
</event>
<event>
 8   1  0.2279600E-02  0.2171173E+03  0.7546771E-02  0.1136756E+00
       -2   -1    0    0    0  501 -0.00000000000E+00  0.00000000000E+00  0.88169615776E+02  0.88169615776E+02  0.00000000000E+00 0.  1.
        2   -1    0    0  501    0  0.00000000000E+00 -0.00000000000E+00 -0.52931478391E+03  0.52931478391E+03  0.00000000000E+00 0. -1.
      -24    2    1    2    0    0 -0.16188425575E+03 -0.12072706089E+03 -0.19287966207E+03  0.28767280119E+03  0.69076341916E+02 0.  0.
       24    2    1    2    0    0  0.16188425575E+03  0.12072706089E+03 -0.24826550607E+03  0.32981159850E+03  0.79739535454E+02 0.  0.
      -13    1    4    4    0    0  0.16940004152E+03  0.11076110641E+03 -0.22014664672E+03  0.29904672348E+03  0.00000000000E+00 0.  1.
       14    1    4    4    0    0 -0.75157857722E+01  0.99659544789E+01 -0.28118859343E+02  0.30764875024E+02  0.00000000000E+00 0. -1.
        3    1    3    3  502    0 -0.12927536266E+03 -0.11049430753E+03 -0.12299342639E+03  0.20987733160E+03  0.00000000000E+00 0. -1.
       -4    1    3    3    0  502 -0.32608893088E+02 -0.10232753363E+02 -0.69886235682E+02  0.77795469583E+02  0.00000000000E+00 0.  1.
</event>
<event>
 8   1  0.2279600E-02  0.9918215E+02  0.7546771E-02  0.1282859E+00
        1   -1    0    0  501    0  0.00000000000E+00  0.00000000000E+00  0.38684562562E+03  0.38684562562E+03  0.00000000000E+00 0. -1.
       -1   -1    0    0    0  501 -0.00000000000E+00 -0.00000000000E+00 -0.26246185226E+02  0.26246185226E+02  0.00000000000E+00 0.  1.
       24    2    1    2    0    0  0.31033741670E+02 -0.47462581922E+02  0.13451469158E+03  0.16620841038E+03  0.79468507131E+02 0.  0.
      -24    2    1    2    0    0 -0.31033741670E+02  0.47462581922E+02  0.22608474881E+03  0.24688340046E+03  0.81371432177E+02 0.  0.
      -13    1    3    3    0    0  0.47075568736E+02 -0.49315214031E+02  0.62782023531E+02  0.92680537252E+02  0.00000000000E+00 0.  1.
       14    1    3    3    0    0 -0.16041827066E+02  0.18526321089E+01  0.71732668050E+02  0.73527873130E+02  0.00000000000E+00 0. -1.
        3    1    4    4  502    0 -0.19041156639E+02  0.30363618257E+02  0.22289243567E+03  0.22575551563E+03  0.00000000000E+00 0. -1.
       -4    1    4    4    0  502 -0.11992585031E+02  0.17098963665E+02  0.31923131391E+01  0.21127884829E+02  0.00000000000E+00 0.  1.
</event>
<event>
 8   1  0.2279600E-02  0.1000015E+03  0.7546771E-02  0.1281208E+00
        1   -1    0    0  501    0  0.00000000000E+00  0.00000000000E+00  0.81684782712E+03  0.81684782712E+03  0.00000000000E+00 0. -1.
       -1   -1    0    0    0  501 -0.00000000000E+00 -0.00000000000E+00 -0.12700575251E+02  0.12700575251E+02  0.00000000000E+00 0.  1.
       24    2    1    2    0    0  0.32432649575E+02  0.51332090893E+02  0.31024809191E+03  0.32596652153E+03  0.79457122467E+02 0.  0.
      -24    2    1    2    0    0 -0.32432649575E+02 -0.51332090893E+02  0.49389915995E+03  0.50358188083E+03  0.77275288345E+02 0.  0.
      -13    1    3    3    0    0 -0.59555107774E+01  0.52460629978E+02  0.24164049137E+03  0.24734128825E+03  0.00000000000E+00 0.  1.
       14    1    3    3    0    0  0.38388160353E+02 -0.11285390847E+01  0.68607600545E+02  0.78625233280E+02  0.00000000000E+00 0. -1.
        3    1    4    4  502    0 -0.23704581843E+02 -0.67402678546E+02  0.45527007263E+03  0.46084256239E+03  0.00000000000E+00 0. -1.
       -4    1    4    4    0  502 -0.87280677328E+01  0.16070587653E+02  0.38629087318E+02  0.42739318442E+02  0.00000000000E+00 0.  1.
</event>
<event>
 8   1  0.2279600E-02  0.1101230E+03  0.7546771E-02  0.1260538E+00
       -1   -1    0    0    0  501 -0.00000000000E+00  0.00000000000E+00  0.20358741775E+03  0.20358741775E+03  0.00000000000E+00 0.  1.
        1   -1    0    0  501    0  0.00000000000E+00 -0.00000000000E+00 -0.61850208793E+02  0.61850208793E+02  0.00000000000E+00 0. -1.
       24    2    1    2    0    0 -0.53885715812E+02 -0.52397218295E+02  0.97741151168E+02  0.14724270439E+03  0.80485666486E+02 0.  0.
      -24    2    1    2    0    0  0.53885715812E+02  0.52397218295E+02  0.43996057791E+02  0.11819492216E+03  0.79907744740E+02 0.  0.
      -13    1    3    3    0    0 -0.38394191022E+02 -0.60597474354E+02  0.10589904072E+03  0.12790924371E+03  0.00000000000E+00 0.  1.
       14    1    3    3    0    0 -0.15491524790E+02  0.82002560582E+01 -0.81578895489E+01  0.19333460674E+02  0.00000000000E+00 0. -1.
        3    1    4    4  502    0  0.26167805476E+02  0.47499954658E+02 -0.11981783733E+02  0.55538841160E+02  0.00000000000E+00 0. -1.
       -4    1    4    4    0  502  0.27717910336E+02  0.48972636375E+01  0.55977841524E+02  0.62656080999E+02  0.00000000000E+00 0.  1.
</event>
<event>
 8   1  0.2279600E-02  0.1009787E+03  0.7546771E-02  0.1278460E+00
        2   -1    0    0  501    0  0.00000000000E+00  0.00000000000E+00  0.11659976887E+04  0.11659976887E+04  0.00000000000E+00 0. -1.
       -2   -1    0    0    0  501 -0.00000000000E+00 -0.00000000000E+00 -0.33726104239E+02  0.33726104239E+02  0.00000000000E+00 0.  1.
      -24    2    1    2    0    0  0.35666017195E+02 -0.48226282828E+02  0.49802499456E+02  0.11259217044E+03  0.81233421412E+02 0.  0.
       24    2    1    2    0    0 -0.35666017195E+02  0.48226282828E+02  0.10824690850E+04  0.10871316225E+04  0.80734165697E+02 0.  0.
      -13    1    4    4    0    0 -0.48649041527E+02  0.15942739364E+02  0.33852052366E+03  0.34236974913E+03  0.00000000000E+00 0.  1.
       14    1    4    4    0    0  0.12983024333E+02  0.32283543464E+02  0.74394856138E+03  0.74476187340E+03  0.00000000000E+00 0. -1.
        1    1    3    3  502    0  0.25531535469E+02 -0.45769963392E+02  0.71422628610E+02  0.88588603837E+02  0.00000000000E+00 0. -1.
       -2    1    3    3    0  502  0.10134481726E+02 -0.24563194364E+01 -0.21620129154E+02  0.24003566602E+02  0.00000000000E+00 0.  1.
</event>
<event>
 8   1  0.2279600E-02  0.1105070E+03  0.7546771E-02  0.1260172E+00
       -1   -1    0    0    0  501 -0.00000000000E+00  0.00000000000E+00  0.12832581009E+02  0.12832581009E+02  0.00000000000E+00 0.  1.
        1   -1    0    0  501    0  0.00000000000E+00 -0.00000000000E+00 -0.18594590480E+04  0.18594590480E+04  0.00000000000E+00 0. -1.
       24    2    1    2    0    0  0.50035991209E+01  0.73951468804E+02 -0.15834868391E+04  0.15873381385E+04  0.81963045296E+02 0.  0.
      -24    2    1    2    0    0 -0.50035991209E+01 -0.73951468804E+02 -0.26313962797E+03  0.28495349053E+03  0.80387637176E+02 0.  0.
      -13    1    3    3    0    0 -0.34382968567E+02  0.32773672126E+02 -0.98504538006E+03  0.98618999330E+03  0.00000000000E+00 0.  1.
       14    1    3    3    0    0  0.39386567688E+02  0.41177796678E+02 -0.59844145901E+03  0.60114814523E+03  0.00000000000E+00 0. -1.
        3    1    4    4  502    0  0.11014840576E+02 -0.19898352903E+02 -0.19585984490E+03  0.19717593668E+03  0.00000000000E+00 0. -1.
       -4    1    4    4    0  502 -0.16018439696E+02 -0.54053115901E+02 -0.67279783072E+02  0.87777553845E+02  0.00000000000E+00 0.  1.
</event>
<event>
 8   1  0.2279600E-02  0.1050776E+03  0.7546771E-02  0.1271280E+00
       -2   -1    0    0    0  501 -0.00000000000E+00  0.00000000000E+00  0.15621990046E+02  0.15621990046E+02  0.00000000000E+00 0.  1.
        2   -1    0    0  501    0  0.00000000000E+00 -0.00000000000E+00 -0.68918548751E+03  0.68918548751E+03  0.00000000000E+00 0. -1.
       24    2    1    2    0    0  0.60902577607E+02  0.45776112626E+00 -0.34047089883E+03  0.35631690180E+03  0.85626911981E+02 0.  0.
      -24    2    1    2    0    0 -0.60902577607E+02 -0.45776112626E+00 -0.33309259864E+03  0.34849057576E+03  0.82375169927E+02 0.  0.
      -13    1    3    3    0    0  0.15755278704E+02  0.40587717158E+02 -0.16898010588E+03  0.17449890479E+03  0.00000000000E+00 0.  1.
       14    1    3    3    0    0  0.45147298903E+02 -0.40129956032E+02 -0.17149079295E+03  0.18181799701E+03  0.00000000000E+00 0. -1.
        3    1    4    4  502    0 -0.31665590683E+02 -0.10648753124E+02 -0.30455839277E+03  0.30638524799E+03  0.00000000000E+00 0. -1.
       -4    1    4    4    0  502 -0.29236986924E+02  0.10190991998E+02 -0.28534205866E+02  0.42105327771E+02  0.00000000000E+00 0.  1.
</event>
<event>
 8   1  0.2279600E-02  0.1292509E+03  0.7546771E-02  0.1229381E+00
       -2   -1    0    0    0  501 -0.00000000000E+00  0.00000000000E+00  0.33946635138E+03  0.33946635138E+03  0.00000000000E+00 0.  1.
        2   -1    0    0  501    0  0.00000000000E+00 -0.00000000000E+00 -0.25638759917E+03  0.25638759917E+03  0.00000000000E+00 0. -1.
       24    2    1    2    0    0 -0.76834970453E+02 -0.62126024939E+02 -0.22686235422E+03  0.26004258245E+03  0.79952243660E+02 0.  0.
      -24    2    1    2    0    0  0.76834970453E+02  0.62126024939E+02  0.30994110642E+03  0.33581136810E+03  0.83321844908E+02 0.  0.
      -13    1    3    3    0    0 -0.20230169964E+01  0.17557563734E+02 -0.35851346282E+02  0.39970985380E+02  0.00000000000E+00 0.  1.
       14    1    3    3    0    0 -0.74811953456E+02 -0.79683588673E+02 -0.19101100793E+03  0.22007159707E+03  0.00000000000E+00 0. -1.
        1    1    4    4  502    0 -0.21531347910E+01  0.30938524563E+01 -0.47316755721E+01  0.60495178460E+01  0.00000000000E+00 0. -1.
       -2    1    4    4    0  502  0.78988105244E+02  0.59032172483E+02  0.31467278199E+03  0.32976185026E+03  0.00000000000E+00 0.  1.
</event>
<event>
 8   1  0.2279600E-02  0.1069302E+03  0.7546771E-02  0.1267147E+00
        2   -1    0    0  501    0  0.00000000000E+00  0.00000000000E+00  0.38210790747E+04  0.38210790747E+04  0.00000000000E+00 0. -1.
       -2   -1    0    0    0  501 -0.00000000000E+00 -0.00000000000E+00 -0.31579774883E+01  0.31579774883E+01  0.00000000000E+00 0.  1.
      -24    2    1    2    0    0 -0.23654469624E+02 -0.67690216685E+02  0.14014885846E+04  0.14054397973E+04  0.77131522148E+02 0.  0.
       24    2    1    2    0    0  0.23654469624E+02  0.67690216685E+02  0.24164325126E+04  0.24187972549E+04  0.79325739011E+02 0.  0.
      -13    1    4    4    0    0  0.30696237705E+02  0.83579154754E+02  0.19261877842E+04  0.19282445680E+04  0.00000000000E+00 0.  1.
       14    1    4    4    0    0 -0.70417680811E+01 -0.15888938069E+02  0.49024472842E+03  0.49055268686E+03  0.00000000000E+00 0. -1.
        3    1    3    3  502    0 -0.37076418107E+02 -0.30346534642E+02  0.11352057140E+04  0.11362163465E+04  0.00000000000E+00 0. -1.
       -4    1    3    3    0  502  0.13421948483E+02 -0.37343682043E+02  0.26628287061E+03  0.26922345082E+03  0.00000000000E+00 0.  1.
</event>
<event>
 8   1  0.2279600E-02  0.8843005E+02  0.7546771E-02  0.1310586E+00
        2   -1    0    0  501    0  0.00000000000E+00  0.00000000000E+00  0.75490002530E+03  0.75490002530E+03  0.00000000000E+00 0. -1.
       -2   -1    0    0    0  501 -0.00000000000E+00 -0.00000000000E+00 -0.96668050721E+01  0.96668050721E+01  0.00000000000E+00 0.  1.
      -24    2    1    2    0    0 -0.18658736529E+02  0.10615896675E+02  0.39256864394E+03  0.40240528583E+03  0.85784778066E+02 0.  0.
       24    2    1    2    0    0  0.18658736529E+02 -0.10615896675E+02  0.35266457629E+03  0.36216154455E+03  0.79547691769E+02 0.  0.
      -13    1    4    4    0    0 -0.20789211430E+02 -0.10137951071E+02  0.26525599682E+03  0.26626248930E+03  0.00000000000E+00 0.  1.
       14    1    4    4    0    0  0.39447947960E+02 -0.47794560418E+00  0.87408579476E+02  0.95899055242E+02  0.00000000000E+00 0. -1.
        1    1    3    3  502    0  0.11316372276E+02  0.93247605500E+01  0.35010360553E+03  0.35041053930E+03  0.00000000000E+00 0. -1.
       -2    1    3    3    0  502 -0.29975108805E+02  0.12911361249E+01  0.42465038402E+02  0.51994746531E+02  0.00000000000E+00 0.  1.
</event>
<event>
 8   1  0.2279600E-02  0.1253479E+03  0.7546771E-02  0.1235303E+00
       -1   -1    0    0    0  501 -0.00000000000E+00  0.00000000000E+00  0.11743135778E+02  0.11743135778E+02  0.00000000000E+00 0.  1.
        1   -1    0    0  501    0  0.00000000000E+00 -0.00000000000E+00 -0.15574059209E+04  0.15574059209E+04  0.00000000000E+00 0. -1.
       24    2    1    2    0    0 -0.74780667340E+02  0.58156170745E+02 -0.46975912383E+03  0.48619516906E+03  0.82084222561E+02 0.  0.
      -24    2    1    2    0    0  0.74780667340E+02 -0.58156170745E+02 -0.10759036613E+04  0.10829538876E+04  0.79032562393E+02 0.  0.
      -13    1    3    3    0    0 -0.71987638402E+02  0.77156460308E+02 -0.41332908333E+03  0.42658676793E+03  0.00000000000E+00 0.  1.
       14    1    3    3    0    0 -0.27930289389E+01 -0.19000289563E+02 -0.56430040504E+02  0.59608401131E+02  0.00000000000E+00 0. -1.
        3    1    4    4  502    0  0.37431620920E+02  0.86519513264E+01 -0.19614797746E+03  0.19987498985E+03  0.00000000000E+00 0. -1.
       -4    1    4    4    0  502  0.37349046421E+02 -0.66808122071E+02 -0.87975568381E+03  0.88307889774E+03  0.00000000000E+00 0.  1.
</event>
<event>
 8   1  0.2279600E-02  0.8826076E+02  0.7546771E-02  0.1307393E+00
        2   -1    0    0  501    0  0.00000000000E+00  0.00000000000E+00  0.80023670619E+03  0.80023670619E+03  0.00000000000E+00 0. -1.
       -2   -1    0    0    0  501 -0.00000000000E+00 -0.00000000000E+00 -0.16870189249E+02  0.16870189249E+02  0.00000000000E+00 0.  1.
      -24    2    1    2    0    0 -0.18397531846E+02  0.28202731103E+02  0.12451191819E+03  0.15236683737E+03  0.81108397468E+02 0.  0.
       24    2    1    2    0    0  0.18397531846E+02 -0.28202731103E+02  0.65885459875E+03  0.66474005807E+03  0.81584920678E+02 0.  0.
      -13    1    4    4    0    0  0.11374425833E+02 -0.35152270697E+02  0.11486617691E+03  0.12066191734E+03  0.00000000000E+00 0.  1.
       14    1    4    4    0    0  0.70231060133E+01  0.69495395948E+01  0.54398842184E+03  0.54407814072E+03  0.00000000000E+00 0. -1.
        3    1    3    3  502    0  0.23218798334E+02  0.31666262415E+02  0.31255986451E+02  0.50187662433E+02  0.00000000000E+00 0. -1.
       -4    1    3    3    0  502 -0.41616330181E+02 -0.34635313127E+01  0.93255931736E+02  0.10217917494E+03  0.00000000000E+00 0.  1.
</event>
<event>
 8   1  0.2279600E-02  0.1221823E+03  0.7546771E-02  0.1251111E+00
       -1   -1    0    0    0  501 -0.00000000000E+00  0.00000000000E+00  0.39267388330E+02  0.39267388330E+02  0.00000000000E+00 0.  1.
        1   -1    0    0  501    0  0.00000000000E+00 -0.00000000000E+00 -0.43075419393E+03  0.43075419393E+03  0.00000000000E+00 0. -1.
       24    2    1    2    0    0 -0.47495316504E+02  0.19638871111E+02 -0.85593665589E+02  0.14918040158E+03  0.11084685958E+03 0.  0.
      -24    2    1    2    0    0  0.47495316504E+02 -0.19638871111E+02 -0.30589314001E+03  0.32084118068E+03  0.82018045373E+02 0.  0.
      -13    1    3    3    0    0 -0.29629964493E+02  0.61728483442E+02 -0.24182263160E+02  0.72616267568E+02  0.00000000000E+00 0.  1.
       14    1    3    3    0    0 -0.17865352011E+02 -0.42089612331E+02 -0.61411402429E+02  0.76564134011E+02  0.00000000000E+00 0. -1.
        3    1    4    4  502    0  0.33987982832E+02 -0.33005039523E+02 -0.29531811949E+03  0.29909414456E+03  0.00000000000E+00 0. -1.
       -4    1    4    4    0  502  0.13507333672E+02  0.13366168412E+02 -0.10575020517E+02  0.21747036117E+02  0.00000000000E+00 0.  1.
</event>
<event>
 8   1  0.2279600E-02  0.9411349E+02  0.7546771E-02  0.1295099E+00
        2   -1    0    0  501    0  0.00000000000E+00  0.00000000000E+00  0.20307230997E+04  0.20307230997E+04  0.00000000000E+00 0. -1.
       -2   -1    0    0    0  501 -0.00000000000E+00 -0.00000000000E+00 -0.55938965399E+01  0.55938965399E+01  0.00000000000E+00 0.  1.
      -24    2    1    2    0    0  0.35730129630E+02  0.23143874064E+02  0.49270588685E+03  0.50100641850E+03  0.80225054535E+02 0.  0.
       24    2    1    2    0    0 -0.35730129630E+02 -0.23143874064E+02  0.15324233163E+04  0.15353105777E+04  0.83934907323E+02 0.  0.
      -13    1    4    4    0    0  0.39290330214E+01 -0.19661547267E+02  0.84732238992E+02  0.87072188820E+02  0.00000000000E+00 0.  1.
       14    1    4    4    0    0 -0.39659162652E+02 -0.34823267973E+01  0.14476910773E+04  0.14482383889E+04  0.00000000000E+00 0. -1.
        3    1    3    3  502    0  0.27508384247E+02 -0.26045820260E+02  0.27890019899E+03  0.28146121749E+03  0.00000000000E+00 0. -1.
       -4    1    3    3    0  502  0.82217453827E+01  0.49189694324E+02  0.21380568786E+03  0.21954520101E+03  0.00000000000E+00 0.  1.
</event>
<event>
 8   1  0.2279600E-02  0.8650294E+02  0.7546771E-02  0.1313434E+00
        1   -1    0    0  501    0  0.00000000000E+00  0.00000000000E+00  0.23244012776E+03  0.23244012776E+03  0.00000000000E+00 0. -1.
       -1   -1    0    0    0  501 -0.00000000000E+00 -0.00000000000E+00 -0.31137544081E+02  0.31137544081E+02  0.00000000000E+00 0.  1.
       24    2    1    2    0    0  0.56071132436E+01 -0.26555793507E+02  0.99478894396E+02  0.13182870866E+03  0.82134694923E+02 0.  0.
      -24    2    1    2    0    0 -0.56071132436E+01  0.26555793507E+02  0.10182368928E+03  0.13174896317E+03  0.79076391615E+02 0.  0.
      -13    1    3    3    0    0  0.35154449011E+01 -0.41134937269E+02  0.11823543973E+02  0.42944587657E+02  0.00000000000E+00 0.  1.
       14    1    3    3    0    0  0.20916683426E+01  0.14579143762E+02  0.87655350423E+02  0.88884121006E+02  0.00000000000E+00 0. -1.
        3    1    4    4  502    0 -0.34168909957E+02 -0.10737177844E+02  0.53274351355E+02  0.64194687537E+02  0.00000000000E+00 0. -1.
       -4    1    4    4    0  502  0.28561796714E+02  0.37292971350E+02  0.48549337925E+02  0.67554275635E+02  0.00000000000E+00 0.  1.
</event>
<event>
 8   1  0.2279600E-02  0.1066377E+03  0.7546771E-02  0.1267463E+00
        2   -1    0    0  501    0  0.00000000000E+00  0.00000000000E+00  0.29695217897E+03  0.29695217897E+03  0.00000000000E+00 0. -1.
       -2   -1    0    0    0  501 -0.00000000000E+00 -0.00000000000E+00 -0.56467556799E+02  0.56467556799E+02  0.00000000000E+00 0.  1.
      -24    2    1    2    0    0  0.66457413324E+02 -0.19657284724E+02  0.22199785129E+03  0.24628161934E+03  0.81046859400E+02 0.  0.
       24    2    1    2    0    0 -0.66457413324E+02  0.19657284724E+02  0.18486770888E+02  0.10713811644E+03  0.79585291776E+02 0.  0.
      -13    1    4    4    0    0 -0.70014538342E+02  0.38140065316E+02 -0.14206227504E+01  0.79741572160E+02  0.00000000000E+00 0.  1.
       14    1    4    4    0    0  0.35571250180E+01 -0.18482780592E+02  0.19907393638E+02  0.27396544276E+02  0.00000000000E+00 0. -1.
        1    1    3    3  502    0  0.47154601862E+02 -0.50953226887E+02  0.13417450024E+03  0.15107145436E+03  0.00000000000E+00 0. -1.
       -2    1    3    3    0  502  0.19302811462E+02  0.31295942164E+02  0.87823351045E+02  0.95210164978E+02  0.00000000000E+00 0.  1.
</event>
<event>
 8   1  0.2279600E-02  0.1174826E+03  0.7546771E-02  0.1248367E+00
        1   -1    0    0  501    0  0.00000000000E+00  0.00000000000E+00  0.34572039569E+03  0.34572039569E+03  0.00000000000E+00 0. -1.
       -1   -1    0    0    0  501 -0.00000000000E+00 -0.00000000000E+00 -0.49810317935E+02  0.49810317935E+02  0.00000000000E+00 0.  1.
       24    2    1    2    0    0  0.51659215183E+02 -0.63302105547E+02  0.57439017979E+02  0.13077229529E+03  0.84417541717E+02 0.  0.
      -24    2    1    2    0    0 -0.51659215183E+02  0.63302105547E+02  0.23847105977E+03  0.26475841833E+03  0.80949012642E+02 0.  0.
      -13    1    3    3    0    0  0.18191591887E+02  0.53300028303E+00 -0.18585268358E+02  0.26012118419E+02  0.00000000000E+00 0.  1.
       14    1    3    3    0    0  0.33467623296E+02 -0.63835105830E+02  0.76024286337E+02  0.10476017687E+03  0.00000000000E+00 0. -1.
        1    1    4    4  502    0  0.30519299399E+01  0.60115596205E+02  0.12243968979E+03  0.13643561419E+03  0.00000000000E+00 0. -1.
       -2    1    4    4    0  502 -0.54711145123E+02  0.31865093417E+01  0.11603136998E+03  0.12832280414E+03  0.00000000000E+00 0.  1.
</event>
<event>
 8   1  0.2279600E-02  0.1123872E+03  0.7546771E-02  0.1258699E+00
       -2   -1    0    0    0  501 -0.00000000000E+00  0.00000000000E+00  0.10812747278E+03  0.10812747278E+03  0.00000000000E+00 0.  1.
        2   -1    0    0  501    0  0.00000000000E+00 -0.00000000000E+00 -0.77059530942E+03  0.77059530942E+03  0.00000000000E+00 0. -1.
       24    2    1    2    0    0  0.69305445226E+02  0.12404671901E+02 -0.73878938719E+03  0.74728885970E+03  0.87600003331E+02 0.  0.
      -24    2    1    2    0    0 -0.69305445226E+02 -0.12404671901E+02  0.76321550551E+02  0.13143392250E+03  0.80577765434E+02 0.  0.
      -13    1    3    3    0    0  0.28625755312E+02  0.74721550080E+01 -0.56562805129E+02  0.63832733701E+02  0.00000000000E+00 0.  1.
       14    1    3    3    0    0  0.40679689913E+02  0.49325168926E+01 -0.68222658206E+03  0.68345612600E+03  0.00000000000E+00 0. -1.
        3    1    4    4  502    0 -0.16122237129E+02  0.10634320766E+02  0.70598937120E+02  0.73193068188E+02  0.00000000000E+00 0. -1.
       -4    1    4    4    0  502 -0.53183208097E+02 -0.23038992666E+02  0.57226134310E+01  0.58240854312E+02  0.00000000000E+00 0.  1.
</event>
<event>
 8   1  0.2279600E-02  0.9450964E+02  0.7546771E-02  0.1293204E+00
       -2   -1    0    0    0  501 -0.00000000000E+00  0.00000000000E+00  0.90783588968E+02  0.90783588968E+02  0.00000000000E+00 0.  1.
        2   -1    0    0  501    0  0.00000000000E+00 -0.00000000000E+00 -0.10362918265E+03  0.10362918265E+03  0.00000000000E+00 0. -1.
      -24    2    1    2    0    0  0.36785863373E+02  0.27719112367E+02  0.18620308549E+02  0.96326466489E+02  0.82525894854E+02 0.  0.
       24    2    1    2    0    0 -0.36785863373E+02 -0.27719112367E+02 -0.31465902228E+02  0.98086305126E+02  0.80680055253E+02 0.  0.
      -13    1    4    4    0    0 -0.36730664559E+02 -0.42304130288E+02  0.74584594303E+01  0.56519109825E+02  0.00000000000E+00 0.  1.
       14    1    4    4    0    0 -0.55198813646E-01  0.14585017921E+02 -0.38924361658E+02  0.41567195300E+02  0.00000000000E+00 0. -1.
        3    1    3    3  502    0 -0.44579792178E+01 -0.21594197791E+02  0.23035697773E+02  0.31887714388E+02  0.00000000000E+00 0. -1.
       -4    1    3    3    0  502  0.41243842590E+02  0.49313310159E+02 -0.44153892243E+01  0.64438752102E+02  0.00000000000E+00 0.  1.
</event>
<event>
 8   1  0.2279600E-02  0.9156802E+02  0.7546771E-02  0.1303894E+00
       -1   -1    0    0    0  501 -0.00000000000E+00  0.00000000000E+00  0.90782975348E+02  0.90782975348E+02  0.00000000000E+00 0.  1.
        1   -1    0    0  501    0  0.00000000000E+00 -0.00000000000E+00 -0.14545009974E+03  0.14545009974E+03  0.00000000000E+00 0. -1.
       24    2    1    2    0    0 -0.13237187069E+02  0.23859950143E+00  0.49643518916E+02  0.97433174410E+02  0.82785653673E+02 0.  0.
      -24    2    1    2    0    0  0.13237187069E+02 -0.23859950143E+00 -0.10431064331E+03  0.13879990068E+03  0.90605861122E+02 0.  0.
      -13    1    3    3    0    0 -0.48454931342E+02  0.15056612728E+01  0.26175927680E+02  0.55093797991E+02  0.00000000000E+00 0.  1.
       14    1    3    3    0    0  0.35217744272E+02 -0.12670617714E+01  0.23467591236E+02  0.42339376419E+02  0.00000000000E+00 0. -1.
        1    1    4    4  502    0  0.39612254291E+02  0.21295337835E+02 -0.92336246795E+02  0.10270639988E+03  0.00000000000E+00 0. -1.
       -2    1    4    4    0  502 -0.26375067222E+02 -0.21533937336E+02 -0.11974396512E+02  0.36093500800E+02  0.00000000000E+00 0.  1.
</event>
<event>
 8   1  0.2279600E-02  0.1123384E+03  0.7546771E-02  0.1259311E+00
       -2   -1    0    0    0  501 -0.00000000000E+00  0.00000000000E+00  0.19072136281E+02  0.19072136281E+02  0.00000000000E+00 0.  1.
        2   -1    0    0  501    0  0.00000000000E+00 -0.00000000000E+00 -0.11667011836E+04  0.11667011836E+04  0.00000000000E+00 0. -1.
      -24    2    1    2    0    0 -0.72487434602E+02  0.28698214570E+02 -0.16046357122E+03  0.19223640713E+03  0.71611890376E+02 0.  0.
       24    2    1    2    0    0  0.72487434602E+02 -0.28698214570E+02 -0.98716547611E+03  0.99353691277E+03  0.80882038190E+02 0.  0.
      -13    1    4    4    0    0 -0.86182553403E+01 -0.29621503347E+02 -0.30989327663E+03  0.31142503221E+03  0.00000000000E+00 0.  1.
       14    1    4    4    0    0  0.81105689942E+02  0.92328877648E+00 -0.67727219948E+03  0.68211188055E+03  0.00000000000E+00 0. -1.
        1    1    3    3  502    0 -0.40450449825E+02 -0.20908607394E+02 -0.84846233738E+02  0.96292741853E+02  0.00000000000E+00 0. -1.
       -2    1    3    3    0  502 -0.32036984777E+02  0.49606821964E+02 -0.75617337487E+02  0.95943665282E+02  0.00000000000E+00 0.  1.
</event>
<event>
 8   1  0.2279600E-02  0.1058725E+03  0.7546771E-02  0.1268601E+00
       -2   -1    0    0    0  501 -0.00000000000E+00  0.00000000000E+00  0.20831698938E+02  0.20831698938E+02  0.00000000000E+00 0.  1.
        2   -1    0    0  501    0  0.00000000000E+00 -0.00000000000E+00 -0.60994330179E+03  0.60994330179E+03  0.00000000000E+00 0. -1.
      -24    2    1    2    0    0  0.10890587204E+02 -0.67695551572E+02 -0.18528840985E+03  0.21340287276E+03  0.80670308555E+02 0.  0.
       24    2    1    2    0    0 -0.10890587204E+02  0.67695551572E+02 -0.40382319300E+03  0.41737212797E+03  0.80156281172E+02 0.  0.
      -13    1    4    4    0    0 -0.12935475207E+02  0.99086443352E+01 -0.95611111485E+01  0.18892395237E+02  0.00000000000E+00 0.  1.
       14    1    4    4    0    0  0.20448880037E+01  0.57786907237E+02 -0.39426208185E+03  0.39847973274E+03  0.00000000000E+00 0. -1.
        1    1    3    3  502    0  0.36430403670E+02 -0.36829140386E+02 -0.15427114518E+03  0.16273643147E+03  0.00000000000E+00 0. -1.
       -2    1    3    3    0  502 -0.25539816467E+02 -0.30866411186E+02 -0.31017264676E+02  0.50666441286E+02  0.00000000000E+00 0.  1.
</event>
<event>
 8   1  0.2279600E-02  0.8498890E+02  0.7546771E-02  0.1319395E+00
        2   -1    0    0  501    0  0.00000000000E+00  0.00000000000E+00  0.38914272856E+03  0.38914272856E+03  0.00000000000E+00 0. -1.
       -2   -1    0    0    0  501 -0.00000000000E+00 -0.00000000000E+00 -0.47573676556E+02  0.47573676556E+02  0.00000000000E+00 0.  1.
      -24    2    1    2    0    0 -0.72912444394E+01 -0.16068184211E+02 -0.55029777699E+01  0.79390074151E+02  0.77208499014E+02 0.  0.
       24    2    1    2    0    0  0.72912444394E+01  0.16068184211E+02  0.34707202977E+03  0.35732633096E+03  0.83137020394E+02 0.  0.
      -13    1    4    4    0    0 -0.24291895786E+02  0.68224306494E+01  0.33029645375E+02  0.41564398641E+02  0.00000000000E+00 0.  1.
       14    1    4    4    0    0  0.31583140225E+02  0.92457535618E+01  0.31404238440E+03  0.31576193232E+03  0.00000000000E+00 0. -1.
        3    1    3    3  502    0  0.19199845661E+02  0.24214803593E+02 -0.39253689157E+01  0.31151232842E+02  0.00000000000E+00 0. -1.
       -4    1    3    3    0  502 -0.26491090101E+02 -0.40282987804E+02 -0.15776088542E+01  0.48238841309E+02  0.00000000000E+00 0.  1.
</event>
<event>
 8   1  0.2279600E-02  0.1030028E+03  0.7546771E-02  0.1274381E+00
        2   -1    0    0  501    0  0.00000000000E+00  0.00000000000E+00  0.98832900357E+02  0.98832900357E+02  0.00000000000E+00 0. -1.
       -2   -1    0    0    0  501 -0.00000000000E+00 -0.00000000000E+00 -0.29321114017E+03  0.29321114017E+03  0.00000000000E+00 0.  1.
      -24    2    1    2    0    0 -0.49454223673E+02  0.39067834342E+02 -0.25358733367E+03  0.27370806648E+03  0.81471184712E+02 0.  0.
       24    2    1    2    0    0  0.49454223673E+02 -0.39067834342E+02  0.59209093859E+02  0.11833597405E+03  0.80781619435E+02 0.  0.
      -13    1    4    4    0    0  0.32139619310E+02  0.21721112745E+02  0.17141205653E+02  0.42409701714E+02  0.00000000000E+00 0.  1.
       14    1    4    4    0    0  0.17314604363E+02 -0.60788947086E+02  0.42067888206E+02  0.75926272332E+02  0.00000000000E+00 0. -1.
        3    1    3    3  502    0 -0.14468970834E+02  0.58900550587E+02 -0.17859898042E+03  0.18861659997E+03  0.00000000000E+00 0. -1.
       -4    1    3    3    0  502 -0.34985252839E+02 -0.19832716245E+02 -0.74988353254E+02  0.85091466514E+02  0.00000000000E+00 0.  1.
</event>
<event>
 8   1  0.2279600E-02  0.1489449E+03  0.7546771E-02  0.1202092E+00
       -2   -1    0    0    0  501 -0.00000000000E+00  0.00000000000E+00  0.34667351306E+02  0.34667351306E+02  0.00000000000E+00 0.  1.
        2   -1    0    0  501    0  0.00000000000E+00 -0.00000000000E+00 -0.65126164335E+03  0.65126164335E+03  0.00000000000E+00 0. -1.
       24    2    1    2    0    0  0.12175403349E+03  0.30806854209E+02 -0.25608207649E+03  0.29624757674E+03  0.80071779586E+02 0.  0.
      -24    2    1    2    0    0 -0.12175403349E+03 -0.30806854209E+02 -0.36051221555E+03  0.38968141792E+03  0.78162925804E+02 0.  0.
      -13    1    3    3    0    0  0.92022316382E+02  0.49021422902E+02 -0.23055254363E+03  0.25303296621E+03  0.00000000000E+00 0.  1.
       14    1    3    3    0    0  0.29731717108E+02 -0.18214568693E+02 -0.25529532861E+02  0.43214610527E+02  0.00000000000E+00 0. -1.
        3    1    4    4  502    0 -0.12042445948E+03 -0.27632061886E+02 -0.36422968549E+03  0.38461519091E+03  0.00000000000E+00 0. -1.
       -4    1    4    4    0  502 -0.13295740140E+01 -0.31747923226E+01  0.37174699397E+01  0.50662270086E+01  0.00000000000E+00 0.  1.
</event>
<event>
 8   1  0.2279600E-02  0.8919137E+02  0.7546771E-02  0.1304859E+00
       -2   -1    0    0    0  501 -0.00000000000E+00  0.00000000000E+00  0.73331181235E+02  0.73331181235E+02  0.00000000000E+00 0.  1.
        2   -1    0    0  501    0  0.00000000000E+00 -0.00000000000E+00 -0.17480709791E+03  0.17480709791E+03  0.00000000000E+00 0. -1.
      -24    2    1    2    0    0 -0.26235003432E+02 -0.23627029244E+02  0.25716667333E+02  0.92824824188E+02  0.81905977138E+02 0.  0.
       24    2    1    2    0    0  0.26235003432E+02  0.23627029244E+02 -0.12719258401E+03  0.15531345496E+03  0.81840112098E+02 0.  0.
      -13    1    4    4    0    0 -0.22092484481E+02  0.10782774745E+00 -0.62400827559E+01  0.22957093243E+02  0.00000000000E+00 0.  1.
       14    1    4    4    0    0  0.48327487913E+02  0.23519201496E+02 -0.12095250126E+03  0.13235636172E+03  0.00000000000E+00 0. -1.
        3    1    3    3  502    0  0.24219177870E+02 -0.29752950766E+02  0.10715931037E+02  0.39832622735E+02  0.00000000000E+00 0. -1.
       -4    1    3    3    0  502 -0.50454181302E+02  0.61259215223E+01  0.15000736296E+02  0.52992201453E+02  0.00000000000E+00 0.  1.
</event>
<event>
 8   1  0.2279600E-02  0.1049012E+03  0.7546771E-02  0.1279103E+00
        2   -1    0    0  501    0  0.00000000000E+00  0.00000000000E+00  0.91847796692E+02  0.91847796692E+02  0.00000000000E+00 0. -1.
       -2   -1    0    0    0  501 -0.00000000000E+00 -0.00000000000E+00 -0.13379013428E+03  0.13379013428E+03  0.00000000000E+00 0.  1.
      -24    2    1    2    0    0  0.44946905355E+01  0.37757728301E+02 -0.74528545227E+02  0.11579199194E+03  0.80046443101E+02 0.  0.
       24    2    1    2    0    0 -0.44946905355E+01 -0.37757728301E+02  0.32586207636E+02  0.10984593904E+03  0.97767178061E+02 0.  0.
      -13    1    4    4    0    0 -0.24290590508E+02 -0.39404668638E+02 -0.22368561574E+02  0.51411217109E+02  0.00000000000E+00 0.  1.
       14    1    4    4    0    0  0.19795899973E+02  0.16469403364E+01  0.54954769211E+02  0.58434721931E+02  0.00000000000E+00 0. -1.
        3    1    3    3  502    0  0.30556864901E+02 -0.44653582842E+01 -0.53767618855E+02  0.62004985723E+02  0.00000000000E+00 0. -1.
       -4    1    3    3    0  502 -0.26062174366E+02  0.42223086585E+02 -0.20760926373E+02  0.53787006212E+02  0.00000000000E+00 0.  1.
</event>
<event>
 8   1  0.2279600E-02  0.9400478E+02  0.7546771E-02  0.1294460E+00
       -2   -1    0    0    0  501 -0.00000000000E+00  0.00000000000E+00  0.98879815214E+01  0.98879815214E+01  0.00000000000E+00 0.  1.
        2   -1    0    0  501    0  0.00000000000E+00 -0.00000000000E+00 -0.23293212562E+04  0.23293212562E+04  0.00000000000E+00 0. -1.
       24    2    1    2    0    0  0.23158645486E+02  0.43467347226E+02 -0.20874493798E+04  0.20895649813E+04  0.80069749698E+02 0.  0.
      -24    2    1    2    0    0 -0.23158645486E+02 -0.43467347226E+02 -0.23198389490E+03  0.24964425642E+03  0.77974317143E+02 0.  0.
      -13    1    3    3    0    0 -0.13318301390E+02 -0.17999693038E+02 -0.54780007554E+03  0.54825750233E+03  0.00000000000E+00 0.  1.
       14    1    3    3    0    0  0.36476946876E+02  0.61467040265E+02 -0.15396493042E+04  0.15413074790E+04  0.00000000000E+00 0. -1.
        1    1    4    4  502    0  0.17194953903E+02  0.90359469502E+01 -0.21432437784E+02  0.28925147647E+02  0.00000000000E+00 0. -1.
       -2    1    4    4    0  502 -0.40353599389E+02 -0.52503294177E+02 -0.21055145712E+03  0.22071910878E+03  0.00000000000E+00 0.  1.
</event>
<event>
 8   1  0.2279600E-02  0.9395912E+02  0.7546771E-02  0.1298009E+00
       -1   -1    0    0    0  501 -0.00000000000E+00  0.00000000000E+00  0.37206801250E+02  0.37206801250E+02  0.00000000000E+00 0.  1.
        1   -1    0    0  501    0  0.00000000000E+00 -0.00000000000E+00 -0.15798235272E+04  0.15798235272E+04  0.00000000000E+00 0. -1.
       24    2    1    2    0    0  0.58277316919E+00 -0.29134929673E+02 -0.16515178080E+02  0.88039075750E+02  0.81418327177E+02 0.  0.
      -24    2    1    2    0    0 -0.58277316919E+00  0.29134929673E+02 -0.15261015479E+04  0.15289912527E+04  0.89325990990E+02 0.  0.
      -13    1    3    3    0    0 -0.24135035238E+01 -0.56298907210E+02 -0.21399857274E+02  0.60277241507E+02  0.00000000000E+00 0.  1.
       14    1    3    3    0    0  0.29962766930E+01  0.27163977538E+02  0.48846791948E+01  0.27761834243E+02  0.00000000000E+00 0. -1.
        3    1    4    4  502    0 -0.87338309524E+01  0.28838625823E+02 -0.15145533605E+04  0.15148530714E+04  0.00000000000E+00 0. -1.
       -4    1    4    4    0  502  0.81510577833E+01  0.29630384996E+00 -0.11548187406E+02  0.14138181330E+02  0.00000000000E+00 0.  1.
</event>
<event>
 8   1  0.2279600E-02  0.8296163E+02  0.7546771E-02  0.1325514E+00
       -1   -1    0    0    0  501 -0.00000000000E+00  0.00000000000E+00  0.73859177440E+01  0.73859177440E+01  0.00000000000E+00 0.  1.
        1   -1    0    0  501    0  0.00000000000E+00 -0.00000000000E+00 -0.21898792843E+04  0.21898792843E+04  0.00000000000E+00 0. -1.
       24    2    1    2    0    0  0.15213371096E+02 -0.50212640416E+00 -0.25286588392E+03  0.26612738830E+03  0.81553251099E+02 0.  0.
      -24    2    1    2    0    0 -0.15213371096E+02  0.50212640416E+00 -0.19296274826E+04  0.19311378137E+04  0.74828705141E+02 0.  0.
      -13    1    3    3    0    0  0.31837817490E+02  0.16237530071E+02 -0.23167521097E+03  0.23441567223E+03  0.00000000000E+00 0.  1.
       14    1    3    3    0    0 -0.16624446393E+02 -0.16739656475E+02 -0.21190672943E+02  0.31711716077E+02  0.00000000000E+00 0. -1.
        1    1    4    4  502    0 -0.39699660368E+02  0.10184272296E+02 -0.15754002628E+04  0.15759333014E+04  0.00000000000E+00 0. -1.
       -2    1    4    4    0  502  0.24486289272E+02 -0.96821458923E+01 -0.35422721981E+03  0.35520451231E+03  0.00000000000E+00 0.  1.
</event>
<event>
 8   1  0.2279600E-02  0.8778856E+02  0.7546771E-02  0.1308461E+00
       -2   -1    0    0    0  501 -0.00000000000E+00  0.00000000000E+00  0.40292246918E+01  0.40292246918E+01  0.00000000000E+00 0.  1.
        2   -1    0    0  501    0  0.00000000000E+00 -0.00000000000E+00 -0.29287846082E+04  0.29287846082E+04  0.00000000000E+00 0. -1.
      -24    2    1    2    0    0 -0.16823845706E+02  0.29536453133E+02 -0.59483645783E+03  0.60124160968E+03  0.80657410065E+02 0.  0.
       24    2    1    2    0    0  0.16823845706E+02 -0.29536453133E+02 -0.23299189257E+04  0.23315722232E+04  0.80940644751E+02 0.  0.
      -13    1    4    4    0    0 -0.15208295424E+02 -0.10009235125E+02 -0.12353838533E+03  0.12487277401E+03  0.00000000000E+00 0.  1.
       14    1    4    4    0    0  0.32032141130E+02 -0.19527218008E+02 -0.22063805404E+04  0.22066994492E+04  0.00000000000E+00 0. -1.
        1    1    3    3  502    0  0.29130533652E+02  0.54548282608E+01 -0.33288814474E+03  0.33420481751E+03  0.00000000000E+00 0. -1.
       -2    1    3    3    0  502 -0.45954379358E+02  0.24081624872E+02 -0.26194831309E+03  0.26703679217E+03  0.00000000000E+00 0.  1.
</event>
<event>
 8   1  0.2279600E-02  0.8558507E+02  0.7546771E-02  0.1315065E+00
        2   -1    0    0  501    0  0.00000000000E+00  0.00000000000E+00  0.15322409884E+04  0.15322409884E+04  0.00000000000E+00 0. -1.
       -2   -1    0    0    0  501 -0.00000000000E+00 -0.00000000000E+00 -0.20989614568E+02  0.20989614568E+02  0.00000000000E+00 0.  1.
      -24    2    1    2    0    0  0.17736557464E+02 -0.24081265557E+02  0.69348684644E+02  0.10879016849E+03  0.78304328599E+02 0.  0.
       24    2    1    2    0    0 -0.17736557464E+02  0.24081265557E+02  0.14419026891E+04  0.14444404344E+04  0.80189218964E+02 0.  0.
      -13    1    4    4    0    0 -0.10192473066E+02 -0.97220080226E+01  0.46002711100E+02  0.48110844679E+02  0.00000000000E+00 0.  1.
       14    1    4    4    0    0 -0.75440843979E+01  0.33803273580E+02  0.13958999780E+04  0.13963295898E+04  0.00000000000E+00 0. -1.
        1    1    3    3  502    0  0.31232860435E+02  0.20356644306E+02  0.28272090389E+02  0.46788840906E+02  0.00000000000E+00 0. -1.
       -2    1    3    3    0  502 -0.13496302971E+02 -0.44437909863E+02  0.41076594255E+02  0.62001327586E+02  0.00000000000E+00 0.  1.
</event>
<event>
 8   1  0.2279600E-02  0.1737704E+03  0.7546771E-02  0.1173986E+00
        2   -1    0    0  501    0  0.00000000000E+00  0.00000000000E+00  0.11619068782E+04  0.11619068782E+04  0.00000000000E+00 0. -1.
       -2   -1    0    0    0  501 -0.00000000000E+00 -0.00000000000E+00 -0.29763125106E+02  0.29763125106E+02  0.00000000000E+00 0.  1.
      -24    2    1    2    0    0  0.69738713123E+02  0.13724041419E+03  0.35372980587E+03  0.39410777443E+03  0.80608578383E+02 0.  0.
       24    2    1    2    0    0 -0.69738713123E+02 -0.13724041419E+03  0.77841394727E+03  0.79756222892E+03  0.80491094567E+02 0.  0.
      -13    1    4    4    0    0 -0.96346773387E+01 -0.24302036496E+02  0.37676245895E+02  0.45857556520E+02  0.00000000000E+00 0.  1.
       14    1    4    4    0    0 -0.60104035784E+02 -0.11293837770E+03  0.74073770137E+03  0.75170467240E+03  0.00000000000E+00 0. -1.
        3    1    3    3  502    0  0.28534149193E+02  0.11231802931E+02  0.13414534539E+03  0.13760568577E+03  0.00000000000E+00 0. -1.
       -4    1    3    3    0  502  0.41204563930E+02  0.12600861126E+03  0.21958446048E+03  0.25650208866E+03  0.00000000000E+00 0.  1.
</event>
<event>
 8   1  0.2279600E-02  0.1024168E+03  0.7546771E-02  0.1283059E+00
        2   -1    0    0  501    0  0.00000000000E+00  0.00000000000E+00  0.20763091769E+03  0.20763091769E+03  0.00000000000E+00 0. -1.
       -2   -1    0    0    0  501 -0.00000000000E+00 -0.00000000000E+00 -0.57002379079E+02  0.57002379079E+02  0.00000000000E+00 0.  1.
      -24    2    1    2    0    0 -0.11962486896E+02 -0.29919217550E+02  0.75157567428E+01  0.88648980801E+02  0.82242899548E+02 0.  0.
       24    2    1    2    0    0  0.11962486896E+02  0.29919217550E+02  0.14311278187E+03  0.17598431597E+03  0.97215998997E+02 0.  0.
      -13    1    4    4    0    0 -0.29161974507E+02 -0.19256459897E+02  0.73299282182E+02  0.81203551482E+02  0.00000000000E+00 0.  1.
       14    1    4    4    0    0  0.41124461403E+02  0.49175677447E+02  0.69813499685E+02  0.94780764484E+02  0.00000000000E+00 0. -1.
        3    1    3    3  502    0 -0.27547678143E+02  0.46868467628E+00  0.35189799902E+02  0.44692463051E+02  0.00000000000E+00 0. -1.
       -4    1    3    3    0  502  0.15585191247E+02 -0.30387902226E+02 -0.27674043159E+02  0.43956517750E+02  0.00000000000E+00 0.  1.
</event>
<event>
 8   1  0.2279600E-02  0.8186184E+02  0.7546771E-02  0.1324831E+00
       -1   -1    0    0    0  501 -0.00000000000E+00  0.00000000000E+00  0.74980191819E+03  0.74980191819E+03  0.00000000000E+00 0.  1.
        1   -1    0    0  501    0  0.00000000000E+00 -0.00000000000E+00 -0.17950524678E+02  0.17950524678E+02  0.00000000000E+00 0. -1.
       24    2    1    2    0    0 -0.38834922383E+01  0.11276213692E+02  0.64180241673E+03  0.64700208896E+03  0.80988434285E+02 0.  0.
      -24    2    1    2    0    0  0.38834922383E+01 -0.11276213692E+02  0.90048976780E+02  0.12075035391E+03  0.79558753401E+02 0.  0.
      -13    1    3    3    0    0 -0.26260285531E+02  0.34770691257E+02  0.48032342915E+03  0.48229576005E+03  0.00000000000E+00 0.  1.
       14    1    3    3    0    0  0.22376793292E+02 -0.23494477566E+02  0.16147898758E+03  0.16470632891E+03  0.00000000000E+00 0. -1.
        1    1    4    4  502    0  0.18913943900E+01 -0.27335792030E+02 -0.18251925124E+01  0.27461868588E+02  0.00000000000E+00 0. -1.
       -2    1    4    4    0  502  0.19920978483E+01  0.16059578338E+02  0.91874169292E+02  0.93288485320E+02  0.00000000000E+00 0.  1.
</event>
<event>
 8   1  0.2279600E-02  0.8705283E+02  0.7546771E-02  0.1311741E+00
        4   -1    0    0  501    0  0.00000000000E+00  0.00000000000E+00  0.45523054756E+03  0.45523054756E+03  0.00000000000E+00 0. -1.
       -4   -1    0    0    0  501 -0.00000000000E+00 -0.00000000000E+00 -0.27521402119E+02  0.27521402119E+02  0.00000000000E+00 0.  1.
       24    2    1    2    0    0  0.15241733314E+02 -0.22410195777E+02  0.36700302549E+03  0.37662265407E+03  0.80117885211E+02 0.  0.
      -24    2    1    2    0    0 -0.15241733314E+02  0.22410195777E+02  0.60706119958E+02  0.10612929562E+03  0.82726459362E+02 0.  0.
      -13    1    3    3    0    0 -0.30149469847E+02 -0.44173992882E+01  0.21008897354E+03  0.21228725998E+03  0.00000000000E+00 0.  1.
       14    1    3    3    0    0  0.45391203161E+02 -0.17992796488E+02  0.15691405195E+03  0.16433539408E+03  0.00000000000E+00 0. -1.
        3    1    4    4  502    0 -0.68211651386E+01 -0.26226511920E+02  0.48062004509E+02  0.55175306966E+02  0.00000000000E+00 0. -1.
       -4    1    4    4    0  502 -0.84205681758E+01  0.48636707697E+02  0.12644115449E+02  0.50953988651E+02  0.00000000000E+00 0.  1.
</event>
<event>
 8   1  0.2279600E-02  0.1087267E+03  0.7546771E-02  0.1263024E+00
        2   -1    0    0  501    0  0.00000000000E+00  0.00000000000E+00  0.56815456141E+03  0.56815456141E+03  0.00000000000E+00 0. -1.
       -2   -1    0    0    0  501 -0.00000000000E+00 -0.00000000000E+00 -0.23227854273E+02  0.23227854273E+02  0.00000000000E+00 0.  1.
      -24    2    1    2    0    0  0.43416204891E+02  0.57884671893E+02  0.17618957570E+03  0.20694963595E+03  0.80930730540E+02 0.  0.
       24    2    1    2    0    0 -0.43416204891E+02 -0.57884671893E+02  0.36873713144E+03  0.38443277974E+03  0.81153483897E+02 0.  0.
      -13    1    4    4    0    0 -0.39741563309E+02 -0.10092244162E+02  0.64409170476E+02  0.76353038498E+02  0.00000000000E+00 0.  1.
       14    1    4    4    0    0 -0.36746415817E+01 -0.47792427730E+02  0.30432796096E+03  0.30807974124E+03  0.00000000000E+00 0. -1.
        1    1    3    3  502    0 -0.15822054484E+02  0.71366850631E+01  0.85881085049E+02  0.87617523652E+02  0.00000000000E+00 0. -1.
       -2    1    3    3    0  502  0.59238259374E+02  0.50747986829E+02  0.90308490653E+02  0.11933211230E+03  0.00000000000E+00 0.  1.
</event>
<event>
 8   1  0.2279600E-02  0.1360438E+03  0.7546771E-02  0.1219043E+00
        1   -1    0    0  501    0  0.00000000000E+00  0.00000000000E+00  0.10856202347E+03  0.10856202347E+03  0.00000000000E+00 0. -1.
       -1   -1    0    0    0  501 -0.00000000000E+00 -0.00000000000E+00 -0.25335561244E+03  0.25335561244E+03  0.00000000000E+00 0.  1.
       24    2    1    2    0    0 -0.66494417965E+02  0.87030742060E+02 -0.17638812981E+03  0.22225326437E+03  0.79296175838E+02 0.  0.
      -24    2    1    2    0    0  0.66494417965E+02 -0.87030742060E+02  0.31594540845E+02  0.13966437154E+03  0.80697360436E+02 0.  0.
      -13    1    3    3    0    0 -0.83680189452E+02  0.63429584220E+02 -0.12599164837E+03  0.16401091951E+03  0.00000000000E+00 0.  1.
       14    1    3    3    0    0  0.17185771487E+02  0.23601157840E+02 -0.50396481445E+02  0.58242344862E+02  0.00000000000E+00 0. -1.
        1    1    4    4  502    0  0.64394052256E+02 -0.29300349443E+02  0.40024644721E+02  0.81283926015E+02  0.00000000000E+00 0. -1.
       -2    1    4    4    0  502  0.21003657087E+01 -0.57730392617E+02 -0.84301038760E+01  0.58380445521E+02  0.00000000000E+00 0.  1.
</event>
<event>
 8   1  0.2279600E-02  0.8898207E+02  0.7546771E-02  0.1307690E+00
       -1   -1    0    0    0  501 -0.00000000000E+00  0.00000000000E+00  0.65844890606E+02  0.65844890606E+02  0.00000000000E+00 0.  1.
        1   -1    0    0  501    0  0.00000000000E+00 -0.00000000000E+00 -0.11529094849E+03  0.11529094849E+03  0.00000000000E+00 0. -1.
       24    2    1    2    0    0  0.25174452217E+02  0.27212899966E+02 -0.25990716913E+02  0.89114310541E+02  0.76756419983E+02 0.  0.
      -24    2    1    2    0    0 -0.25174452217E+02 -0.27212899966E+02 -0.23455340969E+02  0.92021528554E+02  0.80891988036E+02 0.  0.
      -13    1    3    3    0    0  0.26779925177E+02  0.46079870830E+02  0.42164433869E+01  0.53463045958E+02  0.00000000000E+00 0.  1.
       14    1    3    3    0    0 -0.16054729600E+01 -0.18866970864E+02 -0.30207160300E+02  0.35651264584E+02  0.00000000000E+00 0. -1.
        3    1    4    4  502    0 -0.52374170014E+02 -0.27576912302E+02 -0.26102949063E+02  0.64690831859E+02  0.00000000000E+00 0. -1.
       -4    1    4    4    0  502  0.27199717797E+02  0.36401233623E+00  0.26476080942E+01  0.27330696695E+02  0.00000000000E+00 0.  1.
</event>
<event>
 8   1  0.2279600E-02  0.1151075E+03  0.7546771E-02  0.1252714E+00
       -2   -1    0    0    0  501 -0.00000000000E+00  0.00000000000E+00  0.31280790698E+02  0.31280790698E+02  0.00000000000E+00 0.  1.
        2   -1    0    0  501    0  0.00000000000E+00 -0.00000000000E+00 -0.43104142885E+03  0.43104142885E+03  0.00000000000E+00 0. -1.
      -24    2    1    2    0    0 -0.40116072717E+02 -0.72906275168E+02 -0.24510146901E+03  0.26952908767E+03  0.75143693966E+02 0.  0.
       24    2    1    2    0    0  0.40116072717E+02  0.72906275168E+02 -0.15465916915E+03  0.19279313188E+03  0.79530552929E+02 0.  0.
      -13    1    4    4    0    0  0.12695521046E+02  0.73762962841E+02 -0.65338162367E+02  0.99354045732E+02  0.00000000000E+00 0.  1.
       14    1    4    4    0    0  0.27420551671E+02 -0.85668767374E+00 -0.89321006780E+02  0.93439086147E+02  0.00000000000E+00 0. -1.
        3    1    3    3  502    0 -0.79260405810E+01 -0.39247925721E+02 -0.20246662049E+03  0.20638787321E+03  0.00000000000E+00 0. -1.
       -4    1    3    3    0  502 -0.32190032136E+02 -0.33658349446E+02 -0.42634848513E+02  0.63141214465E+02  0.00000000000E+00 0.  1.
</event>
<event>
 8   1  0.2279600E-02  0.1109225E+03  0.7546771E-02  0.1259070E+00
       -2   -1    0    0    0  501 -0.00000000000E+00  0.00000000000E+00  0.13110534041E+02  0.13110534041E+02  0.00000000000E+00 0.  1.
        2   -1    0    0  501    0  0.00000000000E+00 -0.00000000000E+00 -0.12127296394E+04  0.12127296394E+04  0.00000000000E+00 0. -1.
       24    2    1    2    0    0  0.69881493273E+02 -0.29244889837E+02 -0.89231995611E+03  0.89913456104E+03  0.80432382109E+02 0.  0.
      -24    2    1    2    0    0 -0.69881493273E+02  0.29244889837E+02 -0.30729914928E+03  0.32670561244E+03  0.81025325464E+02 0.  0.
      -13    1    3    3    0    0 -0.13513503139E+02 -0.17544942177E+02 -0.30568000489E+03  0.30648116607E+03  0.00000000000E+00 0.  1.
       14    1    3    3    0    0  0.83394996413E+02 -0.11699947660E+02 -0.58663995122E+03  0.59265339497E+03  0.00000000000E+00 0. -1.
        3    1    4    4  502    0 -0.10578708585E+02  0.23812355032E+02 -0.21686734319E+03  0.21842706305E+03  0.00000000000E+00 0. -1.
       -4    1    4    4    0  502 -0.59302784688E+02  0.54325348043E+01 -0.90431806087E+02  0.10827854939E+03  0.00000000000E+00 0.  1.
</event>
<event>
 8   1  0.2279600E-02  0.1055156E+03  0.7546771E-02  0.1269542E+00
       -1   -1    0    0    0  501 -0.00000000000E+00  0.00000000000E+00  0.13704190688E+02  0.13704190688E+02  0.00000000000E+00 0.  1.
        1   -1    0    0  501    0  0.00000000000E+00 -0.00000000000E+00 -0.14640792917E+04  0.14640792917E+04  0.00000000000E+00 0. -1.
       24    2    1    2    0    0 -0.63132289726E+02  0.24360678326E+02 -0.23134851622E+03  0.25427480223E+03  0.80959313474E+02 0.  0.
      -24    2    1    2    0    0  0.63132289726E+02 -0.24360678326E+02 -0.12190265848E+04  0.12235086802E+04  0.79803178717E+02 0.  0.
      -13    1    3    3    0    0 -0.11213762979E+01 -0.14405802666E+02 -0.33470294465E+01  0.14831966875E+02  0.00000000000E+00 0.  1.
       14    1    3    3    0    0 -0.62010913428E+02  0.38766480992E+02 -0.22800148678E+03  0.23944283536E+03  0.00000000000E+00 0. -1.
        3    1    4    4  502    0  0.24278475228E+02 -0.14205257327E+02 -0.10242006163E+04  0.10245868124E+04  0.00000000000E+00 0. -1.
       -4    1    4    4    0  502  0.38853814497E+02 -0.10155420999E+02 -0.19482596851E+03  0.19892186779E+03  0.00000000000E+00 0.  1.
</event>
<event>
 8   1  0.2279600E-02  0.9504445E+02  0.7546771E-02  0.1291304E+00
        2   -1    0    0  501    0  0.00000000000E+00  0.00000000000E+00  0.30480023889E+03  0.30480023889E+03  0.00000000000E+00 0. -1.
       -2   -1    0    0    0  501 -0.00000000000E+00 -0.00000000000E+00 -0.34738958802E+02  0.34738958802E+02  0.00000000000E+00 0.  1.
      -24    2    1    2    0    0 -0.48470549195E+02  0.26061350401E+02  0.69418723691E+02  0.11769624682E+03  0.77491026535E+02 0.  0.
       24    2    1    2    0    0  0.48470549195E+02 -0.26061350401E+02  0.20064255640E+03  0.22184295087E+03  0.76995267960E+02 0.  0.
      -13    1    4    4    0    0 -0.16075755549E+02  0.52280874276E+01  0.77587473233E+02  0.79407674801E+02  0.00000000000E+00 0.  1.
       14    1    4    4    0    0  0.64546304744E+02 -0.31289437829E+02  0.12305508317E+03  0.14243527607E+03  0.00000000000E+00 0. -1.
        1    1    3    3  502    0 -0.54767030599E+02  0.19063843488E+02  0.82951376511E+02  0.10121160326E+03  0.00000000000E+00 0. -1.
       -2    1    3    3    0  502  0.62964814041E+01  0.69975069135E+01 -0.13532652821E+02  0.16484643564E+02  0.00000000000E+00 0.  1.
</event>
<event>
 8   1  0.2279600E-02  0.8889945E+02  0.7546771E-02  0.1306488E+00
        3   -1    0    0  501    0  0.00000000000E+00  0.00000000000E+00  0.14098710170E+03  0.14098710170E+03  0.00000000000E+00 0. -1.
       -3   -1    0    0    0  501 -0.00000000000E+00 -0.00000000000E+00 -0.22992342268E+03  0.22992342268E+03  0.00000000000E+00 0.  1.
       24    2    1    2    0    0  0.19913545302E+02  0.27957044853E+02 -0.20627428652E+03  0.22461565577E+03  0.82005889375E+02 0.  0.
      -24    2    1    2    0    0 -0.19913545302E+02 -0.27957044853E+02  0.11733796555E+03  0.14629486861E+03  0.80348271791E+02 0.  0.
      -13    1    3    3    0    0  0.33483872337E+02  0.43475207761E+02 -0.19162128376E+03  0.19932380637E+03  0.00000000000E+00 0.  1.
       14    1    3    3    0    0 -0.13570327035E+02 -0.15518162908E+02 -0.14653002761E+02  0.25291849395E+02  0.00000000000E+00 0. -1.
        3    1    4    4  502    0 -0.36173096942E+02 -0.22927151372E+02  0.12145470686E+03  0.12878428875E+03  0.00000000000E+00 0. -1.
       -4    1    4    4    0  502  0.16259551640E+02 -0.50298934812E+01 -0.41167413076E+01  0.17510579858E+02  0.00000000000E+00 0.  1.
</event>
<event>
 8   1  0.2279600E-02  0.1266825E+03  0.7546771E-02  0.1232738E+00
       -2   -1    0    0    0  501 -0.00000000000E+00  0.00000000000E+00  0.53106255352E+02  0.53106255352E+02  0.00000000000E+00 0.  1.
        2   -1    0    0  501    0  0.00000000000E+00 -0.00000000000E+00 -0.30106334682E+03  0.30106334682E+03  0.00000000000E+00 0. -1.
       24    2    1    2    0    0 -0.96493728390E+02  0.12540507272E+02 -0.11663456749E+03  0.17219780263E+03  0.81118166627E+02 0.  0.
      -24    2    1    2    0    0  0.96493728390E+02 -0.12540507272E+02 -0.13132252398E+03  0.18197179954E+03  0.79998916135E+02 0.  0.
      -13    1    3    3    0    0 -0.45820200777E+02  0.41574863045E+02 -0.86863695154E+02  0.10664549485E+03  0.00000000000E+00 0.  1.
       14    1    3    3    0    0 -0.50673527613E+02 -0.29034355773E+02 -0.29770872339E+02  0.65552307784E+02  0.00000000000E+00 0. -1.
        3    1    4    4  502    0  0.78957099733E+02 -0.34364119863E+02 -0.58904580673E+02  0.10433056099E+03  0.00000000000E+00 0. -1.
       -4    1    4    4    0  502  0.17536628657E+02  0.21823612591E+02 -0.72417943305E+02  0.77641238550E+02  0.00000000000E+00 0.  1.
</event>
<event>
 8   1  0.2279600E-02  0.9452414E+02  0.7546771E-02  0.1293362E+00
        2   -1    0    0  501    0  0.00000000000E+00  0.00000000000E+00  0.80175426528E+02  0.80175426528E+02  0.00000000000E+00 0. -1.
       -2   -1    0    0    0  501 -0.00000000000E+00 -0.00000000000E+00 -0.18014745754E+03  0.18014745754E+03  0.00000000000E+00 0.  1.
       24    2    1    2    0    0 -0.44877534811E+02  0.19729153789E+02  0.31399879965E+02  0.99603036785E+02  0.80818190001E+02 0.  0.
      -24    2    1    2    0    0  0.44877534811E+02 -0.19729153789E+02 -0.13137191098E+03  0.16071984729E+03  0.78543349032E+02 0.  0.
      -13    1    3    3    0    0  0.23201195676E+02  0.96138783225E-01  0.35426754135E+01  0.23470306187E+02  0.00000000000E+00 0.  1.
       14    1    3    3    0    0 -0.68078730486E+02  0.19633015006E+02  0.27857204552E+02  0.76132730598E+02  0.00000000000E+00 0. -1.
        3    1    4    4  502    0  0.31827984203E+02 -0.27061147170E+00 -0.50302604650E+01  0.32224173059E+02  0.00000000000E+00 0. -1.
       -4    1    4    4    0  502  0.13049550608E+02 -0.19458542317E+02 -0.12634165051E+03  0.12849567423E+03  0.00000000000E+00 0.  1.
</event>
<event>
 8   1  0.2279600E-02  0.8567238E+02  0.7546771E-02  0.1315450E+00
       -2   -1    0    0    0  501 -0.00000000000E+00  0.00000000000E+00  0.12962698779E+02  0.12962698779E+02  0.00000000000E+00 0.  1.
        2   -1    0    0  501    0  0.00000000000E+00 -0.00000000000E+00 -0.63187935447E+03  0.63187935447E+03  0.00000000000E+00 0. -1.
       24    2    1    2    0    0  0.25207896384E+02  0.12206854057E+02 -0.43075375806E+03  0.43919079745E+03  0.80964876067E+02 0.  0.
      -24    2    1    2    0    0 -0.25207896384E+02 -0.12206854057E+02 -0.18816289763E+03  0.20565125580E+03  0.78119892733E+02 0.  0.
      -13    1    3    3    0    0  0.39391587473E+02  0.36423991534E+02 -0.33968106317E+03  0.34389188562E+03  0.00000000000E+00 0.  1.
       14    1    3    3    0    0 -0.14183691089E+02 -0.24217137477E+02 -0.91072694895E+02  0.95298911830E+02  0.00000000000E+00 0. -1.
        1    1    4    4  502    0  0.24465487374E+01 -0.33928947460E+02 -0.14978253015E+03  0.15359676238E+03  0.00000000000E+00 0. -1.
       -2    1    4    4    0  502 -0.27654445121E+02  0.21722093403E+02 -0.38380367481E+02  0.52054493415E+02  0.00000000000E+00 0.  1.
</event>
<event>
 8   1  0.2279600E-02  0.1155327E+03  0.7546771E-02  0.1251926E+00
       -4   -1    0    0    0  501 -0.00000000000E+00  0.00000000000E+00  0.99028818519E+03  0.99028818519E+03  0.00000000000E+00 0.  1.
        4   -1    0    0  501    0  0.00000000000E+00 -0.00000000000E+00 -0.14225703894E+02  0.14225703894E+02  0.00000000000E+00 0. -1.
      -24    2    1    2    0    0  0.45534228547E+02  0.65434729888E+02  0.63227746162E+03  0.64274614094E+03  0.83622624811E+02 0.  0.
       24    2    1    2    0    0 -0.45534228547E+02 -0.65434729888E+02  0.34378501968E+03  0.36176774815E+03  0.79578225642E+02 0.  0.
      -13    1    4    4    0    0 -0.98022909708E+01  0.13227847194E+02  0.16647784987E+02  0.23413876113E+02  0.00000000000E+00 0.  1.
       14    1    4    4    0    0 -0.35731937576E+02 -0.78662577082E+02  0.32713723470E+03  0.33835387204E+03  0.00000000000E+00 0. -1.
        1    1    3    3  502    0  0.22951749327E+02 -0.61589899338E+01  0.46922228640E+02  0.52596687108E+02  0.00000000000E+00 0. -1.
       -2    1    3    3    0  502  0.22582479220E+02  0.71593719822E+02  0.58535523298E+03  0.59014945383E+03  0.00000000000E+00 0.  1.
</event>
<event>
 8   1  0.2279600E-02  0.8176905E+02  0.7546771E-02  0.1325580E+00
        1   -1    0    0  501    0  0.00000000000E+00  0.00000000000E+00  0.25146597564E+04  0.25146597564E+04  0.00000000000E+00 0. -1.
       -1   -1    0    0    0  501 -0.00000000000E+00 -0.00000000000E+00 -0.30249396496E+01  0.30249396496E+01  0.00000000000E+00 0.  1.
       24    2    1    2    0    0  0.12045321987E+02  0.13321749920E+02  0.79294056872E+03  0.79714548374E+03  0.79772287992E+02 0.  0.
      -24    2    1    2    0    0 -0.12045321987E+02 -0.13321749920E+02  0.17186942480E+04  0.17205392123E+04  0.77606082620E+02 0.  0.
      -13    1    3    3    0    0 -0.94958553304E+01  0.35753582267E+02  0.20016882501E+03  0.20355846437E+03  0.00000000000E+00 0.  1.
       14    1    3    3    0    0  0.21541177318E+02 -0.22431832347E+02  0.59277174371E+03  0.59358701937E+03  0.00000000000E+00 0. -1.
        1    1    4    4  502    0 -0.17978308969E+01 -0.48980157321E+00  0.16464917040E+04  0.16464927584E+04  0.00000000000E+00 0. -1.
       -2    1    4    4    0  502 -0.10247491091E+02 -0.12831948347E+02  0.72202543976E+02  0.74046453856E+02  0.00000000000E+00 0.  1.
</event>
<event>
 8   1  0.2279600E-02  0.9028393E+02  0.7546771E-02  0.1305904E+00
        2   -1    0    0  501    0  0.00000000000E+00  0.00000000000E+00  0.23731934049E+03  0.23731934049E+03  0.00000000000E+00 0. -1.
       -2   -1    0    0    0  501 -0.00000000000E+00 -0.00000000000E+00 -0.97680070174E+02  0.97680070174E+02  0.00000000000E+00 0.  1.
      -24    2    1    2    0    0 -0.24758001983E+02  0.96556789128E+01 -0.66601932127E+02  0.11219182539E+03  0.86284399079E+02 0.  0.
       24    2    1    2    0    0  0.24758001983E+02 -0.96556789128E+01  0.20624120244E+03  0.22280758527E+03  0.80009972327E+02 0.  0.
      -13    1    4    4    0    0  0.15099195186E+02  0.32359792954E+02  0.13403720659E+03  0.13871234496E+03  0.00000000000E+00 0.  1.
       14    1    4    4    0    0  0.96588067968E+01 -0.42015471867E+02  0.72203995851E+02  0.84095240304E+02  0.00000000000E+00 0. -1.
        1    1    3    3  502    0  0.15174316746E+02  0.18492706803E+02 -0.67156308030E+02  0.71289619173E+02  0.00000000000E+00 0. -1.
       -2    1    3    3    0  502 -0.39932318729E+02 -0.88370278902E+01  0.55437590287E+00  0.40902206220E+02  0.00000000000E+00 0.  1.
</event>
<event>
 8   1  0.2279600E-02  0.8879930E+02  0.7546771E-02  0.1309693E+00
       -3   -1    0    0    0  501 -0.00000000000E+00  0.00000000000E+00  0.12963103819E+03  0.12963103819E+03  0.00000000000E+00 0.  1.
        3   -1    0    0  501    0  0.00000000000E+00 -0.00000000000E+00 -0.56722670461E+02  0.56722670461E+02  0.00000000000E+00 0. -1.
       24    2    1    2    0    0  0.74718262130E+01 -0.24109399255E+02  0.35148586742E+02  0.89859579158E+02  0.78754234788E+02 0.  0.
      -24    2    1    2    0    0 -0.74718262130E+01  0.24109399255E+02  0.37759780985E+02  0.96494129491E+02  0.85136505958E+02 0.  0.
      -13    1    3    3    0    0 -0.78268213755E+01 -0.44124332025E+02  0.44341289291E+02  0.63042570898E+02  0.00000000000E+00 0.  1.
       14    1    3    3    0    0  0.15298647589E+02  0.20014932770E+02 -0.91927025493E+01  0.26817008260E+02  0.00000000000E+00 0. -1.
        3    1    4    4  502    0 -0.26822322578E+02  0.38471033671E+01 -0.19068943706E+02  0.33133997749E+02  0.00000000000E+00 0. -1.
       -4    1    4    4    0  502  0.19350496365E+02  0.20262295888E+02  0.56828724692E+02  0.63360131741E+02  0.00000000000E+00 0.  1.
</event>
<event>
 8   1  0.2279600E-02  0.1016596E+03  0.7546771E-02  0.1280405E+00
        1   -1    0    0  501    0  0.00000000000E+00  0.00000000000E+00  0.65222569534E+03  0.65222569534E+03  0.00000000000E+00 0. -1.
       -1   -1    0    0    0  501 -0.00000000000E+00 -0.00000000000E+00 -0.25520051401E+02  0.25520051401E+02  0.00000000000E+00 0.  1.
       24    2    1    2    0    0 -0.20144598147E+02 -0.48384792886E+02  0.87844111592E+02  0.12937869059E+03  0.79217199017E+02 0.  0.
      -24    2    1    2    0    0  0.20144598147E+02  0.48384792886E+02  0.53886153235E+03  0.54836705615E+03  0.87107888339E+02 0.  0.
      -13    1    3    3    0    0  0.21102134525E+02 -0.48582546822E+02  0.57459183754E+02  0.78148075695E+02  0.00000000000E+00 0.  1.
       14    1    3    3    0    0 -0.41246732672E+02  0.19775393614E+00  0.30384927838E+02  0.51230614894E+02  0.00000000000E+00 0. -1.
        1    1    4    4  502    0  0.17831878164E+02  0.68658696516E+02  0.28532843217E+03  0.29401412668E+03  0.00000000000E+00 0. -1.
       -2    1    4    4    0  502  0.23127199831E+01 -0.20273903630E+02  0.25353310018E+03  0.25435292947E+03  0.00000000000E+00 0.  1.
</event>
<event>
 8   1  0.2279600E-02  0.9118518E+02  0.7546771E-02  0.1301364E+00
       -2   -1    0    0    0  501 -0.00000000000E+00  0.00000000000E+00  0.54366128407E+02  0.54366128407E+02  0.00000000000E+00 0.  1.
        2   -1    0    0  501    0  0.00000000000E+00 -0.00000000000E+00 -0.23286622769E+03  0.23286622769E+03  0.00000000000E+00 0. -1.
       24    2    1    2    0    0  0.39685979778E+02 -0.81976793554E+01 -0.17605101703E+03  0.19826421249E+03  0.81685729606E+02 0.  0.
      -24    2    1    2    0    0 -0.39685979778E+02  0.81976793554E+01 -0.24490822607E+01  0.88968143610E+02  0.79165356285E+02 0.  0.
      -13    1    3    3    0    0  0.39062964461E+02  0.10931115144E+02 -0.28735124496E+02  0.49710279124E+02  0.00000000000E+00 0.  1.
       14    1    3    3    0    0  0.62301531634E+00 -0.19128794500E+02 -0.14731589253E+03  0.14855393337E+03  0.00000000000E+00 0. -1.
        3    1    4    4  502    0 -0.27291640415E+02 -0.34061632866E+02  0.62080141719E+01  0.44085915097E+02  0.00000000000E+00 0. -1.
       -4    1    4    4    0  502 -0.12394339363E+02  0.42259312221E+02 -0.86570964326E+01  0.44882228513E+02  0.00000000000E+00 0.  1.
</event>
<event>
 8   1  0.2279600E-02  0.3726384E+03  0.7546771E-02  0.1054100E+00
       -2   -1    0    0    0  501 -0.00000000000E+00  0.00000000000E+00  0.23650900413E+03  0.23650900413E+03  0.00000000000E+00 0.  1.
        2   -1    0    0  501    0  0.00000000000E+00 -0.00000000000E+00 -0.59533053300E+03  0.59533053300E+03  0.00000000000E+00 0. -1.
       24    2    1    2    0    0 -0.25210849671E+03  0.25633706827E+03 -0.11444247432E+03  0.38981588748E+03  0.97938549725E+02 0.  0.
      -24    2    1    2    0    0  0.25210849671E+03 -0.25633706827E+03 -0.24437905455E+03  0.44202364965E+03  0.79977483454E+02 0.  0.
      -13    1    3    3    0    0 -0.14081279286E+02 -0.35303045177E+01 -0.20475859476E+02  0.25099926247E+02  0.00000000000E+00 0.  1.
       14    1    3    3    0    0 -0.23802721742E+03  0.25986737279E+03 -0.93966614846E+02  0.36471596124E+03  0.00000000000E+00 0. -1.
        1    1    4    4  502    0  0.68271645385E+02 -0.12331858967E+03 -0.83016522740E+02  0.16358555917E+03  0.00000000000E+00 0. -1.
       -2    1    4    4    0  502  0.18383685132E+03 -0.13301847860E+03 -0.16136253181E+03  0.27843809047E+03  0.00000000000E+00 0.  1.
</event>
<event>
 8   1  0.2279600E-02  0.9186441E+02  0.7546771E-02  0.1299212E+00
        1   -1    0    0  501    0  0.00000000000E+00  0.00000000000E+00  0.43669037475E+02  0.43669037475E+02  0.00000000000E+00 0. -1.
       -1   -1    0    0    0  501 -0.00000000000E+00 -0.00000000000E+00 -0.19111941366E+03  0.19111941366E+03  0.00000000000E+00 0.  1.
       24    2    1    2    0    0  0.38780262182E+02  0.18648059326E+02 -0.81582946532E+02  0.12286108743E+03  0.81162865823E+02 0.  0.
      -24    2    1    2    0    0 -0.38780262182E+02 -0.18648059326E+02 -0.65867429658E+02  0.11192736371E+03  0.79608778442E+02 0.  0.
      -13    1    3    3    0    0  0.63107053420E+02  0.99395983914E+01 -0.45291053724E+02  0.78310761425E+02  0.00000000000E+00 0.  1.
       14    1    3    3    0    0 -0.24326791238E+02  0.87084609347E+01 -0.36291892808E+02  0.44550326007E+02  0.00000000000E+00 0. -1.
        3    1    4    4  502    0 -0.62202494721E+02 -0.35415557375E+01 -0.41073198503E+02  0.74623726802E+02  0.00000000000E+00 0. -1.
       -4    1    4    4    0  502  0.23422232539E+02 -0.15106503589E+02 -0.24794231155E+02  0.37303636905E+02  0.00000000000E+00 0.  1.
</event>
<event>
 8   1  0.2279600E-02  0.9352028E+02  0.7546771E-02  0.1295526E+00
       -2   -1    0    0    0  501 -0.00000000000E+00  0.00000000000E+00  0.20792110914E+03  0.20792110914E+03  0.00000000000E+00 0.  1.
        2   -1    0    0  501    0  0.00000000000E+00 -0.00000000000E+00 -0.71316786420E+02  0.71316786420E+02  0.00000000000E+00 0. -1.
      -24    2    1    2    0    0  0.43221438658E+02  0.96827606198E+01  0.15850832540E+03  0.18318672178E+03  0.80440271023E+02 0.  0.
       24    2    1    2    0    0 -0.43221438658E+02 -0.96827606198E+01 -0.21904002676E+02  0.96051173785E+02  0.82366219042E+02 0.  0.
      -13    1    4    4    0    0  0.21255404746E+02 -0.14729670314E+02 -0.17504587553E+02  0.31227648068E+02  0.00000000000E+00 0.  1.
       14    1    4    4    0    0 -0.64476843405E+02  0.50469096937E+01 -0.43994151222E+01  0.64823525716E+02  0.00000000000E+00 0. -1.
        3    1    3    3  502    0  0.22535599584E+02 -0.50801666290E+01  0.45736750455E+00  0.23105638417E+02  0.00000000000E+00 0. -1.
       -4    1    3    3    0  502  0.20685839074E+02  0.14762927249E+02  0.15805095789E+03  0.16008108336E+03  0.00000000000E+00 0.  1.
</event>
<event>
 8   1  0.2279600E-02  0.8571147E+02  0.7546771E-02  0.1313624E+00
        1   -1    0    0  501    0  0.00000000000E+00  0.00000000000E+00  0.45750542056E+04  0.45750542056E+04  0.00000000000E+00 0. -1.
       -1   -1    0    0    0  501 -0.00000000000E+00 -0.00000000000E+00 -0.10410375032E+02  0.10410375032E+02  0.00000000000E+00 0.  1.
       24    2    1    2    0    0 -0.31529889484E+02 -0.93193071750E+00  0.17354053970E+03  0.19352485350E+03  0.79627555374E+02 0.  0.
      -24    2    1    2    0    0  0.31529889484E+02  0.93193071750E+00  0.43911032908E+04  0.43919397271E+04  0.79696005576E+02 0.  0.
      -13    1    3    3    0    0 -0.11987288244E+02 -0.22792656446E+02  0.10405378718E+02  0.27775387910E+02  0.00000000000E+00 0.  1.
       14    1    3    3    0    0 -0.19542601240E+02  0.21860725729E+02  0.16313516098E+03  0.16574946558E+03  0.00000000000E+00 0. -1.
        1    1    4    4  502    0 -0.17632484987E+02  0.10441189334E+02  0.27415824447E+04  0.27416590276E+04  0.00000000000E+00 0. -1.
       -2    1    4    4    0  502  0.49162374471E+02 -0.95092586169E+01  0.16495208462E+04  0.16502806995E+04  0.00000000000E+00 0.  1.
</event>
<event>
 8   1  0.2279600E-02  0.1347156E+03  0.7546771E-02  0.1226343E+00
        2   -1    0    0  501    0  0.00000000000E+00  0.00000000000E+00  0.30432485973E+03  0.30432485973E+03  0.00000000000E+00 0. -1.
       -2   -1    0    0    0  501 -0.00000000000E+00 -0.00000000000E+00 -0.86679337950E+02  0.86679337950E+02  0.00000000000E+00 0.  1.
       24    2    1    2    0    0 -0.91313100664E+02 -0.11600769011E+02  0.23433110442E+03  0.27029494772E+03  0.98364790806E+02 0.  0.
      -24    2    1    2    0    0  0.91313100664E+02  0.11600769011E+02 -0.16685582640E+02  0.12070924996E+03  0.76286657830E+02 0.  0.
      -13    1    3    3    0    0  0.33574930261E+00 -0.85835681149E+01  0.13437368343E+03  0.13464797498E+03  0.00000000000E+00 0.  1.
       14    1    3    3    0    0 -0.91648849967E+02 -0.30172008963E+01  0.99957420992E+02  0.13564697274E+03  0.00000000000E+00 0. -1.
        1    1    4    4  502    0 -0.13308037244E+02  0.30369236713E+01  0.28275771571E+01  0.13939940934E+02  0.00000000000E+00 0. -1.
       -2    1    4    4    0  502  0.10462113791E+03  0.85638453399E+01 -0.19513159797E+02  0.10676930902E+03  0.00000000000E+00 0.  1.
</event>
<event>
 8   1  0.2279600E-02  0.1606236E+03  0.7546771E-02  0.1188164E+00
        1   -1    0    0  501    0  0.00000000000E+00  0.00000000000E+00  0.13507692735E+04  0.13507692735E+04  0.00000000000E+00 0. -1.
       -1   -1    0    0    0  501 -0.00000000000E+00 -0.00000000000E+00 -0.51962754390E+02  0.51962754390E+02  0.00000000000E+00 0.  1.
       24    2    1    2    0    0 -0.80471932272E+02  0.11304817970E+03  0.91480871590E+02  0.18484773070E+03  0.80896915038E+02 0.  0.
      -24    2    1    2    0    0  0.80471932272E+02 -0.11304817970E+03  0.12073256475E+04  0.12178842972E+04  0.79695165202E+02 0.  0.
      -13    1    3    3    0    0 -0.77084921610E+02  0.71344173629E+02  0.27799105513E+02  0.10865020257E+03  0.00000000000E+00 0.  1.
       14    1    3    3    0    0 -0.33870106613E+01  0.41704006069E+02  0.63681766077E+02  0.76197528137E+02  0.00000000000E+00 0. -1.
        3    1    4    4  502    0  0.45657556245E+02 -0.10002721928E+03  0.10694038327E+04  0.10750416804E+04  0.00000000000E+00 0. -1.
       -4    1    4    4    0  502  0.34814376026E+02 -0.13020960418E+02  0.13792181474E+03  0.14284261678E+03  0.00000000000E+00 0.  1.
</event>
<event>
 8   1  0.2279600E-02  0.2300704E+03  0.7546771E-02  0.1126639E+00
       -1   -1    0    0    0  501 -0.00000000000E+00  0.00000000000E+00  0.24786936413E+03  0.24786936413E+03  0.00000000000E+00 0.  1.
        1   -1    0    0  501    0  0.00000000000E+00 -0.00000000000E+00 -0.10512229815E+04  0.10512229815E+04  0.00000000000E+00 0. -1.
       24    2    1    2    0    0 -0.14319523463E+03  0.16089617886E+03  0.17819184318E+03  0.29100639252E+03  0.80869845534E+02 0.  0.
      -24    2    1    2    0    0  0.14319523463E+03 -0.16089617886E+03 -0.98154546055E+03  0.10080859531E+04  0.80083344891E+02 0.  0.
      -13    1    3    3    0    0 -0.14735988707E+03  0.15987091539E+03  0.18326837856E+03  0.28436058884E+03  0.00000000000E+00 0.  1.
       14    1    3    3    0    0  0.41646524388E+01  0.10252634725E+01 -0.50765353771E+01  0.66458036804E+01  0.00000000000E+00 0. -1.
        1    1    4    4  502    0  0.13385988118E+03 -0.16936387517E+03 -0.94753171088E+03  0.97181219025E+03  0.00000000000E+00 0. -1.
       -2    1    4    4    0  502  0.93353534520E+01  0.84676963084E+01 -0.34013749673E+02  0.36273762855E+02  0.00000000000E+00 0.  1.
</event>
<event>
 8   1  0.2279600E-02  0.9909489E+02  0.7546771E-02  0.1285495E+00
        2   -1    0    0  501    0  0.00000000000E+00  0.00000000000E+00  0.43325357143E+04  0.43325357143E+04  0.00000000000E+00 0. -1.
       -2   -1    0    0    0  501 -0.00000000000E+00 -0.00000000000E+00 -0.43341389235E+02  0.43341389235E+02  0.00000000000E+00 0.  1.
      -24    2    1    2    0    0  0.16219550381E+02  0.46989531517E+02  0.14478529438E+02  0.10014701330E+03  0.85724597240E+02 0.  0.
       24    2    1    2    0    0 -0.16219550381E+02 -0.46989531517E+02  0.42747157956E+04  0.42757300902E+04  0.78750119118E+02 0.  0.
      -13    1    4    4    0    0 -0.98909690103E+01  0.95530953905E+01  0.15175639864E+03  0.15237813960E+03  0.00000000000E+00 0.  1.
       14    1    4    4    0    0 -0.63285813703E+01 -0.56542626907E+02  0.41229593970E+04  0.41233519506E+04  0.00000000000E+00 0. -1.
        3    1    3    3  502    0  0.32828848521E+02  0.57560153190E+02  0.32186408629E+02  0.73667288744E+02  0.00000000000E+00 0. -1.
       -4    1    3    3    0  502 -0.16609298140E+02 -0.10570621673E+02 -0.17707879190E+02  0.26479724559E+02  0.00000000000E+00 0.  1.
</event>
<event>
 8   1  0.2279600E-02  0.8204362E+02  0.7546771E-02  0.1324038E+00
        1   -1    0    0  501    0  0.00000000000E+00  0.00000000000E+00  0.13110425038E+03  0.13110425038E+03  0.00000000000E+00 0. -1.
       -1   -1    0    0    0  501 -0.00000000000E+00 -0.00000000000E+00 -0.67280073803E+02  0.67280073803E+02  0.00000000000E+00 0.  1.
       24    2    1    2    0    0  0.14376117489E+02  0.55098745794E+01 -0.17445646214E+02  0.82902984059E+02  0.79570866038E+02 0.  0.
      -24    2    1    2    0    0 -0.14376117489E+02 -0.55098745794E+01  0.81269822793E+02  0.11548134013E+03  0.80586130002E+02 0.  0.
      -13    1    3    3    0    0 -0.12190744921E+02 -0.30408493623E+02  0.46024909986E+01  0.33082830434E+02  0.00000000000E+00 0.  1.
       14    1    3    3    0    0  0.26566862410E+02  0.35918368202E+02 -0.22048137213E+02  0.49820153625E+02  0.00000000000E+00 0. -1.
        1    1    4    4  502    0  0.17040201544E+02  0.21823581087E+02  0.65218045058E+02  0.70852174005E+02  0.00000000000E+00 0. -1.
       -2    1    4    4    0  502 -0.31416319033E+02 -0.27333455666E+02  0.16051777735E+02  0.44629166121E+02  0.00000000000E+00 0.  1.
</event>
<event>
 8   1  0.2279600E-02  0.1757934E+03  0.7546771E-02  0.1172233E+00
       -2   -1    0    0    0  501 -0.00000000000E+00  0.00000000000E+00  0.11440498587E+03  0.11440498587E+03  0.00000000000E+00 0.  1.
        2   -1    0    0  501    0  0.00000000000E+00 -0.00000000000E+00 -0.30079069515E+03  0.30079069515E+03  0.00000000000E+00 0. -1.
       24    2    1    2    0    0  0.88387975986E+02 -0.12888106885E+03 -0.16168732938E+03  0.23884326986E+03  0.80501868739E+02 0.  0.
      -24    2    1    2    0    0 -0.88387975986E+02  0.12888106885E+03 -0.24698379903E+02  0.17635241115E+03  0.77893508978E+02 0.  0.
      -13    1    3    3    0    0  0.88502207519E+02 -0.72745811203E+02 -0.13385566860E+03  0.17618721236E+03  0.00000000000E+00 0.  1.
       14    1    3    3    0    0 -0.11423153338E+00 -0.56135257649E+02 -0.27831660780E+02  0.62656057504E+02  0.00000000000E+00 0. -1.
        1    1    4    4  502    0 -0.45733277889E+02  0.10358958981E+03 -0.46205826537E+02  0.12230009905E+03  0.00000000000E+00 0. -1.
       -2    1    4    4    0  502 -0.42654698097E+02  0.25291479044E+02  0.21507446633E+02  0.54052312094E+02  0.00000000000E+00 0.  1.
</event>
<event>
 8   1  0.2279600E-02  0.8936680E+02  0.7546771E-02  0.1305509E+00
       -1   -1    0    0    0  501 -0.00000000000E+00  0.00000000000E+00  0.45682148275E+02  0.45682148275E+02  0.00000000000E+00 0.  1.
        1   -1    0    0  501    0  0.00000000000E+00 -0.00000000000E+00 -0.11745781605E+04  0.11745781605E+04  0.00000000000E+00 0. -1.
       24    2    1    2    0    0 -0.12284459513E+02  0.34740910784E+02  0.27303320012E+00  0.87560366898E+02  0.79428612455E+02 0.  0.
      -24    2    1    2    0    0  0.12284459513E+02 -0.34740910784E+02 -0.11291690454E+04  0.11326999419E+04  0.81416130798E+02 0.  0.
      -13    1    3    3    0    0 -0.42170503685E+02  0.45793575345E+01  0.10887218187E+02  0.43793303327E+02  0.00000000000E+00 0.  1.
       14    1    3    3    0    0  0.29886044171E+02  0.30161553249E+02 -0.10614184987E+02  0.43767063570E+02  0.00000000000E+00 0. -1.
        1    1    4    4  502    0  0.32265222273E+02  0.13534414077E+02 -0.57878217766E+03  0.57983880011E+03  0.00000000000E+00 0. -1.
       -2    1    4    4    0  502 -0.19980762759E+02 -0.48275324861E+02 -0.55038686778E+03  0.55286114178E+03  0.00000000000E+00 0.  1.
</event>
<event>
 8   1  0.2279600E-02  0.8715128E+02  0.7546771E-02  0.1309948E+00
       -2   -1    0    0    0  501 -0.00000000000E+00  0.00000000000E+00  0.33217371091E+03  0.33217371091E+03  0.00000000000E+00 0.  1.
        2   -1    0    0  501    0  0.00000000000E+00 -0.00000000000E+00 -0.27121073069E+02  0.27121073069E+02  0.00000000000E+00 0. -1.
      -24    2    1    2    0    0  0.81205006735E+01  0.30677471008E+02  0.22390554414E+03  0.24026867948E+03  0.81168318207E+02 0.  0.
       24    2    1    2    0    0 -0.81205006735E+01 -0.30677471008E+02  0.81147093699E+02  0.11902610450E+03  0.81088303589E+02 0.  0.
      -13    1    4    4    0    0 -0.31070629007E+02  0.13353292772E+02  0.50165731297E+02  0.60500371993E+02  0.00000000000E+00 0.  1.
       14    1    4    4    0    0  0.22950128334E+02 -0.44030763780E+02  0.30981362402E+02  0.58525732510E+02  0.00000000000E+00 0. -1.
        1    1    3    3  502    0 -0.13742573884E+02  0.45932011216E+01  0.72510530748E+00  0.14507984395E+02  0.00000000000E+00 0. -1.
       -2    1    3    3    0  502  0.21863074558E+02  0.26084269886E+02  0.22318043884E+03  0.22576069508E+03  0.00000000000E+00 0.  1.
</event>
<event>
 8   1  0.2279600E-02  0.9556967E+02  0.7546771E-02  0.1289902E+00
       -2   -1    0    0    0  501 -0.00000000000E+00  0.00000000000E+00  0.39674133746E+02  0.39674133746E+02  0.00000000000E+00 0.  1.
        2   -1    0    0  501    0  0.00000000000E+00 -0.00000000000E+00 -0.23629914276E+03  0.23629914276E+03  0.00000000000E+00 0. -1.
      -24    2    1    2    0    0 -0.49909381092E+02  0.96949903747E+01 -0.76140996000E+02  0.12218784352E+03  0.80916491977E+02 0.  0.
       24    2    1    2    0    0  0.49909381092E+02 -0.96949903747E+01 -0.12048401301E+03  0.15378543298E+03  0.80923561749E+02 0.  0.
      -13    1    4    4    0    0 -0.18421496833E+02 -0.19167848623E+02 -0.33322314895E+02  0.42627862207E+02  0.00000000000E+00 0.  1.
       14    1    4    4    0    0  0.68330877925E+02  0.94728582487E+01 -0.87161698116E+02  0.11115757077E+03  0.00000000000E+00 0. -1.
        1    1    3    3  502    0  0.16142194787E+02 -0.74021969629E+01 -0.42615496971E+02  0.46167559547E+02  0.00000000000E+00 0. -1.
       -2    1    3    3    0  502 -0.66051575878E+02  0.17097187338E+02 -0.33525499029E+02  0.76020283978E+02  0.00000000000E+00 0.  1.
</event>
<event>
 8   1  0.2279600E-02  0.1304193E+03  0.7546771E-02  0.1227008E+00
        1   -1    0    0  501    0  0.00000000000E+00  0.00000000000E+00  0.29930745100E+03  0.29930745100E+03  0.00000000000E+00 0. -1.
       -1   -1    0    0    0  501 -0.00000000000E+00 -0.00000000000E+00 -0.11461848892E+03  0.11461848892E+03  0.00000000000E+00 0.  1.
       24    2    1    2    0    0  0.27856111618E+02 -0.10710587689E+03 -0.54789949652E+02  0.14146073689E+03  0.69004127983E+02 0.  0.
      -24    2    1    2    0    0 -0.27856111618E+02  0.10710587689E+03  0.23947891173E+03  0.27246520303E+03  0.68113918417E+02 0.  0.
      -13    1    3    3    0    0 -0.52378375519E+01 -0.89957567884E+02 -0.24362523509E+02  0.93345227588E+02  0.00000000000E+00 0.  1.
       14    1    3    3    0    0  0.33093949170E+02 -0.17148309009E+02 -0.30427426142E+02  0.48115509300E+02  0.00000000000E+00 0. -1.
        1    1    4    4  502    0 -0.13874861309E+02  0.59090893089E+01  0.90973705507E+02  0.92215205940E+02  0.00000000000E+00 0. -1.
       -2    1    4    4    0  502 -0.13981250309E+02  0.10119678758E+03  0.14850520622E+03  0.18024999709E+03  0.00000000000E+00 0.  1.
</event>
<event>
 8   1  0.2279600E-02  0.1038211E+03  0.7546771E-02  0.1272744E+00
        1   -1    0    0  501    0  0.00000000000E+00  0.00000000000E+00  0.60567436302E+02  0.60567436302E+02  0.00000000000E+00 0. -1.
       -1   -1    0    0    0  501 -0.00000000000E+00 -0.00000000000E+00 -0.19043733965E+03  0.19043733965E+03  0.00000000000E+00 0.  1.
       24    2    1    2    0    0  0.16344227341E+02  0.63307776596E+02 -0.31755767825E+02  0.10856908854E+03  0.80646201722E+02 0.  0.
      -24    2    1    2    0    0 -0.16344227341E+02 -0.63307776596E+02 -0.98114135523E+02  0.14243568741E+03  0.79915787633E+02 0.  0.
      -13    1    3    3    0    0 -0.21165779947E+02 -0.75025702103E+01 -0.22584152821E+00  0.22457288459E+02  0.00000000000E+00 0.  1.
       14    1    3    3    0    0  0.37510007289E+02  0.70810346807E+02 -0.31529926297E+02  0.86111800085E+02  0.00000000000E+00 0. -1.
        3    1    4    4  502    0 -0.40330297512E+02 -0.11109240464E+02 -0.22575726891E+02  0.47535371733E+02  0.00000000000E+00 0. -1.
       -4    1    4    4    0  502  0.23986070171E+02 -0.52198536132E+02 -0.75538408632E+02  0.94900315675E+02  0.00000000000E+00 0.  1.
</event>
<event>
 8   1  0.2279600E-02  0.1191604E+03  0.7546771E-02  0.1246109E+00
        1   -1    0    0  501    0  0.00000000000E+00  0.00000000000E+00  0.20575126316E+04  0.20575126316E+04  0.00000000000E+00 0. -1.
       -1   -1    0    0    0  501 -0.00000000000E+00 -0.00000000000E+00 -0.67981644855E+01  0.67981644855E+01  0.00000000000E+00 0.  1.
       24    2    1    2    0    0  0.22184959549E+02 -0.77103274267E+02  0.11770476599E+04  0.11830639861E+04  0.88102860618E+02 0.  0.
      -24    2    1    2    0    0 -0.22184959549E+02  0.77103274267E+02  0.87366680716E+03  0.88124680999E+03  0.82856278330E+02 0.  0.
      -13    1    3    3    0    0  0.22771795695E+02 -0.38449748864E+02  0.18712769221E+03  0.19238947752E+03  0.00000000000E+00 0.  1.
       14    1    3    3    0    0 -0.58683614611E+00 -0.38653525403E+02  0.98991996773E+03  0.99067450856E+03  0.00000000000E+00 0. -1.
        1    1    4    4  502    0  0.25841449938E+02  0.40971423138E+01  0.14310706493E+03  0.14547920519E+03  0.00000000000E+00 0. -1.
       -2    1    4    4    0  502 -0.48026409487E+02  0.73006131954E+02  0.73055974223E+03  0.73576760480E+03  0.00000000000E+00 0.  1.
</event>
<event>
 8   1  0.2279600E-02  0.9941553E+02  0.7546771E-02  0.1281745E+00
        1   -1    0    0  501    0  0.00000000000E+00  0.00000000000E+00  0.85955459421E+03  0.85955459421E+03  0.00000000000E+00 0. -1.
       -1   -1    0    0    0  501 -0.00000000000E+00 -0.00000000000E+00 -0.14536468630E+02  0.14536468630E+02  0.00000000000E+00 0.  1.
       24    2    1    2    0    0  0.55705568155E+02 -0.13268515493E+02  0.22185405672E+03  0.24311040531E+03  0.81266738935E+02 0.  0.
      -24    2    1    2    0    0 -0.55705568155E+02  0.13268515493E+02  0.62316406886E+03  0.63098065753E+03  0.80771094085E+02 0.  0.
      -13    1    3    3    0    0  0.14163940015E+02  0.19979047938E+02  0.13285595727E+02  0.27861920377E+02  0.00000000000E+00 0.  1.
       14    1    3    3    0    0  0.41541628140E+02 -0.33247563431E+02  0.20856846099E+03  0.21524848493E+03  0.00000000000E+00 0. -1.
        1    1    4    4  502    0 -0.10389622944E+02  0.89410773955E+01  0.12281791085E+02  0.18404606004E+02  0.00000000000E+00 0. -1.
       -2    1    4    4    0  502 -0.45315945211E+02  0.43274380979E+01  0.61088227777E+03  0.61257605153E+03  0.00000000000E+00 0.  1.
</event>
<event>
 8   1  0.2279600E-02  0.8521389E+02  0.7546771E-02  0.1315235E+00
       -1   -1    0    0    0  501 -0.00000000000E+00  0.00000000000E+00  0.18477058480E+02  0.18477058480E+02  0.00000000000E+00 0.  1.
        1   -1    0    0  501    0  0.00000000000E+00 -0.00000000000E+00 -0.16486385941E+04  0.16486385941E+04  0.00000000000E+00 0. -1.
       24    2    1    2    0    0  0.88663995200E+01  0.24317349036E+02 -0.86262202675E+02  0.12086646247E+03  0.80607615245E+02 0.  0.
      -24    2    1    2    0    0 -0.88663995200E+01 -0.24317349036E+02 -0.15438993329E+04  0.15462491901E+04  0.81187813987E+02 0.  0.
      -13    1    3    3    0    0  0.40974210454E+02 -0.47641840460E+01 -0.44874254269E+02  0.60953113687E+02  0.00000000000E+00 0.  1.
       14    1    3    3    0    0 -0.32107810934E+02  0.29081533082E+02 -0.41387948406E+02  0.59913348785E+02  0.00000000000E+00 0. -1.
        3    1    4    4  502    0  0.24162223979E+02 -0.29824015692E+02 -0.12241010822E+04  0.12247027168E+04  0.00000000000E+00 0. -1.
       -4    1    4    4    0  502 -0.33028623499E+02  0.55066666557E+01 -0.31979825072E+03  0.32154647333E+03  0.00000000000E+00 0.  1.
</event>
<event>
 8   1  0.2279600E-02  0.1039450E+03  0.7546771E-02  0.1273198E+00
        2   -1    0    0  501    0  0.00000000000E+00  0.00000000000E+00  0.90281390354E+03  0.90281390354E+03  0.00000000000E+00 0. -1.
       -2   -1    0    0    0  501 -0.00000000000E+00 -0.00000000000E+00 -0.13245804985E+02  0.13245804985E+02  0.00000000000E+00 0.  1.
      -24    2    1    2    0    0  0.64430632846E+02 -0.13134389229E+02  0.29428885437E+03  0.31210653445E+03  0.80503045958E+02 0.  0.
       24    2    1    2    0    0 -0.64430632846E+02  0.13134389229E+02  0.59527924418E+03  0.60395317408E+03  0.77963063649E+02 0.  0.
      -13    1    4    4    0    0 -0.20113300185E+02  0.38381467047E+02  0.16248087012E+03  0.16815979011E+03  0.00000000000E+00 0.  1.
       14    1    4    4    0    0 -0.44317332662E+02 -0.25247077818E+02  0.43279837407E+03  0.43579338396E+03  0.00000000000E+00 0. -1.
        3    1    3    3  502    0 -0.13502973610E+02 -0.21682675838E+02  0.72732931001E+02  0.77087923696E+02  0.00000000000E+00 0. -1.
       -4    1    3    3    0  502  0.77933606456E+02  0.85482866094E+01  0.22155592337E+03  0.23501861075E+03  0.00000000000E+00 0.  1.
</event>
<event>
 8   1  0.2279600E-02  0.9587776E+02  0.7546771E-02  0.1289971E+00
        1   -1    0    0  501    0  0.00000000000E+00  0.00000000000E+00  0.54544677081E+02  0.54544677081E+02  0.00000000000E+00 0. -1.
       -1   -1    0    0    0  501 -0.00000000000E+00 -0.00000000000E+00 -0.23622692998E+03  0.23622692998E+03  0.00000000000E+00 0.  1.
       24    2    1    2    0    0 -0.42907184809E+02 -0.30342927545E+02 -0.16956505508E+03  0.19413118900E+03  0.78567747067E+02 0.  0.
      -24    2    1    2    0    0  0.42907184809E+02  0.30342927545E+02 -0.12117197824E+02  0.96640418063E+02  0.80192419592E+02 0.  0.
      -13    1    3    3    0    0 -0.49309136607E+02 -0.18748227371E+02 -0.17265206030E+03  0.18053149561E+03  0.00000000000E+00 0.  1.
       14    1    3    3    0    0  0.64019517976E+01 -0.11594700174E+02  0.30870052242E+01  0.13599693386E+02  0.00000000000E+00 0. -1.
        1    1    4    4  502    0  0.63162005018E+02  0.48926473858E+01 -0.79794483729E+01  0.63851769534E+02  0.00000000000E+00 0. -1.
       -2    1    4    4    0  502 -0.20254820208E+02  0.25450280159E+02 -0.41377494507E+01  0.32788648529E+02  0.00000000000E+00 0.  1.
</event>
<event>
 8   1  0.2279600E-02  0.9436050E+02  0.7546771E-02  0.1294291E+00
        2   -1    0    0  501    0  0.00000000000E+00  0.00000000000E+00  0.16206509915E+04  0.16206509915E+04  0.00000000000E+00 0. -1.
       -2   -1    0    0    0  501 -0.00000000000E+00 -0.00000000000E+00 -0.11429485215E+02  0.11429485215E+02  0.00000000000E+00 0.  1.
       24    2    1    2    0    0  0.20836231462E+02  0.43496711664E+02  0.13950223478E+04  0.13980181286E+04  0.77725313756E+02 0.  0.
      -24    2    1    2    0    0 -0.20836231462E+02 -0.43496711664E+02  0.21419915847E+03  0.23406234816E+03  0.81103581114E+02 0.  0.
      -13    1    3    3    0    0  0.13164323004E+02 -0.10361153218E+02  0.73854281091E+02  0.75730494066E+02  0.00000000000E+00 0.  1.
       14    1    3    3    0    0  0.76719084583E+01  0.53857864883E+02  0.13211680667E+04  0.13222876345E+04  0.00000000000E+00 0. -1.
        1    1    4    4  502    0 -0.77241977696E+01 -0.31253739543E+01  0.17823000384E+03  0.17842467728E+03  0.00000000000E+00 0. -1.
       -2    1    4    4    0  502 -0.13112033692E+02 -0.40371337710E+02  0.35969154627E+02  0.55637670877E+02  0.00000000000E+00 0.  1.
</event>
<event>
 8   1  0.2279600E-02  0.9221995E+02  0.7546771E-02  0.1299157E+00
       -1   -1    0    0    0  501 -0.00000000000E+00  0.00000000000E+00  0.33107757063E+01  0.33107757063E+01  0.00000000000E+00 0.  1.
        1   -1    0    0  501    0  0.00000000000E+00 -0.00000000000E+00 -0.25918544196E+04  0.25918544196E+04  0.00000000000E+00 0. -1.
       24    2    1    2    0    0 -0.36482284989E+02 -0.10839901343E+02 -0.15637786286E+04  0.15664954893E+04  0.84000345817E+02 0.  0.
      -24    2    1    2    0    0  0.36482284989E+02  0.10839901343E+02 -0.10247650153E+04  0.10286697060E+04  0.81052865106E+02 0.  0.
      -13    1    3    3    0    0 -0.13652384664E+02  0.35495796956E+02 -0.48918732323E+03  0.49066340440E+03  0.00000000000E+00 0.  1.
       14    1    3    3    0    0 -0.22829900324E+02 -0.46335698299E+02 -0.10745913053E+04  0.10758320849E+04  0.00000000000E+00 0. -1.
        1    1    4    4  502    0  0.49834928388E+02 -0.21058235319E+02 -0.69248855365E+03  0.69459870882E+03  0.00000000000E+00 0. -1.
       -2    1    4    4    0  502 -0.13352643400E+02  0.31898136662E+02 -0.33227646164E+03  0.33407099720E+03  0.00000000000E+00 0.  1.
</event>
<event>
 8   1  0.2279600E-02  0.8631150E+02  0.7546771E-02  0.1313001E+00
        1   -1    0    0  501    0  0.00000000000E+00  0.00000000000E+00  0.11110200097E+04  0.11110200097E+04  0.00000000000E+00 0. -1.
       -1   -1    0    0    0  501 -0.00000000000E+00 -0.00000000000E+00 -0.22211012781E+03  0.22211012781E+03  0.00000000000E+00 0.  1.
       24    2    1    2    0    0 -0.20885290540E+02 -0.14432616359E+02 -0.21203161075E+03  0.22892592501E+03  0.82493511305E+02 0.  0.
      -24    2    1    2    0    0  0.20885290540E+02  0.14432616359E+02  0.11009414926E+04  0.11042042125E+04  0.80933781028E+02 0.  0.
      -13    1    3    3    0    0 -0.94146935588E+00 -0.29033626787E+01 -0.20474034921E+03  0.20476309842E+03  0.00000000000E+00 0.  1.
       14    1    3    3    0    0 -0.19943821185E+02 -0.11529253680E+02 -0.72912615385E+01  0.24162826587E+02  0.00000000000E+00 0. -1.
        1    1    4    4  502    0  0.25333614997E+02  0.41382673217E+02  0.43405783354E+03  0.43676140002E+03  0.00000000000E+00 0. -1.
       -2    1    4    4    0  502 -0.44483244563E+01 -0.26950056858E+02  0.66688365909E+03  0.66744281247E+03  0.00000000000E+00 0.  1.
</event>
<event>
 8   1  0.2279600E-02  0.9687095E+02  0.7546771E-02  0.1287459E+00
       -2   -1    0    0    0  501 -0.00000000000E+00  0.00000000000E+00  0.87435270200E+02  0.87435270200E+02  0.00000000000E+00 0.  1.
        2   -1    0    0  501    0  0.00000000000E+00 -0.00000000000E+00 -0.13734126986E+03  0.13734126986E+03  0.00000000000E+00 0. -1.
       24    2    1    2    0    0 -0.31001021777E+02 -0.38181267488E+02 -0.78184240457E+02  0.12386251910E+03  0.82524394239E+02 0.  0.
      -24    2    1    2    0    0  0.31001021777E+02  0.38181267488E+02  0.28278240795E+02  0.10091402096E+03  0.83457223687E+02 0.  0.
      -13    1    3    3    0    0 -0.16405864181E+02 -0.64111117732E+02 -0.50840731992E+02  0.83451589714E+02  0.00000000000E+00 0.  1.
       14    1    3    3    0    0 -0.14595157596E+02  0.25929850244E+02 -0.27343508466E+02  0.40410929390E+02  0.00000000000E+00 0. -1.
        3    1    4    4  502    0  0.39052384784E+02  0.38275048772E+02 -0.15153366930E+02  0.56742335563E+02  0.00000000000E+00 0. -1.
       -4    1    4    4    0  502 -0.80513630074E+01 -0.93781284088E-01  0.43431607725E+02  0.44171685396E+02  0.00000000000E+00 0.  1.
</event>
<event>
 8   1  0.2279600E-02  0.8840270E+02  0.7546771E-02  0.1306961E+00
        2   -1    0    0  501    0  0.00000000000E+00  0.00000000000E+00  0.15634868771E+04  0.15634868771E+04  0.00000000000E+00 0. -1.
       -2   -1    0    0    0  501 -0.00000000000E+00 -0.00000000000E+00 -0.52749054005E+01  0.52749054005E+01  0.00000000000E+00 0.  1.
      -24    2    1    2    0    0 -0.32445478578E+02 -0.11725675258E+01  0.59260104379E+03  0.59911261851E+03  0.81889245748E+02 0.  0.
       24    2    1    2    0    0  0.32445478578E+02  0.11725675258E+01  0.96561092789E+03  0.96964916396E+03  0.82225015188E+02 0.  0.
      -13    1    4    4    0    0  0.15908720346E+02  0.40272508382E+02  0.60508050355E+03  0.60662787448E+03  0.00000000000E+00 0.  1.
       14    1    4    4    0    0  0.16536758231E+02 -0.39099940856E+02  0.36053042434E+03  0.36302128949E+03  0.00000000000E+00 0. -1.
        1    1    3    3  502    0 -0.35121216181E+00  0.64437172945E+01  0.51176382307E+03  0.51180450901E+03  0.00000000000E+00 0. -1.
       -2    1    3    3    0  502 -0.32094266416E+02 -0.76162848203E+01  0.80837220715E+02  0.87308109499E+02  0.00000000000E+00 0.  1.
</event>
<event>
 8   1  0.2279600E-02  0.8242840E+02  0.7546771E-02  0.1323292E+00
        2   -1    0    0  501    0  0.00000000000E+00  0.00000000000E+00  0.38585948427E+03  0.38585948427E+03  0.00000000000E+00 0. -1.
       -2   -1    0    0    0  501 -0.00000000000E+00 -0.00000000000E+00 -0.25523636365E+02  0.25523636365E+02  0.00000000000E+00 0.  1.
       24    2    1    2    0    0  0.13573370927E+02  0.28580481993E+01  0.29583191957E+03  0.30671603828E+03  0.79785955332E+02 0.  0.
      -24    2    1    2    0    0 -0.13573370927E+02 -0.28580481993E+01  0.64503928340E+02  0.10466708235E+03  0.81252916989E+02 0.  0.
      -13    1    3    3    0    0 -0.69019496269E+01  0.83456976130E+01  0.73082580929E+00  0.10854569713E+02  0.00000000000E+00 0.  1.
       14    1    3    3    0    0  0.20475320554E+02 -0.54876494137E+01  0.29510109376E+03  0.29586146857E+03  0.00000000000E+00 0. -1.
        3    1    4    4  502    0 -0.38691010129E+02  0.17828240169E+02  0.14486528233E+02  0.44996665572E+02  0.00000000000E+00 0. -1.
       -4    1    4    4    0  502  0.25117639201E+02 -0.20686288369E+02  0.50017400107E+02  0.59670416782E+02  0.00000000000E+00 0.  1.
</event>
<event>
 8   1  0.2279600E-02  0.9147774E+02  0.7546771E-02  0.1301210E+00
       -2   -1    0    0    0  501 -0.00000000000E+00  0.00000000000E+00  0.14004511041E+03  0.14004511041E+03  0.00000000000E+00 0.  1.
        2   -1    0    0  501    0  0.00000000000E+00 -0.00000000000E+00 -0.63360153131E+02  0.63360153131E+02  0.00000000000E+00 0. -1.
      -24    2    1    2    0    0  0.16234442932E+02  0.33274582067E+02  0.69300621917E+02  0.11476389974E+03  0.83650591966E+02 0.  0.
       24    2    1    2    0    0 -0.16234442932E+02 -0.33274582067E+02  0.73843353624E+01  0.88641363803E+02  0.80199800617E+02 0.  0.
      -13    1    4    4    0    0 -0.43778837973E+01 -0.50363167141E+01  0.41939677179E+02  0.42467244724E+02  0.00000000000E+00 0.  1.
       14    1    4    4    0    0 -0.11856559135E+02 -0.28238265353E+02 -0.34555341817E+02  0.46174119079E+02  0.00000000000E+00 0. -1.
        1    1    3    3  502    0  0.59090389667E+01 -0.27929841077E+02  0.14767048211E+02  0.32141227061E+02  0.00000000000E+00 0. -1.
       -2    1    3    3    0  502  0.10325403965E+02  0.61204423144E+02  0.54533573707E+02  0.82622672679E+02  0.00000000000E+00 0.  1.
</event>
<event>
 8   1  0.2279600E-02  0.9139512E+02  0.7546771E-02  0.1299967E+00
        2   -1    0    0  501    0  0.00000000000E+00  0.00000000000E+00  0.37811567627E+03  0.37811567627E+03  0.00000000000E+00 0. -1.
       -2   -1    0    0    0  501 -0.00000000000E+00 -0.00000000000E+00 -0.23310025086E+02  0.23310025086E+02  0.00000000000E+00 0.  1.
      -24    2    1    2    0    0  0.92504232465E+01  0.42342156403E+02  0.12743092710E+03  0.15636992682E+03  0.79589473513E+02 0.  0.
       24    2    1    2    0    0 -0.92504232465E+01 -0.42342156403E+02  0.22737472409E+03  0.24505577453E+03  0.80465141149E+02 0.  0.
      -13    1    4    4    0    0 -0.23936687741E+02  0.12976075203E+02  0.34976446323E+02  0.44324884039E+02  0.00000000000E+00 0.  1.
       14    1    4    4    0    0  0.14686264494E+02 -0.55318231606E+02  0.19239827776E+03  0.20073089049E+03  0.00000000000E+00 0. -1.
        3    1    3    3  502    0  0.40844195856E+02  0.29952014427E+02  0.10226512621E+03  0.11412067097E+03  0.00000000000E+00 0. -1.
       -4    1    3    3    0  502 -0.31593772610E+02  0.12390141976E+02  0.25165800889E+02  0.42249255855E+02  0.00000000000E+00 0.  1.
</event>
<event>
 8   1  0.2279600E-02  0.8539121E+02  0.7546771E-02  0.1316248E+00
       -1   -1    0    0    0  501 -0.00000000000E+00  0.00000000000E+00  0.45991967321E+03  0.45991967321E+03  0.00000000000E+00 0.  1.
        1   -1    0    0  501    0  0.00000000000E+00 -0.00000000000E+00 -0.23060203628E+03  0.23060203628E+03  0.00000000000E+00 0. -1.
       24    2    1    2    0    0 -0.23503206505E+02  0.30634985568E+00  0.44810695270E+03  0.45565914704E+03  0.79201784404E+02 0.  0.
      -24    2    1    2    0    0  0.23503206505E+02 -0.30634985568E+00 -0.21878931577E+03  0.23486256245E+03  0.82092411224E+02 0.  0.
      -13    1    3    3    0    0  0.12760473846E+02 -0.93528668282E+01  0.35388646755E+03  0.35423994372E+03  0.00000000000E+00 0.  1.
       14    1    3    3    0    0 -0.36263680351E+02  0.96592166839E+01  0.94220485154E+02  0.10141920332E+03  0.00000000000E+00 0. -1.
        3    1    4    4  502    0 -0.52638396705E+01  0.27297312860E+02 -0.16804840584E+03  0.17033237508E+03  0.00000000000E+00 0. -1.
       -4    1    4    4    0  502  0.28767046176E+02 -0.27603662716E+02 -0.50740909932E+02  0.64530187368E+02  0.00000000000E+00 0.  1.
</event>
<event>
 8   1  0.2279600E-02  0.8336723E+02  0.7546771E-02  0.1321697E+00
       -2   -1    0    0    0  501 -0.00000000000E+00  0.00000000000E+00  0.27761297859E+02  0.27761297859E+02  0.00000000000E+00 0.  1.
        2   -1    0    0  501    0  0.00000000000E+00 -0.00000000000E+00 -0.42553495319E+03  0.42553495319E+03  0.00000000000E+00 0. -1.
       24    2    1    2    0    0 -0.66433060580E+00 -0.45263227153E+01 -0.34971306705E+03  0.35951262103E+03  0.83241615114E+02 0.  0.
      -24    2    1    2    0    0  0.66433060580E+00  0.45263227153E+01 -0.48060588282E+02  0.93783630012E+02  0.80402861764E+02 0.  0.
      -13    1    3    3    0    0  0.33022570774E+02  0.22218868778E+02 -0.18881457730E+03  0.19296401973E+03  0.00000000000E+00 0.  1.
       14    1    3    3    0    0 -0.33686901380E+02 -0.26745191493E+02 -0.16089848975E+03  0.16654860130E+03  0.00000000000E+00 0. -1.
        3    1    4    4  502    0  0.86461379869E+01  0.41638481479E+02 -0.26964304741E+02  0.50354667828E+02  0.00000000000E+00 0. -1.
       -4    1    4    4    0  502 -0.79818073811E+01 -0.37112158763E+02 -0.21096283541E+02  0.43428962184E+02  0.00000000000E+00 0.  1.
</event>
<event>
 8   1  0.2279600E-02  0.1013163E+03  0.7546771E-02  0.1277702E+00
       -1   -1    0    0    0  501 -0.00000000000E+00  0.00000000000E+00  0.36035440801E+02  0.36035440801E+02  0.00000000000E+00 0.  1.
        1   -1    0    0  501    0  0.00000000000E+00 -0.00000000000E+00 -0.98959928920E+03  0.98959928920E+03  0.00000000000E+00 0. -1.
       24    2    1    2    0    0 -0.60625040844E+02 -0.60147562653E+01 -0.43967261989E+02  0.11044505117E+03  0.80953173691E+02 0.  0.
      -24    2    1    2    0    0  0.60625040844E+02  0.60147562653E+01 -0.90959658641E+03  0.91518967883E+03  0.80589238496E+02 0.  0.
      -13    1    3    3    0    0 -0.78879975451E+02  0.52607923604E+01 -0.40096242371E+02  0.88642174588E+02  0.00000000000E+00 0.  1.
       14    1    3    3    0    0  0.18254934607E+02 -0.11275548626E+02 -0.38710196177E+01  0.21802876581E+02  0.00000000000E+00 0. -1.
        3    1    4    4  502    0 -0.12975701333E+01 -0.13488018961E+02 -0.52332375255E+03  0.52349915027E+03  0.00000000000E+00 0. -1.
       -4    1    4    4    0  502  0.61922610977E+02  0.19502775226E+02 -0.38627283386E+03  0.39169052857E+03  0.00000000000E+00 0.  1.
</event>
<event>
 8   1  0.2279600E-02  0.8915971E+02  0.7546771E-02  0.1308539E+00
        1   -1    0    0  501    0  0.00000000000E+00  0.00000000000E+00  0.11276993558E+03  0.11276993558E+03  0.00000000000E+00 0. -1.
       -1   -1    0    0    0  501 -0.00000000000E+00 -0.00000000000E+00 -0.78483163349E+02  0.78483163349E+02  0.00000000000E+00 0.  1.
       24    2    1    2    0    0  0.20456844771E+02 -0.24193273750E+02 -0.21397867737E+02  0.86133013048E+02  0.77183095302E+02 0.  0.
      -24    2    1    2    0    0 -0.20456844771E+02  0.24193273750E+02  0.55684639969E+02  0.10512008588E+03  0.83340604356E+02 0.  0.
      -13    1    3    3    0    0  0.49116105610E+02 -0.22598583806E+02 -0.19089705013E+02  0.57336765324E+02  0.00000000000E+00 0.  1.
       14    1    3    3    0    0 -0.28659260839E+02 -0.15946899439E+01 -0.23081627242E+01  0.28796247724E+02  0.00000000000E+00 0. -1.
        1    1    4    4  502    0 -0.49950290010E+02  0.31116204985E+02  0.35836051616E+02  0.68901903313E+02  0.00000000000E+00 0. -1.
       -2    1    4    4    0  502  0.29493445239E+02 -0.69229312342E+01  0.19848588353E+02  0.36218182568E+02  0.00000000000E+00 0.  1.
</event>
<event>
 8   1  0.2279600E-02  0.8821794E+02  0.7546771E-02  0.1308201E+00
        1   -1    0    0  501    0  0.00000000000E+00  0.00000000000E+00  0.20728495065E+04  0.20728495065E+04  0.00000000000E+00 0. -1.
       -1   -1    0    0    0  501 -0.00000000000E+00 -0.00000000000E+00 -0.45648524658E+01  0.45648524658E+01  0.00000000000E+00 0.  1.
       24    2    1    2    0    0  0.27884302344E+02 -0.23301027079E+02  0.57164653696E+03  0.57817853406E+03  0.78677708712E+02 0.  0.
      -24    2    1    2    0    0 -0.27884302344E+02  0.23301027079E+02  0.14966381171E+04  0.14992358249E+04  0.80386149456E+02 0.  0.
      -13    1    3    3    0    0 -0.25012015795E+02 -0.23721759884E+01  0.27364973836E+03  0.27480066859E+03  0.00000000000E+00 0.  1.
       14    1    3    3    0    0  0.52896318139E+02 -0.20928851090E+02  0.29799679860E+03  0.30337786547E+03  0.00000000000E+00 0. -1.
        1    1    4    4  502    0 -0.46604739955E+02  0.18589317150E+02  0.13872711854E+04  0.13881782690E+04  0.00000000000E+00 0. -1.
       -2    1    4    4    0  502  0.18720437611E+02  0.47117099289E+01  0.10936693164E+03  0.11105755594E+03  0.00000000000E+00 0.  1.
</event>
<event>
 8   1  0.2279600E-02  0.1006097E+03  0.7546771E-02  0.1284398E+00
       -2   -1    0    0    0  501 -0.00000000000E+00  0.00000000000E+00  0.45319297489E+03  0.45319297489E+03  0.00000000000E+00 0.  1.
        2   -1    0    0  501    0  0.00000000000E+00 -0.00000000000E+00 -0.12317417486E+03  0.12317417486E+03  0.00000000000E+00 0. -1.
       24    2    1    2    0    0 -0.70999625368E+01 -0.56509557632E+02 -0.97022393727E+02  0.13976998132E+03  0.82937104015E+02 0.  0.
      -24    2    1    2    0    0  0.70999625368E+01  0.56509557632E+02  0.42704119375E+03  0.43659716843E+03  0.70775467147E+02 0.  0.
      -13    1    3    3    0    0  0.36885510053E+02 -0.35485097838E+02 -0.41599914551E+02  0.65956697242E+02  0.00000000000E+00 0.  1.
       14    1    3    3    0    0 -0.43985472590E+02 -0.21024459794E+02 -0.55422479176E+02  0.73813284080E+02  0.00000000000E+00 0. -1.
        1    1    4    4  502    0 -0.95713452085E+01  0.48439049085E+02  0.13130784636E+03  0.14028436349E+03  0.00000000000E+00 0. -1.
       -2    1    4    4    0  502  0.16671307745E+02  0.80705085469E+01  0.29573334739E+03  0.29631280494E+03  0.00000000000E+00 0.  1.
</event>
<event>
 8   1  0.2279600E-02  0.7919771E+02  0.7546771E-02  0.1331543E+00
       -2   -1    0    0    0  501 -0.00000000000E+00  0.00000000000E+00  0.25363986243E+01  0.25363986243E+01  0.00000000000E+00 0.  1.
        2   -1    0    0  501    0  0.00000000000E+00 -0.00000000000E+00 -0.25929279502E+04  0.25929279502E+04  0.00000000000E+00 0. -1.
      -24    2    1    2    0    0  0.54675712569E+01  0.64290623002E+01 -0.10082936267E+04  0.10113991867E+04  0.78746746719E+02 0.  0.
       24    2    1    2    0    0 -0.54675712569E+01 -0.64290623002E+01 -0.15820979249E+04  0.15840651621E+04  0.78468889712E+02 0.  0.
      -13    1    4    4    0    0  0.22925430615E+02 -0.30881523496E+02 -0.10165001979E+04  0.10172275538E+04  0.00000000000E+00 0.  1.
       14    1    4    4    0    0 -0.28393001872E+02  0.24452461195E+02 -0.56559772704E+03  0.56683760836E+03  0.00000000000E+00 0. -1.
        3    1    3    3  502    0  0.24252930554E+02  0.31561909560E+02 -0.33192032251E+03  0.33429845837E+03  0.00000000000E+00 0. -1.
       -4    1    3    3    0  502 -0.18785359298E+02 -0.25132847260E+02 -0.67637330415E+03  0.67710072833E+03  0.00000000000E+00 0.  1.
</event>
<event>
 8   1  0.2279600E-02  0.1014031E+03  0.7546771E-02  0.1283494E+00
       -1   -1    0    0    0  501 -0.00000000000E+00  0.00000000000E+00  0.93340093100E+03  0.93340093100E+03  0.00000000000E+00 0.  1.
        1   -1    0    0  501    0  0.00000000000E+00 -0.00000000000E+00 -0.16856668120E+02  0.16856668120E+02  0.00000000000E+00 0. -1.
       24    2    1    2    0    0 -0.15137191440E+02 -0.41382953226E+02  0.74898332015E+03  0.75440239862E+03  0.78773611042E+02 0.  0.
      -24    2    1    2    0    0  0.15137191440E+02  0.41382953226E+02  0.16756094274E+03  0.19585520051E+03  0.91328564276E+02 0.  0.
      -13    1    3    3    0    0 -0.28071254601E+02  0.14757049900E+02  0.21625499033E+03  0.21856803678E+03  0.00000000000E+00 0.  1.
       14    1    3    3    0    0  0.12934063161E+02 -0.56140003126E+02  0.53272832981E+03  0.53583436184E+03  0.00000000000E+00 0. -1.
        1    1    4    4  502    0  0.28081107145E+02 -0.22118683201E+02  0.47851731284E+02  0.59729162994E+02  0.00000000000E+00 0. -1.
       -2    1    4    4    0  502 -0.12943915705E+02  0.63501636427E+02  0.11970921145E+03  0.13612603751E+03  0.00000000000E+00 0.  1.
</event>
<event>
 8   1  0.2279600E-02  0.1156668E+03  0.7546771E-02  0.1250906E+00
        2   -1    0    0  501    0  0.00000000000E+00  0.00000000000E+00  0.35509774185E+03  0.35509774185E+03  0.00000000000E+00 0. -1.
       -2   -1    0    0    0  501 -0.00000000000E+00 -0.00000000000E+00 -0.40723693687E+02  0.40723693687E+02  0.00000000000E+00 0.  1.
      -24    2    1    2    0    0 -0.16142546315E+02  0.79631027322E+02  0.99228546160E+02  0.15155437905E+03  0.80751118397E+02 0.  0.
       24    2    1    2    0    0  0.16142546315E+02 -0.79631027322E+02  0.21514550201E+03  0.24426705649E+03  0.82323298883E+02 0.  0.
      -13    1    4    4    0    0  0.20969001536E+00 -0.33697554996E+02  0.12613830698E+02  0.35981632918E+02  0.00000000000E+00 0.  1.
       14    1    4    4    0    0  0.15932856300E+02 -0.45933472326E+02  0.20253167131E+03  0.20828542357E+03  0.00000000000E+00 0. -1.
        3    1    3    3  502    0  0.32991356545E+01  0.85818578646E+02  0.99121191821E+02  0.13115152841E+03  0.00000000000E+00 0. -1.
       -4    1    3    3    0  502 -0.19441681969E+02 -0.61875513244E+01  0.10735433947E+00  0.20402850638E+02  0.00000000000E+00 0.  1.
</event>
<event>
 8   1  0.2279600E-02  0.8645672E+02  0.7546771E-02  0.1312117E+00
       -1   -1    0    0    0  501 -0.00000000000E+00  0.00000000000E+00  0.90055127781E+01  0.90055127781E+01  0.00000000000E+00 0.  1.
        1   -1    0    0  501    0  0.00000000000E+00 -0.00000000000E+00 -0.82802941663E+03  0.82802941663E+03  0.00000000000E+00 0. -1.
       24    2    1    2    0    0  0.30701040418E+02 -0.79138587741E+01 -0.43948659259E+03  0.44777494506E+03  0.79679064423E+02 0.  0.
      -24    2    1    2    0    0 -0.30701040418E+02  0.79138587741E+01 -0.37953731125E+03  0.38925998435E+03  0.80433710201E+02 0.  0.
      -13    1    3    3    0    0  0.17737335755E+02 -0.11606176027E+02 -0.23804221398E+02  0.31874085995E+02  0.00000000000E+00 0.  1.
       14    1    3    3    0    0  0.12963704662E+02  0.36923172524E+01 -0.41568237119E+03  0.41590085906E+03  0.00000000000E+00 0. -1.
        3    1    4    4  502    0 -0.41141543316E+02  0.30378475989E+02 -0.32929371111E+03  0.33324139384E+03  0.00000000000E+00 0. -1.
       -4    1    4    4    0  502  0.10440502898E+02 -0.22464617215E+02 -0.50243600146E+02  0.56018590513E+02  0.00000000000E+00 0.  1.
</event>
<event>
 8   1  0.2279600E-02  0.8055606E+02  0.7546771E-02  0.1330417E+00
        1   -1    0    0  501    0  0.00000000000E+00  0.00000000000E+00  0.64432110326E+01  0.64432110326E+01  0.00000000000E+00 0. -1.
       -1   -1    0    0    0  501 -0.00000000000E+00 -0.00000000000E+00 -0.11327634806E+04  0.11327634806E+04  0.00000000000E+00 0.  1.
       24    2    1    2    0    0  0.17530100005E+02 -0.26485554996E+01 -0.77516037907E+03  0.77892548575E+03  0.74410885051E+02 0.  0.
      -24    2    1    2    0    0 -0.17530100005E+02  0.26485554996E+01 -0.35115989045E+03  0.36028120584E+03  0.78580909684E+02 0.  0.
      -13    1    3    3    0    0  0.36756071124E+02  0.10740836386E+02 -0.67402147562E+03  0.67510837939E+03  0.00000000000E+00 0.  1.
       14    1    3    3    0    0 -0.19225971119E+02 -0.13389391885E+02 -0.10113890345E+03  0.10381710635E+03  0.00000000000E+00 0. -1.
        1    1    4    4  502    0  0.28737441103E+02 -0.13230689968E+02 -0.13651390557E+03  0.14013185967E+03  0.00000000000E+00 0. -1.
       -2    1    4    4    0  502 -0.46267541109E+02  0.15879245468E+02 -0.21464598488E+03  0.22014934617E+03  0.00000000000E+00 0.  1.
</event>
<event>
 8   1  0.2279600E-02  0.1070750E+03  0.7546771E-02  0.1267736E+00
       -1   -1    0    0    0  501 -0.00000000000E+00  0.00000000000E+00  0.51461259327E+02  0.51461259327E+02  0.00000000000E+00 0.  1.
        1   -1    0    0  501    0  0.00000000000E+00 -0.00000000000E+00 -0.24545557971E+03  0.24545557971E+03  0.00000000000E+00 0. -1.
       24    2    1    2    0    0  0.71468900456E+02  0.51351091033E+01 -0.46776951159E+02  0.11684661718E+03  0.79566800291E+02 0.  0.
      -24    2    1    2    0    0 -0.71468900456E+02 -0.51351091033E+01 -0.14721736923E+03  0.18007022186E+03  0.74954372263E+02 0.  0.
      -13    1    3    3    0    0  0.40534778079E+02  0.29933231766E+02  0.60999514900E+01  0.50757029129E+02  0.00000000000E+00 0.  1.
       14    1    3    3    0    0  0.30934122377E+02 -0.24798122663E+02 -0.52876902649E+02  0.66089588050E+02  0.00000000000E+00 0. -1.
        3    1    4    4  502    0 -0.61083879897E+02 -0.19570852580E+02 -0.14897857074E+03  0.16220010232E+03  0.00000000000E+00 0. -1.
       -4    1    4    4    0  502 -0.10385020559E+02  0.14435743477E+02  0.17612015076E+01  0.17870119543E+02  0.00000000000E+00 0.  1.
</event>
<event>
 8   1  0.2279600E-02  0.1211212E+03  0.7546771E-02  0.1243291E+00
       -2   -1    0    0    0  501 -0.00000000000E+00  0.00000000000E+00  0.20967190656E+03  0.20967190656E+03  0.00000000000E+00 0.  1.
        2   -1    0    0  501    0  0.00000000000E+00 -0.00000000000E+00 -0.18012913715E+03  0.18012913715E+03  0.00000000000E+00 0. -1.
      -24    2    1    2    0    0 -0.15579802977E+02 -0.83955122307E+02  0.16920857410E+03  0.20809107367E+03  0.85902040557E+02 0.  0.
       24    2    1    2    0    0  0.15579802977E+02  0.83955122307E+02 -0.13966580468E+03  0.18170997004E+03  0.78871942989E+02 0.  0.
      -13    1    4    4    0    0 -0.20497650676E+02  0.90637365697E+01 -0.42454615334E+01  0.22810720013E+02  0.00000000000E+00 0.  1.
       14    1    4    4    0    0  0.36077453653E+02  0.74891385737E+02 -0.13542034315E+03  0.15889925002E+03  0.00000000000E+00 0. -1.
        3    1    3    3  502    0  0.23841602889E+02 -0.40849489638E+02  0.27255108356E+02  0.54588861167E+02  0.00000000000E+00 0. -1.
       -4    1    3    3    0  502 -0.39421405866E+02 -0.43105632669E+02  0.14195346574E+03  0.15350221251E+03  0.00000000000E+00 0.  1.
</event>
<event>
 8   1  0.2279600E-02  0.1083895E+03  0.7546771E-02  0.1263863E+00
        1   -1    0    0  501    0  0.00000000000E+00  0.00000000000E+00  0.45045302395E+03  0.45045302395E+03  0.00000000000E+00 0. -1.
       -1   -1    0    0    0  501 -0.00000000000E+00 -0.00000000000E+00 -0.29016560890E+02  0.29016560890E+02  0.00000000000E+00 0.  1.
       24    2    1    2    0    0 -0.33567248688E+02 -0.64352398178E+02  0.13211891624E+03  0.17051501684E+03  0.79699257242E+02 0.  0.
      -24    2    1    2    0    0  0.33567248688E+02  0.64352398178E+02  0.28931754682E+03  0.30895456800E+03  0.80500253734E+02 0.  0.
      -13    1    3    3    0    0  0.46383247590E+01  0.16639954399E+02  0.13697370883E+02  0.22045863741E+02  0.00000000000E+00 0.  1.
       14    1    3    3    0    0 -0.38205573447E+02 -0.80992352577E+02  0.11842154535E+03  0.14846915310E+03  0.00000000000E+00 0. -1.
        3    1    4    4  502    0  0.28902791350E+02 -0.11871082883E+02  0.10166789545E+03  0.10636096521E+03  0.00000000000E+00 0. -1.
       -4    1    4    4    0  502  0.46644573381E+01  0.76223481061E+02  0.18764965137E+03  0.20259360278E+03  0.00000000000E+00 0.  1.
</event>
<event>
 8   1  0.2279600E-02  0.8406588E+02  0.7546771E-02  0.1318723E+00
       -1   -1    0    0    0  501 -0.00000000000E+00  0.00000000000E+00  0.65081082987E+02  0.65081082987E+02  0.00000000000E+00 0.  1.
        1   -1    0    0  501    0  0.00000000000E+00 -0.00000000000E+00 -0.10857734829E+03  0.10857734829E+03  0.00000000000E+00 0. -1.
       24    2    1    2    0    0 -0.38845744195E+01  0.23487959894E+02 -0.32078408595E+02  0.88820702228E+02  0.79330439731E+02 0.  0.
      -24    2    1    2    0    0  0.38845744195E+01 -0.23487959894E+02 -0.11417856704E+02  0.84837729045E+02  0.80624429545E+02 0.  0.
      -13    1    3    3    0    0  0.32001522662E+02  0.25806284270E+02 -0.73411501179E+00  0.41116914833E+02  0.00000000000E+00 0.  1.
       14    1    3    3    0    0 -0.35886097081E+02 -0.23183243763E+01 -0.31344293583E+02  0.47703787395E+02  0.00000000000E+00 0. -1.
        3    1    4    4  502    0 -0.19128326422E+02 -0.41147400350E+02 -0.26077822378E+02  0.52335974694E+02  0.00000000000E+00 0. -1.
       -4    1    4    4    0  502  0.23012900841E+02  0.17659440456E+02  0.14659965674E+02  0.32501754351E+02  0.00000000000E+00 0.  1.
</event>
<event>
 8   1  0.2279600E-02  0.9420904E+02  0.7546771E-02  0.1294025E+00
       -1   -1    0    0    0  501 -0.00000000000E+00  0.00000000000E+00  0.66884358002E+03  0.66884358002E+03  0.00000000000E+00 0.  1.
        1   -1    0    0  501    0  0.00000000000E+00 -0.00000000000E+00 -0.86318468155E+02  0.86318468155E+02  0.00000000000E+00 0. -1.
       24    2    1    2    0    0 -0.45529671179E+02  0.30429499727E+01  0.63965174504E+03  0.64655216269E+03  0.82420468651E+02 0.  0.
      -24    2    1    2    0    0  0.45529671179E+02 -0.30429499727E+01 -0.57126633166E+02  0.10860988549E+03  0.80314659350E+02 0.  0.
      -13    1    3    3    0    0 -0.52653479393E+02  0.30077480684E+02  0.52725714851E+03  0.53073264869E+03  0.00000000000E+00 0.  1.
       14    1    3    3    0    0  0.71238082145E+01 -0.27034530712E+02  0.11239459653E+03  0.11581951400E+03  0.00000000000E+00 0. -1.
        1    1    4    4  502    0  0.45756311233E+01 -0.24267190096E+02 -0.57394933038E+02  0.62482087463E+02  0.00000000000E+00 0. -1.
       -2    1    4    4    0  502  0.40954040055E+02  0.21224240124E+02  0.26829987230E+00  0.46127798024E+02  0.00000000000E+00 0.  1.
</event>
<event>
 8   1  0.2279600E-02  0.1638637E+03  0.7546771E-02  0.1184495E+00
       -1   -1    0    0    0  501 -0.00000000000E+00  0.00000000000E+00  0.51888378350E+03  0.51888378350E+03  0.00000000000E+00 0.  1.
        1   -1    0    0  501    0  0.00000000000E+00 -0.00000000000E+00 -0.12932969409E+03  0.12932969409E+03  0.00000000000E+00 0. -1.
       24    2    1    2    0    0  0.13291700398E+03 -0.53589787151E+02  0.44605667270E+03  0.47520297217E+03  0.79451332652E+02 0.  0.
      -24    2    1    2    0    0 -0.13291700398E+03  0.53589787151E+02 -0.56502583288E+02  0.17301050542E+03  0.78748319556E+02 0.  0.
      -13    1    3    3    0    0  0.94024150188E+02 -0.54246487001E+02  0.40215561596E+03  0.41654815042E+03  0.00000000000E+00 0.  1.
       14    1    3    3    0    0  0.38892853795E+02  0.65669984995E+00  0.43901056738E+02  0.58654821743E+02  0.00000000000E+00 0. -1.
        3    1    4    4  502    0 -0.75668155281E+02  0.24354396787E+02 -0.71596274281E+02  0.10698052560E+03  0.00000000000E+00 0. -1.
       -4    1    4    4    0  502 -0.57248848702E+02  0.29235390364E+02  0.15093690993E+02  0.66029979822E+02  0.00000000000E+00 0.  1.
</event>
<event>
 8   1  0.2279600E-02  0.1427047E+03  0.7546771E-02  0.1209826E+00
        2   -1    0    0  501    0  0.00000000000E+00  0.00000000000E+00  0.24620112451E+02  0.24620112451E+02  0.00000000000E+00 0. -1.
       -2   -1    0    0    0  501 -0.00000000000E+00 -0.00000000000E+00 -0.10404313830E+04  0.10404313830E+04  0.00000000000E+00 0.  1.
      -24    2    1    2    0    0 -0.87533985146E+02 -0.79358974792E+02 -0.74952450816E+03  0.76293681063E+03  0.79533283952E+02 0.  0.
       24    2    1    2    0    0  0.87533985146E+02  0.79358974792E+02 -0.26628676238E+03  0.30211468481E+03  0.80028729345E+02 0.  0.
      -13    1    4    4    0    0  0.11009342568E+01  0.43813625977E+02 -0.12726223279E+03  0.13459762915E+03  0.00000000000E+00 0.  1.
       14    1    4    4    0    0  0.86433050889E+02  0.35545348815E+02 -0.13902452959E+03  0.16751705566E+03  0.00000000000E+00 0. -1.
        3    1    3    3  502    0 -0.76323418778E+02 -0.51581609636E+02 -0.33814551492E+03  0.35046870897E+03  0.00000000000E+00 0. -1.
       -4    1    3    3    0  502 -0.11210566367E+02 -0.27777365156E+02 -0.41137899323E+03  0.41246810166E+03  0.00000000000E+00 0.  1.
</event>
<event>
 8   1  0.2279600E-02  0.8108323E+02  0.7546771E-02  0.1326196E+00
        2   -1    0    0  501    0  0.00000000000E+00  0.00000000000E+00  0.20720495789E+02  0.20720495789E+02  0.00000000000E+00 0. -1.
       -2   -1    0    0    0  501 -0.00000000000E+00 -0.00000000000E+00 -0.49537243787E+03  0.49537243787E+03  0.00000000000E+00 0.  1.
      -24    2    1    2    0    0 -0.10729600623E+02 -0.32473792004E+01 -0.39225098899E+03  0.40048840457E+03  0.80027832847E+02 0.  0.
       24    2    1    2    0    0  0.10729600623E+02  0.32473792004E+01 -0.82400953095E+02  0.11560452909E+03  0.80304547035E+02 0.  0.
      -13    1    4    4    0    0 -0.99877161306E+01  0.38610739152E+02 -0.36419951011E+02  0.54008855598E+02  0.00000000000E+00 0.  1.
       14    1    4    4    0    0  0.20717316754E+02 -0.35363359952E+02 -0.45981002084E+02  0.61595673494E+02  0.00000000000E+00 0. -1.
        1    1    3    3  502    0 -0.79098285237E+01 -0.39239325963E+02 -0.13803783729E+03  0.14372450944E+03  0.00000000000E+00 0. -1.
       -2    1    3    3    0  502 -0.28197720998E+01  0.35991946763E+02 -0.25421315170E+03  0.25676389513E+03  0.00000000000E+00 0.  1.
</event>
<event>
 8   1  0.2279600E-02  0.8978511E+02  0.7546771E-02  0.1303393E+00
        4   -1    0    0  501    0  0.00000000000E+00  0.00000000000E+00  0.78264030747E+03  0.78264030747E+03  0.00000000000E+00 0. -1.
       -4   -1    0    0    0  501 -0.00000000000E+00 -0.00000000000E+00 -0.40355365080E+02  0.40355365080E+02  0.00000000000E+00 0.  1.
       24    2    1    2    0    0 -0.98033548557E+01  0.38006519560E+02  0.72626834791E+03  0.73179316792E+03  0.80715092396E+02 0.  0.
      -24    2    1    2    0    0  0.98033548557E+01 -0.38006519560E+02  0.16016594477E+02  0.91202504628E+02  0.80751249255E+02 0.  0.
      -13    1    3    3    0    0 -0.12418521910E+02  0.11619168722E+02  0.26280069769E+02  0.31302824717E+02  0.00000000000E+00 0.  1.
       14    1    3    3    0    0  0.26151670540E+01  0.26387350837E+02  0.69998827814E+03  0.70049034320E+03  0.00000000000E+00 0. -1.
        3    1    4    4  502    0  0.45335751107E+02 -0.16628832907E+02  0.74739336312E+01  0.48864180094E+02  0.00000000000E+00 0. -1.
       -4    1    4    4    0  502 -0.35532396252E+02 -0.21377686653E+02  0.85426608458E+01  0.42338324534E+02  0.00000000000E+00 0.  1.
</event>
<event>
 8   1  0.2279600E-02  0.8688219E+02  0.7546771E-02  0.1312976E+00
        1   -1    0    0  501    0  0.00000000000E+00  0.00000000000E+00  0.81421731926E+02  0.81421731926E+02  0.00000000000E+00 0. -1.
       -1   -1    0    0    0  501 -0.00000000000E+00 -0.00000000000E+00 -0.77831021689E+03  0.77831021689E+03  0.00000000000E+00 0.  1.
       24    2    1    2    0    0  0.24487986155E+02 -0.97145550694E+01 -0.75216740877E+03  0.75675488819E+03  0.78918413199E+02 0.  0.
      -24    2    1    2    0    0 -0.24487986155E+02  0.97145550694E+01  0.55278923807E+02  0.10297706062E+03  0.82791796398E+02 0.  0.
      -13    1    3    3    0    0  0.40480949415E+02 -0.32707693044E+02 -0.57932005857E+03  0.58165301574E+03  0.00000000000E+00 0.  1.
       14    1    3    3    0    0 -0.15992963260E+02  0.22993137975E+02 -0.17284735019E+03  0.17510187245E+03  0.00000000000E+00 0. -1.
        3    1    4    4  502    0  0.48614628051E+01  0.15670678880E+01  0.69270014044E+02  0.69458076334E+02  0.00000000000E+00 0. -1.
       -4    1    4    4    0  502 -0.29349448960E+02  0.81474871814E+01 -0.13991090237E+02  0.33518984287E+02  0.00000000000E+00 0.  1.
</event>
<event>
 8   1  0.2279600E-02  0.8513352E+02  0.7546771E-02  0.1315748E+00
       -2   -1    0    0    0  501 -0.00000000000E+00  0.00000000000E+00  0.24801764039E+02  0.24801764039E+02  0.00000000000E+00 0.  1.
        2   -1    0    0  501    0  0.00000000000E+00 -0.00000000000E+00 -0.48140099723E+03  0.48140099723E+03  0.00000000000E+00 0. -1.
       24    2    1    2    0    0 -0.21814702554E+02  0.13628699211E+02 -0.67375956873E+02  0.10777776748E+03  0.80093101506E+02 0.  0.
      -24    2    1    2    0    0  0.21814702554E+02 -0.13628699211E+02 -0.38922327631E+03  0.39842499379E+03  0.81154754382E+02 0.  0.
      -13    1    3    3    0    0 -0.13509165459E+02 -0.21000027112E+02 -0.67707800105E+02  0.72165399501E+02  0.00000000000E+00 0.  1.
       14    1    3    3    0    0 -0.83055370949E+01  0.34628726323E+02  0.33184323152E+00  0.35612367980E+02  0.00000000000E+00 0. -1.
        1    1    4    4  502    0 -0.27349918141E+02 -0.15329522773E+02 -0.21909731148E+03  0.22132926645E+03  0.00000000000E+00 0. -1.
       -2    1    4    4    0  502  0.49164620695E+02  0.17008235615E+01 -0.17012596483E+03  0.17709572733E+03  0.00000000000E+00 0.  1.
</event>
<event>
 8   1  0.2279600E-02  0.1287858E+03  0.7546771E-02  0.1229679E+00
       -4   -1    0    0    0  501 -0.00000000000E+00  0.00000000000E+00  0.25523904841E+03  0.25523904841E+03  0.00000000000E+00 0.  1.
        4   -1    0    0  501    0  0.00000000000E+00 -0.00000000000E+00 -0.68036342886E+02  0.68036342886E+02  0.00000000000E+00 0. -1.
      -24    2    1    2    0    0 -0.49512290331E+02  0.87640328314E+02  0.56781724091E+02  0.14074783862E+03  0.80333653259E+02 0.  0.
       24    2    1    2    0    0  0.49512290331E+02 -0.87640328314E+02  0.13042098144E+03  0.18252755268E+03  0.78577229817E+02 0.  0.
      -13    1    4    4    0    0  0.62697475409E+02 -0.72001644366E+02  0.69020267598E+02  0.11780919978E+03  0.00000000000E+00 0.  1.
       14    1    4    4    0    0 -0.13185185078E+02 -0.15638683948E+02  0.61400713840E+02  0.64718352893E+02  0.00000000000E+00 0. -1.
        3    1    3    3  502    0 -0.69363411434E+02  0.82170128434E+02  0.42199475837E+02  0.11551626991E+03  0.00000000000E+00 0. -1.
       -4    1    3    3    0  502  0.19851121103E+02  0.54701998804E+01  0.14582248254E+02  0.25231568717E+02  0.00000000000E+00 0.  1.
</event>
<event>
 8   1  0.2279600E-02  0.9969665E+02  0.7546771E-02  0.1283966E+00
        1   -1    0    0  501    0  0.00000000000E+00  0.00000000000E+00  0.36487628341E+03  0.36487628341E+03  0.00000000000E+00 0. -1.
       -1   -1    0    0    0  501 -0.00000000000E+00 -0.00000000000E+00 -0.42067884385E+02  0.42067884385E+02  0.00000000000E+00 0.  1.
       24    2    1    2    0    0  0.26714621193E+02 -0.51844197838E+02  0.31838869995E+02  0.99368666066E+02  0.73884547222E+02 0.  0.
      -24    2    1    2    0    0 -0.26714621193E+02  0.51844197838E+02  0.29096952904E+03  0.30757550173E+03  0.80857470925E+02 0.  0.
      -13    1    3    3    0    0  0.67282286326E+01  0.16687498530E+02 -0.54893723032E+01  0.18811562296E+02  0.00000000000E+00 0.  1.
       14    1    3    3    0    0  0.19986392560E+02 -0.68531696369E+02  0.37328242298E+02  0.80557103770E+02  0.00000000000E+00 0. -1.
        1    1    4    4  502    0 -0.43468922175E+02  0.55497746541E+02  0.15199577098E+03  0.16754778859E+03  0.00000000000E+00 0. -1.
       -2    1    4    4    0  502  0.16754300982E+02 -0.36535487027E+01  0.13897375806E+03  0.14002771314E+03  0.00000000000E+00 0.  1.
</event>
<event>
 8   1  0.2279600E-02  0.9806059E+02  0.7546771E-02  0.1291938E+00
        2   -1    0    0  501    0  0.00000000000E+00  0.00000000000E+00  0.33514725735E+04  0.33514725735E+04  0.00000000000E+00 0. -1.
       -2   -1    0    0    0  501 -0.00000000000E+00 -0.00000000000E+00 -0.43213505459E+01  0.43213505459E+01  0.00000000000E+00 0.  1.
      -24    2    1    2    0    0  0.24054923322E+02  0.10070032811E+02  0.65533749258E+03  0.66263346515E+03  0.94529545939E+02 0.  0.
       24    2    1    2    0    0 -0.24054923322E+02 -0.10070032811E+02  0.26918137304E+04  0.26931604589E+04  0.81068202437E+02 0.  0.
      -13    1    4    4    0    0 -0.30875451920E+02 -0.18922326927E+02  0.49671055490E+03  0.49802883786E+03  0.00000000000E+00 0.  1.
       14    1    4    4    0    0  0.68205285982E+01  0.88522941155E+01  0.21951031755E+04  0.21951316211E+04  0.00000000000E+00 0. -1.
        1    1    3    3  502    0 -0.22718014980E+02  0.14133484541E+02  0.49080163442E+03  0.49153037337E+03  0.00000000000E+00 0. -1.
       -2    1    3    3    0  502  0.46772938303E+02 -0.40634517293E+01  0.16453585816E+03  0.17110309178E+03  0.00000000000E+00 0.  1.
</event>
<event>
 8   1  0.2279600E-02  0.1011529E+03  0.7546771E-02  0.1278257E+00
       -1   -1    0    0    0  501 -0.00000000000E+00  0.00000000000E+00  0.41049167389E+02  0.41049167389E+02  0.00000000000E+00 0.  1.
        1   -1    0    0  501    0  0.00000000000E+00 -0.00000000000E+00 -0.30903142199E+03  0.30903142199E+03  0.00000000000E+00 0. -1.
       24    2    1    2    0    0 -0.20167069846E+02  0.57945536079E+02 -0.56276481804E+02  0.11575386626E+03  0.80420888415E+02 0.  0.
      -24    2    1    2    0    0  0.20167069846E+02 -0.57945536079E+02 -0.21170577279E+03  0.23432672311E+03  0.79531648240E+02 0.  0.
      -13    1    3    3    0    0  0.24275451272E+02 -0.39532469074E+00 -0.17056707629E+01  0.24338511229E+02  0.00000000000E+00 0.  1.
       14    1    3    3    0    0 -0.44442521118E+02  0.58340860769E+02 -0.54570811041E+02  0.91415355036E+02  0.00000000000E+00 0. -1.
        3    1    4    4  502    0  0.42053062851E+02 -0.65028101629E+02 -0.16396550891E+03  0.18133340069E+03  0.00000000000E+00 0. -1.
       -4    1    4    4    0  502 -0.21885993005E+02  0.70825655503E+01 -0.47740263888E+02  0.52993322416E+02  0.00000000000E+00 0.  1.
</event>
<event>
 8   1  0.2279600E-02  0.1414362E+03  0.7546771E-02  0.1212810E+00
        2   -1    0    0  501    0  0.00000000000E+00  0.00000000000E+00  0.65457764422E+03  0.65457764422E+03  0.00000000000E+00 0. -1.
       -2   -1    0    0    0  501 -0.00000000000E+00 -0.00000000000E+00 -0.44518514929E+02  0.44518514929E+02  0.00000000000E+00 0.  1.
       24    2    1    2    0    0  0.82131745347E+02 -0.74813130625E+02  0.50991934272E+03  0.52917098121E+03  0.87530355689E+02 0.  0.
      -24    2    1    2    0    0 -0.82131745347E+02  0.74813130625E+02  0.10013978656E+03  0.16992517793E+03  0.80647139654E+02 0.  0.
      -13    1    3    3    0    0  0.86675703559E+02 -0.62369560311E+02  0.50303057972E+03  0.51423963653E+03  0.00000000000E+00 0.  1.
       14    1    3    3    0    0 -0.45439582120E+01 -0.12443570314E+02  0.68887629991E+01  0.14931344683E+02  0.00000000000E+00 0. -1.
        3    1    4    4  502    0 -0.61212662882E+02  0.90919249852E+02  0.70939117891E+02  0.13055902320E+03  0.00000000000E+00 0. -1.
       -4    1    4    4    0  502 -0.20919082465E+02 -0.16106119227E+02  0.29200668672E+02  0.39366154735E+02  0.00000000000E+00 0.  1.
</event>
<event>
 8   1  0.2279600E-02  0.8916536E+02  0.7546771E-02  0.1305014E+00
       -2   -1    0    0    0  501 -0.00000000000E+00  0.00000000000E+00  0.37916789381E+01  0.37916789381E+01  0.00000000000E+00 0.  1.
        2   -1    0    0  501    0  0.00000000000E+00 -0.00000000000E+00 -0.22134446996E+04  0.22134446996E+04  0.00000000000E+00 0. -1.
      -24    2    1    2    0    0  0.21411558797E+02  0.31599714959E+02 -0.13633791259E+04  0.13662781147E+04  0.80350786546E+02 0.  0.
       24    2    1    2    0    0 -0.21411558797E+02 -0.31599714959E+02 -0.84627389479E+03  0.85095826388E+03  0.80582039095E+02 0.  0.
      -13    1    4    4    0    0 -0.39352760031E+01 -0.46183467135E+02 -0.25065187766E+03  0.25490147667E+03  0.00000000000E+00 0.  1.
       14    1    4    4    0    0 -0.17476282794E+02  0.14583752176E+02 -0.59562201714E+03  0.59605678722E+03  0.00000000000E+00 0. -1.
        1    1    3    3  502    0 -0.23223384903E+02  0.28863714045E+02 -0.35957302806E+03  0.36147641985E+03  0.00000000000E+00 0. -1.
       -2    1    3    3    0  502  0.44634943701E+02  0.27360009140E+01 -0.10038060978E+04  0.10048016948E+04  0.00000000000E+00 0.  1.
</event>
<event>
 8   1  0.2279600E-02  0.8528047E+02  0.7546771E-02  0.1317935E+00
       -3   -1    0    0    0  501 -0.00000000000E+00  0.00000000000E+00  0.24792686734E+03  0.24792686734E+03  0.00000000000E+00 0.  1.
        3   -1    0    0  501    0  0.00000000000E+00 -0.00000000000E+00 -0.44114575525E+02  0.44114575525E+02  0.00000000000E+00 0. -1.
       24    2    1    2    0    0 -0.69645366758E+01  0.30386207161E+02  0.11003293501E+02  0.81214337162E+02  0.74181330104E+02 0.  0.
      -24    2    1    2    0    0  0.69645366758E+01 -0.30386207161E+02  0.19280899831E+03  0.21082710570E+03  0.79378412126E+02 0.  0.
      -13    1    3    3    0    0  0.20690938070E+02 -0.12133822865E+02 -0.10421592727E+02  0.26152517479E+02  0.00000000000E+00 0.  1.
       14    1    3    3    0    0 -0.27655474746E+02  0.42520030026E+02  0.21424886229E+02  0.55061819682E+02  0.00000000000E+00 0. -1.
        3    1    4    4  502    0  0.15481195045E+02  0.84107508889E+01  0.42418186343E+01  0.18121841956E+02  0.00000000000E+00 0. -1.
       -4    1    4    4    0  502 -0.85166583692E+01 -0.38796958050E+02  0.18856717968E+03  0.19270526375E+03  0.00000000000E+00 0.  1.
</event>
<event>
 8   1  0.2279600E-02  0.8158287E+02  0.7546771E-02  0.1325532E+00
       -1   -1    0    0    0  501 -0.00000000000E+00  0.00000000000E+00  0.19293353803E+02  0.19293353803E+02  0.00000000000E+00 0.  1.
        1   -1    0    0  501    0  0.00000000000E+00 -0.00000000000E+00 -0.19465543694E+04  0.19465543694E+04  0.00000000000E+00 0. -1.
       24    2    1    2    0    0  0.86008633115E+01 -0.30121794546E+01 -0.71880835943E+02  0.10873187075E+03  0.81072295308E+02 0.  0.
      -24    2    1    2    0    0 -0.86008633115E+01  0.30121794546E+01 -0.18553801796E+04  0.18571158524E+04  0.79753559788E+02 0.  0.
      -13    1    3    3    0    0  0.14351895762E+02 -0.40176353010E+02 -0.28434273113E+02  0.51270109622E+02  0.00000000000E+00 0.  1.
       14    1    3    3    0    0 -0.57510324505E+01  0.37164173556E+02 -0.43446562830E+02  0.57461761129E+02  0.00000000000E+00 0. -1.
        3    1    4    4  502    0  0.31086511084E+02  0.10666124606E+02 -0.47074446002E+03  0.47189033050E+03  0.00000000000E+00 0. -1.
       -4    1    4    4    0  502 -0.39687374396E+02 -0.76539451513E+01 -0.13846357196E+04  0.13852255219E+04  0.00000000000E+00 0.  1.
</event>
<event>
 8   1  0.2279600E-02  0.9114826E+02  0.7546771E-02  0.1301915E+00
        2   -1    0    0  501    0  0.00000000000E+00  0.00000000000E+00  0.46813820454E+02  0.46813820454E+02  0.00000000000E+00 0. -1.
       -2   -1    0    0    0  501 -0.00000000000E+00 -0.00000000000E+00 -0.17894006023E+03  0.17894006023E+03  0.00000000000E+00 0.  1.
       24    2    1    2    0    0  0.30801257977E+02  0.25729294524E+02 -0.87752199512E+02  0.12437804095E+03  0.78477604839E+02 0.  0.
      -24    2    1    2    0    0 -0.30801257977E+02 -0.25729294524E+02 -0.44374040260E+02  0.10137583973E+03  0.81836980288E+02 0.  0.
      -13    1    3    3    0    0 -0.72692825086E+01 -0.20898605216E+02 -0.46224706182E+02  0.51247610967E+02  0.00000000000E+00 0.  1.
       14    1    3    3    0    0  0.38070540486E+02  0.46627899740E+02 -0.41527493330E+02  0.73130429982E+02  0.00000000000E+00 0. -1.
        1    1    4    4  502    0 -0.23391305645E+02  0.27783974595E+02 -0.11321995377E+02  0.38043264889E+02  0.00000000000E+00 0. -1.
       -2    1    4    4    0  502 -0.74099523318E+01 -0.53513269119E+02 -0.33052044883E+02  0.63332574843E+02  0.00000000000E+00 0.  1.
</event>
<event>
 8   1  0.2279600E-02  0.1084338E+03  0.7546771E-02  0.1263717E+00
        2   -1    0    0  501    0  0.00000000000E+00  0.00000000000E+00  0.23237545631E+04  0.23237545631E+04  0.00000000000E+00 0. -1.
       -2   -1    0    0    0  501 -0.00000000000E+00 -0.00000000000E+00 -0.10043741628E+02  0.10043741628E+02  0.00000000000E+00 0.  1.
      -24    2    1    2    0    0  0.30264240670E+02 -0.66344522924E+02  0.33432543072E+03  0.35147031073E+03  0.80251889157E+02 0.  0.
       24    2    1    2    0    0 -0.30264240670E+02  0.66344522924E+02  0.19793853908E+04  0.19823279940E+04  0.79625565503E+02 0.  0.
      -13    1    4    4    0    0  0.12585918059E+02  0.39914977553E+02  0.40899233008E+03  0.41112812702E+03  0.00000000000E+00 0.  1.
       14    1    4    4    0    0 -0.42850158729E+02  0.26429545371E+02  0.15703930607E+04  0.15711998670E+04  0.00000000000E+00 0. -1.
        3    1    3    3  502    0  0.17568987966E+02  0.59708740977E+00  0.20077811222E+03  0.20154621356E+03  0.00000000000E+00 0. -1.
       -4    1    3    3    0  502  0.12695252705E+02 -0.66941610334E+02  0.13354731850E+03  0.14992409717E+03  0.00000000000E+00 0.  1.
</event>
<event>
 8   1  0.2279600E-02  0.9895942E+02  0.7546771E-02  0.1282972E+00
        2   -1    0    0  501    0  0.00000000000E+00  0.00000000000E+00  0.45015211120E+03  0.45015211120E+03  0.00000000000E+00 0. -1.
       -2   -1    0    0    0  501 -0.00000000000E+00 -0.00000000000E+00 -0.36862127578E+02  0.36862127578E+02  0.00000000000E+00 0.  1.
      -24    2    1    2    0    0 -0.55205756376E+02 -0.41266271782E+01  0.50303184550E+02  0.11101070752E+03  0.82025985025E+02 0.  0.
       24    2    1    2    0    0  0.55205756376E+02  0.41266271782E+01  0.36298679907E+03  0.37600353126E+03  0.80960080462E+02 0.  0.
      -13    1    4    4    0    0 -0.14792971022E+02  0.85478237429E+01  0.21878775274E+02  0.27759288354E+02  0.00000000000E+00 0.  1.
       14    1    4    4    0    0  0.69998727398E+02 -0.44211965648E+01  0.34110802380E+03  0.34824424290E+03  0.00000000000E+00 0. -1.
        3    1    3    3  502    0  0.17136365331E+02  0.84214473251E-01  0.31954008822E+02  0.36259078706E+02  0.00000000000E+00 0. -1.
       -4    1    3    3    0  502 -0.72342121706E+02 -0.42108416514E+01  0.18349175727E+02  0.74751628813E+02  0.00000000000E+00 0.  1.
</event>
<event>
 8   1  0.2279600E-02  0.9136390E+02  0.7546771E-02  0.1302181E+00
       -1   -1    0    0    0  501 -0.00000000000E+00  0.00000000000E+00  0.12959319001E+02  0.12959319001E+02  0.00000000000E+00 0.  1.
        1   -1    0    0  501    0  0.00000000000E+00 -0.00000000000E+00 -0.97282343947E+03  0.97282343947E+03  0.00000000000E+00 0. -1.
       24    2    1    2    0    0  0.39752097140E+02  0.73522453558E+01 -0.17355021762E+03  0.19417874408E+03  0.77145459215E+02 0.  0.
      -24    2    1    2    0    0 -0.39752097140E+02 -0.73522453558E+01 -0.78631390285E+03  0.79160401439E+03  0.81933369569E+02 0.  0.
      -13    1    3    3    0    0  0.39754378588E+02  0.13391477507E+02 -0.32672777193E+02  0.53171916048E+02  0.00000000000E+00 0.  1.
       14    1    3    3    0    0 -0.22814483490E-02 -0.60392321509E+01 -0.14087744043E+03  0.14100682803E+03  0.00000000000E+00 0. -1.
        1    1    4    4  502    0  0.15699630037E+02 -0.21989983814E+02 -0.12936485420E+03  0.13215635919E+03  0.00000000000E+00 0. -1.
       -2    1    4    4    0  502 -0.55451727177E+02  0.14637738458E+02 -0.65694904865E+03  0.65944765520E+03  0.00000000000E+00 0.  1.
</event>
<event>
 8   1  0.2279600E-02  0.8292079E+02  0.7546771E-02  0.1321173E+00
       -2   -1    0    0    0  501 -0.00000000000E+00  0.00000000000E+00  0.31524998795E+02  0.31524998795E+02  0.00000000000E+00 0.  1.
        2   -1    0    0  501    0  0.00000000000E+00 -0.00000000000E+00 -0.42767180880E+03  0.42767180880E+03  0.00000000000E+00 0. -1.
       24    2    1    2    0    0  0.15383179983E+01  0.20828915627E+02 -0.35929802867E+03  0.36874236450E+03  0.80247416291E+02 0.  0.
      -24    2    1    2    0    0 -0.15383179983E+01 -0.20828915627E+02 -0.36848781331E+02  0.90454443092E+02  0.79924736103E+02 0.  0.
      -13    1    3    3    0    0 -0.17015490489E+02  0.46496656450E+02 -0.18083006882E+03  0.18748594552E+03  0.00000000000E+00 0.  1.
       14    1    3    3    0    0  0.18553808488E+02 -0.25667740823E+02 -0.17846795985E+03  0.18125641898E+03  0.00000000000E+00 0. -1.
        3    1    4    4  502    0 -0.38019957748E+01 -0.43103922844E+02  0.44269727537E+01  0.43497142713E+02  0.00000000000E+00 0. -1.
       -4    1    4    4    0  502  0.22636777765E+01  0.22275007218E+02 -0.41275754085E+02  0.46957300379E+02  0.00000000000E+00 0.  1.
</event>
<event>
 8   1  0.2279600E-02  0.1479517E+03  0.7546771E-02  0.1204202E+00
        2   -1    0    0  501    0  0.00000000000E+00  0.00000000000E+00  0.43499235575E+02  0.43499235575E+02  0.00000000000E+00 0. -1.
       -2   -1    0    0    0  501 -0.00000000000E+00 -0.00000000000E+00 -0.66448666344E+03  0.66448666344E+03  0.00000000000E+00 0.  1.
      -24    2    1    2    0    0 -0.15147177763E+02 -0.11918788964E+03 -0.48865365290E+03  0.50948668819E+03  0.79743983597E+02 0.  0.
       24    2    1    2    0    0  0.15147177763E+02  0.11918788964E+03 -0.13233377497E+03  0.19849921083E+03  0.86339554507E+02 0.  0.
      -13    1    4    4    0    0  0.49671084012E+01  0.39864408980E+02 -0.10749551067E+03  0.11475682151E+03  0.00000000000E+00 0.  1.
       14    1    4    4    0    0  0.10180069362E+02  0.79323480655E+02 -0.24838264300E+02  0.83742389319E+02  0.00000000000E+00 0. -1.
        3    1    3    3  502    0 -0.27993216272E+02 -0.57296914670E+02 -0.12443367573E+03  0.13982237390E+03  0.00000000000E+00 0. -1.
       -4    1    3    3    0  502  0.12846038509E+02 -0.61890974965E+02 -0.36421997717E+03  0.36966431429E+03  0.00000000000E+00 0.  1.
</event>
<event>
 8   1  0.2279600E-02  0.9831786E+02  0.7546771E-02  0.1283971E+00
       -2   -1    0    0    0  501 -0.00000000000E+00  0.00000000000E+00  0.45457846021E+02  0.45457846021E+02  0.00000000000E+00 0.  1.
        2   -1    0    0  501    0  0.00000000000E+00 -0.00000000000E+00 -0.24225105093E+03  0.24225105093E+03  0.00000000000E+00 0. -1.
      -24    2    1    2    0    0 -0.27568706166E+01 -0.52421756422E+02 -0.47697188343E+02  0.10911431957E+03  0.82917260427E+02 0.  0.
       24    2    1    2    0    0  0.27568706166E+01  0.52421756422E+02 -0.14909601657E+03  0.17859457739E+03  0.83130981190E+02 0.  0.
      -13    1    4    4    0    0 -0.11958432823E+02 -0.17911923046E+02 -0.14330541888E+02  0.25869007201E+02  0.00000000000E+00 0.  1.
       14    1    4    4    0    0  0.14715303439E+02  0.70333679467E+02 -0.13476547468E+03  0.15272557019E+03  0.00000000000E+00 0. -1.
        3    1    3    3  502    0 -0.50631941552E+01  0.16845061654E+02 -0.34269939841E+02  0.38520394778E+02  0.00000000000E+00 0. -1.
       -4    1    3    3    0  502  0.23063235386E+01 -0.69266818076E+02 -0.13427248502E+02  0.70593924788E+02  0.00000000000E+00 0.  1.
</event>
<event>
 8   1  0.2279600E-02  0.9961231E+02  0.7546771E-02  0.1281345E+00
        1   -1    0    0  501    0  0.00000000000E+00  0.00000000000E+00  0.15324669976E+04  0.15324669976E+04  0.00000000000E+00 0. -1.
       -1   -1    0    0    0  501 -0.00000000000E+00 -0.00000000000E+00 -0.66676356575E+01  0.66676356575E+01  0.00000000000E+00 0.  1.
       24    2    1    2    0    0 -0.53715140007E+02  0.28201912110E+02  0.62115989282E+03  0.62902739731E+03  0.78455018940E+02 0.  0.
      -24    2    1    2    0    0  0.53715140007E+02 -0.28201912110E+02  0.90463946914E+03  0.91010723597E+03  0.79005998065E+02 0.  0.
      -13    1    3    3    0    0  0.66954197810E+01 -0.16968970285E+02  0.22582513235E+03  0.22656073138E+03  0.00000000000E+00 0.  1.
       14    1    3    3    0    0 -0.60410559788E+02  0.45170882395E+02  0.39533476047E+03  0.40246666593E+03  0.00000000000E+00 0. -1.
        3    1    4    4  502    0 -0.84780700749E+01  0.14111601491E+02  0.35038404668E+03  0.35077057336E+03  0.00000000000E+00 0. -1.
       -4    1    4    4    0  502  0.62193210082E+02 -0.42313513601E+02  0.55425542246E+03  0.55933666261E+03  0.00000000000E+00 0.  1.
</event>
<event>
 8   1  0.2279600E-02  0.8662027E+02  0.7546771E-02  0.1312219E+00
        2   -1    0    0  501    0  0.00000000000E+00  0.00000000000E+00  0.20941227980E+03  0.20941227980E+03  0.00000000000E+00 0. -1.
       -2   -1    0    0    0  501 -0.00000000000E+00 -0.00000000000E+00 -0.12744324783E+03  0.12744324783E+03  0.00000000000E+00 0.  1.
      -24    2    1    2    0    0  0.10187087065E+02 -0.28885262603E+02 -0.10220039210E+03  0.13397011064E+03  0.81024288090E+02 0.  0.
       24    2    1    2    0    0 -0.10187087065E+02  0.28885262603E+02  0.18416942407E+03  0.20288541699E+03  0.79410204162E+02 0.  0.
      -13    1    4    4    0    0  0.32866256722E+02 -0.69661592662E+00  0.71810242544E+02  0.78977129847E+02  0.00000000000E+00 0.  1.
       14    1    4    4    0    0 -0.43053343788E+02  0.29581878530E+02  0.11235918152E+03  0.12390828714E+03  0.00000000000E+00 0. -1.
        3    1    3    3  502    0  0.37903409713E+02 -0.13027983700E+02 -0.18034518559E+02  0.43950434433E+02  0.00000000000E+00 0. -1.
       -4    1    3    3    0  502 -0.27716322648E+02 -0.15857278903E+02 -0.84165873538E+02  0.90019676204E+02  0.00000000000E+00 0.  1.
</event>
<event>
 8   1  0.2279600E-02  0.9665191E+02  0.7546771E-02  0.1288141E+00
       -2   -1    0    0    0  501 -0.00000000000E+00  0.00000000000E+00  0.43410965877E+03  0.43410965877E+03  0.00000000000E+00 0.  1.
        2   -1    0    0  501    0  0.00000000000E+00 -0.00000000000E+00 -0.21270229953E+02  0.21270229953E+02  0.00000000000E+00 0. -1.
      -24    2    1    2    0    0 -0.26946401192E+02  0.44123429597E+02  0.20979482682E+03  0.23050503072E+03  0.80285205665E+02 0.  0.
       24    2    1    2    0    0  0.26946401192E+02 -0.44123429597E+02  0.20304460200E+03  0.22487485801E+03  0.81661531866E+02 0.  0.
      -13    1    4    4    0    0 -0.13924673762E+02 -0.50180458141E+02  0.14120913467E+03  0.15050579601E+03  0.00000000000E+00 0.  1.
       14    1    4    4    0    0  0.40871074954E+02  0.60570285438E+01  0.61835467335E+02  0.74369062003E+02  0.00000000000E+00 0. -1.
        1    1    3    3  502    0  0.16859179453E+02 -0.72323244381E+01  0.13077849036E+02  0.22529282812E+02  0.00000000000E+00 0. -1.
       -2    1    3    3    0  502 -0.43805580645E+02  0.51355754036E+02  0.19671697778E+03  0.20797574790E+03  0.00000000000E+00 0.  1.
</event>
<event>
 8   1  0.2279600E-02  0.8640286E+02  0.7546771E-02  0.1311828E+00
       -1   -1    0    0    0  501 -0.00000000000E+00  0.00000000000E+00  0.15778997233E+03  0.15778997233E+03  0.00000000000E+00 0.  1.
        1   -1    0    0  501    0  0.00000000000E+00 -0.00000000000E+00 -0.61011274168E+02  0.61011274168E+02  0.00000000000E+00 0. -1.
       24    2    1    2    0    0 -0.23240072302E+02 -0.27717613882E+02  0.10025877587E+03  0.13232832898E+03  0.78425744701E+02 0.  0.
      -24    2    1    2    0    0  0.23240072302E+02  0.27717613882E+02 -0.34800777115E+01  0.86472917515E+02  0.78467110580E+02 0.  0.
      -13    1    3    3    0    0 -0.33229731604E+02  0.62827868023E+01  0.88899482011E+02  0.95114701147E+02  0.00000000000E+00 0.  1.
       14    1    3    3    0    0  0.99896593025E+01 -0.34000400684E+02  0.11359293862E+02  0.37213627836E+02  0.00000000000E+00 0. -1.
        3    1    4    4  502    0  0.30219015274E+02 -0.67416266699E+01 -0.29474683597E+02  0.42748045422E+02  0.00000000000E+00 0. -1.
       -4    1    4    4    0  502 -0.69789429717E+01  0.34459240552E+02  0.25994605886E+02  0.43724872093E+02  0.00000000000E+00 0.  1.
</event>
<event>
 8   1  0.2279600E-02  0.8542263E+02  0.7546771E-02  0.1318067E+00
       -2   -1    0    0    0  501 -0.00000000000E+00  0.00000000000E+00  0.14986832028E+02  0.14986832028E+02  0.00000000000E+00 0.  1.
        2   -1    0    0  501    0  0.00000000000E+00 -0.00000000000E+00 -0.10185636943E+04  0.10185636943E+04  0.00000000000E+00 0. -1.
      -24    2    1    2    0    0 -0.15872981905E+02  0.30026232397E+02 -0.12529363952E+03  0.15164274599E+03  0.78380483027E+02 0.  0.
       24    2    1    2    0    0  0.15872981905E+02 -0.30026232397E+02 -0.87828322278E+03  0.88190778037E+03  0.72293758194E+02 0.  0.
      -13    1    4    4    0    0  0.10669801792E+02 -0.32805197825E+02 -0.16347118362E+03  0.16707140254E+03  0.00000000000E+00 0.  1.
       14    1    4    4    0    0  0.52031801130E+01  0.27789654276E+01 -0.71481203916E+03  0.71483637783E+03  0.00000000000E+00 0. -1.
        3    1    3    3  502    0  0.92877430780E+01  0.22617079607E+01 -0.11120097064E+03  0.11161108083E+03  0.00000000000E+00 0. -1.
       -4    1    3    3    0  502 -0.25160724983E+02  0.27764524437E+02 -0.14092668890E+02  0.40031665158E+02  0.00000000000E+00 0.  1.
</event>
<event>
 8   1  0.2279600E-02  0.9745931E+02  0.7546771E-02  0.1292362E+00
       -1   -1    0    0    0  501 -0.00000000000E+00  0.00000000000E+00  0.24806310674E+02  0.24806310674E+02  0.00000000000E+00 0.  1.
        1   -1    0    0  501    0  0.00000000000E+00 -0.00000000000E+00 -0.12311916416E+04  0.12311916416E+04  0.00000000000E+00 0. -1.
       24    2    1    2    0    0 -0.49309837009E+02  0.30530457284E+02 -0.79337803451E+02  0.12566942336E+03  0.78324632540E+02 0.  0.
      -24    2    1    2    0    0  0.49309837009E+02 -0.30530457284E+02 -0.11270475274E+04  0.11303285289E+04  0.63583686981E+02 0.  0.
      -13    1    3    3    0    0 -0.29780552805E+02  0.38647047698E+02 -0.57795131182E+01  0.49131236429E+02  0.00000000000E+00 0.  1.
       14    1    3    3    0    0 -0.19529284204E+02 -0.81165904142E+01 -0.73558290332E+02  0.76538186927E+02  0.00000000000E+00 0. -1.
        3    1    4    4  502    0  0.24859165997E+02 -0.60230085785E+01 -0.92378436757E+03  0.92413841633E+03  0.00000000000E+00 0. -1.
       -4    1    4    4    0  502  0.24450671012E+02 -0.24507448706E+02 -0.20326315986E+03  0.20619011254E+03  0.00000000000E+00 0.  1.
</event>
<event>
 8   1  0.2279600E-02  0.8653153E+02  0.7546771E-02  0.1311992E+00
       -1   -1    0    0    0  501 -0.00000000000E+00  0.00000000000E+00  0.45725296873E+01  0.45725296873E+01  0.00000000000E+00 0.  1.
        1   -1    0    0  501    0  0.00000000000E+00 -0.00000000000E+00 -0.24287442496E+04  0.24287442496E+04  0.00000000000E+00 0. -1.
       24    2    1    2    0    0  0.23491597987E+02 -0.17584730908E+02 -0.51481864305E+03  0.52204017253E+03  0.81404106562E+02 0.  0.
      -24    2    1    2    0    0 -0.23491597987E+02  0.17584730908E+02 -0.19093530769E+04  0.19112766068E+04  0.80548230765E+02 0.  0.
      -13    1    3    3    0    0  0.35590243090E+02 -0.44030346571E+02 -0.37280157286E+03  0.37707605274E+03  0.00000000000E+00 0.  1.
       14    1    3    3    0    0 -0.12098645103E+02  0.26445615663E+02 -0.14201707019E+03  0.14496411979E+03  0.00000000000E+00 0. -1.
        3    1    4    4  502    0 -0.37203688835E+02  0.42851553401E+02 -0.13318918222E+04  0.13331002199E+04  0.00000000000E+00 0. -1.
       -4    1    4    4    0  502  0.13712090849E+02 -0.25266822493E+02 -0.57746125464E+03  0.57817638690E+03  0.00000000000E+00 0.  1.
</event>
<event>
 8   1  0.2279600E-02  0.9894996E+02  0.7546771E-02  0.1285413E+00
       -2   -1    0    0    0  501 -0.00000000000E+00  0.00000000000E+00  0.13030192265E+02  0.13030192265E+02  0.00000000000E+00 0.  1.
        2   -1    0    0  501    0  0.00000000000E+00 -0.00000000000E+00 -0.11108844590E+04  0.11108844590E+04  0.00000000000E+00 0. -1.
       24    2    1    2    0    0 -0.24967497722E+02 -0.51008837298E+02 -0.87598873264E+03  0.88098377719E+03  0.74504218193E+02 0.  0.
      -24    2    1    2    0    0  0.24967497722E+02  0.51008837298E+02 -0.22186553408E+03  0.24293087406E+03  0.81029728714E+02 0.  0.
      -13    1    3    3    0    0 -0.25174408426E+02 -0.69200452747E+02 -0.76232940652E+03  0.76587765181E+03  0.00000000000E+00 0.  1.
       14    1    3    3    0    0  0.20691070482E+00  0.18191615448E+02 -0.11365932612E+03  0.11510612537E+03  0.00000000000E+00 0. -1.
        3    1    4    4  502    0 -0.18615944550E+02  0.42041997025E+02 -0.16163010563E+03  0.16804277417E+03  0.00000000000E+00 0. -1.
       -4    1    4    4    0  502  0.43583442272E+02  0.89668402730E+01 -0.60235428446E+02  0.74888099888E+02  0.00000000000E+00 0.  1.
</event>
<event>
 8   1  0.2279600E-02  0.9446249E+02  0.7546771E-02  0.1293132E+00
        2   -1    0    0  501    0  0.00000000000E+00  0.00000000000E+00  0.35395544811E+03  0.35395544811E+03  0.00000000000E+00 0. -1.
       -2   -1    0    0    0  501 -0.00000000000E+00 -0.00000000000E+00 -0.11906490141E+03  0.11906490141E+03  0.00000000000E+00 0.  1.
      -24    2    1    2    0    0  0.50607873246E+02  0.13061242000E+02 -0.93092684298E+02  0.13170500923E+03  0.77124631021E+02 0.  0.
       24    2    1    2    0    0 -0.50607873246E+02 -0.13061242000E+02  0.32798323100E+03  0.34131534029E+03  0.78685505795E+02 0.  0.
      -13    1    4    4    0    0 -0.24439778295E+01  0.18192723307E+02  0.16812616914E+02  0.24892012704E+02  0.00000000000E+00 0.  1.
       14    1    4    4    0    0 -0.48163895416E+02 -0.31253965307E+02  0.31117061408E+03  0.31642332758E+03  0.00000000000E+00 0. -1.
        3    1    3    3  502    0  0.14895792024E+02  0.33515482370E+02 -0.85241288063E+01  0.37654122622E+02  0.00000000000E+00 0. -1.
       -4    1    3    3    0  502  0.35712081221E+02 -0.20454240370E+02 -0.84568555492E+02  0.94050886611E+02  0.00000000000E+00 0.  1.
</event>
<event>
 8   1  0.2279600E-02  0.3022691E+03  0.7546771E-02  0.1084134E+00
        2   -1    0    0  501    0  0.00000000000E+00  0.00000000000E+00  0.11727363994E+04  0.11727363994E+04  0.00000000000E+00 0. -1.
       -2   -1    0    0    0  501 -0.00000000000E+00 -0.00000000000E+00 -0.39426530098E+03  0.39426530098E+03  0.00000000000E+00 0.  1.
       24    2    1    2    0    0  0.26572391169E+03 -0.11868526876E+03  0.10911406998E+04  0.11322343679E+04  0.81677700801E+02 0.  0.
      -24    2    1    2    0    0 -0.26572391169E+03  0.11868526876E+03 -0.31266960141E+03  0.43476733246E+03  0.81024462166E+02 0.  0.
      -13    1    3    3    0    0  0.34466862878E+02 -0.37251015667E+02  0.29034291815E+03  0.29474499644E+03  0.00000000000E+00 0.  1.
       14    1    3    3    0    0  0.23125704881E+03 -0.81434253092E+02  0.80079778165E+03  0.83748937145E+03  0.00000000000E+00 0. -1.
        3    1    4    4  502    0 -0.53700545154E+02  0.53392186236E+02 -0.49065110736E+02  0.90232251398E+02  0.00000000000E+00 0. -1.
       -4    1    4    4    0  502 -0.21202336653E+03  0.65293082523E+02 -0.26360449067E+03  0.34453508107E+03  0.00000000000E+00 0.  1.
</event>
<event>
 8   1  0.2279600E-02  0.9863282E+02  0.7546771E-02  0.1283885E+00
        2   -1    0    0  501    0  0.00000000000E+00  0.00000000000E+00  0.16657983291E+04  0.16657983291E+04  0.00000000000E+00 0. -1.
       -2   -1    0    0    0  501 -0.00000000000E+00 -0.00000000000E+00 -0.46248022761E+02  0.46248022761E+02  0.00000000000E+00 0.  1.
      -24    2    1    2    0    0 -0.66994977710E+01 -0.56310720935E+02  0.95377557951E+01  0.99092900567E+02  0.80701013591E+02 0.  0.
       24    2    1    2    0    0  0.66994977710E+01  0.56310720935E+02  0.16100125505E+04  0.16129534513E+04  0.79136859753E+02 0.  0.
      -13    1    4    4    0    0 -0.22237394097E+02 -0.45956237608E+01  0.19192575307E+03  0.19326436854E+03  0.00000000000E+00 0.  1.
       14    1    4    4    0    0  0.28936891868E+02  0.60906344696E+02  0.14180867974E+04  0.14196890827E+04  0.00000000000E+00 0. -1.
        1    1    3    3  502    0 -0.27796572741E+02  0.22685784655E+01  0.22090159345E+02  0.35577676207E+02  0.00000000000E+00 0. -1.
       -2    1    3    3    0  502  0.21097074970E+02 -0.58579299400E+02 -0.12552403550E+02  0.63515224359E+02  0.00000000000E+00 0.  1.
</event>
<event>
 8   1  0.2279600E-02  0.1128605E+03  0.7546771E-02  0.1257527E+00
        2   -1    0    0  501    0  0.00000000000E+00  0.00000000000E+00  0.29889934368E+04  0.29889934368E+04  0.00000000000E+00 0. -1.
       -2   -1    0    0    0  501 -0.00000000000E+00 -0.00000000000E+00 -0.40930219965E+01  0.40930219965E+01  0.00000000000E+00 0.  1.
       24    2    1    2    0    0 -0.17445528939E+02  0.70812100039E+02  0.15912252775E+04  0.15952226754E+04  0.86132458419E+02 0.  0.
      -24    2    1    2    0    0  0.17445528939E+02 -0.70812100039E+02  0.13936751373E+04  0.13978637834E+04  0.79837764095E+02 0.  0.
      -13    1    3    3    0    0 -0.13467472812E+02 -0.36354597507E+01  0.43056391832E+02  0.45259720162E+02  0.00000000000E+00 0.  1.
       14    1    3    3    0    0 -0.39780561270E+01  0.74447559790E+02  0.15481688857E+04  0.15499629552E+04  0.00000000000E+00 0. -1.
        3    1    4    4  502    0  0.30389265435E+02 -0.24094981750E+01  0.21696912315E+03  0.21910023627E+03  0.00000000000E+00 0. -1.
       -4    1    4    4    0  502 -0.12943736496E+02 -0.68402601864E+02  0.11767060142E+04  0.11787635471E+04  0.00000000000E+00 0.  1.
</event>
<event>
 8   1  0.2279600E-02  0.8370364E+02  0.7546771E-02  0.1320542E+00
        1   -1    0    0  501    0  0.00000000000E+00  0.00000000000E+00  0.13448329179E+04  0.13448329179E+04  0.00000000000E+00 0. -1.
       -1   -1    0    0    0  501 -0.00000000000E+00 -0.00000000000E+00 -0.68481788421E+01  0.68481788421E+01  0.00000000000E+00 0.  1.
       24    2    1    2    0    0  0.85511288407E+01  0.14090179670E+02  0.31588922762E+03  0.32616389325E+03  0.79531290477E+02 0.  0.
      -24    2    1    2    0    0 -0.85511288407E+01 -0.14090179670E+02  0.10220955114E+04  0.10255172034E+04  0.82064884041E+02 0.  0.
      -13    1    3    3    0    0  0.34793337809E+01 -0.27947351710E+02  0.54290962820E+02  0.61161007800E+02  0.00000000000E+00 0.  1.
       14    1    3    3    0    0  0.50717950598E+01  0.42037531380E+02  0.26159826480E+03  0.26500288545E+03  0.00000000000E+00 0. -1.
        3    1    4    4  502    0 -0.33504711170E+02  0.10051049855E+02  0.22844161689E+03  0.23110422238E+03  0.00000000000E+00 0. -1.
       -4    1    4    4    0  502  0.24953582329E+02 -0.24141229525E+02  0.79365389450E+03  0.79441298107E+03  0.00000000000E+00 0.  1.
</event>
<event>
 8   1  0.2279600E-02  0.8226236E+02  0.7546771E-02  0.1326139E+00
       -2   -1    0    0    0  501 -0.00000000000E+00  0.00000000000E+00  0.14606713553E+03  0.14606713553E+03  0.00000000000E+00 0.  1.
        2   -1    0    0  501    0  0.00000000000E+00 -0.00000000000E+00 -0.26789900547E+03  0.26789900547E+03  0.00000000000E+00 0. -1.
      -24    2    1    2    0    0 -0.13478354577E+02 -0.56674734567E+01  0.12873350673E+03  0.15024260276E+03  0.76070609506E+02 0.  0.
       24    2    1    2    0    0  0.13478354577E+02  0.56674734567E+01 -0.25056537666E+03  0.26372353824E+03  0.80952519070E+02 0.  0.
      -13    1    4    4    0    0 -0.42480226866E+01  0.41526565519E+02 -0.11314999394E+03  0.12060440485E+03  0.00000000000E+00 0.  1.
       14    1    4    4    0    0  0.17726377264E+02 -0.35859092062E+02 -0.13741538272E+03  0.14311913339E+03  0.00000000000E+00 0. -1.
        3    1    3    3  502    0  0.10118760988E+02 -0.11255925792E+02 -0.37212542283E+01  0.15586305604E+02  0.00000000000E+00 0. -1.
       -4    1    3    3    0  502 -0.23597115565E+02  0.55884523350E+01  0.13245476096E+03  0.13465629715E+03  0.00000000000E+00 0.  1.
</event>
<event>
 8   1  0.2279600E-02  0.8244018E+02  0.7546771E-02  0.1324279E+00
        2   -1    0    0  501    0  0.00000000000E+00  0.00000000000E+00  0.25694351513E+02  0.25694351513E+02  0.00000000000E+00 0. -1.
       -2   -1    0    0    0  501 -0.00000000000E+00 -0.00000000000E+00 -0.40533117176E+03  0.40533117176E+03  0.00000000000E+00 0.  1.
      -24    2    1    2    0    0  0.22433474274E+01 -0.98432847905E+01 -0.32306596793E+03  0.33341865895E+03  0.81819677610E+02 0.  0.
       24    2    1    2    0    0 -0.22433474274E+01  0.98432847905E+01 -0.56570852322E+02  0.97606864320E+02  0.78898135382E+02 0.  0.
      -13    1    4    4    0    0  0.16009631218E+01  0.42400000409E+02 -0.15767075884E+02  0.45265039485E+02  0.00000000000E+00 0.  1.
       14    1    4    4    0    0 -0.38443105492E+01 -0.32556715619E+02 -0.40803776438E+02  0.52341824835E+02  0.00000000000E+00 0. -1.
        3    1    3    3  502    0 -0.15790540589E+02  0.10815462067E+02 -0.15488952134E+02  0.24621596822E+02  0.00000000000E+00 0. -1.
       -4    1    3    3    0  502  0.18033888017E+02 -0.20658746858E+02 -0.30757701579E+03  0.30879706213E+03  0.00000000000E+00 0.  1.
</event>
<event>
 8   1  0.2279600E-02  0.9360948E+02  0.7546771E-02  0.1296711E+00
       -1   -1    0    0    0  501 -0.00000000000E+00  0.00000000000E+00  0.19321022001E+03  0.19321022001E+03  0.00000000000E+00 0.  1.
        1   -1    0    0  501    0  0.00000000000E+00 -0.00000000000E+00 -0.58566535738E+02  0.58566535738E+02  0.00000000000E+00 0. -1.
       24    2    1    2    0    0  0.24608076801E+01  0.45430031527E+02  0.13242958294E+03  0.16217376336E+03  0.81809484439E+02 0.  0.
      -24    2    1    2    0    0 -0.24608076801E+01 -0.45430031527E+02  0.22141013305E+01  0.89602992391E+02  0.77161199199E+02 0.  0.
      -13    1    3    3    0    0  0.35473450477E+02  0.17096522747E+02  0.10128438189E+03  0.10867006393E+03  0.00000000000E+00 0.  1.
       14    1    3    3    0    0 -0.33012642797E+02  0.28333508780E+02  0.31145201051E+02  0.53503699430E+02  0.00000000000E+00 0. -1.
        1    1    4    4  502    0  0.42308453300E+01 -0.14242012067E+02 -0.36519316485E+02  0.39425821950E+02  0.00000000000E+00 0. -1.
       -2    1    4    4    0  502 -0.66916530100E+01 -0.31188019460E+02  0.38733417815E+02  0.50177170441E+02  0.00000000000E+00 0.  1.
</event>
<event>
 8   1  0.2279600E-02  0.9064580E+02  0.7546771E-02  0.1303273E+00
       -2   -1    0    0    0  501 -0.00000000000E+00  0.00000000000E+00  0.18398138421E+03  0.18398138421E+03  0.00000000000E+00 0.  1.
        2   -1    0    0  501    0  0.00000000000E+00 -0.00000000000E+00 -0.14057544670E+03  0.14057544670E+03  0.00000000000E+00 0. -1.
      -24    2    1    2    0    0 -0.34434268987E+02 -0.34718668086E+01  0.15671912355E+03  0.17944811737E+03  0.80268115730E+02 0.  0.
       24    2    1    2    0    0  0.34434268987E+02  0.34718668086E+01 -0.11331318604E+03  0.14510871353E+03  0.83778803247E+02 0.  0.
      -13    1    4    4    0    0 -0.15409144359E+02  0.49108275541E+01  0.48258509622E+01  0.16877404855E+02  0.00000000000E+00 0.  1.
       14    1    4    4    0    0  0.49843413346E+02 -0.14389607455E+01 -0.11813903700E+03  0.12823130868E+03  0.00000000000E+00 0. -1.
        3    1    3    3  502    0 -0.25586041745E+02 -0.26021666406E+02  0.22092853505E+02  0.42659897218E+02  0.00000000000E+00 0. -1.
       -4    1    3    3    0  502 -0.88482272429E+01  0.22549799597E+02  0.13462627004E+03  0.13678822015E+03  0.00000000000E+00 0.  1.
</event>
<event>
 8   1  0.2279600E-02  0.1246934E+03  0.7546771E-02  0.1236426E+00
        2   -1    0    0  501    0  0.00000000000E+00  0.00000000000E+00  0.10609739096E+04  0.10609739096E+04  0.00000000000E+00 0. -1.
       -2   -1    0    0    0  501 -0.00000000000E+00 -0.00000000000E+00 -0.51752519501E+02  0.51752519501E+02  0.00000000000E+00 0.  1.
       24    2    1    2    0    0 -0.43439393617E+02  0.82084358097E+02  0.97603892038E+03  0.98369344156E+03  0.79849797188E+02 0.  0.
      -24    2    1    2    0    0  0.43439393617E+02 -0.82084358097E+02  0.33182469693E+02  0.12903298751E+03  0.83208249651E+02 0.  0.
      -13    1    3    3    0    0  0.23366109742E+02  0.27287098669E+02  0.26502169914E+03  0.26744543716E+03  0.00000000000E+00 0.  1.
       14    1    3    3    0    0 -0.66805503359E+02  0.54797259428E+02  0.71101722124E+03  0.71624800441E+03  0.00000000000E+00 0. -1.
        1    1    4    4  502    0  0.35454212844E+02 -0.51686582425E+02  0.60705381737E+02  0.87256216873E+02  0.00000000000E+00 0. -1.
       -2    1    4    4    0  502  0.79851807729E+01 -0.30397775672E+02 -0.27522912045E+02  0.41776770641E+02  0.00000000000E+00 0.  1.
</event>
<event>
 8   1  0.2279600E-02  0.8268366E+02  0.7546771E-02  0.1321645E+00
       -3   -1    0    0    0  501 -0.00000000000E+00  0.00000000000E+00  0.90584393358E+02  0.90584393358E+02  0.00000000000E+00 0.  1.
        3   -1    0    0  501    0  0.00000000000E+00 -0.00000000000E+00 -0.37468823505E+03  0.37468823505E+03  0.00000000000E+00 0. -1.
       24    2    1    2    0    0  0.15205032704E+02 -0.68558449330E+01  0.65868977938E+02  0.10566511769E+03  0.80920944213E+02 0.  0.
      -24    2    1    2    0    0 -0.15205032704E+02  0.68558449330E+01 -0.34997281963E+03  0.35960751072E+03  0.80983897508E+02 0.  0.
      -13    1    3    3    0    0  0.97841192043E+01 -0.41711190129E+02  0.52920784114E+02  0.68089365997E+02  0.00000000000E+00 0.  1.
       14    1    3    3    0    0  0.54209135001E+01  0.34855345196E+02  0.12948193824E+02  0.37575751692E+02  0.00000000000E+00 0. -1.
        1    1    4    4  502    0 -0.32225995135E+02 -0.28610849099E+02 -0.16894858048E+03  0.17435801758E+03  0.00000000000E+00 0. -1.
       -2    1    4    4    0  502  0.17020962430E+02  0.35466694032E+02 -0.18102423915E+03  0.18524949314E+03  0.00000000000E+00 0.  1.
</event>
<event>
 8   1  0.2279600E-02  0.9586806E+02  0.7546771E-02  0.1293590E+00
        1   -1    0    0  501    0  0.00000000000E+00  0.00000000000E+00  0.15915523449E+03  0.15915523449E+03  0.00000000000E+00 0. -1.
       -1   -1    0    0    0  501 -0.00000000000E+00 -0.00000000000E+00 -0.13677257388E+03  0.13677257388E+03  0.00000000000E+00 0.  1.
       24    2    1    2    0    0  0.20732999815E+02  0.31692794510E+02 -0.10452753535E+03  0.13687786933E+03  0.79845193726E+02 0.  0.
      -24    2    1    2    0    0 -0.20732999815E+02 -0.31692794510E+02  0.12691019596E+03  0.15904993904E+03  0.88070396642E+02 0.  0.
      -13    1    3    3    0    0 -0.23013919056E+02 -0.89070165008E+01 -0.51216460424E+02  0.56851571937E+02  0.00000000000E+00 0.  1.
       14    1    3    3    0    0  0.43746918871E+02  0.40599811011E+02 -0.53311074922E+02  0.80026297391E+02  0.00000000000E+00 0. -1.
        1    1    4    4  502    0 -0.31752400869E+02 -0.50421781683E+02  0.12340636892E+03  0.13703905618E+03  0.00000000000E+00 0. -1.
       -2    1    4    4    0  502  0.11019401054E+02  0.18728987173E+02  0.35038270350E+01  0.22010882854E+02  0.00000000000E+00 0.  1.
</event>
<event>
 8   1  0.2279600E-02  0.1046026E+03  0.7546771E-02  0.1271306E+00
       -2   -1    0    0    0  501 -0.00000000000E+00  0.00000000000E+00  0.14461486877E+03  0.14461486877E+03  0.00000000000E+00 0.  1.
        2   -1    0    0  501    0  0.00000000000E+00 -0.00000000000E+00 -0.27098224920E+03  0.27098224920E+03  0.00000000000E+00 0. -1.
       24    2    1    2    0    0  0.66177144076E+02 -0.15825905302E+02 -0.23979834326E+03  0.26129780446E+03  0.78379994310E+02 0.  0.
      -24    2    1    2    0    0 -0.66177144076E+02  0.15825905302E+02  0.11343096283E+03  0.15429931351E+03  0.79446970641E+02 0.  0.
      -13    1    3    3    0    0 -0.11122895956E+01  0.47468175861E+01 -0.13488549844E+03  0.13497357947E+03  0.00000000000E+00 0.  1.
       14    1    3    3    0    0  0.67289433672E+02 -0.20572722888E+02 -0.10491284482E+03  0.12632422499E+03  0.00000000000E+00 0. -1.
        1    1    4    4  502    0 -0.49770854058E+02 -0.24941822833E+02  0.86158349822E+02  0.10257920688E+03  0.00000000000E+00 0. -1.
       -2    1    4    4    0  502 -0.16406290019E+02  0.40767728135E+02  0.27272613006E+02  0.51720106628E+02  0.00000000000E+00 0.  1.
</event>
<event>
 8   1  0.2279600E-02  0.8518967E+02  0.7546771E-02  0.1319190E+00
       -2   -1    0    0    0  501 -0.00000000000E+00  0.00000000000E+00  0.36557926406E+02  0.36557926406E+02  0.00000000000E+00 0.  1.
        2   -1    0    0  501    0  0.00000000000E+00 -0.00000000000E+00 -0.25095489302E+03  0.25095489302E+03  0.00000000000E+00 0. -1.
       24    2    1    2    0    0 -0.21310324087E+02 -0.60132980323E+01 -0.18430829242E+03  0.20304390117E+03  0.82261713340E+02 0.  0.
      -24    2    1    2    0    0  0.21310324087E+02  0.60132980323E+01 -0.30088674194E+02  0.84468918256E+02  0.75758696996E+02 0.  0.
      -13    1    3    3    0    0  0.17574756311E+01 -0.37878715809E+02 -0.13353285778E+03  0.13881249922E+03  0.00000000000E+00 0.  1.
       14    1    3    3    0    0 -0.23067799719E+02  0.31865417777E+02 -0.50775434638E+02  0.64231401952E+02  0.00000000000E+00 0. -1.
        3    1    4    4  502    0  0.28345427794E+02  0.11856425921E+02 -0.52183049109E+02  0.60556657163E+02  0.00000000000E+00 0. -1.
       -4    1    4    4    0  502 -0.70351037065E+01 -0.58431278885E+01  0.22094374915E+02  0.23912261093E+02  0.00000000000E+00 0.  1.
</event>
<event>
 8   1  0.2279600E-02  0.9318314E+02  0.7546771E-02  0.1298549E+00
       -2   -1    0    0    0  501 -0.00000000000E+00  0.00000000000E+00  0.83564290782E+02  0.83564290782E+02  0.00000000000E+00 0.  1.
        2   -1    0    0  501    0  0.00000000000E+00 -0.00000000000E+00 -0.17646100398E+03  0.17646100398E+03  0.00000000000E+00 0. -1.
      -24    2    1    2    0    0  0.38244826132E+02 -0.20529278766E+01  0.41013628041E+02  0.96884013189E+02  0.78977927853E+02 0.  0.
       24    2    1    2    0    0 -0.38244826132E+02  0.20529278766E+01 -0.13391034124E+03  0.16314128157E+03  0.84948319721E+02 0.  0.
      -13    1    4    4    0    0 -0.18236022817E+02  0.15841315592E+02  0.27733261451E+01  0.24314422588E+02  0.00000000000E+00 0.  1.
       14    1    4    4    0    0 -0.20008803315E+02 -0.13788387715E+02 -0.13668366739E+03  0.13882685899E+03  0.00000000000E+00 0. -1.
        3    1    3    3  502    0  0.26823819649E+02  0.36268067897E+02  0.33521999675E+02  0.56201552574E+02  0.00000000000E+00 0. -1.
       -4    1    3    3    0  502  0.11421006483E+02 -0.38320995773E+02  0.74916283658E+01  0.40682460615E+02  0.00000000000E+00 0.  1.
</event>
<event>
 8   1  0.2279600E-02  0.8439321E+02  0.7546771E-02  0.1320400E+00
        2   -1    0    0  501    0  0.00000000000E+00  0.00000000000E+00  0.13366787260E+04  0.13366787260E+04  0.00000000000E+00 0. -1.
       -2   -1    0    0    0  501 -0.00000000000E+00 -0.00000000000E+00 -0.51174009499E+01  0.51174009499E+01  0.00000000000E+00 0.  1.
      -24    2    1    2    0    0 -0.29805040679E+01  0.34063402795E+01  0.55386428301E+03  0.55953344563E+03  0.79319267677E+02 0.  0.
       24    2    1    2    0    0  0.29805040679E+01 -0.34063402795E+01  0.77769704205E+03  0.78226268134E+03  0.84271743964E+02 0.  0.
      -13    1    4    4    0    0  0.11580083337E+02  0.30581405416E+02  0.14705611940E+03  0.15064801007E+03  0.00000000000E+00 0.  1.
       14    1    4    4    0    0 -0.85995792696E+01 -0.33987745696E+02  0.63064092266E+03  0.63161467126E+03  0.00000000000E+00 0. -1.
        1    1    3    3  502    0 -0.19562886678E+02 -0.25529022814E+02  0.11526676580E+03  0.11966981591E+03  0.00000000000E+00 0. -1.
       -2    1    3    3    0  502  0.16582382610E+02  0.28935363093E+02  0.43859751721E+03  0.43986362972E+03  0.00000000000E+00 0.  1.
</event>
<event>
 8   1  0.2279600E-02  0.8780458E+02  0.7546771E-02  0.1310431E+00
       -2   -1    0    0    0  501 -0.00000000000E+00  0.00000000000E+00  0.19592362768E+03  0.19592362768E+03  0.00000000000E+00 0.  1.
        2   -1    0    0  501    0  0.00000000000E+00 -0.00000000000E+00 -0.46397314856E+02  0.46397314856E+02  0.00000000000E+00 0. -1.
       24    2    1    2    0    0  0.29580845389E+02  0.15274144285E+02  0.23944983719E+02  0.91011023969E+02  0.81248497469E+02 0.  0.
      -24    2    1    2    0    0 -0.29580845389E+02 -0.15274144285E+02  0.12558132910E+03  0.15130991856E+03  0.77560913734E+02 0.  0.
      -13    1    3    3    0    0 -0.13725264096E+02  0.20636545747E+01  0.40492871611E+02  0.42805539314E+02  0.00000000000E+00 0.  1.
       14    1    3    3    0    0  0.43306109485E+02  0.13210489710E+02 -0.16547887891E+02  0.48205484655E+02  0.00000000000E+00 0. -1.
        1    1    4    4  502    0  0.18226904078E+02 -0.12933908263E+02  0.87019919918E+02  0.89844156615E+02  0.00000000000E+00 0. -1.
       -2    1    4    4    0  502 -0.47807749467E+02 -0.23402360220E+01  0.38561409182E+02  0.61465761948E+02  0.00000000000E+00 0.  1.
</event>
<event>
 8   1  0.2279600E-02  0.1069241E+03  0.7546771E-02  0.1266976E+00
       -2   -1    0    0    0  501 -0.00000000000E+00  0.00000000000E+00  0.26488721757E+02  0.26488721757E+02  0.00000000000E+00 0.  1.
        2   -1    0    0  501    0  0.00000000000E+00 -0.00000000000E+00 -0.43184809678E+03  0.43184809678E+03  0.00000000000E+00 0. -1.
      -24    2    1    2    0    0  0.22587942647E+02  0.66654309384E+02 -0.17859546532E+03  0.20815641665E+03  0.80496841205E+02 0.  0.
       24    2    1    2    0    0 -0.22587942647E+02 -0.66654309384E+02 -0.22676390970E+03  0.25018040190E+03  0.78837495118E+02 0.  0.
      -13    1    4    4    0    0  0.24467143626E+01  0.12759893979E+02 -0.61474254626E+01  0.14373313652E+02  0.00000000000E+00 0.  1.
       14    1    4    4    0    0 -0.25034657010E+02 -0.79414203363E+02 -0.22061648424E+03  0.23580708824E+03  0.00000000000E+00 0. -1.
        3    1    3    3  502    0 -0.39274059639E+01 -0.17780433772E+02 -0.35680796351E+02  0.40058551783E+02  0.00000000000E+00 0. -1.
       -4    1    3    3    0  502  0.26515348611E+02  0.84434743155E+02 -0.14291466897E+03  0.16809786486E+03  0.00000000000E+00 0.  1.
</event>
<event>
 8   1  0.2279600E-02  0.1216068E+03  0.7546771E-02  0.1240620E+00
        1   -1    0    0  501    0  0.00000000000E+00  0.00000000000E+00  0.12126957832E+03  0.12126957832E+03  0.00000000000E+00 0. -1.
       -1   -1    0    0    0  501 -0.00000000000E+00 -0.00000000000E+00 -0.21863387825E+03  0.21863387825E+03  0.00000000000E+00 0.  1.
       24    2    1    2    0    0  0.53517470118E+02  0.73467733838E+02 -0.16187720033E+03  0.20224397096E+03  0.80229472632E+02 0.  0.
      -24    2    1    2    0    0 -0.53517470118E+02 -0.73467733838E+02  0.64512900401E+02  0.13765948561E+03  0.80787326582E+02 0.  0.
      -13    1    3    3    0    0  0.62305954348E+02  0.22577184661E+02 -0.11377631783E+03  0.13166932716E+03  0.00000000000E+00 0.  1.
       14    1    3    3    0    0 -0.87884842291E+01  0.50890549177E+02 -0.48100882497E+02  0.70574643801E+02  0.00000000000E+00 0. -1.
        3    1    4    4  502    0 -0.52875089042E+02 -0.54728142150E+02  0.82105750442E+02  0.11194775049E+03  0.00000000000E+00 0. -1.
       -4    1    4    4    0  502 -0.64238107632E+00 -0.18739591688E+02 -0.17592850041E+02  0.25711735116E+02  0.00000000000E+00 0.  1.
</event>
<event>
 8   1  0.2279600E-02  0.9605177E+02  0.7546771E-02  0.1289411E+00
        2   -1    0    0  501    0  0.00000000000E+00  0.00000000000E+00  0.69691945150E+02  0.69691945150E+02  0.00000000000E+00 0. -1.
       -2   -1    0    0    0  501 -0.00000000000E+00 -0.00000000000E+00 -0.20330586784E+03  0.20330586784E+03  0.00000000000E+00 0.  1.
      -24    2    1    2    0    0 -0.45221361055E+02  0.25471740073E+02 -0.14847999813E+03  0.17683962411E+03  0.80821790196E+02 0.  0.
       24    2    1    2    0    0  0.45221361055E+02 -0.25471740073E+02  0.14866075446E+02  0.96158188881E+02  0.79571452493E+02 0.  0.
      -13    1    4    4    0    0 -0.13030342719E+02 -0.14223995959E+02 -0.19637210986E+02  0.27526931317E+02  0.00000000000E+00 0.  1.
       14    1    4    4    0    0  0.58251703774E+02 -0.11247744114E+02  0.34503286432E+02  0.68631257564E+02  0.00000000000E+00 0. -1.
        3    1    3    3  502    0 -0.82692554323E+01  0.44956214974E+02 -0.40539383597E+02  0.61097327868E+02  0.00000000000E+00 0. -1.
       -4    1    3    3    0  502 -0.36952105622E+02 -0.19484474901E+02 -0.10794061454E+03  0.11574229624E+03  0.00000000000E+00 0.  1.
</event>
<event>
 8   1  0.2279600E-02  0.1045786E+03  0.7546771E-02  0.1272008E+00
       -3   -1    0    0    0  501 -0.00000000000E+00  0.00000000000E+00  0.14293748227E+02  0.14293748227E+02  0.00000000000E+00 0.  1.
        3   -1    0    0  501    0  0.00000000000E+00 -0.00000000000E+00 -0.80817942509E+03  0.80817942509E+03  0.00000000000E+00 0. -1.
       24    2    1    2    0    0  0.62319922367E+02  0.26323629757E+02 -0.28265546791E+03  0.30065615360E+03  0.76962997284E+02 0.  0.
      -24    2    1    2    0    0 -0.62319922367E+02 -0.26323629757E+02 -0.51123020896E+03  0.52181701972E+03  0.79749415746E+02 0.  0.
      -13    1    3    3    0    0  0.40829384432E+02  0.13057104750E+02 -0.46848069152E+02  0.63500143313E+02  0.00000000000E+00 0.  1.
       14    1    3    3    0    0  0.21490537935E+02  0.13266525008E+02 -0.23580739875E+03  0.23715601028E+03  0.00000000000E+00 0. -1.
        1    1    4    4  502    0 -0.26798616291E+02 -0.51247237447E+02 -0.35469692824E+03  0.35938051712E+03  0.00000000000E+00 0. -1.
       -2    1    4    4    0  502 -0.35521306076E+02  0.24923607690E+02 -0.15653328072E+03  0.16243650261E+03  0.00000000000E+00 0.  1.
</event>
<event>
 8   1  0.2279600E-02  0.9900584E+02  0.7546771E-02  0.1282557E+00
       -2   -1    0    0    0  501 -0.00000000000E+00  0.00000000000E+00  0.11355500262E+03  0.11355500262E+03  0.00000000000E+00 0.  1.
        2   -1    0    0  501    0  0.00000000000E+00 -0.00000000000E+00 -0.22880693362E+03  0.22880693362E+03  0.00000000000E+00 0. -1.
      -24    2    1    2    0    0 -0.54169669888E+02  0.19983858157E+02  0.77547867497E+02  0.12576099530E+03  0.80426665122E+02 0.  0.
       24    2    1    2    0    0  0.54169669888E+02 -0.19983858157E+02 -0.19279979850E+03  0.21660094094E+03  0.80065583071E+02 0.  0.
      -13    1    4    4    0    0  0.63602786735E+02  0.12496573143E+02 -0.12273748892E+03  0.13880190923E+03  0.00000000000E+00 0.  1.
       14    1    4    4    0    0 -0.94331168471E+01 -0.32480431300E+02 -0.70062309583E+02  0.77799031709E+02  0.00000000000E+00 0. -1.
        3    1    3    3  502    0 -0.34444578440E+02  0.25819194660E+02 -0.24928667086E+01  0.43119301724E+02  0.00000000000E+00 0. -1.
       -4    1    3    3    0  502 -0.19725091448E+02 -0.58353365032E+01  0.80040734205E+02  0.82641693574E+02  0.00000000000E+00 0.  1.
</event>
<event>
 8   1  0.2279600E-02  0.1622109E+03  0.7546771E-02  0.1186655E+00
        1   -1    0    0  501    0  0.00000000000E+00  0.00000000000E+00  0.25543356939E+04  0.25543356939E+04  0.00000000000E+00 0. -1.
       -1   -1    0    0    0  501 -0.00000000000E+00 -0.00000000000E+00 -0.10330432702E+02  0.10330432702E+02  0.00000000000E+00 0.  1.
       24    2    1    2    0    0  0.12665955338E+03  0.62424804451E+02  0.14084277529E+04  0.14175616609E+04  0.76634381607E+02 0.  0.
      -24    2    1    2    0    0 -0.12665955338E+03 -0.62424804451E+02  0.11355775082E+04  0.11471044657E+04  0.79830316083E+02 0.  0.
      -13    1    3    3    0    0 -0.98929720507E+00  0.23669617552E+02  0.12546841710E+03  0.12768536797E+03  0.00000000000E+00 0.  1.
       14    1    3    3    0    0  0.12764885059E+03  0.38755186899E+02  0.12829593358E+04  0.12898762929E+04  0.00000000000E+00 0. -1.
        1    1    4    4  502    0 -0.52684050614E+02 -0.61799588829E+02  0.75878979693E+03  0.76312302697E+03  0.00000000000E+00 0. -1.
       -2    1    4    4    0  502 -0.73975502770E+02 -0.62521562146E+00  0.37678771130E+03  0.38398143874E+03  0.00000000000E+00 0.  1.
</event>
<event>
 8   1  0.2279600E-02  0.1318632E+03  0.7546771E-02  0.1225335E+00
       -2   -1    0    0    0  501 -0.00000000000E+00  0.00000000000E+00  0.42393893439E+01  0.42393893439E+01  0.00000000000E+00 0.  1.
        2   -1    0    0  501    0  0.00000000000E+00 -0.00000000000E+00 -0.40662944832E+04  0.40662944832E+04  0.00000000000E+00 0. -1.
      -24    2    1    2    0    0 -0.31667292109E+02 -0.98607030877E+02 -0.21756716972E+04  0.21796640170E+04  0.81619415122E+02 0.  0.
       24    2    1    2    0    0  0.31667292109E+02  0.98607030877E+02 -0.18863833966E+04  0.18908698555E+04  0.78869053698E+02 0.  0.
      -13    1    4    4    0    0  0.11994549305E+02  0.51016436290E+02 -0.37890613710E+03  0.38251327653E+03  0.00000000000E+00 0.  1.
       14    1    4    4    0    0  0.19672742804E+02  0.47590594587E+02 -0.15074772595E+04  0.15083565790E+04  0.00000000000E+00 0. -1.
        1    1    3    3  502    0 -0.46597518172E+02 -0.82517101927E+02 -0.11967037406E+04  0.12004500171E+04  0.00000000000E+00 0. -1.
       -2    1    3    3    0  502  0.14930226063E+02 -0.16089928950E+02 -0.97896795664E+03  0.97921399990E+03  0.00000000000E+00 0.  1.
</event>
<event>
 8   1  0.2279600E-02  0.9207945E+02  0.7546771E-02  0.1299165E+00
       -1   -1    0    0    0  501 -0.00000000000E+00  0.00000000000E+00  0.52614294205E+02  0.52614294205E+02  0.00000000000E+00 0.  1.
        1   -1    0    0  501    0  0.00000000000E+00 -0.00000000000E+00 -0.18183671864E+03  0.18183671864E+03  0.00000000000E+00 0. -1.
       24    2    1    2    0    0 -0.44064042621E+02  0.10279996837E+00 -0.22319034904E+02  0.94745791380E+02  0.80851563035E+02 0.  0.
      -24    2    1    2    0    0  0.44064042621E+02 -0.10279996837E+00 -0.10690338953E+03  0.13970522146E+03  0.78406401470E+02 0.  0.
      -13    1    3    3    0    0 -0.50684517814E+02  0.23076802800E+02  0.78611266904E+01  0.56242834977E+02  0.00000000000E+00 0.  1.
       14    1    3    3    0    0  0.66204751923E+01 -0.22974002831E+02 -0.30180161595E+02  0.38502956403E+02  0.00000000000E+00 0. -1.
        3    1    4    4  502    0  0.56240159461E+02  0.24563230942E+02 -0.63422728475E+02  0.88253897011E+02  0.00000000000E+00 0. -1.
       -4    1    4    4    0  502 -0.12176116839E+02 -0.24666030911E+02 -0.43480661055E+02  0.51451324453E+02  0.00000000000E+00 0.  1.
</event>
<event>
 8   1  0.2279600E-02  0.8391778E+02  0.7546771E-02  0.1319270E+00
        2   -1    0    0  501    0  0.00000000000E+00  0.00000000000E+00  0.11532490246E+04  0.11532490246E+04  0.00000000000E+00 0. -1.
       -2   -1    0    0    0  501 -0.00000000000E+00 -0.00000000000E+00 -0.75482779322E+01  0.75482779322E+01  0.00000000000E+00 0.  1.
      -24    2    1    2    0    0  0.17191905196E+02  0.26924127442E+01  0.30602221456E+03  0.31693580213E+03  0.80597122665E+02 0.  0.
       24    2    1    2    0    0 -0.17191905196E+02 -0.26924127442E+01  0.83967853212E+03  0.84386150041E+03  0.82093750521E+02 0.  0.
      -13    1    4    4    0    0  0.19402928925E+02 -0.27707462026E+02  0.21843439607E+03  0.22103792093E+03  0.00000000000E+00 0.  1.
       14    1    4    4    0    0 -0.36594834121E+02  0.25015049282E+02  0.62124413605E+03  0.62282357948E+03  0.00000000000E+00 0. -1.
        1    1    3    3  502    0  0.39864578266E+02  0.27726411025E+02  0.18883579753E+03  0.19497922171E+03  0.00000000000E+00 0. -1.
       -2    1    3    3    0  502 -0.22672673069E+02 -0.25033998281E+02  0.11718641702E+03  0.12195658043E+03  0.00000000000E+00 0.  1.
</event>
<event>
 8   1  0.2279600E-02  0.8199166E+02  0.7546771E-02  0.1324915E+00
       -2   -1    0    0    0  501 -0.00000000000E+00  0.00000000000E+00  0.36248969204E+02  0.36248969204E+02  0.00000000000E+00 0.  1.
        2   -1    0    0  501    0  0.00000000000E+00 -0.00000000000E+00 -0.18070176219E+04  0.18070176219E+04  0.00000000000E+00 0. -1.
      -24    2    1    2    0    0  0.10122988245E+02 -0.82410434766E+01 -0.12214944228E+02  0.82896542375E+02  0.80945921372E+02 0.  0.
       24    2    1    2    0    0 -0.10122988245E+02  0.82410434766E+01 -0.17585537084E+04  0.17603700487E+04  0.78874414150E+02 0.  0.
      -13    1    4    4    0    0  0.17619101512E+02 -0.27676836531E+02 -0.56293080343E+03  0.56388609618E+03  0.00000000000E+00 0.  1.
       14    1    4    4    0    0 -0.27742089757E+02  0.35917880008E+02 -0.11956229050E+04  0.11964839525E+04  0.00000000000E+00 0. -1.
        3    1    3    3  502    0  0.21027832922E+02 -0.41705278730E+02 -0.88749989652E+01  0.47542251082E+02  0.00000000000E+00 0. -1.
       -4    1    3    3    0  502 -0.10904844676E+02  0.33464235253E+02 -0.33399452626E+01  0.35354291293E+02  0.00000000000E+00 0.  1.
</event>
<event>
 8   1  0.2279600E-02  0.9353213E+02  0.7546771E-02  0.1295043E+00
       -2   -1    0    0    0  501 -0.00000000000E+00  0.00000000000E+00  0.32837343816E+02  0.32837343816E+02  0.00000000000E+00 0.  1.
        2   -1    0    0  501    0  0.00000000000E+00 -0.00000000000E+00 -0.26435684964E+03  0.26435684964E+03  0.00000000000E+00 0. -1.
      -24    2    1    2    0    0  0.45185927248E+02 -0.12513745949E+02 -0.10853701136E+03  0.14268544542E+03  0.79877979696E+02 0.  0.
       24    2    1    2    0    0 -0.45185927248E+02  0.12513745949E+02 -0.12298249446E+03  0.15450874803E+03  0.80931436518E+02 0.  0.
      -13    1    4    4    0    0  0.15388236197E+02  0.22516529328E+01  0.15668418186E+01  0.15630826833E+02  0.00000000000E+00 0.  1.
       14    1    4    4    0    0 -0.60574163445E+02  0.10262093016E+02 -0.12454933628E+03  0.13887792120E+03  0.00000000000E+00 0. -1.
        3    1    3    3  502    0  0.23666390280E+02 -0.33271320935E+02 -0.10489979341E+03  0.11256573850E+03  0.00000000000E+00 0. -1.
       -4    1    3    3    0  502  0.21519536968E+02  0.20757574986E+02 -0.36372179498E+01  0.30119706922E+02  0.00000000000E+00 0.  1.
</event>
<event>
 8   1  0.2279600E-02  0.1099163E+03  0.7546771E-02  0.1275005E+00
       -1   -1    0    0    0  501 -0.00000000000E+00  0.00000000000E+00  0.60118143965E+03  0.60118143965E+03  0.00000000000E+00 0.  1.
        1   -1    0    0  501    0  0.00000000000E+00 -0.00000000000E+00 -0.30381938661E+03  0.30381938661E+03  0.00000000000E+00 0. -1.
       24    2    1    2    0    0  0.36544759203E+02  0.21767574360E+02  0.58820762811E+03  0.59407841735E+03  0.71635225160E+02 0.  0.
      -24    2    1    2    0    0 -0.36544759203E+02 -0.21767574360E+02 -0.29084557507E+03  0.31092240891E+03  0.10135210460E+03 0.  0.
      -13    1    3    3    0    0  0.13178623904E+02  0.18649234886E+02  0.53932888938E+03  0.53981211640E+03  0.00000000000E+00 0.  1.
       14    1    3    3    0    0  0.23366135299E+02  0.31183394740E+01  0.48878738724E+02  0.54266300953E+02  0.00000000000E+00 0. -1.
        3    1    4    4  502    0 -0.43671154891E+02 -0.47912324126E+02 -0.26721873650E+03  0.27497020513E+03  0.00000000000E+00 0. -1.
       -4    1    4    4    0  502  0.71263956874E+01  0.26144749767E+02 -0.23626838570E+02  0.35952203781E+02  0.00000000000E+00 0.  1.
</event>
<event>
 8   1  0.2279600E-02  0.8214790E+02  0.7546771E-02  0.1324103E+00
        2   -1    0    0  501    0  0.00000000000E+00  0.00000000000E+00  0.36402336191E+03  0.36402336191E+03  0.00000000000E+00 0. -1.
       -2   -1    0    0    0  501 -0.00000000000E+00 -0.00000000000E+00 -0.38608689666E+02  0.38608689666E+02  0.00000000000E+00 0.  1.
      -24    2    1    2    0    0 -0.56962981814E+01  0.31773916810E+01  0.17052952261E+02  0.83899224541E+02  0.81888540510E+02 0.  0.
       24    2    1    2    0    0  0.56962981814E+01 -0.31773916810E+01  0.30836171998E+03  0.31873282704E+03  0.80381098820E+02 0.  0.
      -13    1    4    4    0    0  0.22670518531E+02  0.31282108402E+02  0.10750633414E+03  0.11423718570E+03  0.00000000000E+00 0.  1.
       14    1    4    4    0    0 -0.16974220349E+02 -0.34459500083E+02  0.20085538584E+03  0.20449564133E+03  0.00000000000E+00 0. -1.
        1    1    3    3  502    0 -0.38102091564E+02 -0.12684982204E-01  0.30364099067E+02  0.48721125343E+02  0.00000000000E+00 0. -1.
       -2    1    3    3    0  502  0.32405793383E+02  0.31900766632E+01 -0.13311146807E+02  0.35178099198E+02  0.00000000000E+00 0.  1.
</event>
<event>
 8   1  0.2279600E-02  0.9086544E+02  0.7546771E-02  0.1301292E+00
        1   -1    0    0  501    0  0.00000000000E+00  0.00000000000E+00  0.19132413284E+03  0.19132413284E+03  0.00000000000E+00 0. -1.
       -1   -1    0    0    0  501 -0.00000000000E+00 -0.00000000000E+00 -0.92104567208E+02  0.92104567208E+02  0.00000000000E+00 0.  1.
       24    2    1    2    0    0 -0.16884022429E+02  0.40033813016E+02 -0.54024634281E+02  0.10571277056E+03  0.79804463231E+02 0.  0.
      -24    2    1    2    0    0  0.16884022429E+02 -0.40033813016E+02  0.15324419991E+03  0.17771592949E+03  0.78812374597E+02 0.  0.
      -13    1    3    3    0    0 -0.44017165289E+02  0.37757069147E+02 -0.52845725087E+02  0.78458764778E+02  0.00000000000E+00 0.  1.
       14    1    3    3    0    0  0.27133142860E+02  0.22767438692E+01 -0.11789091941E+01  0.27254005779E+02  0.00000000000E+00 0. -1.
        3    1    4    4  502    0  0.15139143254E+02 -0.63945505829E+02  0.11853272699E+03  0.13552943866E+03  0.00000000000E+00 0. -1.
       -4    1    4    4    0  502  0.17448791752E+01  0.23911692814E+02  0.34711472917E+02  0.42186490831E+02  0.00000000000E+00 0.  1.
</event>
<event>
 8   1  0.2279600E-02  0.8479376E+02  0.7546771E-02  0.1315988E+00
        2   -1    0    0  501    0  0.00000000000E+00  0.00000000000E+00  0.14257681661E+03  0.14257681661E+03  0.00000000000E+00 0. -1.
       -2   -1    0    0    0  501 -0.00000000000E+00 -0.00000000000E+00 -0.53042084424E+02  0.53042084424E+02  0.00000000000E+00 0.  1.
      -24    2    1    2    0    0  0.24374652928E+02 -0.40274993738E+01  0.23004202114E+02  0.87858831360E+02  0.81114958401E+02 0.  0.
       24    2    1    2    0    0 -0.24374652928E+02  0.40274993738E+01  0.66530530068E+02  0.10776006967E+03  0.81089929880E+02 0.  0.
      -13    1    4    4    0    0 -0.36191002666E+02  0.24925665122E+02  0.82273761584E+01  0.44707574014E+02  0.00000000000E+00 0.  1.
       14    1    4    4    0    0  0.11816349739E+02 -0.20898165748E+02  0.58303153910E+02  0.63052495657E+02  0.00000000000E+00 0. -1.
        1    1    3    3  502    0  0.15972988069E+02 -0.42476114160E+02  0.10701686257E+02  0.46624915128E+02  0.00000000000E+00 0. -1.
       -2    1    3    3    0  502  0.84016648590E+01  0.38448614786E+02  0.12302515857E+02  0.41233916232E+02  0.00000000000E+00 0.  1.
</event>
<event>
 8   1  0.2279600E-02  0.1076638E+03  0.7546771E-02  0.1265650E+00
       -2   -1    0    0    0  501 -0.00000000000E+00  0.00000000000E+00  0.12351631104E+03  0.12351631104E+03  0.00000000000E+00 0.  1.
        2   -1    0    0  501    0  0.00000000000E+00 -0.00000000000E+00 -0.10241313904E+03  0.10241313904E+03  0.00000000000E+00 0. -1.
      -24    2    1    2    0    0  0.31950801214E+02 -0.61566034110E+02  0.45464338113E+02  0.11554390497E+03  0.80449721453E+02 0.  0.
       24    2    1    2    0    0 -0.31950801214E+02  0.61566034110E+02 -0.24361166113E+02  0.11038554512E+03  0.82342406464E+02 0.  0.
      -13    1    4    4    0    0 -0.30892102300E+02 -0.91352770536E+01  0.71086471874E+01  0.32989515550E+02  0.00000000000E+00 0.  1.
       14    1    4    4    0    0 -0.10586989135E+01  0.70701311164E+02 -0.31469813300E+02  0.77396029568E+02  0.00000000000E+00 0. -1.
        3    1    3    3  502    0 -0.23129236467E+02 -0.77454559285E+01 -0.29663742335E+01  0.24571386676E+02  0.00000000000E+00 0. -1.
       -4    1    3    3    0  502  0.55080037680E+02 -0.53820578182E+02  0.48430712347E+02  0.90972518296E+02  0.00000000000E+00 0.  1.
</event>
<event>
 8   1  0.2279600E-02  0.9968256E+02  0.7546771E-02  0.1282649E+00
       -2   -1    0    0    0  501 -0.00000000000E+00  0.00000000000E+00  0.17348582477E+04  0.17348582477E+04  0.00000000000E+00 0.  1.
        2   -1    0    0  501    0  0.00000000000E+00 -0.00000000000E+00 -0.58092309473E+01  0.58092309473E+01  0.00000000000E+00 0. -1.
      -24    2    1    2    0    0  0.56581306010E+02  0.35844457003E+01  0.10355642789E+04  0.10400551072E+04  0.78147027640E+02 0.  0.
       24    2    1    2    0    0 -0.56581306010E+02 -0.35844457003E+01  0.69348473783E+03  0.70061237138E+03  0.81989760874E+02 0.  0.
      -13    1    4    4    0    0  0.13299553481E+02 -0.23506934698E+02  0.18378095418E+03  0.18575492785E+03  0.00000000000E+00 0.  1.
       14    1    4    4    0    0 -0.69880859491E+02  0.19922488997E+02  0.50970378366E+03  0.51485744354E+03  0.00000000000E+00 0. -1.
        1    1    3    3  502    0  0.12883585775E+02  0.35566970797E+02  0.59015168416E+03  0.59136283829E+03  0.00000000000E+00 0. -1.
       -2    1    3    3    0  502  0.43697720234E+02 -0.31982525097E+02  0.44541259474E+03  0.44869226895E+03  0.00000000000E+00 0.  1.
</event>
<event>
 8   1  0.2279600E-02  0.8295475E+02  0.7546771E-02  0.1321315E+00
       -1   -1    0    0    0  501 -0.00000000000E+00  0.00000000000E+00  0.49118484330E+02  0.49118484330E+02  0.00000000000E+00 0.  1.
        1   -1    0    0  501    0  0.00000000000E+00 -0.00000000000E+00 -0.14036912095E+03  0.14036912095E+03  0.00000000000E+00 0. -1.
       24    2    1    2    0    0 -0.57055886292E+01  0.17395578245E+02 -0.36424041344E+02  0.90599126080E+02  0.80909399791E+02 0.  0.
      -24    2    1    2    0    0  0.57055886292E+01 -0.17395578245E+02 -0.54826595271E+02  0.98888479195E+02  0.80236001174E+02 0.  0.
      -13    1    3    3    0    0 -0.38187757976E+02  0.21939354151E+01  0.16601381272E+01  0.38286737526E+02  0.00000000000E+00 0.  1.
       14    1    3    3    0    0  0.32482169347E+02  0.15201642830E+02 -0.38084179471E+02  0.52312388553E+02  0.00000000000E+00 0. -1.
        3    1    4    4  502    0  0.18416739375E+02 -0.10690727356E+02  0.15989095082E+02  0.26629290305E+02  0.00000000000E+00 0. -1.
       -4    1    4    4    0  502 -0.12711150746E+02 -0.67048508893E+01 -0.70815690354E+02  0.72259188890E+02  0.00000000000E+00 0.  1.
</event>
<event>
 8   1  0.2279600E-02  0.9788774E+02  0.7546771E-02  0.1288654E+00
       -2   -1    0    0    0  501 -0.00000000000E+00  0.00000000000E+00  0.97161044847E+02  0.97161044847E+02  0.00000000000E+00 0.  1.
        2   -1    0    0  501    0  0.00000000000E+00 -0.00000000000E+00 -0.17779523033E+04  0.17779523033E+04  0.00000000000E+00 0. -1.
       24    2    1    2    0    0 -0.39203502534E+01  0.44052327522E+02 -0.17518117010E+04  0.17541757083E+04  0.79575142025E+02 0.  0.
      -24    2    1    2    0    0  0.39203502534E+01 -0.44052327522E+02  0.71020442577E+02  0.12093763979E+03  0.87327159276E+02 0.  0.
      -13    1    3    3    0    0 -0.81155509270E+01 -0.22245713192E+02 -0.57913213924E+03  0.57961605277E+03  0.00000000000E+00 0.  1.
       14    1    3    3    0    0  0.41952006736E+01  0.66298040713E+02 -0.11726795618E+04  0.11745596556E+04  0.00000000000E+00 0. -1.
        1    1    4    4  502    0 -0.29122997459E+02 -0.22284077714E+01 -0.33920822096E+01  0.29404438507E+02  0.00000000000E+00 0. -1.
       -2    1    4    4    0  502  0.33043347713E+02 -0.41823919750E+02  0.74412524786E+02  0.91533201279E+02  0.00000000000E+00 0.  1.
</event>
<event>
 8   1  0.2279600E-02  0.8579634E+02  0.7546771E-02  0.1314683E+00
        3   -1    0    0  501    0  0.00000000000E+00  0.00000000000E+00  0.27908776872E+02  0.27908776872E+02  0.00000000000E+00 0. -1.
       -3   -1    0    0    0  501 -0.00000000000E+00 -0.00000000000E+00 -0.16203044929E+04  0.16203044929E+04  0.00000000000E+00 0.  1.
       24    2    1    2    0    0 -0.16352986473E+02 -0.19936053182E+02 -0.15504507580E+04  0.15527125306E+04  0.79710621994E+02 0.  0.
      -24    2    1    2    0    0  0.16352986473E+02  0.19936053182E+02 -0.41944958006E+02  0.95500739169E+02  0.81829977982E+02 0.  0.
      -13    1    3    3    0    0 -0.33246133799E+02  0.19860271785E+02 -0.89503095262E+03  0.89586837312E+03  0.00000000000E+00 0.  1.
       14    1    3    3    0    0  0.16893147325E+02 -0.39796324967E+02 -0.65541980537E+03  0.65684415745E+03  0.00000000000E+00 0. -1.
        3    1    4    4  502    0  0.25226782609E+02  0.49333213772E+00  0.18566166575E+02  0.31326290535E+02  0.00000000000E+00 0. -1.
       -4    1    4    4    0  502 -0.88737961356E+01  0.19442721044E+02 -0.60511124581E+02  0.64174448634E+02  0.00000000000E+00 0.  1.
</event>
<event>
 8   1  0.2279600E-02  0.8372804E+02  0.7546771E-02  0.1320675E+00
       -1   -1    0    0    0  501 -0.00000000000E+00  0.00000000000E+00  0.48203753363E+02  0.48203753363E+02  0.00000000000E+00 0.  1.
        1   -1    0    0  501    0  0.00000000000E+00 -0.00000000000E+00 -0.17493102824E+03  0.17493102824E+03  0.00000000000E+00 0. -1.
       24    2    1    2    0    0  0.15178556519E+02 -0.24845084366E+01 -0.14844816797E+02  0.85033835911E+02  0.82303239936E+02 0.  0.
      -24    2    1    2    0    0 -0.15178556519E+02  0.24845084366E+01 -0.11188245808E+03  0.13810094569E+03  0.79483491461E+02 0.  0.
      -13    1    3    3    0    0 -0.26151862952E+02 -0.18445894075E+02 -0.23736993532E+02  0.39844896864E+02  0.00000000000E+00 0.  1.
       14    1    3    3    0    0  0.41330419471E+02  0.15961385639E+02  0.88921767350E+01  0.45188939048E+02  0.00000000000E+00 0. -1.
        3    1    4    4  502    0 -0.22855205637E+02  0.37458241757E+02 -0.73560841340E+02  0.85654408403E+02  0.00000000000E+00 0. -1.
       -4    1    4    4    0  502  0.76766491177E+01 -0.34973733320E+02 -0.38321616742E+02  0.52446537290E+02  0.00000000000E+00 0.  1.
</event>
<event>
 8   1  0.2279600E-02  0.9680231E+02  0.7546771E-02  0.1289190E+00
        2   -1    0    0  501    0  0.00000000000E+00  0.00000000000E+00  0.10757726759E+04  0.10757726759E+04  0.00000000000E+00 0. -1.
       -2   -1    0    0    0  501 -0.00000000000E+00 -0.00000000000E+00 -0.30949654109E+02  0.30949654109E+02  0.00000000000E+00 0.  1.
      -24    2    1    2    0    0 -0.47119725950E+02  0.12909741217E+02  0.47295097883E+02  0.10450845734E+03  0.79361586296E+02 0.  0.
       24    2    1    2    0    0  0.47119725950E+02 -0.12909741217E+02  0.99752792396E+03  0.10022138727E+04  0.83568879419E+02 0.  0.
      -13    1    4    4    0    0  0.28079235150E+02 -0.21568430044E+01  0.87438416682E+02  0.91861701106E+02  0.00000000000E+00 0.  1.
       14    1    4    4    0    0  0.19040490800E+02 -0.10752898212E+02  0.91008950727E+03  0.91035217161E+03  0.00000000000E+00 0. -1.
        1    1    3    3  502    0  0.15761076297E+01  0.32552355990E+02  0.39842560115E+02  0.51473970046E+02  0.00000000000E+00 0. -1.
       -2    1    3    3    0  502 -0.48695833579E+02 -0.19642614773E+02  0.74525377676E+01  0.53034487291E+02  0.00000000000E+00 0.  1.
</event>
<event>
 8   1  0.2279600E-02  0.9257403E+02  0.7546771E-02  0.1300739E+00
       -1   -1    0    0    0  501 -0.00000000000E+00  0.00000000000E+00  0.30598722814E+02  0.30598722814E+02  0.00000000000E+00 0.  1.
        1   -1    0    0  501    0  0.00000000000E+00 -0.00000000000E+00 -0.91216521541E+03  0.91216521541E+03  0.00000000000E+00 0. -1.
       24    2    1    2    0    0  0.68637017184E+01  0.42186724766E+02 -0.37771844124E+02  0.93906259079E+02  0.74597876229E+02 0.  0.
      -24    2    1    2    0    0 -0.68637017184E+01 -0.42186724766E+02 -0.84379464847E+03  0.84885767915E+03  0.82116505688E+02 0.  0.
      -13    1    3    3    0    0 -0.14440489019E+01 -0.22262525024E+01  0.20218312913E+02  0.20391705531E+02  0.00000000000E+00 0.  1.
       14    1    3    3    0    0  0.83077506203E+01  0.44412977269E+02 -0.57990157036E+02  0.73514553548E+02  0.00000000000E+00 0. -1.
        3    1    4    4  502    0 -0.22621381114E+02 -0.39746404812E+02 -0.81201672796E+03  0.81330355345E+03  0.00000000000E+00 0. -1.
       -4    1    4    4    0  502  0.15757679396E+02 -0.24403199540E+01 -0.31777920514E+02  0.35554125690E+02  0.00000000000E+00 0.  1.
</event>
<event>
 8   1  0.2279600E-02  0.1044979E+03  0.7546771E-02  0.1272609E+00
       -1   -1    0    0    0  501 -0.00000000000E+00  0.00000000000E+00  0.33728526210E+02  0.33728526210E+02  0.00000000000E+00 0.  1.
        1   -1    0    0  501    0  0.00000000000E+00 -0.00000000000E+00 -0.62472764558E+03  0.62472764558E+03  0.00000000000E+00 0. -1.
       24    2    1    2    0    0 -0.48503036429E+02  0.43415580648E+02 -0.61404142104E+02  0.11865003931E+03  0.77909601303E+02 0.  0.
      -24    2    1    2    0    0  0.48503036429E+02 -0.43415580648E+02 -0.52959497726E+03  0.53980613248E+03  0.81745724844E+02 0.  0.
      -13    1    3    3    0    0  0.14883349544E+02 -0.22918568564E+01 -0.31613757156E+02  0.35017086444E+02  0.00000000000E+00 0.  1.
       14    1    3    3    0    0 -0.63386385973E+02  0.45707437505E+02 -0.29790384948E+02  0.83632952868E+02  0.00000000000E+00 0. -1.
        3    1    4    4  502    0 -0.23178474017E+02 -0.11278303760E+02 -0.14435939803E+03  0.14664268680E+03  0.00000000000E+00 0. -1.
       -4    1    4    4    0  502  0.71681510446E+02 -0.32137276888E+02 -0.38523557924E+03  0.39316344567E+03  0.00000000000E+00 0.  1.
</event>
<event>
 8   1  0.2279600E-02  0.1021179E+03  0.7546771E-02  0.1285621E+00
        1   -1    0    0  501    0  0.00000000000E+00  0.00000000000E+00  0.40856245704E+03  0.40856245704E+03  0.00000000000E+00 0. -1.
       -1   -1    0    0    0  501 -0.00000000000E+00 -0.00000000000E+00 -0.22071868085E+02  0.22071868085E+02  0.00000000000E+00 0.  1.
       24    2    1    2    0    0  0.55037514738E+02 -0.29309628000E+02  0.17311469035E+03  0.20098947154E+03  0.80869582231E+02 0.  0.
      -24    2    1    2    0    0 -0.55037514738E+02  0.29309628000E+02  0.21337589860E+03  0.22964485359E+03  0.57613386931E+02 0.  0.
      -13    1    3    3    0    0  0.40351317624E+02 -0.23143899573E+02  0.26548157739E+02  0.53560000007E+02  0.00000000000E+00 0.  1.
       14    1    3    3    0    0  0.14686197114E+02 -0.61657284278E+01  0.14656653262E+03  0.14742947153E+03  0.00000000000E+00 0. -1.
        3    1    4    4  502    0 -0.50196979023E+02  0.39802944995E+02  0.20647549182E+03  0.21618542933E+03  0.00000000000E+00 0. -1.
       -4    1    4    4    0  502 -0.48405357154E+01 -0.10493316995E+02  0.69004067819E+01  0.13459424257E+02  0.00000000000E+00 0.  1.
</event>
<event>
 8   1  0.2279600E-02  0.7994490E+02  0.7546771E-02  0.1329323E+00
       -2   -1    0    0    0  501 -0.00000000000E+00  0.00000000000E+00  0.11245787086E+02  0.11245787086E+02  0.00000000000E+00 0.  1.
        2   -1    0    0  501    0  0.00000000000E+00 -0.00000000000E+00 -0.32033659539E+04  0.32033659539E+04  0.00000000000E+00 0. -1.
      -24    2    1    2    0    0  0.86994902325E+00 -0.24249639959E+01 -0.13768454650E+03  0.15913008579E+03  0.79741536204E+02 0.  0.
       24    2    1    2    0    0 -0.86994902325E+00  0.24249639959E+01 -0.30544356204E+04  0.30554816552E+04  0.79903375061E+02 0.  0.
      -13    1    4    4    0    0 -0.19327506578E+02 -0.31858456764E+02 -0.19588089209E+04  0.19591633169E+04  0.00000000000E+00 0.  1.
       14    1    4    4    0    0  0.18457557554E+02  0.34283420759E+02 -0.10956266995E+04  0.10963183383E+04  0.00000000000E+00 0. -1.
        1    1    3    3  502    0  0.22594615031E+02  0.29158830176E+02 -0.41154941797E+02  0.55267379528E+02  0.00000000000E+00 0. -1.
       -2    1    3    3    0  502 -0.21724666008E+02 -0.31583794172E+02 -0.96529604700E+02  0.10386270626E+03  0.00000000000E+00 0.  1.
</event>
<event>
 8   1  0.2279600E-02  0.9283283E+02  0.7546771E-02  0.1298740E+00
       -1   -1    0    0    0  501 -0.00000000000E+00  0.00000000000E+00  0.31879845728E+02  0.31879845728E+02  0.00000000000E+00 0.  1.
        1   -1    0    0  501    0  0.00000000000E+00 -0.00000000000E+00 -0.27063097928E+03  0.27063097928E+03  0.00000000000E+00 0. -1.
       24    2    1    2    0    0  0.20257376869E+02  0.33741931848E+02 -0.83633941928E+02  0.12173671836E+03  0.79223185186E+02 0.  0.
      -24    2    1    2    0    0 -0.20257376869E+02 -0.33741931848E+02 -0.15511719163E+03  0.18077410665E+03  0.84077673709E+02 0.  0.
      -13    1    3    3    0    0  0.36869867690E+02  0.31159759081E+01 -0.71430571546E+01  0.37684475780E+02  0.00000000000E+00 0.  1.
       14    1    3    3    0    0 -0.16612490821E+02  0.30625955940E+02 -0.76490884773E+02  0.84052242575E+02  0.00000000000E+00 0. -1.
        3    1    4    4  502    0 -0.32179941044E+02  0.18648759179E+02 -0.46079629857E+02  0.59217033971E+02  0.00000000000E+00 0. -1.
       -4    1    4    4    0  502  0.11922564175E+02 -0.52390691028E+02 -0.10903756177E+03  0.12155707268E+03  0.00000000000E+00 0.  1.
</event>
<event>
 8   1  0.2279600E-02  0.9741251E+02  0.7546771E-02  0.1287210E+00
        2   -1    0    0  501    0  0.00000000000E+00  0.00000000000E+00  0.18235332325E+04  0.18235332325E+04  0.00000000000E+00 0. -1.
       -2   -1    0    0    0  501 -0.00000000000E+00 -0.00000000000E+00 -0.61623385076E+01  0.61623385076E+01  0.00000000000E+00 0.  1.
       24    2    1    2    0    0 -0.41933603392E+02 -0.34225611856E+02  0.53348195023E+03  0.54230267260E+03  0.80989986330E+02 0.  0.
      -24    2    1    2    0    0  0.41933603392E+02  0.34225611856E+02  0.12838889437E+04  0.12873928984E+04  0.77973299010E+02 0.  0.
      -13    1    3    3    0    0 -0.31848903549E+02  0.22006221428E+02  0.16949154115E+03  0.17385628824E+03  0.00000000000E+00 0.  1.
       14    1    3    3    0    0 -0.10084699843E+02 -0.56231833284E+02  0.36399040907E+03  0.36844638435E+03  0.00000000000E+00 0. -1.
        3    1    4    4  502    0  0.41822776559E+02  0.39059227163E+02  0.12797487730E+04  0.12810275914E+04  0.00000000000E+00 0. -1.
       -4    1    4    4    0  502  0.11082683308E+00 -0.48336153063E+01  0.41401707178E+01  0.63653069910E+01  0.00000000000E+00 0.  1.
</event>
<event>
 8   1  0.2279600E-02  0.1702374E+03  0.7546771E-02  0.1177613E+00
        2   -1    0    0  501    0  0.00000000000E+00  0.00000000000E+00  0.12041639138E+04  0.12041639138E+04  0.00000000000E+00 0. -1.
       -2   -1    0    0    0  501 -0.00000000000E+00 -0.00000000000E+00 -0.72141382612E+02  0.72141382612E+02  0.00000000000E+00 0.  1.
       24    2    1    2    0    0 -0.10114065959E+03  0.11156597745E+03  0.10870173394E+04  0.11002670062E+04  0.79400178984E+02 0.  0.
      -24    2    1    2    0    0  0.10114065959E+03 -0.11156597745E+03  0.45005191873E+02  0.17603829030E+03  0.79294463927E+02 0.  0.
      -13    1    3    3    0    0  0.57783581646E+01  0.38646009324E+02  0.19146194354E+03  0.19540874925E+03  0.00000000000E+00 0.  1.
       14    1    3    3    0    0 -0.10691901776E+03  0.72919968124E+02  0.89555539582E+03  0.90485825690E+03  0.00000000000E+00 0. -1.
        3    1    4    4  502    0  0.21125885907E+02  0.16076651700E+01  0.29857030212E+02  0.36610516190E+02  0.00000000000E+00 0. -1.
       -4    1    4    4    0  502  0.80014773685E+02 -0.11317364262E+03  0.15148161661E+02  0.13942777411E+03  0.00000000000E+00 0.  1.
</event>
<event>
 8   1  0.2279600E-02  0.1163790E+03  0.7546771E-02  0.1249609E+00
       -2   -1    0    0    0  501 -0.00000000000E+00  0.00000000000E+00  0.13990527003E+03  0.13990527003E+03  0.00000000000E+00 0.  1.
        2   -1    0    0  501    0  0.00000000000E+00 -0.00000000000E+00 -0.16008245628E+03  0.16008245628E+03  0.00000000000E+00 0. -1.
      -24    2    1    2    0    0 -0.75379932065E+02  0.31968292531E+02  0.84780498444E+02  0.14398540680E+03  0.82704042041E+02 0.  0.
       24    2    1    2    0    0  0.75379932065E+02 -0.31968292531E+02 -0.10495768469E+03  0.15600231951E+03  0.81341884847E+02 0.  0.
      -13    1    4    4    0    0  0.14539161078E+01  0.36356688448E+01  0.12287896085E+02  0.12896679813E+02  0.00000000000E+00 0.  1.
       14    1    4    4    0    0  0.73926015957E+02 -0.35603961375E+02 -0.11724558077E+03  0.14310563969E+03  0.00000000000E+00 0. -1.
        1    1    3    3  502    0 -0.48680172677E+02 -0.79335131803E+01  0.33258529709E+01  0.49434412521E+02  0.00000000000E+00 0. -1.
       -2    1    3    3    0  502 -0.26699759388E+02  0.39901805711E+02  0.81454645473E+02  0.94550994281E+02  0.00000000000E+00 0.  1.
</event>
<event>
 8   1  0.2279600E-02  0.1115309E+03  0.7546771E-02  0.1258836E+00
       -2   -1    0    0    0  501 -0.00000000000E+00  0.00000000000E+00  0.94152423837E+01  0.94152423837E+01  0.00000000000E+00 0.  1.
        2   -1    0    0  501    0  0.00000000000E+00 -0.00000000000E+00 -0.22476739698E+04  0.22476739698E+04  0.00000000000E+00 0. -1.
      -24    2    1    2    0    0 -0.32660715545E+02 -0.68212932483E+02 -0.39072030450E+03  0.40632684391E+03  0.81972075956E+02 0.  0.
       24    2    1    2    0    0  0.32660715545E+02  0.68212932483E+02 -0.18475384230E+04  0.18507623683E+04  0.78761622395E+02 0.  0.
      -13    1    4    4    0    0 -0.98500316526E+01  0.28179501277E+02 -0.20255659875E+03  0.20474443365E+03  0.00000000000E+00 0.  1.
       14    1    4    4    0    0  0.42510747198E+02  0.40033431206E+02 -0.16449818242E+04  0.16460179347E+04  0.00000000000E+00 0. -1.
        3    1    3    3  502    0  0.23775076421E+02 -0.44219129493E+02 -0.17505546327E+03  0.18211260498E+03  0.00000000000E+00 0. -1.
       -4    1    3    3    0  502 -0.56435791966E+02 -0.23993802990E+02 -0.21566484123E+03  0.22421423893E+03  0.00000000000E+00 0.  1.
</event>
<event>
 8   1  0.2279600E-02  0.8858795E+02  0.7546771E-02  0.1306820E+00
        2   -1    0    0  501    0  0.00000000000E+00  0.00000000000E+00  0.42453403644E+03  0.42453403644E+03  0.00000000000E+00 0. -1.
       -2   -1    0    0    0  501 -0.00000000000E+00 -0.00000000000E+00 -0.19945781413E+02  0.19945781413E+02  0.00000000000E+00 0.  1.
      -24    2    1    2    0    0  0.28505875749E+02 -0.18590636171E+02  0.13786419419E+03  0.16342902252E+03  0.80896926126E+02 0.  0.
       24    2    1    2    0    0 -0.28505875749E+02  0.18590636171E+02  0.26672406084E+03  0.28105079533E+03  0.81790147464E+02 0.  0.
      -13    1    4    4    0    0 -0.40643505347E+02 -0.22095671900E+01  0.24580194808E+03  0.24914930142E+03  0.00000000000E+00 0.  1.
       14    1    4    4    0    0  0.12137629598E+02  0.20800203361E+02  0.20922112756E+02  0.31901493919E+02  0.00000000000E+00 0. -1.
        1    1    3    3  502    0  0.14611942222E+02 -0.25764505382E+02  0.14371352514E+03  0.14673409931E+03  0.00000000000E+00 0. -1.
       -2    1    3    3    0  502  0.13893933527E+02  0.71738692114E+01 -0.58493309501E+01  0.16694923206E+02  0.00000000000E+00 0.  1.
</event>
<event>
 8   1  0.2279600E-02  0.9607541E+02  0.7546771E-02  0.1292300E+00
       -1   -1    0    0    0  501 -0.00000000000E+00  0.00000000000E+00  0.15651854300E+03  0.15651854300E+03  0.00000000000E+00 0.  1.
        1   -1    0    0  501    0  0.00000000000E+00 -0.00000000000E+00 -0.10279234763E+03  0.10279234763E+03  0.00000000000E+00 0. -1.
       24    2    1    2    0    0 -0.40556134119E+02 -0.90570427861E+01  0.11547499319E+03  0.15021637507E+03  0.86623641395E+02 0.  0.
      -24    2    1    2    0    0  0.40556134119E+02  0.90570427861E+01 -0.61748797819E+02  0.10909451555E+03  0.79761326802E+02 0.  0.
      -13    1    3    3    0    0 -0.64750027492E+02  0.83039328725E+01  0.88973871485E+02  0.11035339219E+03  0.00000000000E+00 0.  1.
       14    1    3    3    0    0  0.24193893373E+02 -0.17360975659E+02  0.26501121706E+02  0.39862982880E+02  0.00000000000E+00 0. -1.
        3    1    4    4  502    0  0.24398102694E+02 -0.57082995334E+01  0.15055481448E+02  0.29232167561E+02  0.00000000000E+00 0. -1.
       -4    1    4    4    0  502  0.16158031424E+02  0.14765342320E+02 -0.76804279267E+02  0.79862347994E+02  0.00000000000E+00 0.  1.
</event>
<event>
 8   1  0.2279600E-02  0.9978123E+02  0.7546771E-02  0.1290345E+00
       -2   -1    0    0    0  501 -0.00000000000E+00  0.00000000000E+00  0.15326149510E+02  0.15326149510E+02  0.00000000000E+00 0.  1.
        2   -1    0    0  501    0  0.00000000000E+00 -0.00000000000E+00 -0.14253224725E+04  0.14253224725E+04  0.00000000000E+00 0. -1.
      -24    2    1    2    0    0  0.13527789555E+02  0.13514544109E+02 -0.16467644387E+03  0.19254772257E+03  0.97931865649E+02 0.  0.
       24    2    1    2    0    0 -0.13527789555E+02 -0.13514544109E+02 -0.12453198791E+04  0.12481008995E+04  0.81046960775E+02 0.  0.
      -13    1    4    4    0    0 -0.10054817849E+02  0.31861440480E+02 -0.33990860946E+03  0.34154664913E+03  0.00000000000E+00 0.  1.
       14    1    4    4    0    0 -0.34729717068E+01 -0.45375984589E+02 -0.90541126969E+03  0.90655425033E+03  0.00000000000E+00 0. -1.
        1    1    3    3  502    0  0.32070772641E+02 -0.28300643988E+02 -0.35743207773E+02  0.55740809196E+02  0.00000000000E+00 0. -1.
       -2    1    3    3    0  502 -0.18542983085E+02  0.41815188097E+02 -0.12893323610E+03  0.13680691338E+03  0.00000000000E+00 0.  1.
</event>
<event>
 8   1  0.2279600E-02  0.9681172E+02  0.7546771E-02  0.1289345E+00
       -1   -1    0    0    0  501 -0.00000000000E+00  0.00000000000E+00  0.14239462105E+03  0.14239462105E+03  0.00000000000E+00 0.  1.
        1   -1    0    0  501    0  0.00000000000E+00 -0.00000000000E+00 -0.10405014896E+03  0.10405014896E+03  0.00000000000E+00 0. -1.
       24    2    1    2    0    0 -0.24482921517E+02 -0.45797851764E+02  0.96624396461E+02  0.13678005729E+03  0.81704671894E+02 0.  0.
      -24    2    1    2    0    0  0.24482921517E+02  0.45797851764E+02 -0.58279924370E+02  0.10966471272E+03  0.77025599369E+02 0.  0.
      -13    1    3    3    0    0  0.68793919732E+00 -0.61628717790E+02  0.41987150668E+02  0.74575417786E+02  0.00000000000E+00 0.  1.
       14    1    3    3    0    0 -0.25170860714E+02  0.15830866026E+02  0.54637245794E+02  0.62204639506E+02  0.00000000000E+00 0. -1.
        1    1    4    4  502    0  0.41555144884E+02  0.27388070024E+02 -0.66665585563E+02  0.83193970601E+02  0.00000000000E+00 0. -1.
       -2    1    4    4    0  502 -0.17072223367E+02  0.18409781740E+02  0.83856611928E+01  0.26470742114E+02  0.00000000000E+00 0.  1.
</event>
<event>
 8   1  0.2279600E-02  0.1377878E+03  0.7546771E-02  0.1216540E+00
       -2   -1    0    0    0  501 -0.00000000000E+00  0.00000000000E+00  0.62111331216E+02  0.62111331216E+02  0.00000000000E+00 0.  1.
        2   -1    0    0  501    0  0.00000000000E+00 -0.00000000000E+00 -0.40456854703E+03  0.40456854703E+03  0.00000000000E+00 0. -1.
      -24    2    1    2    0    0 -0.11068150359E+03  0.59301025993E+01 -0.54824498551E+02  0.14774717631E+03  0.80857535904E+02 0.  0.
       24    2    1    2    0    0  0.11068150359E+03 -0.59301025993E+01 -0.28763271727E+03  0.31893270194E+03  0.81853081607E+02 0.  0.
      -13    1    4    4    0    0  0.18404483557E+02 -0.40172120934E-01 -0.17721032449E+01  0.18489645175E+02  0.00000000000E+00 0.  1.
       14    1    4    4    0    0  0.92277020036E+02 -0.58899304783E+01 -0.28586061402E+03  0.30044305676E+03  0.00000000000E+00 0. -1.
        1    1    3    3  502    0  0.42541307460E+01 -0.80662077514E+01 -0.27234466725E+02  0.28720680941E+02  0.00000000000E+00 0. -1.
       -2    1    3    3    0  502 -0.11493563434E+03  0.13996310351E+02 -0.27590031826E+02  0.11902649537E+03  0.00000000000E+00 0.  1.
</event>
<event>
 8   1  0.2279600E-02  0.9088214E+02  0.7546771E-02  0.1303736E+00
        1   -1    0    0  501    0  0.00000000000E+00  0.00000000000E+00  0.17642526046E+04  0.17642526046E+04  0.00000000000E+00 0. -1.
       -1   -1    0    0    0  501 -0.00000000000E+00 -0.00000000000E+00 -0.55682395544E+01  0.55682395544E+01  0.00000000000E+00 0.  1.
       24    2    1    2    0    0 -0.15198088300E+02  0.37848688231E+02  0.46065300578E+03  0.46861180145E+03  0.75712110226E+02 0.  0.
      -24    2    1    2    0    0  0.15198088300E+02 -0.37848688231E+02  0.12980313593E+04  0.13012090427E+04  0.81216119653E+02 0.  0.
      -13    1    3    3    0    0 -0.42557514756E+02  0.34594356157E+02  0.36399436173E+03  0.36810298411E+03  0.00000000000E+00 0.  1.
       14    1    3    3    0    0  0.27359426456E+02  0.32543320740E+01  0.96658644052E+02  0.10050881734E+03  0.00000000000E+00 0. -1.
        3    1    4    4  502    0  0.77573585821E+01 -0.60643949504E+02  0.11056481013E+04  0.11073371614E+04  0.00000000000E+00 0. -1.
       -4    1    4    4    0  502  0.74407297177E+01  0.22795261274E+02  0.19238325799E+03  0.19387188128E+03  0.00000000000E+00 0.  1.
</event>
<event>
 8   1  0.2279600E-02  0.1063124E+03  0.7546771E-02  0.1268951E+00
        2   -1    0    0  501    0  0.00000000000E+00  0.00000000000E+00  0.30832406922E+04  0.30832406922E+04  0.00000000000E+00 0. -1.
       -2   -1    0    0    0  501 -0.00000000000E+00 -0.00000000000E+00 -0.52882611740E+01  0.52882611740E+01  0.00000000000E+00 0.  1.
      -24    2    1    2    0    0  0.21787311076E+02  0.61692315655E+02  0.67244037817E+03  0.68079247111E+03  0.83795571389E+02 0.  0.
       24    2    1    2    0    0 -0.21787311076E+02 -0.61692315655E+02  0.24055120528E+04  0.24077364822E+04  0.80162976997E+02 0.  0.
      -13    1    4    4    0    0 -0.36217993391E+00 -0.63786571752E+02  0.98597723382E+03  0.98803844233E+03  0.00000000000E+00 0.  1.
       14    1    4    4    0    0 -0.21425131142E+02  0.20942560969E+01  0.14195348190E+04  0.14196980399E+04  0.00000000000E+00 0. -1.
        3    1    3    3  502    0 -0.20980965095E+02 -0.30252307715E+01  0.63818210825E+02  0.67246687282E+02  0.00000000000E+00 0. -1.
       -4    1    3    3    0  502  0.42768276172E+02  0.64717546426E+02  0.60862216735E+03  0.61354578383E+03  0.00000000000E+00 0.  1.
</event>
<event>
 8   1  0.2279600E-02  0.1448513E+03  0.7546771E-02  0.1207685E+00
       -1   -1    0    0    0  501 -0.00000000000E+00  0.00000000000E+00  0.44345177449E+02  0.44345177449E+02  0.00000000000E+00 0.  1.
        1   -1    0    0  501    0  0.00000000000E+00 -0.00000000000E+00 -0.71049481631E+03  0.71049481631E+03  0.00000000000E+00 0. -1.
       24    2    1    2    0    0  0.48692639557E+02  0.10721905264E+03 -0.10983163650E+03  0.17997337280E+03  0.80377410652E+02 0.  0.
      -24    2    1    2    0    0 -0.48692639557E+02 -0.10721905264E+03 -0.55631800236E+03  0.57486662097E+03  0.84350540894E+02 0.  0.
      -13    1    3    3    0    0  0.68585111447E+02  0.61418514740E+02 -0.63370141480E+02  0.11176728634E+03  0.00000000000E+00 0.  1.
       14    1    3    3    0    0 -0.19892471889E+02  0.45800537903E+02 -0.46461495021E+02  0.68206086456E+02  0.00000000000E+00 0. -1.
        1    1    4    4  502    0 -0.20120613121E+02 -0.11377174789E+03 -0.44324175123E+03  0.45805250760E+03  0.00000000000E+00 0. -1.
       -2    1    4    4    0  502 -0.28572026437E+02  0.65526952443E+01 -0.11307625114E+03  0.11681411336E+03  0.00000000000E+00 0.  1.
</event>
<event>
 8   1  0.2279600E-02  0.9836807E+02  0.7546771E-02  0.1285943E+00
        1   -1    0    0  501    0  0.00000000000E+00  0.00000000000E+00  0.25766466774E+03  0.25766466774E+03  0.00000000000E+00 0. -1.
       -1   -1    0    0    0  501 -0.00000000000E+00 -0.00000000000E+00 -0.87041149032E+02  0.87041149032E+02  0.00000000000E+00 0.  1.
       24    2    1    2    0    0  0.17319101529E+02  0.50707879555E+02 -0.45859915723E+02  0.10853299052E+03  0.82492653212E+02 0.  0.
      -24    2    1    2    0    0 -0.17319101529E+02 -0.50707879555E+02  0.21648343443E+03  0.23617282625E+03  0.77725711004E+02 0.  0.
      -13    1    3    3    0    0  0.20820742713E+02  0.20768378500E+02 -0.66017008235E+02  0.72270839548E+02  0.00000000000E+00 0.  1.
       14    1    3    3    0    0 -0.35016411840E+01  0.29939501055E+02  0.20157092512E+02  0.36262150970E+02  0.00000000000E+00 0. -1.
        3    1    4    4  502    0 -0.31918554271E+02 -0.62657917777E+02  0.19643966407E+03  0.20864647226E+03  0.00000000000E+00 0. -1.
       -4    1    4    4    0  502  0.14599452742E+02  0.11950038221E+02  0.20043770359E+02  0.27526353992E+02  0.00000000000E+00 0.  1.
</event>
<event>
 8   1  0.2279600E-02  0.1229759E+03  0.7546771E-02  0.1242753E+00
        1   -1    0    0  501    0  0.00000000000E+00  0.00000000000E+00  0.43034954385E+03  0.43034954385E+03  0.00000000000E+00 0. -1.
       -1   -1    0    0    0  501 -0.00000000000E+00 -0.00000000000E+00 -0.10797265363E+03  0.10797265363E+03  0.00000000000E+00 0.  1.
       24    2    1    2    0    0  0.27765175278E+02  0.72914554049E+02 -0.66481577306E+02  0.13048156140E+03  0.80735373876E+02 0.  0.
      -24    2    1    2    0    0 -0.27765175278E+02 -0.72914554049E+02  0.38885846753E+03  0.40784063608E+03  0.95055980968E+02 0.  0.
      -13    1    3    3    0    0 -0.31860174128E+01  0.79891043243E+02 -0.53488819405E+02  0.96196586731E+02  0.00000000000E+00 0.  1.
       14    1    3    3    0    0  0.30951192691E+02 -0.69764891933E+01 -0.12992757902E+02  0.34284974673E+02  0.00000000000E+00 0. -1.
        1    1    4    4  502    0 -0.56325473474E+02 -0.23623610314E+02  0.25779468864E+03  0.26493156742E+03  0.00000000000E+00 0. -1.
       -2    1    4    4    0  502  0.28560298196E+02 -0.49290943736E+02  0.13106377889E+03  0.14290906865E+03  0.00000000000E+00 0.  1.
</event>
<event>
 8   1  0.2279600E-02  0.8602420E+02  0.7546771E-02  0.1313935E+00
       -1   -1    0    0    0  501 -0.00000000000E+00  0.00000000000E+00  0.59338440003E+02  0.59338440003E+02  0.00000000000E+00 0.  1.
        1   -1    0    0  501    0  0.00000000000E+00 -0.00000000000E+00 -0.54887124250E+03  0.54887124250E+03  0.00000000000E+00 0. -1.
       24    2    1    2    0    0  0.24020469912E+02  0.17103601713E+02  0.23942437245E+02  0.87578348935E+02  0.78912677907E+02 0.  0.
      -24    2    1    2    0    0 -0.24020469912E+02 -0.17103601713E+02 -0.51347523974E+03  0.52063133357E+03  0.80812421691E+02 0.  0.
      -13    1    3    3    0    0  0.37225425576E+02  0.13939447000E+02  0.46546308551E+02  0.61209470931E+02  0.00000000000E+00 0.  1.
       14    1    3    3    0    0 -0.13204955664E+02  0.31641547129E+01 -0.22603871306E+02  0.26368878003E+02  0.00000000000E+00 0. -1.
        3    1    4    4  502    0 -0.32611278580E+02 -0.14755402406E+02 -0.50970488079E+03  0.51096015783E+03  0.00000000000E+00 0. -1.
       -4    1    4    4    0  502  0.85908086680E+01 -0.23481993063E+01 -0.37703589559E+01  0.96711757408E+01  0.00000000000E+00 0.  1.
</event>
<event>
 8   1  0.2279600E-02  0.8406336E+02  0.7546771E-02  0.1318797E+00
        1   -1    0    0  501    0  0.00000000000E+00  0.00000000000E+00  0.80442705448E+03  0.80442705448E+03  0.00000000000E+00 0. -1.
       -1   -1    0    0    0  501 -0.00000000000E+00 -0.00000000000E+00 -0.14972185529E+02  0.14972185529E+02  0.00000000000E+00 0.  1.
       24    2    1    2    0    0 -0.84998466065E+01 -0.19102038873E+02  0.13023375479E+03  0.15500799610E+03  0.81421819476E+02 0.  0.
      -24    2    1    2    0    0  0.84998466065E+01  0.19102038873E+02  0.65922111416E+03  0.66439124390E+03  0.80038193043E+02 0.  0.
      -13    1    3    3    0    0 -0.29361665879E+02 -0.23418471165E+02  0.19642438458E+02  0.42383459079E+02  0.00000000000E+00 0.  1.
       14    1    3    3    0    0  0.20861819273E+02  0.43164322924E+01  0.11059131633E+03  0.11262453702E+03  0.00000000000E+00 0. -1.
        3    1    4    4  502    0  0.33247688560E+02  0.13110750205E+02  0.58167036045E+03  0.58276728528E+03  0.00000000000E+00 0. -1.
       -4    1    4    4    0  502 -0.24747841953E+02  0.59912886676E+01  0.77550753709E+02  0.81623958628E+02  0.00000000000E+00 0.  1.
</event>
<event>
 8   1  0.2279600E-02  0.3315199E+03  0.7546771E-02  0.1070950E+00
        2   -1    0    0  501    0  0.00000000000E+00  0.00000000000E+00  0.55087446555E+03  0.55087446555E+03  0.00000000000E+00 0. -1.
       -2   -1    0    0    0  501 -0.00000000000E+00 -0.00000000000E+00 -0.25450291598E+03  0.25450291598E+03  0.00000000000E+00 0.  1.
      -24    2    1    2    0    0  0.10137377062E+03 -0.30466532169E+03 -0.44163335943E+02  0.33012011043E+03  0.62699979766E+02 0.  0.
       24    2    1    2    0    0 -0.10137377062E+03  0.30466532169E+03  0.34053488551E+03  0.47525727110E+03  0.82509792596E+02 0.  0.
      -13    1    4    4    0    0 -0.59856178231E+02  0.16811227714E+03  0.12948815400E+03  0.22048057017E+03  0.00000000000E+00 0.  1.
       14    1    4    4    0    0 -0.41517592390E+02  0.13655304454E+03  0.21104673151E+03  0.25477670092E+03  0.00000000000E+00 0. -1.
        3    1    3    3  502    0 -0.58269718112E+01 -0.64312906115E+01 -0.67685982516E+01  0.11005863061E+02  0.00000000000E+00 0. -1.
       -4    1    3    3    0  502  0.10720074243E+03 -0.29823403107E+03 -0.37394737691E+02  0.31911424737E+03  0.00000000000E+00 0.  1.
</event>
<event>
 8   1  0.2279600E-02  0.8623360E+02  0.7546771E-02  0.1313183E+00
        2   -1    0    0  501    0  0.00000000000E+00  0.00000000000E+00  0.53333341289E+04  0.53333341289E+04  0.00000000000E+00 0. -1.
       -2   -1    0    0    0  501 -0.00000000000E+00 -0.00000000000E+00 -0.14001659891E+01  0.14001659891E+01  0.00000000000E+00 0.  1.
      -24    2    1    2    0    0  0.22360076873E+02 -0.15173468439E+02  0.23018584488E+04  0.23034731499E+04  0.81890335241E+02 0.  0.
       24    2    1    2    0    0 -0.22360076873E+02  0.15173468439E+02  0.30300755142E+04  0.30312611450E+04  0.80351107487E+02 0.  0.
      -13    1    4    4    0    0 -0.18835345727E+02 -0.21847752001E+02  0.45309339437E+03  0.45401070311E+03  0.00000000000E+00 0.  1.
       14    1    4    4    0    0 -0.35247311466E+01  0.37021220440E+02  0.25769821198E+04  0.25772504419E+04  0.00000000000E+00 0. -1.
        3    1    3    3  502    0  0.45467727053E+02 -0.54701103563E+01  0.20154573379E+04  0.20159775587E+04  0.00000000000E+00 0. -1.
       -4    1    3    3    0  502 -0.23107650180E+02 -0.97033580824E+01  0.28640111086E+03  0.28749559119E+03  0.00000000000E+00 0.  1.
</event>
<event>
 8   1  0.2279600E-02  0.9198990E+02  0.7546771E-02  0.1298248E+00
        2   -1    0    0  501    0  0.00000000000E+00  0.00000000000E+00  0.77020841525E+02  0.77020841525E+02  0.00000000000E+00 0. -1.
       -2   -1    0    0    0  501 -0.00000000000E+00 -0.00000000000E+00 -0.28399328183E+03  0.28399328183E+03  0.00000000000E+00 0.  1.
      -24    2    1    2    0    0 -0.35136738386E+02  0.16010630631E+02 -0.24500032580E+03  0.26170078540E+03  0.83493776785E+02 0.  0.
       24    2    1    2    0    0  0.35136738386E+02 -0.16010630631E+02  0.38027885494E+02  0.99313337951E+02  0.83223123843E+02 0.  0.
      -13    1    4    4    0    0 -0.26432322472E+02 -0.85861231875E+01  0.26528900843E+01  0.27918220009E+02  0.00000000000E+00 0.  1.
       14    1    4    4    0    0  0.61569060858E+02 -0.74245074432E+01  0.35374995410E+02  0.71395117942E+02  0.00000000000E+00 0. -1.
        1    1    3    3  502    0 -0.35025662539E+02  0.20900432922E+02 -0.41662977606E+02  0.58304621048E+02  0.00000000000E+00 0. -1.
       -2    1    3    3    0  502 -0.11107584673E+00 -0.48898022913E+01 -0.20333734819E+03  0.20339616435E+03  0.00000000000E+00 0.  1.
</event>
<event>
 8   1  0.2279600E-02  0.1148917E+03  0.7546771E-02  0.1253202E+00
        1   -1    0    0  501    0  0.00000000000E+00  0.00000000000E+00  0.13814870594E+03  0.13814870594E+03  0.00000000000E+00 0. -1.
       -1   -1    0    0    0  501 -0.00000000000E+00 -0.00000000000E+00 -0.10234628776E+03  0.10234628776E+03  0.00000000000E+00 0.  1.
       24    2    1    2    0    0 -0.34166667843E+02  0.72885890578E+02 -0.18423385315E+02  0.11635950867E+03  0.81978045196E+02 0.  0.
      -24    2    1    2    0    0  0.34166667843E+02 -0.72885890578E+02  0.54225803495E+02  0.12413548503E+03  0.77391644526E+02 0.  0.
      -13    1    3    3    0    0 -0.59398157950E+01  0.28989870373E+02 -0.47988197695E+02  0.56378729268E+02  0.00000000000E+00 0.  1.
       14    1    3    3    0    0 -0.28226852048E+02  0.43896020206E+02  0.29564812379E+02  0.59980779400E+02  0.00000000000E+00 0. -1.
        1    1    4    4  502    0  0.46230533863E+01 -0.80738189436E+02  0.35779961806E+02  0.88432084239E+02  0.00000000000E+00 0. -1.
       -2    1    4    4    0  502  0.29543614457E+02  0.78522988576E+01  0.18445841689E+02  0.35703400793E+02  0.00000000000E+00 0.  1.
</event>
<event>
 8   1  0.2279600E-02  0.9590012E+02  0.7546771E-02  0.1292259E+00
       -1   -1    0    0    0  501 -0.00000000000E+00  0.00000000000E+00  0.92396279164E+02  0.92396279164E+02  0.00000000000E+00 0.  1.
        1   -1    0    0  501    0  0.00000000000E+00 -0.00000000000E+00 -0.14311416207E+03  0.14311416207E+03  0.00000000000E+00 0. -1.
       24    2    1    2    0    0  0.83510050407E+01  0.33422607513E+02  0.44079792447E+02  0.10066448645E+03  0.83686921029E+02 0.  0.
      -24    2    1    2    0    0 -0.83510050407E+01 -0.33422607513E+02 -0.94797675350E+02  0.13484595479E+03  0.89498727879E+02 0.  0.
      -13    1    3    3    0    0  0.72490508200E+01  0.42917312371E+02  0.64676291177E+02  0.77958111056E+02  0.00000000000E+00 0.  1.
       14    1    3    3    0    0  0.11019542208E+01 -0.94947048580E+01 -0.20596498730E+02  0.22706375391E+02  0.00000000000E+00 0. -1.
        1    1    4    4  502    0  0.15875505026E+02 -0.39002276304E+02 -0.10082480588E+03  0.10926504792E+03  0.00000000000E+00 0. -1.
       -2    1    4    4    0  502 -0.24226510066E+02  0.55796687902E+01  0.60271305247E+01  0.25580906868E+02  0.00000000000E+00 0.  1.
</event>
<event>
 8   1  0.2279600E-02  0.9380668E+02  0.7546771E-02  0.1296400E+00
        2   -1    0    0  501    0  0.00000000000E+00  0.00000000000E+00  0.18844486205E+04  0.18844486205E+04  0.00000000000E+00 0. -1.
       -2   -1    0    0    0  501 -0.00000000000E+00 -0.00000000000E+00 -0.15711828533E+03  0.15711828533E+03  0.00000000000E+00 0.  1.
       24    2    1    2    0    0  0.22489840343E+02 -0.38955610441E+02  0.18704239756E+04  0.18727748241E+04  0.82318654643E+02 0.  0.
      -24    2    1    2    0    0 -0.22489840343E+02  0.38955610441E+02 -0.14309364042E+03  0.16879208171E+03  0.77405713063E+02 0.  0.
      -13    1    3    3    0    0 -0.22227326687E+02 -0.40889882288E+02  0.11674967347E+04  0.11684240078E+04  0.00000000000E+00 0.  1.
       14    1    3    3    0    0  0.44717167031E+02  0.19342718469E+01  0.70292724089E+03  0.70435081630E+03  0.00000000000E+00 0. -1.
        1    1    4    4  502    0  0.10966826583E+02  0.29103647898E+02 -0.12328513365E+02  0.33455729675E+02  0.00000000000E+00 0. -1.
       -2    1    4    4    0  502 -0.33456666926E+02  0.98519625427E+01 -0.13076512705E+03  0.13533635203E+03  0.00000000000E+00 0.  1.
</event>
<event>
 8   1  0.2279600E-02  0.1191357E+03  0.7546771E-02  0.1244921E+00
        2   -1    0    0  501    0  0.00000000000E+00  0.00000000000E+00  0.31252314231E+03  0.31252314231E+03  0.00000000000E+00 0. -1.
       -2   -1    0    0    0  501 -0.00000000000E+00 -0.00000000000E+00 -0.73306006020E+02  0.73306006020E+02  0.00000000000E+00 0.  1.
      -24    2    1    2    0    0 -0.45834297337E+01 -0.87656312787E+02  0.14772904167E+00  0.11913583967E+03  0.80552402016E+02 0.  0.
       24    2    1    2    0    0  0.45834297337E+01  0.87656312787E+02  0.23906940725E+03  0.26669330866E+03  0.79161243059E+02 0.  0.
      -13    1    4    4    0    0  0.26920274516E+02  0.50994769417E+02  0.20168667631E+03  0.20976816510E+03  0.00000000000E+00 0.  1.
       14    1    4    4    0    0 -0.22336844782E+02  0.36661543370E+02  0.37382730937E+02  0.56925143560E+02  0.00000000000E+00 0. -1.
        1    1    3    3  502    0  0.15132365323E+02 -0.96051953348E+02  0.41991486182E+01  0.97327278146E+02  0.00000000000E+00 0. -1.
       -2    1    3    3    0  502 -0.19715795057E+02  0.83956405609E+01 -0.40514195765E+01  0.21808561524E+02  0.00000000000E+00 0.  1.
</event>
<event>
 8   1  0.2279600E-02  0.9366835E+02  0.7546771E-02  0.1295723E+00
       -1   -1    0    0    0  501 -0.00000000000E+00  0.00000000000E+00  0.12420309750E+03  0.12420309750E+03  0.00000000000E+00 0.  1.
        1   -1    0    0  501    0  0.00000000000E+00 -0.00000000000E+00 -0.35999532484E+03  0.35999532484E+03  0.00000000000E+00 0. -1.
       24    2    1    2    0    0 -0.40613527321E+02 -0.89430903299E+01  0.99563674232E+02  0.13669924814E+03  0.83930457815E+02 0.  0.
      -24    2    1    2    0    0  0.40613527321E+02  0.89430903299E+01 -0.33535590157E+03  0.34749917420E+03  0.81010233201E+02 0.  0.
      -13    1    3    3    0    0 -0.21270633821E+02 -0.18305968506E+02  0.10948888086E+03  0.11302815304E+03  0.00000000000E+00 0.  1.
       14    1    3    3    0    0 -0.19342893500E+02  0.93628781760E+01 -0.99252066310E+01  0.23671095103E+02  0.00000000000E+00 0. -1.
        1    1    4    4  502    0  0.65610619673E+02  0.65828340958E+01 -0.24026659260E+03  0.24915080300E+03  0.00000000000E+00 0. -1.
       -2    1    4    4    0  502 -0.24997092352E+02  0.23602562341E+01 -0.95089308974E+02  0.98348371195E+02  0.00000000000E+00 0.  1.
</event>
<event>
 8   1  0.2279600E-02  0.8805015E+02  0.7546771E-02  0.1310715E+00
       -2   -1    0    0    0  501 -0.00000000000E+00  0.00000000000E+00  0.63260785067E+02  0.63260785067E+02  0.00000000000E+00 0.  1.
        2   -1    0    0  501    0  0.00000000000E+00 -0.00000000000E+00 -0.23931887735E+03  0.23931887735E+03  0.00000000000E+00 0. -1.
      -24    2    1    2    0    0 -0.11094068174E+02 -0.20225860909E+02  0.19365495144E+02  0.90154596408E+02  0.84974496486E+02 0.  0.
       24    2    1    2    0    0  0.11094068174E+02  0.20225860909E+02 -0.19542358743E+03  0.21242506601E+03  0.80011663823E+02 0.  0.
      -13    1    4    4    0    0 -0.19688652784E+02  0.37121692069E+02 -0.65338003050E+02  0.77683445553E+02  0.00000000000E+00 0.  1.
       14    1    4    4    0    0  0.30782720958E+02 -0.16895831160E+02 -0.13008558438E+03  0.13474162045E+03  0.00000000000E+00 0. -1.
        3    1    3    3  502    0  0.29420471050E+02  0.15698590664E+02  0.24975507048E+01  0.33440209706E+02  0.00000000000E+00 0. -1.
       -4    1    3    3    0  502 -0.40514539224E+02 -0.35924451573E+02  0.16867944439E+02  0.56714386702E+02  0.00000000000E+00 0.  1.
</event>
<event>
 8   1  0.2279600E-02  0.1322025E+03  0.7546771E-02  0.1224676E+00
        1   -1    0    0  501    0  0.00000000000E+00  0.00000000000E+00  0.64178849456E+02  0.64178849456E+02  0.00000000000E+00 0. -1.
       -1   -1    0    0    0  501 -0.00000000000E+00 -0.00000000000E+00 -0.45376521668E+03  0.45376521668E+03  0.00000000000E+00 0.  1.
       24    2    1    2    0    0  0.79951975840E+02 -0.65670882682E+02 -0.35915090796E+03  0.38228339954E+03  0.80288477356E+02 0.  0.
      -24    2    1    2    0    0 -0.79951975840E+02  0.65670882682E+02 -0.30435459260E+02  0.13566066660E+03  0.82295297614E+02 0.  0.
      -13    1    3    3    0    0  0.85484655975E+02 -0.42316287703E+02 -0.33467919133E+03  0.34800640184E+03  0.00000000000E+00 0.  1.
       14    1    3    3    0    0 -0.55326801347E+01 -0.23354594979E+02 -0.24471716638E+02  0.34276997700E+02  0.00000000000E+00 0. -1.
        1    1    4    4  502    0 -0.97314311366E+02  0.56431233851E+02 -0.27119850007E+02  0.11571536464E+03  0.00000000000E+00 0. -1.
       -2    1    4    4    0  502  0.17362335525E+02  0.92396488310E+01 -0.33156092532E+01  0.19945301956E+02  0.00000000000E+00 0.  1.
</event>
<event>
 8   1  0.2279600E-02  0.1042968E+03  0.7546771E-02  0.1271689E+00
        1   -1    0    0  501    0  0.00000000000E+00  0.00000000000E+00  0.20965589188E+04  0.20965589188E+04  0.00000000000E+00 0. -1.
       -1   -1    0    0    0  501 -0.00000000000E+00 -0.00000000000E+00 -0.65060958486E+01  0.65060958486E+01  0.00000000000E+00 0.  1.
       24    2    1    2    0    0 -0.59342471631E+02 -0.31751847077E+02  0.56719552192E+03  0.57664037632E+03  0.79206406183E+02 0.  0.
      -24    2    1    2    0    0  0.59342471631E+02  0.31751847077E+02  0.15228573010E+04  0.15264246383E+04  0.79675017853E+02 0.  0.
      -13    1    3    3    0    0 -0.37821539439E+01  0.16579326098E+02  0.26713473311E+03  0.26767544597E+03  0.00000000000E+00 0.  1.
       14    1    3    3    0    0 -0.55560317687E+02 -0.48331173175E+02  0.30006078881E+03  0.30896493035E+03  0.00000000000E+00 0. -1.
        3    1    4    4  502    0 -0.14416093210E+02 -0.96299596126E+01  0.15770098996E+03  0.15865107027E+03  0.00000000000E+00 0. -1.
       -4    1    4    4    0  502  0.73758564841E+02  0.41381806690E+02  0.13651563111E+04  0.13677735680E+04  0.00000000000E+00 0.  1.
</event>
<event>
 8   1  0.2279600E-02  0.9702472E+02  0.7546771E-02  0.1287862E+00
       -1   -1    0    0    0  501 -0.00000000000E+00  0.00000000000E+00  0.56889583775E+01  0.56889583775E+01  0.00000000000E+00 0.  1.
        1   -1    0    0  501    0  0.00000000000E+00 -0.00000000000E+00 -0.16343534065E+04  0.16343534065E+04  0.00000000000E+00 0. -1.
       24    2    1    2    0    0 -0.50898582192E+02  0.19345536683E+01 -0.72474988940E+03  0.73093548098E+03  0.80061644986E+02 0.  0.
      -24    2    1    2    0    0  0.50898582192E+02 -0.19345536683E+01 -0.90391455868E+03  0.90910688385E+03  0.82579590205E+02 0.  0.
      -13    1    3    3    0    0 -0.53084492555E+02  0.32198520597E+02 -0.40251255476E+03  0.40727271554E+03  0.00000000000E+00 0.  1.
       14    1    3    3    0    0  0.21859103631E+01 -0.30263966929E+02 -0.32223733464E+03  0.32366276544E+03  0.00000000000E+00 0. -1.
        3    1    4    4  502    0  0.43783226067E+02  0.87263461900E+01 -0.88575613168E+03  0.88688051326E+03  0.00000000000E+00 0. -1.
       -4    1    4    4    0  502  0.71153561251E+01 -0.10660899858E+02 -0.18158426998E+02  0.22226370590E+02  0.00000000000E+00 0.  1.
</event>
<event>
 8   1  0.2279600E-02  0.2837757E+03  0.7546771E-02  0.1093770E+00
        1   -1    0    0  501    0  0.00000000000E+00  0.00000000000E+00  0.22595625813E+04  0.22595625813E+04  0.00000000000E+00 0. -1.
       -1   -1    0    0    0  501 -0.00000000000E+00 -0.00000000000E+00 -0.87913437219E+02  0.87913437219E+02  0.00000000000E+00 0.  1.
       24    2    1    2    0    0 -0.10296233797E+03 -0.25149946317E+03  0.17900763176E+03  0.33472943162E+03  0.78401767512E+02 0.  0.
      -24    2    1    2    0    0  0.10296233797E+03  0.25149946317E+03  0.19926415124E+04  0.20127465869E+04  0.81703142284E+02 0.  0.
      -13    1    3    3    0    0 -0.11426433565E+03 -0.22620679770E+03  0.17157911146E+03  0.30604778257E+03  0.00000000000E+00 0.  1.
       14    1    3    3    0    0  0.11301997685E+02 -0.25292665468E+02  0.74285203023E+01  0.28681649047E+02  0.00000000000E+00 0. -1.
        3    1    4    4  502    0  0.91309389182E+02  0.24519164097E+03  0.19619187394E+04  0.19792881259E+04  0.00000000000E+00 0. -1.
       -4    1    4    4    0  502  0.11652948785E+02  0.63078221926E+01  0.30722772916E+02  0.33458460990E+02  0.00000000000E+00 0.  1.
</event>
<event>
 8   1  0.2279600E-02  0.1034001E+03  0.7546771E-02  0.1274790E+00
        2   -1    0    0  501    0  0.00000000000E+00  0.00000000000E+00  0.22860989615E+04  0.22860989615E+04  0.00000000000E+00 0. -1.
       -2   -1    0    0    0  501 -0.00000000000E+00 -0.00000000000E+00 -0.73052227855E+01  0.73052227855E+01  0.00000000000E+00 0.  1.
      -24    2    1    2    0    0  0.48015028244E+02 -0.36901530167E+02  0.42459304504E+03  0.43632266080E+03  0.80193793805E+02 0.  0.
       24    2    1    2    0    0 -0.48015028244E+02  0.36901530167E+02  0.18542006936E+04  0.18570815235E+04  0.83811732970E+02 0.  0.
      -13    1    4    4    0    0  0.11961141597E+01  0.41424982736E+02  0.42236822701E+03  0.42439648805E+03  0.00000000000E+00 0.  1.
       14    1    4    4    0    0 -0.49211142404E+02 -0.45234525693E+01  0.14318324666E+04  0.14326850354E+04  0.00000000000E+00 0. -1.
        3    1    3    3  502    0 -0.10055600122E+02  0.17457575321E+02  0.65650156592E+02  0.68671865349E+02  0.00000000000E+00 0. -1.
       -4    1    3    3    0  502  0.58070628366E+02 -0.54359105488E+02  0.35894288845E+03  0.36765079545E+03  0.00000000000E+00 0.  1.
</event>
<event>
 8   1  0.2279600E-02  0.9558930E+02  0.7546771E-02  0.1291025E+00
       -2   -1    0    0    0  501 -0.00000000000E+00  0.00000000000E+00  0.27644805682E+02  0.27644805682E+02  0.00000000000E+00 0.  1.
        2   -1    0    0  501    0  0.00000000000E+00 -0.00000000000E+00 -0.41183046059E+03  0.41183046059E+03  0.00000000000E+00 0. -1.
       24    2    1    2    0    0 -0.18942224781E+02  0.46824108175E+02 -0.29556114780E+03  0.31063436052E+03  0.81154228836E+02 0.  0.
      -24    2    1    2    0    0  0.18942224781E+02 -0.46824108175E+02 -0.88624507102E+02  0.12884090575E+03  0.78704324847E+02 0.  0.
      -13    1    3    3    0    0  0.29402563369E+02  0.34855213386E+02 -0.15093114880E+03  0.15766930047E+03  0.00000000000E+00 0.  1.
       14    1    3    3    0    0 -0.48344788150E+02  0.11968894789E+02 -0.14462999900E+03  0.15296506005E+03  0.00000000000E+00 0. -1.
        3    1    4    4  502    0 -0.65811760896E+01  0.91905128518E+01  0.82985514545E+01  0.14022958370E+02  0.00000000000E+00 0. -1.
       -4    1    4    4    0  502  0.25523400871E+02 -0.56014621027E+02 -0.96923058557E+02  0.11481794738E+03  0.00000000000E+00 0.  1.
</event>
<event>
 8   1  0.2279600E-02  0.1538754E+03  0.7546771E-02  0.1198549E+00
       -1   -1    0    0    0  501 -0.00000000000E+00  0.00000000000E+00  0.74789567149E+03  0.74789567149E+03  0.00000000000E+00 0.  1.
        1   -1    0    0  501    0  0.00000000000E+00 -0.00000000000E+00 -0.29838040543E+02  0.29838040543E+02  0.00000000000E+00 0. -1.
       24    2    1    2    0    0 -0.12111314841E+03  0.95207774632E+00  0.35118704746E+03  0.37989999050E+03  0.79513264991E+02 0.  0.
      -24    2    1    2    0    0  0.12111314841E+03 -0.95207774632E+00  0.36687058348E+03  0.39783372153E+03  0.94912295255E+02 0.  0.
      -13    1    3    3    0    0 -0.12928739453E+03  0.36206782076E+01  0.34703066271E+03  0.37034932234E+03  0.00000000000E+00 0.  1.
       14    1    3    3    0    0  0.81742461259E+01 -0.26686004613E+01  0.41563847503E+01  0.95506681620E+01  0.00000000000E+00 0. -1.
        3    1    4    4  502    0  0.97189165230E+02 -0.32768817832E+02  0.18375397201E+03  0.21044013754E+03  0.00000000000E+00 0. -1.
       -4    1    4    4    0  502  0.23923983177E+02  0.31816740086E+02  0.18311661148E+03  0.18739358399E+03  0.00000000000E+00 0.  1.
</event>
<event>
 8   1  0.2279600E-02  0.8289937E+02  0.7546771E-02  0.1321270E+00
       -3   -1    0    0    0  501 -0.00000000000E+00  0.00000000000E+00  0.83057100565E+03  0.83057100565E+03  0.00000000000E+00 0.  1.
        3   -1    0    0  501    0  0.00000000000E+00 -0.00000000000E+00 -0.31450277302E+02  0.31450277302E+02  0.00000000000E+00 0. -1.
       24    2    1    2    0    0 -0.12194613811E+02  0.10886533546E+02  0.77008262719E+03  0.77453183202E+03  0.81271648751E+02 0.  0.
      -24    2    1    2    0    0  0.12194613811E+02 -0.10886533546E+02  0.29038101157E+02  0.87489450933E+02  0.80894792707E+02 0.  0.
      -13    1    3    3    0    0 -0.44734663213E+02  0.59971853793E+01  0.56772320965E+03  0.56951452931E+03  0.00000000000E+00 0.  1.
       14    1    3    3    0    0  0.32540049402E+02  0.48893481666E+01  0.20235941754E+03  0.20501730270E+03  0.00000000000E+00 0. -1.
        3    1    4    4  502    0  0.18893300187E+02 -0.16610329365E+02 -0.23375416105E+02  0.34340499584E+02  0.00000000000E+00 0. -1.
       -4    1    4    4    0  502 -0.66986863768E+01  0.57237958192E+01  0.52413517262E+02  0.53148951349E+02  0.00000000000E+00 0.  1.
</event>
<event>
 8   1  0.2279600E-02  0.8027079E+02  0.7546771E-02  0.1332057E+00
        2   -1    0    0  501    0  0.00000000000E+00  0.00000000000E+00  0.34661134062E+04  0.34661134062E+04  0.00000000000E+00 0. -1.
       -2   -1    0    0    0  501 -0.00000000000E+00 -0.00000000000E+00 -0.27533710562E+03  0.27533710562E+03  0.00000000000E+00 0.  1.
      -24    2    1    2    0    0 -0.85186329154E+01  0.80962635793E+01 -0.26907028219E+03  0.28078856181E+03  0.79405812733E+02 0.  0.
       24    2    1    2    0    0  0.85186329154E+01 -0.80962635793E+01  0.34598465827E+04  0.34606619500E+04  0.74193256444E+02 0.  0.
      -13    1    4    4    0    0 -0.14759199557E+02  0.14928056176E+02  0.34211100999E+03  0.34275446603E+03  0.00000000000E+00 0.  1.
       14    1    4    4    0    0  0.23277832473E+02 -0.23024319756E+02  0.31177355727E+04  0.31179074839E+04  0.00000000000E+00 0. -1.
        3    1    3    3  502    0 -0.22211033108E+01 -0.35556977423E+02 -0.10426305183E+03  0.11018174041E+03  0.00000000000E+00 0. -1.
       -4    1    3    3    0  502 -0.62975296046E+01  0.43653241002E+02 -0.16480723036E+03  0.17060682140E+03  0.00000000000E+00 0.  1.
</event>
<event>
 8   1  0.2279600E-02  0.8574583E+02  0.7546771E-02  0.1317839E+00
        1   -1    0    0  501    0  0.00000000000E+00  0.00000000000E+00  0.69976874860E+02  0.69976874860E+02  0.00000000000E+00 0. -1.
       -1   -1    0    0    0  501 -0.00000000000E+00 -0.00000000000E+00 -0.16070485020E+03  0.16070485020E+03  0.00000000000E+00 0.  1.
       24    2    1    2    0    0  0.17069058300E+01 -0.40017413672E+01 -0.11669676353E+03  0.14108972740E+03  0.79178589885E+02 0.  0.
      -24    2    1    2    0    0 -0.17069058300E+01  0.40017413672E+01  0.25968788199E+02  0.89591997659E+02  0.85635393516E+02 0.  0.
      -13    1    3    3    0    0  0.38729292905E+02 -0.13362531481E+02 -0.64592603711E+02  0.76489998240E+02  0.00000000000E+00 0.  1.
       14    1    3    3    0    0 -0.37022387075E+02  0.93607901141E+01 -0.52104159823E+02  0.64599729157E+02  0.00000000000E+00 0. -1.
        3    1    4    4  502    0 -0.40490184140E+02 -0.13745742759E+02  0.90452451873E+01  0.43706028373E+02  0.00000000000E+00 0. -1.
       -4    1    4    4    0  502  0.38783278310E+02  0.17747484126E+02  0.16923543012E+02  0.45885969286E+02  0.00000000000E+00 0.  1.
</event>
<event>
 8   1  0.2279600E-02  0.8568285E+02  0.7546771E-02  0.1313777E+00
       -2   -1    0    0    0  501 -0.00000000000E+00  0.00000000000E+00  0.64743543686E+03  0.64743543686E+03  0.00000000000E+00 0.  1.
        2   -1    0    0  501    0  0.00000000000E+00 -0.00000000000E+00 -0.79698806129E+02  0.79698806129E+02  0.00000000000E+00 0. -1.
      -24    2    1    2    0    0  0.23013994360E+02 -0.11129068060E+02  0.62059647730E+03  0.62645795562E+03  0.81584817429E+02 0.  0.
       24    2    1    2    0    0 -0.23013994360E+02  0.11129068060E+02 -0.52859846568E+02  0.10067628737E+03  0.81780507252E+02 0.  0.
      -13    1    4    4    0    0 -0.23618848875E+02 -0.17187156166E+02  0.10686563609E+02  0.31103874373E+02  0.00000000000E+00 0.  1.
       14    1    4    4    0    0  0.60485451467E+00  0.28316224226E+02 -0.63546410176E+02  0.69572412993E+02  0.00000000000E+00 0. -1.
        1    1    3    3  502    0 -0.13180920200E+02 -0.77833204503E+01  0.22242110410E+02  0.27000522403E+02  0.00000000000E+00 0. -1.
       -2    1    3    3    0  502  0.36194914560E+02 -0.33457476095E+01  0.59835436689E+03  0.59945743322E+03  0.00000000000E+00 0.  1.
</event>
<event>
 8   1  0.2279600E-02  0.8868408E+02  0.7546771E-02  0.1306208E+00
        1   -1    0    0  501    0  0.00000000000E+00  0.00000000000E+00  0.71991823743E+02  0.71991823743E+02  0.00000000000E+00 0. -1.
       -1   -1    0    0    0  501 -0.00000000000E+00 -0.00000000000E+00 -0.19887781758E+03  0.19887781758E+03  0.00000000000E+00 0.  1.
       24    2    1    2    0    0  0.11704467170E+01  0.37784913466E+02 -0.15445968435E+03  0.17799782790E+03  0.79977265619E+02 0.  0.
      -24    2    1    2    0    0 -0.11704467170E+01 -0.37784913466E+02  0.27573690508E+02  0.92871813430E+02  0.80223411111E+02 0.  0.
      -13    1    3    3    0    0 -0.25678084141E+02  0.28490036626E+02 -0.14179565798E+03  0.14689130272E+03  0.00000000000E+00 0.  1.
       14    1    3    3    0    0  0.26848530858E+02  0.92948768403E+01 -0.12664026363E+02  0.31106525175E+02  0.00000000000E+00 0. -1.
        3    1    4    4  502    0  0.37133333157E+02 -0.30382189339E+02  0.61709658403E+01  0.48373987636E+02  0.00000000000E+00 0. -1.
       -4    1    4    4    0  502 -0.38303779874E+02 -0.74027241271E+01  0.21402724668E+02  0.44497825794E+02  0.00000000000E+00 0.  1.
</event>
<event>
 8   1  0.2279600E-02  0.9539413E+02  0.7546771E-02  0.1292228E+00
       -1   -1    0    0    0  501 -0.00000000000E+00  0.00000000000E+00  0.10730671628E+02  0.10730671628E+02  0.00000000000E+00 0.  1.
        1   -1    0    0  501    0  0.00000000000E+00 -0.00000000000E+00 -0.20184441467E+04  0.20184441467E+04  0.00000000000E+00 0. -1.
       24    2    1    2    0    0  0.45228264881E+02 -0.25119040594E+02 -0.21414903046E+03  0.23307530658E+03  0.76077126294E+02 0.  0.
      -24    2    1    2    0    0 -0.45228264881E+02  0.25119040594E+02 -0.17935644446E+04  0.17960995117E+04  0.80146596833E+02 0.  0.
      -13    1    3    3    0    0  0.23220601169E+02 -0.41443352266E+02 -0.19215183944E+03  0.19793705354E+03  0.00000000000E+00 0.  1.
       14    1    3    3    0    0  0.22007663712E+02  0.16324311672E+02 -0.21997191025E+02  0.35138253039E+02  0.00000000000E+00 0. -1.
        3    1    4    4  502    0 -0.59942600660E+02  0.41756716458E+02 -0.13343927986E+04  0.13363909905E+04  0.00000000000E+00 0. -1.
       -4    1    4    4    0  502  0.14714335779E+02 -0.16637675864E+02 -0.45917164605E+03  0.45970852120E+03  0.00000000000E+00 0.  1.
</event>
<event>
 8   1  0.2279600E-02  0.1022162E+03  0.7546771E-02  0.1279933E+00
       -1   -1    0    0    0  501 -0.00000000000E+00  0.00000000000E+00  0.55544237856E+01  0.55544237856E+01  0.00000000000E+00 0.  1.
        1   -1    0    0  501    0  0.00000000000E+00 -0.00000000000E+00 -0.46940146455E+04  0.46940146455E+04  0.00000000000E+00 0. -1.
       24    2    1    2    0    0  0.40111051757E+02 -0.51773565007E+02 -0.44503589609E+03  0.45491382204E+03  0.67825055596E+02 0.  0.
      -24    2    1    2    0    0 -0.40111051757E+02  0.51773565007E+02 -0.42434243256E+04  0.42446552472E+04  0.78477781403E+02 0.  0.
      -13    1    3    3    0    0  0.10576776278E+02 -0.61254092161E+02 -0.32793641563E+03  0.33377571017E+03  0.00000000000E+00 0.  1.
       14    1    3    3    0    0  0.29534275479E+02  0.94805271540E+01 -0.11709948046E+03  0.12113811187E+03  0.00000000000E+00 0. -1.
        1    1    4    4  502    0 -0.37583910032E+02  0.54960414803E+02 -0.42320820684E+04  0.42326057968E+04  0.00000000000E+00 0. -1.
       -2    1    4    4    0  502 -0.25271417250E+01 -0.31868497960E+01 -0.11342257190E+02  0.12049450406E+02  0.00000000000E+00 0.  1.
</event>
<event>
 8   1  0.2279600E-02  0.8562273E+02  0.7546771E-02  0.1315372E+00
        1   -1    0    0  501    0  0.00000000000E+00  0.00000000000E+00  0.20284732650E+04  0.20284732650E+04  0.00000000000E+00 0. -1.
       -1   -1    0    0    0  501 -0.00000000000E+00 -0.00000000000E+00 -0.35443232968E+01  0.35443232968E+01  0.00000000000E+00 0.  1.
       24    2    1    2    0    0 -0.17666214488E+02  0.18099001244E+02  0.11194734094E+04  0.11227430547E+04  0.81802098889E+02 0.  0.
      -24    2    1    2    0    0  0.17666214488E+02 -0.18099001244E+02  0.90545553230E+03  0.90927453366E+03  0.79314485554E+02 0.  0.
      -13    1    3    3    0    0  0.88744457480E+01  0.28947443028E+02  0.97402733999E+03  0.97449780363E+03  0.00000000000E+00 0.  1.
       14    1    3    3    0    0 -0.26540660236E+02 -0.10848441784E+02  0.14544606944E+03  0.14824525103E+03  0.00000000000E+00 0. -1.
        1    1    4    4  502    0  0.10421890809E+02 -0.48589439124E+02  0.65151684629E+03  0.65340932837E+03  0.00000000000E+00 0. -1.
       -2    1    4    4    0  502  0.72443236788E+01  0.30490437881E+02  0.25393868601E+03  0.25586520529E+03  0.00000000000E+00 0.  1.
</event>
<event>
 8   1  0.2279600E-02  0.1374040E+03  0.7546771E-02  0.1220313E+00
       -2   -1    0    0    0  501 -0.00000000000E+00  0.00000000000E+00  0.13526417445E+02  0.13526417445E+02  0.00000000000E+00 0.  1.
        2   -1    0    0  501    0  0.00000000000E+00 -0.00000000000E+00 -0.13009450126E+04  0.13009450126E+04  0.00000000000E+00 0. -1.
       24    2    1    2    0    0  0.86820458216E+02 -0.45704986771E+02 -0.68661633928E+03  0.70022985613E+03  0.96193119676E+02 0.  0.
      -24    2    1    2    0    0 -0.86820458216E+02  0.45704986771E+02 -0.60080225587E+03  0.61424157391E+03  0.81869546693E+02 0.  0.
      -13    1    3    3    0    0  0.64404933907E+02 -0.38104279693E+02 -0.20840294745E+03  0.22143107314E+03  0.00000000000E+00 0.  1.
       14    1    3    3    0    0  0.22415524310E+02 -0.76007070783E+01 -0.47821339182E+03  0.47879878300E+03  0.00000000000E+00 0. -1.
        1    1    4    4  502    0 -0.50543235387E+02  0.34996240230E+02 -0.15364803103E+03  0.16549040127E+03  0.00000000000E+00 0. -1.
       -2    1    4    4    0  502 -0.36277222829E+02  0.10708746541E+02 -0.44715422484E+03  0.44875117263E+03  0.00000000000E+00 0.  1.
</event>
<event>
 8   1  0.2279600E-02  0.9436284E+02  0.7546771E-02  0.1299693E+00
       -1   -1    0    0    0  501 -0.00000000000E+00  0.00000000000E+00  0.13147204394E+02  0.13147204394E+02  0.00000000000E+00 0.  1.
        1   -1    0    0  501    0  0.00000000000E+00 -0.00000000000E+00 -0.15381355566E+04  0.15381355566E+04  0.00000000000E+00 0. -1.
       24    2    1    2    0    0  0.14514107232E+02  0.17235338069E+02 -0.13675306854E+03  0.15984409987E+03  0.79630511242E+02 0.  0.
      -24    2    1    2    0    0 -0.14514107232E+02 -0.17235338069E+02 -0.13882352837E+04  0.13914386611E+04  0.91633119954E+02 0.  0.
      -13    1    3    3    0    0  0.81850926036E+01  0.49099105524E+02 -0.91105584669E+02  0.10381688428E+03  0.00000000000E+00 0.  1.
       14    1    3    3    0    0  0.63290146283E+01 -0.31863767456E+02 -0.45647483874E+02  0.56027215589E+02  0.00000000000E+00 0. -1.
        1    1    4    4  502    0 -0.10382805224E+02 -0.41050339533E+02 -0.12726000354E+04  0.12733042775E+04  0.00000000000E+00 0. -1.
       -2    1    4    4    0  502 -0.41313020082E+01  0.23815001464E+02 -0.11563524824E+03  0.11813438359E+03  0.00000000000E+00 0.  1.
</event>
<event>
 8   1  0.2279600E-02  0.1273109E+03  0.7546771E-02  0.1232284E+00
       -2   -1    0    0    0  501 -0.00000000000E+00  0.00000000000E+00  0.58431757864E+01  0.58431757864E+01  0.00000000000E+00 0.  1.
        2   -1    0    0  501    0  0.00000000000E+00 -0.00000000000E+00 -0.35357349951E+04  0.35357349951E+04  0.00000000000E+00 0. -1.
      -24    2    1    2    0    0  0.52171697824E+02 -0.81043144406E+02 -0.93046442100E+03  0.93913369744E+03  0.83175631042E+02 0.  0.
       24    2    1    2    0    0 -0.52171697824E+02  0.81043144406E+02 -0.25994273983E+04  0.26024444735E+04  0.80028501129E+02 0.  0.
      -13    1    4    4    0    0 -0.21564995757E+02 -0.12617690075E+02 -0.37154126739E+03  0.37238040834E+03  0.00000000000E+00 0.  1.
       14    1    4    4    0    0 -0.30606702066E+02  0.93660834482E+02 -0.22278861309E+04  0.22300640651E+04  0.00000000000E+00 0. -1.
        1    1    3    3  502    0  0.52846982240E+02 -0.57898162430E+02 -0.88141019373E+03  0.88488921925E+03  0.00000000000E+00 0. -1.
       -2    1    3    3    0  502 -0.67528441673E+00 -0.23144981977E+02 -0.49054227277E+02  0.54244478185E+02  0.00000000000E+00 0.  1.
</event>
<event>
 8   1  0.2279600E-02  0.8652528E+02  0.7546771E-02  0.1312657E+00
        1   -1    0    0  501    0  0.00000000000E+00  0.00000000000E+00  0.10143852723E+02  0.10143852723E+02  0.00000000000E+00 0. -1.
       -1   -1    0    0    0  501 -0.00000000000E+00 -0.00000000000E+00 -0.12053678146E+04  0.12053678146E+04  0.00000000000E+00 0.  1.
       24    2    1    2    0    0  0.22641170776E+02 -0.11336844026E+02 -0.98595211764E+03  0.98974148294E+03  0.82737404620E+02 0.  0.
      -24    2    1    2    0    0 -0.22641170776E+02  0.11336844026E+02 -0.20927184428E+03  0.22577018443E+03  0.80847539986E+02 0.  0.
      -13    1    3    3    0    0  0.38019504450E+02 -0.36649475803E+02 -0.76385368230E+03  0.76567689971E+03  0.00000000000E+00 0.  1.
       14    1    3    3    0    0 -0.15378333674E+02  0.25312631777E+02 -0.22209843534E+03  0.22406458322E+03  0.00000000000E+00 0. -1.
        1    1    4    4  502    0 -0.47469960899E+02  0.20449151114E+02 -0.91733310081E+02  0.10529275924E+03  0.00000000000E+00 0. -1.
       -2    1    4    4    0  502  0.24828790123E+02 -0.91123070879E+01 -0.11753853420E+03  0.12047742519E+03  0.00000000000E+00 0.  1.
</event>
<event>
 8   1  0.2279600E-02  0.8349295E+02  0.7546771E-02  0.1320160E+00
       -2   -1    0    0    0  501 -0.00000000000E+00  0.00000000000E+00  0.23526451442E+02  0.23526451442E+02  0.00000000000E+00 0.  1.
        2   -1    0    0  501    0  0.00000000000E+00 -0.00000000000E+00 -0.24917352653E+04  0.24917352653E+04  0.00000000000E+00 0. -1.
      -24    2    1    2    0    0  0.11089410345E+02  0.27400447662E+02 -0.53534079376E+02  0.99181506133E+02  0.78085299195E+02 0.  0.
       24    2    1    2    0    0 -0.11089410345E+02 -0.27400447662E+02 -0.24146747345E+04  0.24160802106E+04  0.76913920647E+02 0.  0.
      -13    1    4    4    0    0 -0.32396053662E+02 -0.24458147837E+02 -0.64566276030E+03  0.64693748178E+03  0.00000000000E+00 0.  1.
       14    1    4    4    0    0  0.21306643317E+02 -0.29422998250E+01 -0.17690119742E+04  0.17691427288E+04  0.00000000000E+00 0. -1.
        3    1    3    3  502    0 -0.14957795930E+02 -0.22317100483E+02 -0.22514436931E+02  0.35052653300E+02  0.00000000000E+00 0. -1.
       -4    1    3    3    0  502  0.26047206274E+02  0.49717548146E+02 -0.31019642445E+02  0.64128852833E+02  0.00000000000E+00 0.  1.
</event>
<event>
 8   1  0.2279600E-02  0.9935015E+02  0.7546771E-02  0.1282798E+00
        1   -1    0    0  501    0  0.00000000000E+00  0.00000000000E+00  0.37997711967E+03  0.37997711967E+03  0.00000000000E+00 0. -1.
       -1   -1    0    0    0  501 -0.00000000000E+00 -0.00000000000E+00 -0.51660037481E+02  0.51660037481E+02  0.00000000000E+00 0.  1.
       24    2    1    2    0    0  0.33463730598E+02  0.42023579446E+02  0.95111957317E+01  0.97709551848E+02  0.81061033691E+02 0.  0.
      -24    2    1    2    0    0 -0.33463730598E+02 -0.42023579446E+02  0.31880588645E+03  0.33392760530E+03  0.83574217605E+02 0.  0.
      -13    1    3    3    0    0 -0.14427338753E+01  0.49780201757E+02 -0.17617400513E+02  0.52825398899E+02  0.00000000000E+00 0.  1.
       14    1    3    3    0    0  0.34906464474E+02 -0.77566223116E+01  0.27128596244E+02  0.44884152949E+02  0.00000000000E+00 0. -1.
        1    1    4    4  502    0 -0.45405452655E+02 -0.57616317715E+02  0.19066062458E+03  0.20428599796E+03  0.00000000000E+00 0. -1.
       -2    1    4    4    0  502  0.11941722056E+02  0.15592738269E+02  0.12814526187E+03  0.12964160734E+03  0.00000000000E+00 0.  1.
</event>
<event>
 8   1  0.2279600E-02  0.8305532E+02  0.7546771E-02  0.1322327E+00
        2   -1    0    0  501    0  0.00000000000E+00  0.00000000000E+00  0.10316209515E+04  0.10316209515E+04  0.00000000000E+00 0. -1.
       -2   -1    0    0    0  501 -0.00000000000E+00 -0.00000000000E+00 -0.30725530011E+02  0.30725530011E+02  0.00000000000E+00 0.  1.
      -24    2    1    2    0    0  0.14951495402E+02  0.20739628306E+02  0.30290843983E+02  0.88406570490E+02  0.79022193589E+02 0.  0.
       24    2    1    2    0    0 -0.14951495402E+02 -0.20739628306E+02  0.97060457751E+03  0.97393991102E+03  0.76367696084E+02 0.  0.
      -13    1    4    4    0    0  0.31219949834E+02 -0.10141670674E+02  0.44170765891E+03  0.44292572142E+03  0.00000000000E+00 0.  1.
       14    1    4    4    0    0 -0.46171445236E+02 -0.10597957632E+02  0.52889691860E+03  0.53101418960E+03  0.00000000000E+00 0. -1.
        3    1    3    3  502    0 -0.54520980700E+00 -0.29335465083E+02  0.18476712717E+02  0.34673558776E+02  0.00000000000E+00 0. -1.
       -4    1    3    3    0  502  0.15496705209E+02  0.50075093389E+02  0.11814131265E+02  0.53733011714E+02  0.00000000000E+00 0.  1.
</event>
<event>
 8   1  0.2279600E-02  0.9778781E+02  0.7546771E-02  0.1285429E+00
        2   -1    0    0  501    0  0.00000000000E+00  0.00000000000E+00  0.27133111305E+03  0.27133111305E+03  0.00000000000E+00 0. -1.
       -2   -1    0    0    0  501 -0.00000000000E+00 -0.00000000000E+00 -0.56005879542E+02  0.56005879542E+02  0.00000000000E+00 0.  1.
      -24    2    1    2    0    0  0.55896230604E+02 -0.88062942767E+01  0.76196773537E+01  0.98084221323E+02  0.79752840545E+02 0.  0.
       24    2    1    2    0    0 -0.55896230604E+02  0.88062942767E+01  0.20770555616E+03  0.22925277127E+03  0.78824461069E+02 0.  0.
      -13    1    4    4    0    0 -0.38021491611E+02  0.35935178835E+02  0.17692850058E+03  0.18450112525E+03  0.00000000000E+00 0.  1.
       14    1    4    4    0    0 -0.17874738993E+02 -0.27128884558E+02  0.30777055579E+02  0.44751646021E+02  0.00000000000E+00 0. -1.
        3    1    3    3  502    0  0.10583250916E+02 -0.25579813091E+02  0.33350087913E+02  0.43342362667E+02  0.00000000000E+00 0. -1.
       -4    1    3    3    0  502  0.45312979688E+02  0.16773518815E+02 -0.25730410559E+02  0.54741858656E+02  0.00000000000E+00 0.  1.
</event>
<event>
 8   1  0.2279600E-02  0.8530522E+02  0.7546771E-02  0.1315044E+00
       -2   -1    0    0    0  501 -0.00000000000E+00  0.00000000000E+00  0.67702361754E+02  0.67702361754E+02  0.00000000000E+00 0.  1.
        2   -1    0    0  501    0  0.00000000000E+00 -0.00000000000E+00 -0.16263603434E+03  0.16263603434E+03  0.00000000000E+00 0. -1.
      -24    2    1    2    0    0 -0.19211504423E+02 -0.17837718843E+02  0.19960303222E+02  0.87609325514E+02  0.81177054003E+02 0.  0.
       24    2    1    2    0    0  0.19211504423E+02  0.17837718843E+02 -0.11489397581E+03  0.14272907058E+03  0.80521399613E+02 0.  0.
      -13    1    4    4    0    0  0.24023883985E+01  0.24877781602E+02  0.13838831182E+01  0.25031792184E+02  0.00000000000E+00 0.  1.
       14    1    4    4    0    0  0.16809116024E+02 -0.70400627596E+01 -0.11627785892E+03  0.11769727839E+03  0.00000000000E+00 0. -1.
        1    1    3    3  502    0  0.28130597953E+02 -0.11972220137E+02 -0.89164829518E+01  0.31846008610E+02  0.00000000000E+00 0. -1.
       -2    1    3    3    0  502 -0.47342102375E+02 -0.58654987060E+01  0.28876786173E+02  0.55763316904E+02  0.00000000000E+00 0.  1.
</event>
<event>
 8   1  0.2279600E-02  0.9910193E+02  0.7546771E-02  0.1289309E+00
       -1   -1    0    0    0  501 -0.00000000000E+00  0.00000000000E+00  0.94030894205E+02  0.94030894205E+02  0.00000000000E+00 0.  1.
        1   -1    0    0  501    0  0.00000000000E+00 -0.00000000000E+00 -0.92782192239E+02  0.92782192239E+02  0.00000000000E+00 0. -1.
       24    2    1    2    0    0  0.27618112454E+02 -0.18387061163E+02  0.10505998533E+02  0.99657252893E+02  0.93382802995E+02 0.  0.
      -24    2    1    2    0    0 -0.27618112454E+02  0.18387061163E+02 -0.92572965676E+01  0.87155833551E+02  0.80059962706E+02 0.  0.
      -13    1    3    3    0    0 -0.26681225816E+02  0.30262651867E+01  0.27928591886E+02  0.38743416689E+02  0.00000000000E+00 0.  1.
       14    1    3    3    0    0  0.54299338270E+02 -0.21413326350E+02 -0.17422593352E+02  0.60913836204E+02  0.00000000000E+00 0. -1.
        1    1    4    4  502    0  0.12543355347E+02 -0.22250383766E+02 -0.15184019416E+02  0.29714807533E+02  0.00000000000E+00 0. -1.
       -2    1    4    4    0  502 -0.40161467801E+02  0.40637444929E+02  0.59267228480E+01  0.57441026018E+02  0.00000000000E+00 0.  1.
</event>
<event>
 8   1  0.2279600E-02  0.1292563E+03  0.7546771E-02  0.1228930E+00
       -2   -1    0    0    0  501 -0.00000000000E+00  0.00000000000E+00  0.21566260102E+02  0.21566260102E+02  0.00000000000E+00 0.  1.
        2   -1    0    0  501    0  0.00000000000E+00 -0.00000000000E+00 -0.11625483553E+04  0.11625483553E+04  0.00000000000E+00 0. -1.
      -24    2    1    2    0    0  0.61308541282E+02 -0.78922718960E+02 -0.22452258638E+03  0.25858491793E+03  0.80425339180E+02 0.  0.
       24    2    1    2    0    0 -0.61308541282E+02  0.78922718960E+02 -0.91645950883E+03  0.92552969748E+03  0.81973512821E+02 0.  0.
      -13    1    4    4    0    0  0.14566648454E+02  0.33518166593E+01 -0.42873139196E+02  0.45404052536E+02  0.00000000000E+00 0.  1.
       14    1    4    4    0    0 -0.75875189737E+02  0.75570902300E+02 -0.87358636963E+03  0.88012564495E+03  0.00000000000E+00 0. -1.
        1    1    3    3  502    0  0.29591234361E+02 -0.37188029037E+00 -0.12226857716E+03  0.12579898413E+03  0.00000000000E+00 0. -1.
       -2    1    3    3    0  502  0.31717306922E+02 -0.78550838669E+02 -0.10225400922E+03  0.13278593380E+03  0.00000000000E+00 0.  1.
</event>
<event>
 8   1  0.2279600E-02  0.1005169E+03  0.7546771E-02  0.1279276E+00
        4   -1    0    0  501    0  0.00000000000E+00  0.00000000000E+00  0.89577140702E+02  0.89577140702E+02  0.00000000000E+00 0. -1.
       -4   -1    0    0    0  501 -0.00000000000E+00 -0.00000000000E+00 -0.64627074214E+03  0.64627074214E+03  0.00000000000E+00 0.  1.
      -24    2    1    2    0    0 -0.52420423513E+02 -0.97554983990E+01 -0.61269725679E+03  0.62088772839E+03  0.85208991513E+02 0.  0.
       24    2    1    2    0    0  0.52420423513E+02  0.97554983990E+01  0.56003655352E+02  0.11496015446E+03  0.85066780527E+02 0.  0.
      -13    1    4    4    0    0 -0.88071354687E+01  0.70186242817E+01 -0.16528921468E+02  0.20000799156E+02  0.00000000000E+00 0.  1.
       14    1    4    4    0    0  0.61227558981E+02  0.27368741173E+01  0.72532576820E+02  0.94959355299E+02  0.00000000000E+00 0. -1.
        3    1    3    3  502    0 -0.63967206194E+01 -0.12078780221E+01 -0.10605473842E+00  0.65106260533E+01  0.00000000000E+00 0. -1.
       -4    1    3    3    0  502 -0.46023702893E+02 -0.85476203769E+01 -0.61259120205E+03  0.61437710234E+03  0.00000000000E+00 0.  1.
</event>
<event>
 8   1  0.2279600E-02  0.9073678E+02  0.7546771E-02  0.1310623E+00
       -2   -1    0    0    0  501 -0.00000000000E+00  0.00000000000E+00  0.25692067437E+02  0.25692067437E+02  0.00000000000E+00 0.  1.
        2   -1    0    0  501    0  0.00000000000E+00 -0.00000000000E+00 -0.28672587768E+03  0.28672587768E+03  0.00000000000E+00 0. -1.
      -24    2    1    2    0    0  0.22868092988E+01  0.38314791487E+02 -0.10506811473E+03  0.13882532751E+03  0.82218672342E+02 0.  0.
       24    2    1    2    0    0 -0.22868092988E+01 -0.38314791487E+02 -0.15596569551E+03  0.17359261761E+03  0.65847140926E+02 0.  0.
      -13    1    4    4    0    0 -0.17420440445E+02  0.13308738623E+02 -0.36578018916E+02  0.42644410382E+02  0.00000000000E+00 0.  1.
       14    1    4    4    0    0  0.15133631146E+02 -0.51623530110E+02 -0.11938767659E+03  0.13094820722E+03  0.00000000000E+00 0. -1.
        3    1    3    3  502    0  0.10942321745E+02  0.25914160526E+02 -0.11651271417E+03  0.11986029653E+03  0.00000000000E+00 0. -1.
       -4    1    3    3    0  502 -0.86555124460E+01  0.12400630961E+02  0.11444599436E+02  0.18965030983E+02  0.00000000000E+00 0.  1.
</event>
<event>
 8   1  0.2279600E-02  0.9015625E+02  0.7546771E-02  0.1303982E+00
       -2   -1    0    0    0  501 -0.00000000000E+00  0.00000000000E+00  0.12068922348E+03  0.12068922348E+03  0.00000000000E+00 0.  1.
        2   -1    0    0  501    0  0.00000000000E+00 -0.00000000000E+00 -0.19871568607E+03  0.19871568607E+03  0.00000000000E+00 0. -1.
      -24    2    1    2    0    0  0.29972501651E+01  0.38706545822E+02  0.91909169783E+02  0.12703477502E+03  0.78634333311E+02 0.  0.
       24    2    1    2    0    0 -0.29972501651E+01 -0.38706545822E+02 -0.16993563238E+03  0.19237013453E+03  0.81369338877E+02 0.  0.
      -13    1    4    4    0    0  0.34712104562E+02 -0.17410045317E+02 -0.12072437447E+03  0.12681645979E+03  0.00000000000E+00 0.  1.
       14    1    4    4    0    0 -0.37709354727E+02 -0.21296500505E+02 -0.49211257904E+02  0.65553674742E+02  0.00000000000E+00 0. -1.
        3    1    3    3  502    0  0.22087108445E+02 -0.17501188847E+02  0.33164510947E+02  0.43520302813E+02  0.00000000000E+00 0. -1.
       -4    1    3    3    0  502 -0.19089858280E+02  0.56207734669E+02  0.58744658836E+02  0.83514472204E+02  0.00000000000E+00 0.  1.
</event>
<event>
 8   1  0.2279600E-02  0.8981402E+02  0.7546771E-02  0.1304627E+00
        1   -1    0    0  501    0  0.00000000000E+00  0.00000000000E+00  0.11727067617E+04  0.11727067617E+04  0.00000000000E+00 0. -1.
       -1   -1    0    0    0  501 -0.00000000000E+00 -0.00000000000E+00 -0.68696817264E+01  0.68696817264E+01  0.00000000000E+00 0.  1.
       24    2    1    2    0    0  0.31180367142E+02 -0.11212905519E+02  0.50124915951E+03  0.50923204718E+03  0.83478221202E+02 0.  0.
      -24    2    1    2    0    0 -0.31180367142E+02  0.11212905519E+02  0.66458792049E+03  0.67034439628E+03  0.81157630663E+02 0.  0.
      -13    1    3    3    0    0  0.10259630402E+02  0.11908996353E+02  0.14191933525E+02  0.21177704958E+02  0.00000000000E+00 0.  1.
       14    1    3    3    0    0  0.20920736741E+02 -0.23121901872E+02  0.48705722599E+03  0.48805434222E+03  0.00000000000E+00 0. -1.
        1    1    4    4  502    0 -0.62939271618E+00 -0.21536372462E+02  0.54344790695E+02  0.58459967069E+02  0.00000000000E+00 0. -1.
       -2    1    4    4    0  502 -0.30550974426E+02  0.32749277981E+02  0.61024312980E+03  0.61188442921E+03  0.00000000000E+00 0.  1.
</event>
<event>
 8   1  0.2279600E-02  0.1083776E+03  0.7546771E-02  0.1263689E+00
        2   -1    0    0  501    0  0.00000000000E+00  0.00000000000E+00  0.90463863583E+03  0.90463863583E+03  0.00000000000E+00 0. -1.
       -2   -1    0    0    0  501 -0.00000000000E+00 -0.00000000000E+00 -0.14342283710E+02  0.14342283710E+02  0.00000000000E+00 0.  1.
      -24    2    1    2    0    0 -0.68816326849E+02 -0.18680951179E+02  0.30229275032E+03  0.32107295072E+03  0.81377318765E+02 0.  0.
       24    2    1    2    0    0  0.68816326849E+02  0.18680951179E+02  0.58800360180E+03  0.59790796882E+03  0.81615186531E+02 0.  0.
      -13    1    4    4    0    0  0.32665985941E+02  0.49853920692E+02  0.28481561529E+03  0.29098524836E+03  0.00000000000E+00 0.  1.
       14    1    4    4    0    0  0.36150340909E+02 -0.31172969513E+02  0.30318798651E+03  0.30692272046E+03  0.00000000000E+00 0. -1.
        3    1    3    3  502    0  0.74971541080E+01  0.15858696007E+02  0.10910979454E+03  0.11051087197E+03  0.00000000000E+00 0. -1.
       -4    1    3    3    0  502 -0.76313480957E+02 -0.34539647186E+02  0.19318295578E+03  0.21056207875E+03  0.00000000000E+00 0.  1.
</event>
<event>
 8   1  0.2279600E-02  0.9285215E+02  0.7546771E-02  0.1298856E+00
        4   -1    0    0  501    0  0.00000000000E+00  0.00000000000E+00  0.12311776485E+04  0.12311776485E+04  0.00000000000E+00 0. -1.
       -4   -1    0    0    0  501 -0.00000000000E+00 -0.00000000000E+00 -0.23227545769E+02  0.23227545769E+02  0.00000000000E+00 0.  1.
       24    2    1    2    0    0 -0.20793462434E+02 -0.38875425518E+02  0.11381088879E+04  0.11418902581E+04  0.81718137974E+02 0.  0.
      -24    2    1    2    0    0  0.20793462434E+02  0.38875425518E+02  0.69841214879E+02  0.11251493620E+03  0.76407779600E+02 0.  0.
      -13    1    3    3    0    0 -0.52375160605E+02 -0.28068883144E+02  0.74662060925E+03  0.74898154437E+03  0.00000000000E+00 0.  1.
       14    1    3    3    0    0  0.31581698172E+02 -0.10806542374E+02  0.39148827865E+03  0.39290871375E+03  0.00000000000E+00 0. -1.
        1    1    4    4  502    0  0.19767047658E+02 -0.12839655640E+02 -0.23695690282E+01  0.23689824555E+02  0.00000000000E+00 0. -1.
       -2    1    4    4    0  502  0.10264147758E+01  0.51715081158E+02  0.72210783907E+02  0.88825111646E+02  0.00000000000E+00 0.  1.
</event>
<event>
 8   1  0.2279600E-02  0.8356731E+02  0.7546771E-02  0.1319375E+00
       -3   -1    0    0    0  501 -0.00000000000E+00  0.00000000000E+00  0.24197476635E+03  0.24197476635E+03  0.00000000000E+00 0.  1.
        3   -1    0    0  501    0  0.00000000000E+00 -0.00000000000E+00 -0.36819491849E+02  0.36819491849E+02  0.00000000000E+00 0. -1.
       24    2    1    2    0    0  0.26176726742E+01  0.22174409091E+02  0.16781692232E+03  0.18747270569E+03  0.80529121034E+02 0.  0.
      -24    2    1    2    0    0 -0.26176726742E+01 -0.22174409091E+02  0.37338352183E+02  0.91321552507E+02  0.80292694436E+02 0.  0.
      -13    1    3    3    0    0 -0.25636156303E+02  0.39668022567E+02  0.12240055608E+03  0.13119702989E+03  0.00000000000E+00 0.  1.
       14    1    3    3    0    0  0.28253828977E+02 -0.17493613477E+02  0.45416366243E+02  0.56275675803E+02  0.00000000000E+00 0. -1.
        1    1    4    4  502    0 -0.39295164784E+02 -0.24821829487E+02  0.22927865177E+02  0.51825864161E+02  0.00000000000E+00 0. -1.
       -2    1    4    4    0  502  0.36677492110E+02  0.26474203963E+01  0.14410487006E+02  0.39495688346E+02  0.00000000000E+00 0.  1.
</event>
<event>
 8   1  0.2279600E-02  0.8802022E+02  0.7546771E-02  0.1313223E+00
        2   -1    0    0  501    0  0.00000000000E+00  0.00000000000E+00  0.14465080360E+03  0.14465080360E+03  0.00000000000E+00 0. -1.
       -2   -1    0    0    0  501 -0.00000000000E+00 -0.00000000000E+00 -0.64676292457E+02  0.64676292457E+02  0.00000000000E+00 0.  1.
      -24    2    1    2    0    0 -0.26819781890E+02 -0.24092558474E+02 -0.13656113980E+02  0.80819304794E+02  0.71031813323E+02 0.  0.
       24    2    1    2    0    0  0.26819781890E+02  0.24092558474E+02  0.93630625124E+02  0.12850779126E+03  0.80298233978E+02 0.  0.
      -13    1    4    4    0    0 -0.25304016470E+02  0.84866370490E+01  0.56934695478E+02  0.62879852155E+02  0.00000000000E+00 0.  1.
       14    1    4    4    0    0  0.52123798360E+02  0.15605921425E+02  0.36695929646E+02  0.65627939108E+02  0.00000000000E+00 0. -1.
        1    1    3    3  502    0  0.49795345664E+01  0.12299335526E+02  0.18503346511E+02  0.22769348937E+02  0.00000000000E+00 0. -1.
       -2    1    3    3    0  502 -0.31799316456E+02 -0.36391894000E+02 -0.32159460491E+02  0.58049955858E+02  0.00000000000E+00 0.  1.
</event>
<event>
 8   1  0.2279600E-02  0.8339160E+02  0.7546771E-02  0.1320143E+00
        1   -1    0    0  501    0  0.00000000000E+00  0.00000000000E+00  0.39253706922E+02  0.39253706922E+02  0.00000000000E+00 0. -1.
       -1   -1    0    0    0  501 -0.00000000000E+00 -0.00000000000E+00 -0.18280385670E+03  0.18280385670E+03  0.00000000000E+00 0.  1.
       24    2    1    2    0    0  0.13673993728E+02 -0.17627410967E+02 -0.50233638372E+02  0.97352849937E+02  0.80352070571E+02 0.  0.
      -24    2    1    2    0    0 -0.13673993728E+02  0.17627410967E+02 -0.93316511402E+02  0.12470471368E+03  0.79659215362E+02 0.  0.
      -13    1    3    3    0    0 -0.28186080446E+02 -0.15110310408E+02 -0.44833300816E+02  0.55070876819E+02  0.00000000000E+00 0.  1.
       14    1    3    3    0    0  0.41860074174E+02 -0.25171005596E+01 -0.54003375560E+01  0.42281973119E+02  0.00000000000E+00 0. -1.
        1    1    4    4  502    0  0.15674406106E+02  0.21684501876E+02  0.43425585966E-01  0.26756429399E+02  0.00000000000E+00 0. -1.
       -2    1    4    4    0  502 -0.29348399834E+02 -0.40570909087E+01 -0.93359936988E+02  0.97948284282E+02  0.00000000000E+00 0.  1.
</event>
<event>
 8   1  0.2279600E-02  0.8888871E+02  0.7546771E-02  0.1305681E+00
        2   -1    0    0  501    0  0.00000000000E+00  0.00000000000E+00  0.11786387732E+03  0.11786387732E+03  0.00000000000E+00 0. -1.
       -2   -1    0    0    0  501 -0.00000000000E+00 -0.00000000000E+00 -0.18601960395E+03  0.18601960395E+03  0.00000000000E+00 0.  1.
      -24    2    1    2    0    0 -0.23307681516E+02  0.27605929851E+02 -0.15565510387E+03  0.17915440056E+03  0.81008965544E+02 0.  0.
       24    2    1    2    0    0  0.23307681516E+02 -0.27605929851E+02  0.87499377238E+02  0.12472908071E+03  0.81214944293E+02 0.  0.
      -13    1    4    4    0    0 -0.16891521391E+02 -0.37769703145E+02  0.21094602712E+02  0.46441966303E+02  0.00000000000E+00 0.  1.
       14    1    4    4    0    0  0.40199202906E+02  0.10163773294E+02  0.66404774526E+02  0.78287114405E+02  0.00000000000E+00 0. -1.
        1    1    3    3  502    0  0.16780263385E+02 -0.77206071891E+01 -0.47546664104E+01  0.19073328690E+02  0.00000000000E+00 0. -1.
       -2    1    3    3    0  502 -0.40087944900E+02  0.35326537040E+02 -0.15090043746E+03  0.16008107187E+03  0.00000000000E+00 0.  1.
</event>
<event>
 8   1  0.2279600E-02  0.1037014E+03  0.7546771E-02  0.1274273E+00
       -1   -1    0    0    0  501 -0.00000000000E+00  0.00000000000E+00  0.77867243871E+02  0.77867243871E+02  0.00000000000E+00 0.  1.
        1   -1    0    0  501    0  0.00000000000E+00 -0.00000000000E+00 -0.14767008917E+03  0.14767008917E+03  0.00000000000E+00 0. -1.
       24    2    1    2    0    0  0.16692511929E+02  0.62096052982E+02 -0.13982170486E+00  0.10060969481E+03  0.77380432857E+02 0.  0.
      -24    2    1    2    0    0 -0.16692511929E+02 -0.62096052982E+02 -0.69663023594E+02  0.12492763823E+03  0.81359806952E+02 0.  0.
      -13    1    3    3    0    0  0.99321055710E+01  0.22239931748E+02  0.37932020910E+02  0.45078814265E+02  0.00000000000E+00 0.  1.
       14    1    3    3    0    0  0.67604063583E+01  0.39856121235E+02 -0.38071842615E+02  0.55530880545E+02  0.00000000000E+00 0. -1.
        1    1    4    4  502    0 -0.31295162620E+02 -0.37097968364E+02 -0.80513009416E+02  0.94010590602E+02  0.00000000000E+00 0. -1.
       -2    1    4    4    0  502  0.14602650690E+02 -0.24998084618E+02  0.10849985822E+02  0.30917047629E+02  0.00000000000E+00 0.  1.
</event>
<event>
 8   1  0.2279600E-02  0.8260832E+02  0.7546771E-02  0.1322486E+00
        1   -1    0    0  501    0  0.00000000000E+00  0.00000000000E+00  0.90975994755E+03  0.90975994755E+03  0.00000000000E+00 0. -1.
       -1   -1    0    0    0  501 -0.00000000000E+00 -0.00000000000E+00 -0.17368758026E+02  0.17368758026E+02  0.00000000000E+00 0.  1.
       24    2    1    2    0    0  0.34927372530E+01  0.12267178351E+02  0.94054308716E+02  0.12452923552E+03  0.80614109395E+02 0.  0.
      -24    2    1    2    0    0 -0.34927372530E+01 -0.12267178351E+02  0.79833688081E+03  0.80259947006E+03  0.81617713733E+02 0.  0.
      -13    1    3    3    0    0  0.38653313850E+02 -0.64519279724E+01  0.62245110623E+02  0.73553788771E+02  0.00000000000E+00 0.  1.
       14    1    3    3    0    0 -0.35160576597E+02  0.18719106323E+02  0.31809198093E+02  0.50975446751E+02  0.00000000000E+00 0. -1.
        1    1    4    4  502    0 -0.41701969877E+02 -0.82618188754E+01  0.49890486389E+03  0.50071286698E+03  0.00000000000E+00 0. -1.
       -2    1    4    4    0  502  0.38209232624E+02 -0.40053594756E+01  0.29943201692E+03  0.30188660308E+03  0.00000000000E+00 0.  1.
</event>
<event>
 8   1  0.2279600E-02  0.8679275E+02  0.7546771E-02  0.1311598E+00
       -2   -1    0    0    0  501 -0.00000000000E+00  0.00000000000E+00  0.12709273707E+02  0.12709273707E+02  0.00000000000E+00 0.  1.
        2   -1    0    0  501    0  0.00000000000E+00 -0.00000000000E+00 -0.92237322739E+03  0.92237322739E+03  0.00000000000E+00 0. -1.
       24    2    1    2    0    0 -0.28763506497E+02  0.26480230002E+01 -0.73991978389E+03  0.74499279772E+03  0.81845163070E+02 0.  0.
      -24    2    1    2    0    0  0.28763506497E+02 -0.26480230002E+01 -0.16974416979E+03  0.19008970338E+03  0.80539808933E+02 0.  0.
      -13    1    3    3    0    0 -0.60570752073E+01  0.41328011076E+02 -0.33348948742E+03  0.33609512177E+03  0.00000000000E+00 0.  1.
       14    1    3    3    0    0 -0.22706431290E+02 -0.38679988076E+02 -0.40643029647E+03  0.40889767594E+03  0.00000000000E+00 0. -1.
        3    1    4    4  502    0 -0.70739560621E+01 -0.25958200246E+02 -0.17834809582E+02  0.32279241738E+02  0.00000000000E+00 0. -1.
       -4    1    4    4    0  502  0.35837462559E+02  0.23310177246E+02 -0.15190936021E+03  0.15781046165E+03  0.00000000000E+00 0.  1.
</event>
<event>
 8   1  0.2279600E-02  0.1154112E+03  0.7546771E-02  0.1251265E+00
       -1   -1    0    0    0  501 -0.00000000000E+00  0.00000000000E+00  0.89683806135E+01  0.89683806135E+01  0.00000000000E+00 0.  1.
        1   -1    0    0  501    0  0.00000000000E+00 -0.00000000000E+00 -0.14767068872E+04  0.14767068872E+04  0.00000000000E+00 0. -1.
       24    2    1    2    0    0  0.50820260096E+02 -0.62517674467E+02 -0.70170630812E+03  0.71113394382E+03  0.82635251156E+02 0.  0.
      -24    2    1    2    0    0 -0.50820260096E+02  0.62517674467E+02 -0.76603219847E+03  0.77454132400E+03  0.81349708279E+02 0.  0.
      -13    1    3    3    0    0 -0.60605629592E+01 -0.46832079404E+02 -0.17961023191E+03  0.18571432225E+03  0.00000000000E+00 0.  1.
       14    1    3    3    0    0  0.56880823055E+02 -0.15685595062E+02 -0.52209607622E+03  0.52541962156E+03  0.00000000000E+00 0. -1.
        3    1    4    4  502    0 -0.84993703731E+01  0.39954584918E+02 -0.12060886819E+03  0.12733855363E+03  0.00000000000E+00 0. -1.
       -4    1    4    4    0  502 -0.42320889723E+02  0.22563089549E+02 -0.64542333028E+03  0.64720277038E+03  0.00000000000E+00 0.  1.
</event>
<event>
 8   1  0.2279600E-02  0.8766306E+02  0.7546771E-02  0.1309529E+00
       -1   -1    0    0    0  501 -0.00000000000E+00  0.00000000000E+00  0.65822817315E+01  0.65822817315E+01  0.00000000000E+00 0.  1.
        1   -1    0    0  501    0  0.00000000000E+00 -0.00000000000E+00 -0.12679162579E+04  0.12679162579E+04  0.00000000000E+00 0. -1.
       24    2    1    2    0    0 -0.59816727542E+01 -0.31834979705E+02 -0.43968098143E+03  0.44833489515E+03  0.81458986218E+02 0.  0.
      -24    2    1    2    0    0  0.59816727542E+01  0.31834979705E+02 -0.82165299471E+03  0.82616364445E+03  0.79896666758E+02 0.  0.
      -13    1    3    3    0    0 -0.70651797469E+01  0.19237252350E+02 -0.35918331781E+02  0.41353539156E+02  0.00000000000E+00 0.  1.
       14    1    3    3    0    0  0.10835069927E+01 -0.51072232054E+02 -0.40376264965E+03  0.40698135599E+03  0.00000000000E+00 0. -1.
        1    1    4    4  502    0 -0.29025000061E+02 -0.83147136280E+01 -0.20460240904E+03  0.20681811061E+03  0.00000000000E+00 0. -1.
       -2    1    4    4    0  502  0.35006672816E+02  0.40149693333E+02 -0.61705058567E+03  0.61934553384E+03  0.00000000000E+00 0.  1.
</event>
<event>
 8   1  0.2279600E-02  0.8195015E+02  0.7546771E-02  0.1324248E+00
        2   -1    0    0  501    0  0.00000000000E+00  0.00000000000E+00  0.11780902116E+04  0.11780902116E+04  0.00000000000E+00 0. -1.
       -2   -1    0    0    0  501 -0.00000000000E+00 -0.00000000000E+00 -0.56972952393E+01  0.56972952393E+01  0.00000000000E+00 0.  1.
      -24    2    1    2    0    0  0.50320959245E+01 -0.10939342599E+02  0.52162702069E+03  0.52788196637E+03  0.80122596669E+02 0.  0.
       24    2    1    2    0    0 -0.50320959245E+01  0.10939342599E+02  0.65076589572E+03  0.65590554052E+03  0.81060692367E+02 0.  0.
      -13    1    4    4    0    0 -0.33673572404E+02 -0.18720475954E+02  0.39022205102E+03  0.39211938845E+03  0.00000000000E+00 0.  1.
       14    1    4    4    0    0  0.28641476479E+02  0.29659818553E+02  0.26054384470E+03  0.26378615207E+03  0.00000000000E+00 0. -1.
        1    1    3    3  502    0  0.12419077454E+02 -0.25358927448E+02  0.50031326608E+03  0.50110944204E+03  0.00000000000E+00 0. -1.
       -2    1    3    3    0  502 -0.73869815298E+01  0.14419584849E+02  0.21313754611E+02  0.26772524329E+02  0.00000000000E+00 0.  1.
</event>
<event>
 8   1  0.2279600E-02  0.1016049E+03  0.7546771E-02  0.1279945E+00
        3   -1    0    0  501    0  0.00000000000E+00  0.00000000000E+00  0.43325676767E+03  0.43325676767E+03  0.00000000000E+00 0. -1.
       -3   -1    0    0    0  501 -0.00000000000E+00 -0.00000000000E+00 -0.22829422185E+02  0.22829422185E+02  0.00000000000E+00 0.  1.
       24    2    1    2    0    0 -0.52613632757E+02 -0.20751630467E+00  0.22574121254E+03  0.24529595753E+03  0.80266894317E+02 0.  0.
      -24    2    1    2    0    0  0.52613632757E+02  0.20751630467E+00  0.18468613294E+03  0.21079023233E+03  0.86921326091E+02 0.  0.
      -13    1    3    3    0    0 -0.20047624377E+02 -0.36983095974E+02  0.14312561053E+03  0.14917974735E+03  0.00000000000E+00 0.  1.
       14    1    3    3    0    0 -0.32566008381E+02  0.36775579669E+02  0.82615602013E+02  0.96116210172E+02  0.00000000000E+00 0. -1.
        1    1    4    4  502    0  0.26153949979E+02 -0.40049131213E+02  0.12655210635E+03  0.13529005001E+03  0.00000000000E+00 0. -1.
       -2    1    4    4    0  502  0.26459682778E+02  0.40256647518E+02  0.58134026585E+02  0.75500182312E+02  0.00000000000E+00 0.  1.
</event>
<event>
 8   1  0.2279600E-02  0.9792017E+02  0.7546771E-02  0.1285778E+00
        2   -1    0    0  501    0  0.00000000000E+00  0.00000000000E+00  0.36551692604E+04  0.36551692604E+04  0.00000000000E+00 0. -1.
       -2   -1    0    0    0  501 -0.00000000000E+00 -0.00000000000E+00 -0.25940435928E+01  0.25940435928E+01  0.00000000000E+00 0.  1.
      -24    2    1    2    0    0  0.54624423180E+02 -0.95774846633E+01  0.20121505987E+04  0.20145318045E+04  0.80701944122E+02 0.  0.
       24    2    1    2    0    0 -0.54624423180E+02  0.95774846633E+01  0.16404246181E+04  0.16432314995E+04  0.78366302207E+02 0.  0.
      -13    1    4    4    0    0  0.11151011876E+02 -0.18595878329E+02  0.23909320557E+03  0.24007438994E+03  0.00000000000E+00 0.  1.
       14    1    4    4    0    0 -0.65775435055E+02  0.28173362993E+02  0.14013314125E+04  0.14031571095E+04  0.00000000000E+00 0. -1.
        3    1    3    3  502    0 -0.58910780048E+01  0.26122637814E+02  0.44258391427E+03  0.44339329966E+03  0.00000000000E+00 0. -1.
       -4    1    3    3    0  502  0.60515501184E+02 -0.35700122477E+02  0.15695666844E+04  0.15711385048E+04  0.00000000000E+00 0.  1.
</event>
<event>
 8   1  0.2279600E-02  0.1204194E+03  0.7546771E-02  0.1242664E+00
       -2   -1    0    0    0  501 -0.00000000000E+00  0.00000000000E+00  0.17268365431E+03  0.17268365431E+03  0.00000000000E+00 0.  1.
        2   -1    0    0  501    0  0.00000000000E+00 -0.00000000000E+00 -0.40833774126E+03  0.40833774126E+03  0.00000000000E+00 0. -1.
      -24    2    1    2    0    0 -0.86325074147E+02  0.23142993959E+02  0.14133099915E+03  0.18527073768E+03  0.79769532554E+02 0.  0.
       24    2    1    2    0    0  0.86325074147E+02 -0.23142993959E+02 -0.37698508610E+03  0.39575065789E+03  0.80704469996E+02 0.  0.
      -13    1    4    4    0    0  0.34207306507E+01 -0.23475342823E+02 -0.18654404649E+03  0.18804646873E+03  0.00000000000E+00 0.  1.
       14    1    4    4    0    0  0.82904343496E+02  0.33234886357E+00 -0.19044103961E+03  0.20770418916E+03  0.00000000000E+00 0. -1.
        3    1    3    3  502    0  0.21779972066E+01 -0.20831073695E+02  0.23309973114E+02  0.31337392196E+02  0.00000000000E+00 0. -1.
       -4    1    3    3    0  502 -0.88503071354E+02  0.43974067654E+02  0.11802102604E+03  0.15393334549E+03  0.00000000000E+00 0.  1.
</event>
<event>
 8   1  0.2279600E-02  0.1105654E+03  0.7546771E-02  0.1260318E+00
        2   -1    0    0  501    0  0.00000000000E+00  0.00000000000E+00  0.62137595994E+02  0.62137595994E+02  0.00000000000E+00 0. -1.
       -2   -1    0    0    0  501 -0.00000000000E+00 -0.00000000000E+00 -0.31927144786E+03  0.31927144786E+03  0.00000000000E+00 0.  1.
      -24    2    1    2    0    0 -0.50989134535E+02 -0.54149888955E+02 -0.24876536320E+03  0.27222951291E+03  0.81808309210E+02 0.  0.
       24    2    1    2    0    0  0.50989134535E+02  0.54149888955E+02 -0.83684886676E+01  0.10917953095E+03  0.79486074636E+02 0.  0.
      -13    1    4    4    0    0  0.40425015719E+02 -0.95931252434E+01 -0.15124200027E+02  0.44214832062E+02  0.00000000000E+00 0.  1.
       14    1    4    4    0    0  0.10564118817E+02  0.63743014198E+02  0.67557113592E+01  0.64964698886E+02  0.00000000000E+00 0. -1.
        1    1    3    3  502    0  0.41158794678E+01  0.54836272212E+01  0.31549768978E+01  0.75474837210E+01  0.00000000000E+00 0. -1.
       -2    1    3    3    0  502 -0.55105014003E+02 -0.59633516176E+02 -0.25192034010E+03  0.26468202919E+03  0.00000000000E+00 0.  1.
</event>
<event>
 8   1  0.2279600E-02  0.1402354E+03  0.7546771E-02  0.1213723E+00
        1   -1    0    0  501    0  0.00000000000E+00  0.00000000000E+00  0.76490588492E+03  0.76490588492E+03  0.00000000000E+00 0. -1.
       -1   -1    0    0    0  501 -0.00000000000E+00 -0.00000000000E+00 -0.73890216780E+02  0.73890216780E+02  0.00000000000E+00 0.  1.
       24    2    1    2    0    0  0.72723857516E+02  0.88066928427E+02  0.63979464100E+01  0.14038131365E+03  0.81372207601E+02 0.  0.
      -24    2    1    2    0    0 -0.72723857516E+02 -0.88066928427E+02  0.68461772173E+03  0.69841478805E+03  0.77699729233E+02 0.  0.
      -13    1    3    3    0    0  0.69282410144E+02  0.94457651585E+02  0.25553255515E+02  0.11989691058E+03  0.00000000000E+00 0.  1.
       14    1    3    3    0    0  0.34414473717E+01 -0.63907231577E+01 -0.19155309105E+02  0.20484403076E+02  0.00000000000E+00 0. -1.
        3    1    4    4  502    0 -0.84708616724E+01 -0.48991321857E+02  0.43170130524E+03  0.43455485507E+03  0.00000000000E+00 0. -1.
       -4    1    4    4    0  502 -0.64252995843E+02 -0.39075606570E+02  0.25291641649E+03  0.26385993299E+03  0.00000000000E+00 0.  1.
</event>
<event>
 8   1  0.2279600E-02  0.9087248E+02  0.7546771E-02  0.1301928E+00
       -2   -1    0    0    0  501 -0.00000000000E+00  0.00000000000E+00  0.12895979292E+02  0.12895979292E+02  0.00000000000E+00 0.  1.
        2   -1    0    0  501    0  0.00000000000E+00 -0.00000000000E+00 -0.64961835561E+03  0.64961835561E+03  0.00000000000E+00 0. -1.
       24    2    1    2    0    0  0.39631701505E+02  0.15174332086E+02 -0.38387108661E+03  0.39448044192E+03  0.80354687527E+02 0.  0.
      -24    2    1    2    0    0 -0.39631701505E+02 -0.15174332086E+02 -0.25285128971E+03  0.26803389298E+03  0.78150246060E+02 0.  0.
      -13    1    3    3    0    0  0.28667842532E+02 -0.31430502170E+02 -0.16105138327E+03  0.16657511733E+03  0.00000000000E+00 0.  1.
       14    1    3    3    0    0  0.10963858973E+02  0.46604834256E+02 -0.22281970334E+03  0.22790532459E+03  0.00000000000E+00 0. -1.
        3    1    4    4  502    0  0.49245892123E+01  0.27059089519E+02 -0.74840715420E+02  0.79734425370E+02  0.00000000000E+00 0. -1.
       -4    1    4    4    0  502 -0.44556290717E+02 -0.42233421605E+02 -0.17801057429E+03  0.18829946761E+03  0.00000000000E+00 0.  1.
</event>
<event>
 8   1  0.2279600E-02  0.1025288E+03  0.7546771E-02  0.1276014E+00
       -2   -1    0    0    0  501 -0.00000000000E+00  0.00000000000E+00  0.71565318335E+01  0.71565318335E+01  0.00000000000E+00 0.  1.
        2   -1    0    0  501    0  0.00000000000E+00 -0.00000000000E+00 -0.18702634868E+04  0.18702634868E+04  0.00000000000E+00 0. -1.
       24    2    1    2    0    0 -0.58330150225E+02  0.29891999643E+02 -0.13869702884E+04  0.13907547373E+04  0.78843010996E+02 0.  0.
      -24    2    1    2    0    0  0.58330150225E+02 -0.29891999643E+02 -0.47613666652E+03  0.48666528127E+03  0.76426649318E+02 0.  0.
      -13    1    3    3    0    0 -0.27272708734E+02  0.29556673967E+02 -0.23868175019E+03  0.24204622594E+03  0.00000000000E+00 0.  1.
       14    1    3    3    0    0 -0.31057441491E+02  0.33532567619E+00 -0.11482885382E+04  0.11487085114E+04  0.00000000000E+00 0. -1.
        3    1    4    4  502    0  0.18578121479E+02 -0.50625524514E+02 -0.21203675554E+03  0.21878682783E+03  0.00000000000E+00 0. -1.
       -4    1    4    4    0  502  0.39752028745E+02  0.20733524871E+02 -0.26409991098E+03  0.26787845345E+03  0.00000000000E+00 0.  1.
</event>
<event>
 8   1  0.2279600E-02  0.1110662E+03  0.7546771E-02  0.1260518E+00
        4   -1    0    0  501    0  0.00000000000E+00  0.00000000000E+00  0.88146826651E+02  0.88146826651E+02  0.00000000000E+00 0. -1.
       -4   -1    0    0    0  501 -0.00000000000E+00 -0.00000000000E+00 -0.13692612644E+03  0.13692612644E+03  0.00000000000E+00 0.  1.
      -24    2    1    2    0    0  0.20949683238E+02 -0.67160078146E+02 -0.10025330573E+02  0.10743977608E+03  0.80581839811E+02 0.  0.
       24    2    1    2    0    0 -0.20949683238E+02  0.67160078146E+02 -0.38753969216E+02  0.11763317701E+03  0.85943754159E+02 0.  0.
      -13    1    4    4    0    0 -0.46087294024E+01  0.44938950432E+02 -0.65265916569E+02  0.79374993028E+02  0.00000000000E+00 0.  1.
       14    1    4    4    0    0 -0.16340953836E+02  0.22221127714E+02  0.26511947352E+02  0.38258183981E+02  0.00000000000E+00 0. -1.
        1    1    3    3  502    0  0.42293293568E+02 -0.88584656350E+01 -0.13460878027E+02  0.45259146385E+02  0.00000000000E+00 0. -1.
       -2    1    3    3    0  502 -0.21343610330E+02 -0.58301612511E+02  0.34355474539E+01  0.62180629698E+02  0.00000000000E+00 0.  1.
</event>
<event>
 8   1  0.2279600E-02  0.9371368E+02  0.7546771E-02  0.1296811E+00
        1   -1    0    0  501    0  0.00000000000E+00  0.00000000000E+00  0.26154252973E+02  0.26154252973E+02  0.00000000000E+00 0. -1.
       -1   -1    0    0    0  501 -0.00000000000E+00 -0.00000000000E+00 -0.34490068922E+03  0.34490068922E+03  0.00000000000E+00 0.  1.
       24    2    1    2    0    0 -0.26774568957E+02 -0.32918886073E+02 -0.21341906883E+03  0.23308786496E+03  0.83556706794E+02 0.  0.
      -24    2    1    2    0    0  0.26774568957E+02  0.32918886073E+02 -0.10532736742E+03  0.13796707723E+03  0.78361530542E+02 0.  0.
      -13    1    3    3    0    0 -0.56972199641E+02 -0.19883050843E+02 -0.14907565247E+03  0.16082511434E+03  0.00000000000E+00 0.  1.
       14    1    3    3    0    0  0.30197630684E+02 -0.13035835230E+02 -0.64343416359E+02  0.72262750624E+02  0.00000000000E+00 0. -1.
        1    1    4    4  502    0 -0.15748645024E+02  0.37426773031E+02 -0.27108711686E+02  0.48822795996E+02  0.00000000000E+00 0. -1.
       -2    1    4    4    0  502  0.42523213981E+02 -0.45078869575E+01 -0.78218655734E+02  0.89144281235E+02  0.00000000000E+00 0.  1.
</event>
<event>
 8   1  0.2279600E-02  0.1067435E+03  0.7546771E-02  0.1275364E+00
        2   -1    0    0  501    0  0.00000000000E+00  0.00000000000E+00  0.38798918963E+04  0.38798918963E+04  0.00000000000E+00 0. -1.
       -2   -1    0    0    0  501 -0.00000000000E+00 -0.00000000000E+00 -0.10466251203E+02  0.10466251203E+02  0.00000000000E+00 0.  1.
      -24    2    1    2    0    0 -0.38719339806E+02  0.19227472414E+02  0.27788424067E+03  0.29768074568E+03  0.97597603285E+02 0.  0.
       24    2    1    2    0    0  0.38719339806E+02 -0.19227472414E+02  0.35915414045E+04  0.35926774019E+04  0.79324465700E+02 0.  0.
      -13    1    4    4    0    0  0.30243128167E+02 -0.13609814262E+02  0.49075217488E+03  0.49187149846E+03  0.00000000000E+00 0.  1.
       14    1    4    4    0    0  0.84762116391E+01 -0.56176581521E+01  0.31007892296E+04  0.31008059034E+04  0.00000000000E+00 0. -1.
        1    1    3    3  502    0 -0.92674316987E+01 -0.31231983094E+02  0.18573512645E+03  0.18857056837E+03  0.00000000000E+00 0. -1.
       -2    1    3    3    0  502 -0.29451908107E+02  0.50459455508E+02  0.92149114212E+02  0.10911017730E+03  0.00000000000E+00 0.  1.
</event>
<event>
 8   1  0.2279600E-02  0.7539862E+02  0.7546771E-02  0.1343948E+00
       -2   -1    0    0    0  501 -0.00000000000E+00  0.00000000000E+00  0.17891333767E+03  0.17891333767E+03  0.00000000000E+00 0.  1.
        2   -1    0    0  501    0  0.00000000000E+00 -0.00000000000E+00 -0.18486284434E+03  0.18486284434E+03  0.00000000000E+00 0. -1.
      -24    2    1    2    0    0 -0.59880209648E+01  0.12088828312E+02  0.16291783610E+03  0.17951928315E+03  0.74181908442E+02 0.  0.
       24    2    1    2    0    0  0.59880209648E+01 -0.12088828312E+02 -0.16886734277E+03  0.18425689886E+03  0.72473644589E+02 0.  0.
      -13    1    4    4    0    0 -0.35296326927E+01  0.15473547714E+02 -0.33886699211E+01  0.16228742084E+02  0.00000000000E+00 0.  1.
       14    1    4    4    0    0  0.95176536575E+01 -0.27562376025E+02 -0.16547867285E+03  0.16802815678E+03  0.00000000000E+00 0. -1.
        3    1    3    3  502    0  0.15676414047E+02  0.29653159785E+02  0.34538181795E+02  0.48145050050E+02  0.00000000000E+00 0. -1.
       -4    1    3    3    0  502 -0.21664435012E+02 -0.17564331474E+02  0.12837965430E+03  0.13137423310E+03  0.00000000000E+00 0.  1.
</event>
<event>
 8   1  0.2279600E-02  0.8995495E+02  0.7546771E-02  0.1303266E+00
       -2   -1    0    0    0  501 -0.00000000000E+00  0.00000000000E+00  0.24333700813E+02  0.24333700813E+02  0.00000000000E+00 0.  1.
        2   -1    0    0  501    0  0.00000000000E+00 -0.00000000000E+00 -0.46231393809E+03  0.46231393809E+03  0.00000000000E+00 0. -1.
      -24    2    1    2    0    0 -0.36855410952E+02  0.12563581533E+02 -0.34926407291E+03  0.36066228775E+03  0.81090864334E+02 0.  0.
       24    2    1    2    0    0  0.36855410952E+02 -0.12563581533E+02 -0.88716164365E+02  0.12598535116E+03  0.80533135969E+02 0.  0.
      -13    1    4    4    0    0 -0.13175837146E+01 -0.35934445597E+02 -0.67438292846E+02  0.76426067210E+02  0.00000000000E+00 0.  1.
       14    1    4    4    0    0  0.38172994667E+02  0.23370864064E+02 -0.21277871519E+02  0.49559283947E+02  0.00000000000E+00 0. -1.
        1    1    3    3  502    0 -0.93083732765E+01 -0.33574774404E+02 -0.16924795433E+03  0.17279693670E+03  0.00000000000E+00 0. -1.
       -2    1    3    3    0  502 -0.27547037676E+02  0.46138355937E+02 -0.18001611858E+03  0.18786535104E+03  0.00000000000E+00 0.  1.
</event>
<event>
 8   1  0.2279600E-02  0.1287680E+03  0.7546771E-02  0.1236640E+00
        1   -1    0    0  501    0  0.00000000000E+00  0.00000000000E+00  0.37164252561E+03  0.37164252561E+03  0.00000000000E+00 0. -1.
       -1   -1    0    0    0  501 -0.00000000000E+00 -0.00000000000E+00 -0.91807381473E+02  0.91807381473E+02  0.00000000000E+00 0.  1.
       24    2    1    2    0    0 -0.70603133577E+02 -0.20384174095E+02 -0.40734985365E+02  0.11798441855E+03  0.82829143200E+02 0.  0.
      -24    2    1    2    0    0  0.70603133577E+02  0.20384174095E+02  0.32057012950E+03  0.34546548853E+03  0.10573967474E+03 0.  0.
      -13    1    3    3    0    0 -0.57540493141E+02 -0.15602451345E+02 -0.66125416921E+02  0.89033227516E+02  0.00000000000E+00 0.  1.
       14    1    3    3    0    0 -0.13062640436E+02 -0.47817227496E+01  0.25390431557E+02  0.28951191033E+02  0.00000000000E+00 0. -1.
        3    1    4    4  502    0  0.83575646646E+02 -0.42109160851E+01  0.29837355365E+03  0.30988610495E+03  0.00000000000E+00 0. -1.
       -4    1    4    4    0  502 -0.12972513069E+02  0.24595090180E+02  0.22196575849E+02  0.35579383576E+02  0.00000000000E+00 0.  1.
</event>
<event>
 8   1  0.2279600E-02  0.9562780E+02  0.7546771E-02  0.1290089E+00
        2   -1    0    0  501    0  0.00000000000E+00  0.00000000000E+00  0.69467972408E+03  0.69467972408E+03  0.00000000000E+00 0. -1.
       -2   -1    0    0    0  501 -0.00000000000E+00 -0.00000000000E+00 -0.14303911482E+02  0.14303911482E+02  0.00000000000E+00 0.  1.
      -24    2    1    2    0    0  0.50920379649E+02 -0.11434519577E+01  0.23765048286E+03  0.25616874885E+03  0.80935056276E+02 0.  0.
       24    2    1    2    0    0 -0.50920379649E+02  0.11434519577E+01  0.44272532973E+03  0.45281488671E+03  0.80258404525E+02 0.  0.
      -13    1    4    4    0    0 -0.41161115331E+02  0.66436390321E+01  0.82703508772E+02  0.92618819459E+02  0.00000000000E+00 0.  1.
       14    1    4    4    0    0 -0.97592643188E+01 -0.55001870745E+01  0.36002182096E+03  0.36019606725E+03  0.00000000000E+00 0. -1.
        1    1    3    3  502    0  0.42783706647E+01 -0.69266580026E+01  0.18660185963E+03  0.18677938073E+03  0.00000000000E+00 0. -1.
       -2    1    3    3    0  502  0.46642008985E+02  0.57832060450E+01  0.51048623233E+02  0.69389368121E+02  0.00000000000E+00 0.  1.
</event>
<event>
 8   1  0.2279600E-02  0.8294846E+02  0.7546771E-02  0.1321480E+00
        2   -1    0    0  501    0  0.00000000000E+00  0.00000000000E+00  0.48632128490E+02  0.48632128490E+02  0.00000000000E+00 0. -1.
       -2   -1    0    0    0  501 -0.00000000000E+00 -0.00000000000E+00 -0.14056799152E+03  0.14056799152E+03  0.00000000000E+00 0.  1.
      -24    2    1    2    0    0  0.85449107856E+01 -0.62896154408E+01 -0.39673257256E+02  0.91160196298E+02  0.81385743746E+02 0.  0.
       24    2    1    2    0    0 -0.85449107856E+01  0.62896154408E+01 -0.52262605775E+02  0.98039923713E+02  0.82267076747E+02 0.  0.
      -13    1    4    4    0    0  0.25764455822E+02  0.28646494054E+02 -0.39423003796E+02  0.55123516159E+02  0.00000000000E+00 0.  1.
       14    1    4    4    0    0 -0.34309366607E+02 -0.22356878614E+02 -0.12839601979E+02  0.42916407554E+02  0.00000000000E+00 0. -1.
        1    1    3    3  502    0  0.20102288400E+02 -0.36325164065E+02 -0.19330115233E+01  0.41561473468E+02  0.00000000000E+00 0. -1.
       -2    1    3    3    0  502 -0.11557377614E+02  0.30035548624E+02 -0.37740245733E+02  0.49598722831E+02  0.00000000000E+00 0.  1.
</event>
<event>
 8   1  0.2279600E-02  0.1342826E+03  0.7546771E-02  0.1221330E+00
       -1   -1    0    0    0  501 -0.00000000000E+00  0.00000000000E+00  0.14146403054E+02  0.14146403054E+02  0.00000000000E+00 0.  1.
        1   -1    0    0  501    0  0.00000000000E+00 -0.00000000000E+00 -0.22448664274E+04  0.22448664274E+04  0.00000000000E+00 0. -1.
       24    2    1    2    0    0 -0.10225723006E+03  0.27820831857E+02 -0.37247189959E+03  0.39593829561E+03  0.82469862103E+02 0.  0.
      -24    2    1    2    0    0  0.10225723006E+03 -0.27820831857E+02 -0.18582481247E+04  0.18630745348E+04  0.82037122475E+02 0.  0.
      -13    1    3    3    0    0 -0.57686800483E+02  0.52794206102E+02 -0.17004745052E+03  0.18716605081E+03  0.00000000000E+00 0.  1.
       14    1    3    3    0    0 -0.44570429582E+02 -0.24973374245E+02 -0.20242444907E+03  0.20877224479E+03  0.00000000000E+00 0. -1.
        1    1    4    4  502    0  0.92906421172E+02 -0.47807481582E+02 -0.12269411712E+04  0.12313820674E+04  0.00000000000E+00 0. -1.
       -2    1    4    4    0  502  0.93508088927E+01  0.19986649725E+02 -0.63130695352E+03  0.63169246739E+03  0.00000000000E+00 0.  1.
</event>
<event>
 8   1  0.2279600E-02  0.8823729E+02  0.7546771E-02  0.1307410E+00
       -1   -1    0    0    0  501 -0.00000000000E+00  0.00000000000E+00  0.12253873940E+02  0.12253873940E+02  0.00000000000E+00 0.  1.
        1   -1    0    0  501    0  0.00000000000E+00 -0.00000000000E+00 -0.83846816044E+03  0.83846816044E+03  0.00000000000E+00 0. -1.
       24    2    1    2    0    0  0.26631624302E+02  0.24053212757E+02 -0.20171996109E+03  0.22002481491E+03  0.80200847981E+02 0.  0.
      -24    2    1    2    0    0 -0.26631624302E+02 -0.24053212757E+02 -0.62449432540E+03  0.63069721946E+03  0.80610295379E+02 0.  0.
      -13    1    3    3    0    0  0.44614497761E+02 -0.13139950371E+02 -0.10343872676E+03  0.11341376415E+03  0.00000000000E+00 0.  1.
       14    1    3    3    0    0 -0.17982873460E+02  0.37193163128E+02 -0.98281234338E+02  0.10661105076E+03  0.00000000000E+00 0. -1.
        1    1    4    4  502    0 -0.41263345513E+02 -0.29605721359E+02 -0.59623412706E+03  0.59839309546E+03  0.00000000000E+00 0. -1.
       -2    1    4    4    0  502  0.14631721211E+02  0.55525086016E+01 -0.28260198340E+02  0.32304124003E+02  0.00000000000E+00 0.  1.
</event>
<event>
 8   1  0.2279600E-02  0.1069500E+03  0.7546771E-02  0.1267407E+00
        1   -1    0    0  501    0  0.00000000000E+00  0.00000000000E+00  0.49208169049E+03  0.49208169049E+03  0.00000000000E+00 0. -1.
       -1   -1    0    0    0  501 -0.00000000000E+00 -0.00000000000E+00 -0.24730292945E+02  0.24730292945E+02  0.00000000000E+00 0.  1.
       24    2    1    2    0    0 -0.70696163193E+02 -0.45971473497E+01  0.16306797061E+03  0.19501142274E+03  0.80119976946E+02 0.  0.
      -24    2    1    2    0    0  0.70696163193E+02  0.45971473497E+01  0.30428342694E+03  0.32180056070E+03  0.77124028049E+02 0.  0.
      -13    1    3    3    0    0  0.22397557329E+01 -0.12354678684E+02 -0.34786203179E+01  0.13029021085E+02  0.00000000000E+00 0.  1.
       14    1    3    3    0    0 -0.72935918926E+02  0.77575313344E+01  0.16654659092E+03  0.18198240165E+03  0.00000000000E+00 0. -1.
        3    1    4    4  502    0  0.33519926025E+01  0.17342771575E+02  0.11443474279E+02  0.21046631176E+02  0.00000000000E+00 0. -1.
       -4    1    4    4    0  502  0.67344170590E+02 -0.12745624225E+02  0.29283995266E+03  0.30075392952E+03  0.00000000000E+00 0.  1.
</event>
<event>
 8   1  0.2279600E-02  0.9232202E+02  0.7546771E-02  0.1297555E+00
       -1   -1    0    0    0  501 -0.00000000000E+00  0.00000000000E+00  0.21785149306E+03  0.21785149306E+03  0.00000000000E+00 0.  1.
        1   -1    0    0  501    0  0.00000000000E+00 -0.00000000000E+00 -0.47792403138E+02  0.47792403138E+02  0.00000000000E+00 0. -1.
       24    2    1    2    0    0  0.19960591356E+02 -0.39619654144E+02  0.14198717364E+03  0.16914836434E+03  0.80515026429E+02 0.  0.
      -24    2    1    2    0    0 -0.19960591356E+02  0.39619654144E+02  0.28071916280E+02  0.96495531850E+02  0.80964269784E+02 0.  0.
      -13    1    3    3    0    0 -0.24041815994E+02 -0.40942685911E+02  0.81781862607E+02  0.94565244659E+02  0.00000000000E+00 0.  1.
       14    1    3    3    0    0  0.44002407350E+02  0.13230317669E+01  0.60205311031E+02  0.74583119685E+02  0.00000000000E+00 0. -1.
        1    1    4    4  502    0 -0.27047884390E+02  0.11991111645E+02 -0.23351226595E+02  0.37691571896E+02  0.00000000000E+00 0. -1.
       -2    1    4    4    0  502  0.70872930347E+01  0.27628542500E+02  0.51423142875E+02  0.58803959954E+02  0.00000000000E+00 0.  1.
</event>
<event>
 8   1  0.2279600E-02  0.1171513E+03  0.7546771E-02  0.1248566E+00
       -2   -1    0    0    0  501 -0.00000000000E+00  0.00000000000E+00  0.11542372185E+02  0.11542372185E+02  0.00000000000E+00 0.  1.
        2   -1    0    0  501    0  0.00000000000E+00 -0.00000000000E+00 -0.17874638089E+04  0.17874638089E+04  0.00000000000E+00 0. -1.
      -24    2    1    2    0    0 -0.83431013130E+02  0.20066295941E+00 -0.35639201420E+03  0.37465081919E+03  0.79919924391E+02 0.  0.
       24    2    1    2    0    0  0.83431013130E+02 -0.20066295941E+00 -0.14195294225E+04  0.14243553619E+04  0.82241360406E+02 0.  0.
      -13    1    4    4    0    0 -0.16221726003E+02  0.60228214539E+01 -0.21135511690E+03  0.21206226494E+03  0.00000000000E+00 0.  1.
       14    1    4    4    0    0  0.99652739133E+02 -0.62234844133E+01 -0.12081743056E+04  0.12122930969E+04  0.00000000000E+00 0. -1.
        1    1    3    3  502    0  0.19581362573E+01 -0.18347991189E+02 -0.14110775855E+03  0.14230910934E+03  0.00000000000E+00 0. -1.
       -2    1    3    3    0  502 -0.85389149388E+02  0.18548654149E+02 -0.21528425565E+03  0.23234170985E+03  0.00000000000E+00 0.  1.
</event>
<event>
 8   1  0.2279600E-02  0.9248576E+02  0.7546771E-02  0.1297011E+00
        3   -1    0    0  501    0  0.00000000000E+00  0.00000000000E+00  0.73324157878E+02  0.73324157878E+02  0.00000000000E+00 0. -1.
       -3   -1    0    0    0  501 -0.00000000000E+00 -0.00000000000E+00 -0.37628107932E+03  0.37628107932E+03  0.00000000000E+00 0.  1.
       24    2    1    2    0    0  0.39446302460E+02  0.16738432681E+02 -0.33823446344E+03  0.35061978045E+03  0.81825987767E+02 0.  0.
      -24    2    1    2    0    0 -0.39446302460E+02 -0.16738432681E+02  0.35277542003E+02  0.98985456749E+02  0.81959927840E+02 0.  0.
      -13    1    3    3    0    0 -0.13652906924E+02  0.32408064831E+02 -0.16682718219E+03  0.17049338184E+03  0.00000000000E+00 0.  1.
       14    1    3    3    0    0  0.53099209385E+02 -0.15669632150E+02 -0.17140728125E+03  0.18012639861E+03  0.00000000000E+00 0. -1.
        1    1    4    4  502    0 -0.43465148011E+02 -0.40869635556E+02  0.47293955021E+01  0.59849088414E+02  0.00000000000E+00 0. -1.
       -2    1    4    4    0  502  0.40188455511E+01  0.24131202875E+02  0.30548146501E+02  0.39136368335E+02  0.00000000000E+00 0.  1.
</event>
<event>
 8   1  0.2279600E-02  0.9401545E+02  0.7546771E-02  0.1293462E+00
        2   -1    0    0  501    0  0.00000000000E+00  0.00000000000E+00  0.35139814653E+03  0.35139814653E+03  0.00000000000E+00 0. -1.
       -2   -1    0    0    0  501 -0.00000000000E+00 -0.00000000000E+00 -0.25259372042E+02  0.25259372042E+02  0.00000000000E+00 0.  1.
      -24    2    1    2    0    0  0.44462823721E+02  0.23284248125E+02  0.14944984904E+03  0.17651286584E+03  0.79387880216E+02 0.  0.
       24    2    1    2    0    0 -0.44462823721E+02 -0.23284248125E+02  0.17668892545E+03  0.20014465273E+03  0.79497212132E+02 0.  0.
      -13    1    4    4    0    0 -0.61230849544E+02 -0.28669641402E+02  0.95146307033E+02  0.11672182750E+03  0.00000000000E+00 0.  1.
       14    1    4    4    0    0  0.16768025822E+02  0.53853932767E+01  0.81542618419E+02  0.83422825230E+02  0.00000000000E+00 0. -1.
        1    1    3    3  502    0  0.65665378490E+02  0.51156311628E+01  0.10921918346E+03  0.12754192115E+03  0.00000000000E+00 0. -1.
       -2    1    3    3    0  502 -0.21202554769E+02  0.18168616963E+02  0.40230665579E+02  0.48970944691E+02  0.00000000000E+00 0.  1.
</event>
<event>
 8   1  0.2279600E-02  0.1791461E+03  0.7546771E-02  0.1169053E+00
       -1   -1    0    0    0  501 -0.00000000000E+00  0.00000000000E+00  0.10652695009E+03  0.10652695009E+03  0.00000000000E+00 0.  1.
        1   -1    0    0  501    0  0.00000000000E+00 -0.00000000000E+00 -0.37126177721E+03  0.37126177721E+03  0.00000000000E+00 0. -1.
       24    2    1    2    0    0  0.59570909700E+02  0.14697118448E+03 -0.27036336141E+02  0.18117469857E+03  0.83331180130E+02 0.  0.
      -24    2    1    2    0    0 -0.59570909700E+02 -0.14697118448E+03 -0.23769849097E+03  0.29661402873E+03  0.79561844341E+02 0.  0.
      -13    1    3    3    0    0  0.69418688295E+02  0.14692803510E+03 -0.37534830366E+02  0.16678029042E+03  0.00000000000E+00 0.  1.
       14    1    3    3    0    0 -0.98477785952E+01  0.43149382633E-01  0.10498494225E+02  0.14394408154E+02  0.00000000000E+00 0. -1.
        1    1    4    4  502    0 -0.32679477361E+02 -0.14198527630E+03 -0.22056090249E+03  0.26433856819E+03  0.00000000000E+00 0. -1.
       -2    1    4    4    0  502 -0.26891432338E+02 -0.49859081782E+01 -0.17137588489E+02  0.32275460536E+02  0.00000000000E+00 0.  1.
</event>
<event>
 8   1  0.2279600E-02  0.8418455E+02  0.7546771E-02  0.1319165E+00
        1   -1    0    0  501    0  0.00000000000E+00  0.00000000000E+00  0.11220372612E+03  0.11220372612E+03  0.00000000000E+00 0. -1.
       -1   -1    0    0    0  501 -0.00000000000E+00 -0.00000000000E+00 -0.40435434962E+03  0.40435434962E+03  0.00000000000E+00 0.  1.
       24    2    1    2    0    0  0.92662596344E+01 -0.20037267969E+02 -0.38361743832E+03  0.39224710753E+03  0.78791488806E+02 0.  0.
      -24    2    1    2    0    0 -0.92662596344E+01  0.20037267969E+02  0.91466814820E+02  0.12431096821E+03  0.81238432583E+02 0.  0.
      -13    1    3    3    0    0  0.25752094585E+02 -0.44047181290E+02 -0.20401279441E+03  0.21029632626E+03  0.00000000000E+00 0.  1.
       14    1    3    3    0    0 -0.16485834950E+02  0.24009913321E+02 -0.17960464390E+03  0.18195078127E+03  0.00000000000E+00 0. -1.
        1    1    4    4  502    0  0.35482995653E+02  0.16677359772E+02  0.45716864607E+02  0.60226315004E+02  0.00000000000E+00 0. -1.
       -2    1    4    4    0  502 -0.44749255288E+02  0.33599081968E+01  0.45749950213E+02  0.64084653205E+02  0.00000000000E+00 0.  1.
</event>
<event>
 8   1  0.2279600E-02  0.9084201E+02  0.7546771E-02  0.1300829E+00
       -1   -1    0    0    0  501 -0.00000000000E+00  0.00000000000E+00  0.32927354940E+03  0.32927354940E+03  0.00000000000E+00 0.  1.
        1   -1    0    0  501    0  0.00000000000E+00 -0.00000000000E+00 -0.26471131076E+02  0.26471131076E+02  0.00000000000E+00 0. -1.
       24    2    1    2    0    0 -0.18422459724E+02 -0.37947948331E+02  0.19246919416E+03  0.21283012189E+03  0.80453938862E+02 0.  0.
      -24    2    1    2    0    0  0.18422459724E+02  0.37947948331E+02  0.11033322417E+03  0.14291455859E+03  0.80446981899E+02 0.  0.
      -13    1    3    3    0    0 -0.45271181351E+02 -0.26068549502E+02  0.72749670829E+02  0.89563182948E+02  0.00000000000E+00 0.  1.
       14    1    3    3    0    0  0.26848721627E+02 -0.11879398829E+02  0.11971952333E+03  0.12326693894E+03  0.00000000000E+00 0. -1.
        3    1    4    4  502    0  0.29130366989E+02  0.26671765413E+01  0.29767259332E+01  0.29403282281E+02  0.00000000000E+00 0. -1.
       -4    1    4    4    0  502 -0.10707907264E+02  0.35280771789E+02  0.10735649823E+03  0.11351127631E+03  0.00000000000E+00 0.  1.
</event>
<event>
 8   1  0.2279600E-02  0.9142806E+02  0.7546771E-02  0.1300006E+00
        1   -1    0    0  501    0  0.00000000000E+00  0.00000000000E+00  0.19325265878E+04  0.19325265878E+04  0.00000000000E+00 0. -1.
       -1   -1    0    0    0  501 -0.00000000000E+00 -0.00000000000E+00 -0.11511601780E+02  0.11511601780E+02  0.00000000000E+00 0.  1.
       24    2    1    2    0    0 -0.28888248841E+01  0.41294760708E+02  0.18819315538E+03  0.20880604750E+03  0.80434440217E+02 0.  0.
      -24    2    1    2    0    0  0.28888248841E+01 -0.41294760708E+02  0.17328218307E+04  0.17352321421E+04  0.81519859916E+02 0.  0.
      -13    1    3    3    0    0 -0.41384095335E+02  0.17271458875E+02  0.85916253804E+02  0.96915165512E+02  0.00000000000E+00 0.  1.
       14    1    3    3    0    0  0.38495270451E+02  0.24023301833E+02  0.10227690157E+03  0.11189088199E+03  0.00000000000E+00 0. -1.
        1    1    4    4  502    0 -0.11198941558E+02 -0.53272365571E+02  0.16192528841E+04  0.16201676654E+04  0.00000000000E+00 0. -1.
       -2    1    4    4    0  502  0.14087766442E+02  0.11977604863E+02  0.11356894657E+03  0.11506447674E+03  0.00000000000E+00 0.  1.
</event>
<event>
 8   1  0.2279600E-02  0.9088014E+02  0.7546771E-02  0.1307039E+00
       -1   -1    0    0    0  501 -0.00000000000E+00  0.00000000000E+00  0.15594359073E+02  0.15594359073E+02  0.00000000000E+00 0.  1.
        1   -1    0    0  501    0  0.00000000000E+00 -0.00000000000E+00 -0.17928390021E+04  0.17928390021E+04  0.00000000000E+00 0. -1.
       24    2    1    2    0    0  0.13808208082E+01 -0.45567894069E+02 -0.99725911694E+02  0.12845470229E+03  0.66910488272E+02 0.  0.
      -24    2    1    2    0    0 -0.13808208082E+01  0.45567894069E+02 -0.16775187313E+04  0.16799786589E+04  0.78618450132E+02 0.  0.
      -13    1    3    3    0    0 -0.11246505672E+02 -0.56821892015E+02 -0.52076051328E+02  0.77891760950E+02  0.00000000000E+00 0.  1.
       14    1    3    3    0    0  0.12627326481E+02  0.11253997947E+02 -0.47649860366E+02  0.50562941338E+02  0.00000000000E+00 0. -1.
        1    1    4    4  502    0  0.12020541750E+02  0.59555529019E+02 -0.82266907444E+03  0.82490954686E+03  0.00000000000E+00 0. -1.
       -2    1    4    4    0  502 -0.13401362558E+02 -0.13987634950E+02 -0.85484965687E+03  0.85506911200E+03  0.00000000000E+00 0.  1.
</event>
<event>
 8   1  0.2279600E-02  0.8430608E+02  0.7546771E-02  0.1317692E+00
       -2   -1    0    0    0  501 -0.00000000000E+00  0.00000000000E+00  0.16454627804E+03  0.16454627804E+03  0.00000000000E+00 0.  1.
        2   -1    0    0  501    0  0.00000000000E+00 -0.00000000000E+00 -0.84849644155E+02  0.84849644155E+02  0.00000000000E+00 0. -1.
      -24    2    1    2    0    0 -0.12643927307E+02 -0.19782965005E+02  0.12764858305E+03  0.15297606423E+03  0.80970864325E+02 0.  0.
       24    2    1    2    0    0  0.12643927307E+02  0.19782965005E+02 -0.47951949173E+02  0.96419857961E+02  0.80288012664E+02 0.  0.
      -13    1    4    4    0    0  0.12036438576E+02  0.17253481487E+02  0.19638735035E+02  0.28779131168E+02  0.00000000000E+00 0.  1.
       14    1    4    4    0    0  0.60748873120E+00  0.25294835186E+01 -0.67590684208E+02  0.67640726793E+02  0.00000000000E+00 0. -1.
        1    1    3    3  502    0  0.23734397182E+02 -0.30694685433E+02  0.32802285093E+02  0.50808220110E+02  0.00000000000E+00 0. -1.
       -2    1    3    3    0  502 -0.36378324489E+02  0.10911720427E+02  0.94846297960E+02  0.10216784412E+03  0.00000000000E+00 0.  1.
</event>
<event>
 8   1  0.2279600E-02  0.8739029E+02  0.7546771E-02  0.1313140E+00
        2   -1    0    0  501    0  0.00000000000E+00  0.00000000000E+00  0.17221665264E+04  0.17221665264E+04  0.00000000000E+00 0. -1.
       -2   -1    0    0    0  501 -0.00000000000E+00 -0.00000000000E+00 -0.60932052704E+01  0.60932052704E+01  0.00000000000E+00 0.  1.
      -24    2    1    2    0    0 -0.74080235850E+01  0.85621351758E+01  0.38945346345E+03  0.39913789954E+03  0.86653757469E+02 0.  0.
       24    2    1    2    0    0  0.74080235850E+01 -0.85621351758E+01  0.13266198577E+04  0.13291218322E+04  0.80724276922E+02 0.  0.
      -13    1    4    4    0    0 -0.13933965880E+02  0.31655391125E+02  0.69725615509E+03  0.69811343276E+03  0.00000000000E+00 0.  1.
       14    1    4    4    0    0  0.21341989465E+02 -0.40217526301E+02  0.62936370262E+03  0.63100839940E+03  0.00000000000E+00 0. -1.
        3    1    3    3  502    0  0.16274157617E+01  0.36560138007E+02  0.33713115046E+03  0.33911164059E+03  0.00000000000E+00 0. -1.
       -4    1    3    3    0  502 -0.90354393467E+01 -0.27998002831E+02  0.52322312981E+02  0.60026258941E+02  0.00000000000E+00 0.  1.
</event>
<event>
 8   1  0.2279600E-02  0.8755103E+02  0.7546771E-02  0.1309429E+00
       -1   -1    0    0    0  501 -0.00000000000E+00  0.00000000000E+00  0.33662798153E+02  0.33662798153E+02  0.00000000000E+00 0.  1.
        1   -1    0    0  501    0  0.00000000000E+00 -0.00000000000E+00 -0.43165015558E+03  0.43165015558E+03  0.00000000000E+00 0. -1.
       24    2    1    2    0    0  0.72712797567E+01  0.30835056225E+02 -0.37705323361E+02  0.94545740232E+02  0.80706464329E+02 0.  0.
      -24    2    1    2    0    0 -0.72712797567E+01 -0.30835056225E+02 -0.36028203407E+03  0.37076721350E+03  0.81618076034E+02 0.  0.
      -13    1    3    3    0    0  0.36876113382E+02  0.96716698685E+01  0.49867169522E+01  0.38448098551E+02  0.00000000000E+00 0.  1.
       14    1    3    3    0    0 -0.29604833625E+02  0.21163386357E+02 -0.42692040313E+02  0.56097641681E+02  0.00000000000E+00 0. -1.
        3    1    4    4  502    0 -0.36366210540E+02  0.78939944920E+01 -0.19561303443E+03  0.19912125867E+03  0.00000000000E+00 0. -1.
       -4    1    4    4    0  502  0.29094930783E+02 -0.38729050717E+02 -0.16466899964E+03  0.17164595483E+03  0.00000000000E+00 0.  1.
</event>
<event>
 8   1  0.2279600E-02  0.8363915E+02  0.7546771E-02  0.1321354E+00
       -1   -1    0    0    0  501 -0.00000000000E+00  0.00000000000E+00  0.53042244613E+02  0.53042244613E+02  0.00000000000E+00 0.  1.
        1   -1    0    0  501    0  0.00000000000E+00 -0.00000000000E+00 -0.16805544962E+03  0.16805544962E+03  0.00000000000E+00 0. -1.
       24    2    1    2    0    0 -0.39295308385E+01 -0.10297144537E+02 -0.34938642593E+01  0.83712096257E+02  0.82909803847E+02 0.  0.
      -24    2    1    2    0    0  0.39295308385E+01  0.10297144537E+02 -0.11151934074E+03  0.13738559797E+03  0.79478089888E+02 0.  0.
      -13    1    3    3    0    0  0.29988526113E+02 -0.24178713127E+02  0.16565786416E+02  0.41932650125E+02  0.00000000000E+00 0.  1.
       14    1    3    3    0    0 -0.33918056952E+02  0.13881568590E+02 -0.20059650675E+02  0.41779446132E+02  0.00000000000E+00 0. -1.
        3    1    4    4  502    0 -0.24830568682E+02  0.19172764338E+02 -0.10058313487E+03  0.10536184819E+03  0.00000000000E+00 0. -1.
       -4    1    4    4    0  502  0.28760099520E+02 -0.88756198006E+01 -0.10936205871E+02  0.32023749782E+02  0.00000000000E+00 0.  1.
</event>
<event>
 8   1  0.2279600E-02  0.1088925E+03  0.7546771E-02  0.1262717E+00
        1   -1    0    0  501    0  0.00000000000E+00  0.00000000000E+00  0.26260930311E+03  0.26260930311E+03  0.00000000000E+00 0. -1.
       -1   -1    0    0    0  501 -0.00000000000E+00 -0.00000000000E+00 -0.77022139617E+02  0.77022139617E+02  0.00000000000E+00 0.  1.
       24    2    1    2    0    0  0.66738236148E+02 -0.28793257096E+02 -0.16608031429E+02  0.10997848609E+03  0.80847986227E+02 0.  0.
      -24    2    1    2    0    0 -0.66738236148E+02  0.28793257096E+02  0.20219519492E+03  0.22965295663E+03  0.81083536076E+02 0.  0.
      -13    1    3    3    0    0  0.76299899061E+02 -0.34833881295E+02 -0.32940883102E+02  0.90112017303E+02  0.00000000000E+00 0.  1.
       14    1    3    3    0    0 -0.95616629137E+01  0.60406241997E+01  0.16332851673E+02  0.19866468789E+02  0.00000000000E+00 0. -1.
        3    1    4    4  502    0 -0.34242584682E+02  0.55532985680E+02  0.14126019384E+03  0.15559855227E+03  0.00000000000E+00 0. -1.
       -4    1    4    4    0  502 -0.32495651465E+02 -0.26739728585E+02  0.60935001076E+02  0.74054404360E+02  0.00000000000E+00 0.  1.
</event>
<event>
 8   1  0.2279600E-02  0.1255838E+03  0.7546771E-02  0.1234180E+00
       -2   -1    0    0    0  501 -0.00000000000E+00  0.00000000000E+00  0.83241606284E+01  0.83241606284E+01  0.00000000000E+00 0.  1.
        2   -1    0    0  501    0  0.00000000000E+00 -0.00000000000E+00 -0.19910969719E+04  0.19910969719E+04  0.00000000000E+00 0. -1.
      -24    2    1    2    0    0  0.75906412684E+02 -0.59301346067E+02 -0.77063689388E+03  0.78080248128E+03  0.80578281396E+02 0.  0.
       24    2    1    2    0    0 -0.75906412684E+02  0.59301346067E+02 -0.12121359174E+04  0.12186186513E+04  0.80495352704E+02 0.  0.
      -13    1    4    4    0    0 -0.35146146370E+02  0.34517405330E+02 -0.22494522069E+03  0.23027604128E+03  0.00000000000E+00 0.  1.
       14    1    4    4    0    0 -0.40760266314E+02  0.24783940737E+02 -0.98719069671E+03  0.98834260998E+03  0.00000000000E+00 0. -1.
        1    1    3    3  502    0 -0.12593237125E+02 -0.20304414748E+02 -0.25944517707E+03  0.26054300755E+03  0.00000000000E+00 0. -1.
       -2    1    3    3    0  502  0.88499649809E+02 -0.38996931320E+02 -0.51119171681E+03  0.52025947373E+03  0.00000000000E+00 0.  1.
</event>
<event>
 8   1  0.2279600E-02  0.1678865E+03  0.7546771E-02  0.1180486E+00
        1   -1    0    0  501    0  0.00000000000E+00  0.00000000000E+00  0.12967731260E+04  0.12967731260E+04  0.00000000000E+00 0. -1.
       -1   -1    0    0    0  501 -0.00000000000E+00 -0.00000000000E+00 -0.39668893757E+02  0.39668893757E+02  0.00000000000E+00 0.  1.
       24    2    1    2    0    0 -0.21694062594E+02 -0.14558891023E+03  0.17833835353E+03  0.24492949633E+03  0.80741109118E+02 0.  0.
      -24    2    1    2    0    0  0.21694062594E+02  0.14558891023E+03  0.10787658787E+04  0.10915125234E+04  0.77440329158E+02 0.  0.
      -13    1    3    3    0    0 -0.47856778885E+02 -0.12655868475E+03  0.13871327112E+03  0.19377498176E+03  0.00000000000E+00 0.  1.
       14    1    3    3    0    0  0.26162716291E+02 -0.19030225478E+02  0.39625082408E+02  0.51154514574E+02  0.00000000000E+00 0. -1.
        3    1    4    4  502    0  0.36680650498E+02  0.14619358202E+03  0.10047293379E+04  0.10159719858E+04  0.00000000000E+00 0. -1.
       -4    1    4    4    0  502 -0.14986587904E+02 -0.60467179187E+00  0.74036540824E+02  0.75540537608E+02  0.00000000000E+00 0.  1.
</event>
<event>
 8   1  0.2279600E-02  0.8628242E+02  0.7546771E-02  0.1313429E+00
        1   -1    0    0  501    0  0.00000000000E+00  0.00000000000E+00  0.23763582318E+03  0.23763582318E+03  0.00000000000E+00 0. -1.
       -1   -1    0    0    0  501 -0.00000000000E+00 -0.00000000000E+00 -0.34979689852E+02  0.34979689852E+02  0.00000000000E+00 0.  1.
       24    2    1    2    0    0  0.28690965063E+02 -0.14365379279E+02  0.52021403554E+02  0.99019781735E+02  0.77904782580E+02 0.  0.
      -24    2    1    2    0    0 -0.28690965063E+02  0.14365379279E+02  0.15063472978E+03  0.17359573130E+03  0.80094447451E+02 0.  0.
      -13    1    3    3    0    0  0.17025057567E+02 -0.35741579861E+02 -0.21279870452E+01  0.39646455642E+02  0.00000000000E+00 0.  1.
       14    1    3    3    0    0  0.11665907497E+02  0.21376200581E+02  0.54149390599E+02  0.59373326093E+02  0.00000000000E+00 0. -1.
        1    1    4    4  502    0 -0.41374942088E+02 -0.49848508932E+01  0.14343212778E+03  0.14936368317E+03  0.00000000000E+00 0. -1.
       -2    1    4    4    0  502  0.12683977024E+02  0.19350230173E+02  0.72026019951E+01  0.24232048126E+02  0.00000000000E+00 0.  1.
</event>
<event>
 8   1  0.2279600E-02  0.9108289E+02  0.7546771E-02  0.1301515E+00
       -1   -1    0    0    0  501 -0.00000000000E+00  0.00000000000E+00  0.68021737077E+03  0.68021737077E+03  0.00000000000E+00 0.  1.
        1   -1    0    0  501    0  0.00000000000E+00 -0.00000000000E+00 -0.17372647324E+02  0.17372647324E+02  0.00000000000E+00 0. -1.
       24    2    1    2    0    0 -0.39310418670E+02  0.13701897481E+02  0.52952032858E+03  0.53729681858E+03  0.81012603169E+02 0.  0.
      -24    2    1    2    0    0  0.39310418670E+02 -0.13701897481E+02  0.13332439487E+03  0.16029319951E+03  0.78647724263E+02 0.  0.
      -13    1    3    3    0    0 -0.61510560548E+02  0.23616599651E+02  0.41760458680E+03  0.42277048591E+03  0.00000000000E+00 0.  1.
       14    1    3    3    0    0  0.22200141878E+02 -0.99147021704E+01  0.11191574177E+03  0.11452633267E+03  0.00000000000E+00 0. -1.
        3    1    4    4  502    0  0.32389783131E+02 -0.22498041278E+02  0.16198755678E+02  0.42634019259E+02  0.00000000000E+00 0. -1.
       -4    1    4    4    0  502  0.69206355390E+01  0.87961437970E+01  0.11712563919E+03  0.11765918025E+03  0.00000000000E+00 0.  1.
</event>
<event>
 8   1  0.2279600E-02  0.8907135E+02  0.7546771E-02  0.1308043E+00
       -2   -1    0    0    0  501 -0.00000000000E+00  0.00000000000E+00  0.21568079115E+02  0.21568079115E+02  0.00000000000E+00 0.  1.
        2   -1    0    0  501    0  0.00000000000E+00 -0.00000000000E+00 -0.38618733879E+03  0.38618733879E+03  0.00000000000E+00 0. -1.
      -24    2    1    2    0    0 -0.19147886531E+02  0.71090496544E+01 -0.12343199947E+03  0.15221420188E+03  0.86697892793E+02 0.  0.
       24    2    1    2    0    0  0.19147886531E+02 -0.71090496544E+01 -0.24118726020E+03  0.25554121603E+03  0.81931913548E+02 0.  0.
      -13    1    4    4    0    0 -0.53949197858E+01  0.22010578160E+02 -0.17492544485E+02  0.28627955271E+02  0.00000000000E+00 0.  1.
       14    1    4    4    0    0  0.24542806316E+02 -0.29119627814E+02 -0.22369471572E+03  0.22691326076E+03  0.00000000000E+00 0. -1.
        1    1    3    3  502    0  0.16262840009E+02 -0.91701959756E+01 -0.10910479305E+03  0.11069068763E+03  0.00000000000E+00 0. -1.
       -2    1    3    3    0  502 -0.35410726539E+02  0.16279245630E+02 -0.14327206417E+02  0.41523514255E+02  0.00000000000E+00 0.  1.
</event>
<event>
 8   1  0.2279600E-02  0.9253335E+02  0.7546771E-02  0.1303465E+00
        1   -1    0    0  501    0  0.00000000000E+00  0.00000000000E+00  0.15197817755E+04  0.15197817755E+04  0.00000000000E+00 0. -1.
       -1   -1    0    0    0  501 -0.00000000000E+00 -0.00000000000E+00 -0.56898651942E+01  0.56898651942E+01  0.00000000000E+00 0.  1.
       24    2    1    2    0    0  0.62211424648E+01  0.95206818776E+01  0.53334962368E+03  0.54131713598E+03  0.91831773476E+02 0.  0.
      -24    2    1    2    0    0 -0.62211424648E+01 -0.95206818776E+01  0.98074228659E+03  0.98415450469E+03  0.81088287643E+02 0.  0.
      -13    1    3    3    0    0 -0.96535820735E+01 -0.38793404653E+02  0.28720773908E+03  0.28997655988E+03  0.00000000000E+00 0.  1.
       14    1    3    3    0    0  0.15874724538E+02  0.48314086530E+02  0.24614188460E+03  0.25134057610E+03  0.00000000000E+00 0. -1.
        3    1    4    4  502    0 -0.21168820659E+02  0.31060607658E+02  0.53516982741E+03  0.53648823331E+03  0.00000000000E+00 0. -1.
       -4    1    4    4    0  502  0.14947678194E+02 -0.40581289536E+02  0.44557245919E+03  0.44766627138E+03  0.00000000000E+00 0.  1.
</event>
<event>
 8   1  0.2279600E-02  0.1112762E+03  0.7546771E-02  0.1261637E+00
        2   -1    0    0  501    0  0.00000000000E+00  0.00000000000E+00  0.33311684287E+03  0.33311684287E+03  0.00000000000E+00 0. -1.
       -2   -1    0    0    0  501 -0.00000000000E+00 -0.00000000000E+00 -0.35959741534E+02  0.35959741534E+02  0.00000000000E+00 0.  1.
       24    2    1    2    0    0  0.30525600828E+02  0.63975058143E+02  0.11062028845E+03  0.15187075780E+03  0.76179121068E+02 0.  0.
      -24    2    1    2    0    0 -0.30525600828E+02 -0.63975058143E+02  0.18653681289E+03  0.21720582661E+03  0.85777433982E+02 0.  0.
      -13    1    3    3    0    0 -0.17812679364E+02  0.41046242350E+02  0.75849517056E+02  0.88063810926E+02  0.00000000000E+00 0.  1.
       14    1    3    3    0    0  0.48338280192E+02  0.22928815793E+02  0.34770771393E+02  0.63806946870E+02  0.00000000000E+00 0. -1.
        3    1    4    4  502    0  0.98557462257E+01 -0.20454866942E+02  0.13984375287E+03  0.14167502438E+03  0.00000000000E+00 0. -1.
       -4    1    4    4    0  502 -0.40381347054E+02 -0.43520191201E+02  0.46693060017E+02  0.75530802232E+02  0.00000000000E+00 0.  1.
</event>
<event>
 8   1  0.2279600E-02  0.1026997E+03  0.7546771E-02  0.1275936E+00
        2   -1    0    0  501    0  0.00000000000E+00  0.00000000000E+00  0.15682488989E+04  0.15682488989E+04  0.00000000000E+00 0. -1.
       -2   -1    0    0    0  501 -0.00000000000E+00 -0.00000000000E+00 -0.78852149306E+01  0.78852149306E+01  0.00000000000E+00 0.  1.
       24    2    1    2    0    0 -0.58966628626E+02  0.23779393456E+02  0.46608846356E+03  0.47726899152E+03  0.80651792046E+02 0.  0.
      -24    2    1    2    0    0  0.58966628626E+02 -0.23779393456E+02  0.10942752204E+04  0.10988651223E+04  0.77612989758E+02 0.  0.
      -13    1    3    3    0    0 -0.30047821191E+02  0.47273127239E+02  0.17350848798E+03  0.18232612407E+03  0.00000000000E+00 0.  1.
       14    1    3    3    0    0 -0.28918807435E+02 -0.23493733783E+02  0.29257997557E+03  0.29494286745E+03  0.00000000000E+00 0. -1.
        3    1    4    4  502    0  0.34117626028E+02 -0.52128371448E+02  0.72417326282E+03  0.72684819192E+03  0.00000000000E+00 0. -1.
       -4    1    4    4    0  502  0.24849002598E+02  0.28348977992E+02  0.37010195761E+03  0.37201693041E+03  0.00000000000E+00 0.  1.
</event>
<event>
 8   1  0.2279600E-02  0.8641783E+02  0.7546771E-02  0.1314325E+00
        2   -1    0    0  501    0  0.00000000000E+00  0.00000000000E+00  0.69994358647E+03  0.69994358647E+03  0.00000000000E+00 0. -1.
       -2   -1    0    0    0  501 -0.00000000000E+00 -0.00000000000E+00 -0.12589277966E+02  0.12589277966E+02  0.00000000000E+00 0.  1.
      -24    2    1    2    0    0  0.36943393758E+01  0.11552773312E+02  0.18184834720E+03  0.19969339889E+03  0.81618119724E+02 0.  0.
       24    2    1    2    0    0 -0.36943393758E+01 -0.11552773312E+02  0.50550596130E+03  0.51283946554E+03  0.85562408743E+02 0.  0.
      -13    1    4    4    0    0  0.24455217493E+02 -0.33041890375E+02  0.14860703387E+03  0.15418779037E+03  0.00000000000E+00 0.  1.
       14    1    4    4    0    0 -0.28149556869E+02  0.21489117063E+02  0.35689892743E+03  0.35865167518E+03  0.00000000000E+00 0. -1.
        1    1    3    3  502    0 -0.38612513103E+02  0.33045866848E+01  0.73608397849E+02  0.83186793995E+02  0.00000000000E+00 0. -1.
       -2    1    3    3    0  502  0.42306852479E+02  0.82481866276E+01  0.10823994935E+03  0.11650660490E+03  0.00000000000E+00 0.  1.
</event>
<event>
 8   1  0.2279600E-02  0.8694182E+02  0.7546771E-02  0.1310901E+00
       -1   -1    0    0    0  501 -0.00000000000E+00  0.00000000000E+00  0.16735945623E+02  0.16735945623E+02  0.00000000000E+00 0.  1.
        1   -1    0    0  501    0  0.00000000000E+00 -0.00000000000E+00 -0.44859680631E+03  0.44859680631E+03  0.00000000000E+00 0. -1.
       24    2    1    2    0    0  0.18826052111E+02 -0.27988651993E+02 -0.22642869894E+03  0.24254656384E+03  0.80131735589E+02 0.  0.
      -24    2    1    2    0    0 -0.18826052111E+02  0.27988651993E+02 -0.20543216175E+03  0.22278618810E+03  0.79331756859E+02 0.  0.
      -13    1    3    3    0    0  0.38616591559E+02  0.54743630400E+01 -0.16726865340E+03  0.17175567590E+03  0.00000000000E+00 0.  1.
       14    1    3    3    0    0 -0.19790539448E+02 -0.33463015033E+02 -0.59160045538E+02  0.70790887937E+02  0.00000000000E+00 0. -1.
        1    1    4    4  502    0 -0.14666485774E+02 -0.27093696619E+02 -0.80108056602E+02  0.85828170982E+02  0.00000000000E+00 0. -1.
       -2    1    4    4    0  502 -0.41595663372E+01  0.55082348612E+02 -0.12532410515E+03  0.13695801712E+03  0.00000000000E+00 0.  1.
</event>
<event>
 8   1  0.2279600E-02  0.9148125E+02  0.7546771E-02  0.1303392E+00
        1   -1    0    0  501    0  0.00000000000E+00  0.00000000000E+00  0.35005621691E+03  0.35005621691E+03  0.00000000000E+00 0. -1.
       -1   -1    0    0    0  501 -0.00000000000E+00 -0.00000000000E+00 -0.28814237959E+02  0.28814237959E+02  0.00000000000E+00 0.  1.
       24    2    1    2    0    0  0.25027865255E+02 -0.32006597541E+01  0.74605469133E+02  0.11804572980E+03  0.87932815478E+02 0.  0.
      -24    2    1    2    0    0 -0.25027865255E+02  0.32006597541E+01  0.24663650982E+03  0.26082472507E+03  0.81014387417E+02 0.  0.
      -13    1    3    3    0    0 -0.69956157541E+01  0.11468046776E+02 -0.15966416333E+02  0.20865789876E+02  0.00000000000E+00 0.  1.
       14    1    3    3    0    0  0.32023481009E+02 -0.14668706530E+02  0.90571885465E+02  0.97179939926E+02  0.00000000000E+00 0. -1.
        3    1    4    4  502    0 -0.50537860873E+02 -0.70947986012E+01  0.10754855509E+03  0.11904244307E+03  0.00000000000E+00 0. -1.
       -4    1    4    4    0  502  0.25509995618E+02  0.10295458355E+02  0.13908795473E+03  0.14178228200E+03  0.00000000000E+00 0.  1.
</event>
<event>
 8   1  0.2279600E-02  0.8264502E+02  0.7546771E-02  0.1321771E+00
       -2   -1    0    0    0  501 -0.00000000000E+00  0.00000000000E+00  0.18548322454E+02  0.18548322454E+02  0.00000000000E+00 0.  1.
        2   -1    0    0  501    0  0.00000000000E+00 -0.00000000000E+00 -0.70342504797E+03  0.70342504797E+03  0.00000000000E+00 0. -1.
      -24    2    1    2    0    0  0.20192046455E+02 -0.85679900057E+01 -0.92999428012E+02  0.12435398081E+03  0.79585738287E+02 0.  0.
       24    2    1    2    0    0 -0.20192046455E+02  0.85679900057E+01 -0.59187729751E+03  0.59761938962E+03  0.79681053934E+02 0.  0.
      -13    1    4    4    0    0  0.20468902021E+02  0.16541852294E+00 -0.48297469443E+02  0.52456161390E+02  0.00000000000E+00 0.  1.
       14    1    4    4    0    0 -0.40660948476E+02  0.84025714827E+01 -0.54357982807E+03  0.54516322823E+03  0.00000000000E+00 0. -1.
        3    1    3    3  502    0 -0.19080100194E+02  0.23695500048E+02 -0.24518239005E+02  0.39072637355E+02  0.00000000000E+00 0. -1.
       -4    1    3    3    0  502  0.39272146649E+02 -0.32263490054E+02 -0.68481189007E+02  0.85281343450E+02  0.00000000000E+00 0.  1.
</event>
<event>
 8   1  0.2279600E-02  0.8914468E+02  0.7546771E-02  0.1306135E+00
        1   -1    0    0  501    0  0.00000000000E+00  0.00000000000E+00  0.25799475190E+02  0.25799475190E+02  0.00000000000E+00 0. -1.
       -1   -1    0    0    0  501 -0.00000000000E+00 -0.00000000000E+00 -0.71066355229E+03  0.71066355229E+03  0.00000000000E+00 0.  1.
       24    2    1    2    0    0 -0.26830903427E+02 -0.11874748400E+02 -0.62346236644E+03  0.62980322089E+03  0.84177595936E+02 0.  0.
      -24    2    1    2    0    0  0.26830903427E+02  0.11874748400E+02 -0.61401710663E+02  0.10665980659E+03  0.82129393278E+02 0.  0.
      -13    1    3    3    0    0 -0.37115524621E+02 -0.73312724283E+01 -0.61383882382E+03  0.61500358646E+03  0.00000000000E+00 0.  1.
       14    1    3    3    0    0  0.10284621195E+02 -0.45434759720E+01 -0.96235426142E+01  0.14799634437E+02  0.00000000000E+00 0. -1.
        3    1    4    4  502    0 -0.24948066893E+01 -0.26399993858E+02  0.24688602731E+01  0.26632292563E+02  0.00000000000E+00 0. -1.
       -4    1    4    4    0  502  0.29325710116E+02  0.38274742259E+02 -0.63870570936E+02  0.80027514022E+02  0.00000000000E+00 0.  1.
</event>
<event>
 8   1  0.2279600E-02  0.1882372E+03  0.7546771E-02  0.1162177E+00
        4   -1    0    0  501    0  0.00000000000E+00  0.00000000000E+00  0.14475515514E+04  0.14475515514E+04  0.00000000000E+00 0. -1.
       -4   -1    0    0    0  501 -0.00000000000E+00 -0.00000000000E+00 -0.62099458527E+02  0.62099458527E+02  0.00000000000E+00 0.  1.
      -24    2    1    2    0    0 -0.17022245794E+03  0.66522731808E+01  0.10267934929E+03  0.21442082762E+03  0.80083110714E+02 0.  0.
       24    2    1    2    0    0  0.17022245794E+03 -0.66522731808E+01  0.12827727436E+04  0.12952301823E+04  0.55636099506E+02 0.  0.
      -13    1    4    4    0    0 -0.31152744095E+01 -0.39204431134E+01  0.20203113748E+02  0.20814432828E+02  0.00000000000E+00 0.  1.
       14    1    4    4    0    0  0.17333773234E+03 -0.27318300674E+01  0.12625696298E+04  0.12744157495E+04  0.00000000000E+00 0. -1.
        3    1    3    3  502    0 -0.87080729713E+01  0.19902647083E+02  0.29426765784E+02  0.36577047999E+02  0.00000000000E+00 0. -1.
       -4    1    3    3    0  502 -0.16151438496E+03 -0.13250373902E+02  0.73252583509E+02  0.17784377962E+03  0.00000000000E+00 0.  1.
</event>
<event>
 8   1  0.2279600E-02  0.8871223E+02  0.7546771E-02  0.1308452E+00
        2   -1    0    0  501    0  0.00000000000E+00  0.00000000000E+00  0.68365186529E+03  0.68365186529E+03  0.00000000000E+00 0. -1.
       -2   -1    0    0    0  501 -0.00000000000E+00 -0.00000000000E+00 -0.52429992277E+02  0.52429992277E+02  0.00000000000E+00 0.  1.
      -24    2    1    2    0    0 -0.21887581339E+02  0.57462162548E+00 -0.99984559312E+01  0.89273898249E+02  0.85967804327E+02 0.  0.
       24    2    1    2    0    0  0.21887581339E+02 -0.57462162548E+00  0.64122032894E+03  0.64680795932E+03  0.81961146767E+02 0.  0.
      -13    1    4    4    0    0  0.10455096881E+02  0.40691135719E+02  0.31995116455E+03  0.32269773051E+03  0.00000000000E+00 0.  1.
       14    1    4    4    0    0  0.11432484458E+02 -0.41265757345E+02  0.32126916439E+03  0.32411022881E+03  0.00000000000E+00 0. -1.
        1    1    3    3  502    0 -0.12459851431E+02 -0.42653309384E+02 -0.38067494385E+01  0.44598699986E+02  0.00000000000E+00 0. -1.
       -2    1    3    3    0  502 -0.94277299079E+01  0.43227931010E+02 -0.61917064927E+01  0.44675198264E+02  0.00000000000E+00 0.  1.
</event>
<event>
 8   1  0.2279600E-02  0.1227894E+03  0.7546771E-02  0.1239355E+00
       -2   -1    0    0    0  501 -0.00000000000E+00  0.00000000000E+00  0.84110147225E+02  0.84110147225E+02  0.00000000000E+00 0.  1.
        2   -1    0    0  501    0  0.00000000000E+00 -0.00000000000E+00 -0.41929169310E+03  0.41929169310E+03  0.00000000000E+00 0. -1.
      -24    2    1    2    0    0 -0.13812313932E+02  0.90870757118E+02  0.23408549940E+02  0.12500077227E+03  0.81418415259E+02 0.  0.
       24    2    1    2    0    0  0.13812313932E+02 -0.90870757118E+02 -0.35859009581E+03  0.37840106805E+03  0.78436196815E+02 0.  0.
      -13    1    4    4    0    0  0.96990903253E+01  0.11534579703E+02 -0.22896578367E+02  0.27411168946E+02  0.00000000000E+00 0.  1.
       14    1    4    4    0    0  0.41132236069E+01 -0.10240533682E+03 -0.33569351744E+03  0.35098989910E+03  0.00000000000E+00 0. -1.
        1    1    3    3  502    0  0.64192995699E-01  0.78022279401E+02 -0.17474860115E+02  0.79955305888E+02  0.00000000000E+00 0. -1.
       -2    1    3    3    0  502 -0.13876506928E+02  0.12848477718E+02  0.40883410054E+02  0.45045466385E+02  0.00000000000E+00 0.  1.
</event>
<event>
 8   1  0.2279600E-02  0.9347658E+02  0.7546771E-02  0.1297336E+00
        2   -1    0    0  501    0  0.00000000000E+00  0.00000000000E+00  0.54546233609E+03  0.54546233609E+03  0.00000000000E+00 0. -1.
       -2   -1    0    0    0  501 -0.00000000000E+00 -0.00000000000E+00 -0.23618716068E+02  0.23618716068E+02  0.00000000000E+00 0.  1.
      -24    2    1    2    0    0 -0.18810911257E+02 -0.37602392968E+02  0.95770903883E+02  0.13382801386E+03  0.83487010517E+02 0.  0.
       24    2    1    2    0    0  0.18810911257E+02  0.37602392968E+02  0.42607271614E+03  0.43525303829E+03  0.78354690778E+02 0.  0.
      -13    1    4    4    0    0  0.56166820064E+00  0.66767338835E+01 -0.91107734659E+00  0.67619751886E+01  0.00000000000E+00 0.  1.
       14    1    4    4    0    0  0.18249243057E+02  0.30925659085E+02  0.42698379349E+03  0.42849106311E+03  0.00000000000E+00 0. -1.
        1    1    3    3  502    0 -0.37148603191E+01  0.26568015331E+02  0.20443208908E+02  0.33728095356E+02  0.00000000000E+00 0. -1.
       -2    1    3    3    0  502 -0.15096050938E+02 -0.64170408300E+02  0.75327694975E+02  0.10009991851E+03  0.00000000000E+00 0.  1.
</event>
<event>
 8   1  0.2279600E-02  0.1027138E+03  0.7546771E-02  0.1285457E+00
        2   -1    0    0  501    0  0.00000000000E+00  0.00000000000E+00  0.12248235159E+03  0.12248235159E+03  0.00000000000E+00 0. -1.
       -2   -1    0    0    0  501 -0.00000000000E+00 -0.00000000000E+00 -0.81916456291E+02  0.81916456291E+02  0.00000000000E+00 0.  1.
      -24    2    1    2    0    0 -0.70243529245E+01  0.26673423188E+02  0.59353198080E+02  0.11862934254E+03  0.98940920501E+02 0.  0.
       24    2    1    2    0    0  0.70243529245E+01 -0.26673423188E+02 -0.18787302777E+02  0.85769465349E+02  0.79010286685E+02 0.  0.
      -13    1    4    4    0    0  0.23164812692E+02 -0.33875731610E+02 -0.40577563528E+02  0.57712324516E+02  0.00000000000E+00 0.  1.
       14    1    4    4    0    0 -0.16140459768E+02  0.72023084227E+01  0.21790260751E+02  0.28057140833E+02  0.00000000000E+00 0. -1.
        3    1    3    3  502    0  0.41542303736E+01  0.63580383920E+02  0.42200822022E+02  0.76424029132E+02  0.00000000000E+00 0. -1.
       -4    1    3    3    0  502 -0.11178583298E+02 -0.36906960733E+02  0.17152376058E+02  0.42205313404E+02  0.00000000000E+00 0.  1.
</event>
<event>
 8   1  0.2279600E-02  0.1009560E+03  0.7546771E-02  0.1278458E+00
        1   -1    0    0  501    0  0.00000000000E+00  0.00000000000E+00  0.15646985101E+03  0.15646985101E+03  0.00000000000E+00 0. -1.
       -1   -1    0    0    0  501 -0.00000000000E+00 -0.00000000000E+00 -0.65519198149E+02  0.65519198149E+02  0.00000000000E+00 0.  1.
       24    2    1    2    0    0  0.13307603215E+02 -0.59024512761E+02  0.35110009721E+02  0.10688696619E+03  0.80815378172E+02 0.  0.
      -24    2    1    2    0    0 -0.13307603215E+02  0.59024512761E+02  0.55840643138E+02  0.11510208296E+03  0.80432124594E+02 0.  0.
      -13    1    3    3    0    0 -0.99934433208E+01 -0.69816902750E+02  0.10475462171E+02  0.71302202818E+02  0.00000000000E+00 0.  1.
       14    1    3    3    0    0  0.23301046536E+02  0.10792389989E+02  0.24634547550E+02  0.35584763374E+02  0.00000000000E+00 0. -1.
        3    1    4    4  502    0  0.13244588007E+02  0.25522082780E+02  0.65272673570E+02  0.71325435407E+02  0.00000000000E+00 0. -1.
       -4    1    4    4    0  502 -0.26552191222E+02  0.33502429980E+02 -0.94320304323E+01  0.43776647557E+02  0.00000000000E+00 0.  1.
</event>
<event>
 8   1  0.2279600E-02  0.9665107E+02  0.7546771E-02  0.1288275E+00
        1   -1    0    0  501    0  0.00000000000E+00  0.00000000000E+00  0.31941050930E+03  0.31941050930E+03  0.00000000000E+00 0. -1.
       -1   -1    0    0    0  501 -0.00000000000E+00 -0.00000000000E+00 -0.28966778914E+02  0.28966778914E+02  0.00000000000E+00 0.  1.
       24    2    1    2    0    0 -0.39343074221E+02  0.37596814049E+02  0.13197491328E+03  0.16275995157E+03  0.78179448603E+02 0.  0.
      -24    2    1    2    0    0  0.39343074221E+02 -0.37596814049E+02  0.15846881711E+03  0.18561733665E+03  0.79875100955E+02 0.  0.
      -13    1    3    3    0    0 -0.46996035433E+01  0.55241168013E+02  0.88554916710E+02  0.10447796988E+03  0.00000000000E+00 0.  1.
       14    1    3    3    0    0 -0.34643470678E+02 -0.17644353964E+02  0.43419996572E+02  0.58281981690E+02  0.00000000000E+00 0. -1.
        1    1    4    4  502    0  0.50872225480E+02 -0.44223060935E+01  0.13231950897E+03  0.14183085902E+03  0.00000000000E+00 0. -1.
       -2    1    4    4    0  502 -0.11529151259E+02 -0.33174507956E+02  0.26149308137E+02  0.43786477626E+02  0.00000000000E+00 0.  1.
</event>
<event>
 8   1  0.2279600E-02  0.1029937E+03  0.7546771E-02  0.1275381E+00
        2   -1    0    0  501    0  0.00000000000E+00  0.00000000000E+00  0.89602654572E+02  0.89602654572E+02  0.00000000000E+00 0. -1.
       -2   -1    0    0    0  501 -0.00000000000E+00 -0.00000000000E+00 -0.44728370739E+03  0.44728370739E+03  0.00000000000E+00 0.  1.
      -24    2    1    2    0    0 -0.31354530282E+02  0.51995879873E+02 -0.40945089874E+03  0.42161357966E+03  0.80132976876E+02 0.  0.
       24    2    1    2    0    0  0.31354530282E+02 -0.51995879873E+02  0.51769845923E+02  0.11527278230E+03  0.83192663733E+02 0.  0.
      -13    1    4    4    0    0  0.97005176033E+01 -0.19125935750E+02 -0.22583467059E+02  0.31143449464E+02  0.00000000000E+00 0.  1.
       14    1    4    4    0    0  0.21654012679E+02 -0.32869944123E+02  0.74353312983E+02  0.84129332835E+02  0.00000000000E+00 0. -1.
        1    1    3    3  502    0 -0.18401952162E+02 -0.92825418345E+01 -0.26484158788E+02  0.33559024017E+02  0.00000000000E+00 0. -1.
       -2    1    3    3    0  502 -0.12952578121E+02  0.61278421708E+02 -0.38296673995E+03  0.38805455564E+03  0.00000000000E+00 0.  1.
</event>
<event>
 8   1  0.2279600E-02  0.9603326E+02  0.7546771E-02  0.1289461E+00
       -2   -1    0    0    0  501 -0.00000000000E+00  0.00000000000E+00  0.20688860365E+03  0.20688860365E+03  0.00000000000E+00 0.  1.
        2   -1    0    0  501    0  0.00000000000E+00 -0.00000000000E+00 -0.72428189265E+02  0.72428189265E+02  0.00000000000E+00 0. -1.
      -24    2    1    2    0    0  0.73779971709E+01 -0.49528181273E+02  0.15482514316E+03  0.18219004340E+03  0.81944562823E+02 0.  0.
       24    2    1    2    0    0 -0.73779971709E+01  0.49528181273E+02 -0.20364728775E+02  0.97126749517E+02  0.80693294091E+02 0.  0.
      -13    1    4    4    0    0  0.13267401439E+02 -0.11888058210E+02 -0.26621350005E+02  0.32031955061E+02  0.00000000000E+00 0.  1.
       14    1    4    4    0    0 -0.20645398610E+02  0.61416239484E+02  0.62566212297E+01  0.65094794456E+02  0.00000000000E+00 0. -1.
        1    1    3    3  502    0 -0.27482985630E+02 -0.19842188426E+02  0.19009482158E+02  0.38863702250E+02  0.00000000000E+00 0. -1.
       -2    1    3    3    0  502  0.34860982801E+02 -0.29685992847E+02  0.13581566100E+03  0.14332634115E+03  0.00000000000E+00 0.  1.
</event>
<event>
 8   1  0.2279600E-02  0.9287541E+02  0.7546771E-02  0.1296538E+00
        1   -1    0    0  501    0  0.00000000000E+00  0.00000000000E+00  0.19543543975E+03  0.19543543975E+03  0.00000000000E+00 0. -1.
       -1   -1    0    0    0  501 -0.00000000000E+00 -0.00000000000E+00 -0.50290850362E+02  0.50290850362E+02  0.00000000000E+00 0.  1.
       24    2    1    2    0    0 -0.44511763571E+02  0.12123962695E+02  0.27891576699E+02  0.96146508625E+02  0.79611076505E+02 0.  0.
      -24    2    1    2    0    0  0.44511763571E+02 -0.12123962695E+02  0.11725301269E+03  0.14957978149E+03  0.80607409572E+02 0.  0.
      -13    1    3    3    0    0 -0.20454574168E+02  0.16147804869E+02 -0.26111156535E+02  0.36890834934E+02  0.00000000000E+00 0.  1.
       14    1    3    3    0    0 -0.24057189402E+02 -0.40238421736E+01  0.54002733235E+02  0.59255673691E+02  0.00000000000E+00 0. -1.
        3    1    4    4  502    0  0.57327678823E+02  0.11171575882E+02  0.48681192443E+02  0.76033712027E+02  0.00000000000E+00 0. -1.
       -4    1    4    4    0  502 -0.12815915253E+02 -0.23295538577E+02  0.68571820246E+02  0.73546069462E+02  0.00000000000E+00 0.  1.
</event>
<event>
 8   1  0.2279600E-02  0.8562355E+02  0.7546771E-02  0.1320050E+00
        2   -1    0    0  501    0  0.00000000000E+00  0.00000000000E+00  0.42595633249E+03  0.42595633249E+03  0.00000000000E+00 0. -1.
       -2   -1    0    0    0  501 -0.00000000000E+00 -0.00000000000E+00 -0.28699853736E+03  0.28699853736E+03  0.00000000000E+00 0.  1.
      -24    2    1    2    0    0  0.27147186098E+02  0.10962278418E+01 -0.27704142516E+03  0.28997128060E+03  0.81198650768E+02 0.  0.
       24    2    1    2    0    0 -0.27147186098E+02 -0.10962278418E+01  0.41599922029E+03  0.42298358926E+03  0.71565313291E+02 0.  0.
      -13    1    4    4    0    0 -0.30577336229E+01 -0.22991453401E+02  0.45629431680E+02  0.51185952173E+02  0.00000000000E+00 0.  1.
       14    1    4    4    0    0 -0.24089452475E+02  0.21895225559E+02  0.37036978861E+03  0.37179763708E+03  0.00000000000E+00 0. -1.
        3    1    3    3  502    0 -0.28232402085E+02 -0.42637720124E+00 -0.12504582950E+03  0.12819403184E+03  0.00000000000E+00 0. -1.
       -4    1    3    3    0  502  0.55379588183E+02  0.15226050430E+01 -0.15199559566E+03  0.16177724875E+03  0.00000000000E+00 0.  1.
</event>
<event>
 8   1  0.2279600E-02  0.8217915E+02  0.7546771E-02  0.1323192E+00
        1   -1    0    0  501    0  0.00000000000E+00  0.00000000000E+00  0.29404971283E+02  0.29404971283E+02  0.00000000000E+00 0. -1.
       -1   -1    0    0    0  501 -0.00000000000E+00 -0.00000000000E+00 -0.25822571649E+03  0.25822571649E+03  0.00000000000E+00 0.  1.
       24    2    1    2    0    0  0.14085681793E+02 -0.13097952599E+02 -0.66054821017E+02  0.10543553358E+03  0.79896492843E+02 0.  0.
      -24    2    1    2    0    0 -0.14085681793E+02  0.13097952599E+02 -0.16276592419E+03  0.18219515419E+03  0.79576160619E+02 0.  0.
      -13    1    3    3    0    0 -0.11264466431E+02 -0.23162955432E+02 -0.72898451945E+02  0.77314908034E+02  0.00000000000E+00 0.  1.
       14    1    3    3    0    0  0.25350148224E+02  0.10065002834E+02  0.68436309277E+01  0.28120625550E+02  0.00000000000E+00 0. -1.
        1    1    4    4  502    0 -0.28258014095E+02  0.36384669385E+02 -0.58707516256E+02  0.74625277164E+02  0.00000000000E+00 0. -1.
       -2    1    4    4    0  502  0.14172332302E+02 -0.23286716786E+02 -0.10405840793E+03  0.10756987702E+03  0.00000000000E+00 0.  1.
</event>
<event>
 8   1  0.2279600E-02  0.1691471E+03  0.7546771E-02  0.1178851E+00
        2   -1    0    0  501    0  0.00000000000E+00  0.00000000000E+00  0.10528939834E+04  0.10528939834E+04  0.00000000000E+00 0. -1.
       -2   -1    0    0    0  501 -0.00000000000E+00 -0.00000000000E+00 -0.57682356207E+02  0.57682356207E+02  0.00000000000E+00 0.  1.
      -24    2    1    2    0    0  0.13443684303E+03 -0.63034346449E+02  0.93608691986E+02  0.19332183713E+03  0.81019453840E+02 0.  0.
       24    2    1    2    0    0 -0.13443684303E+03  0.63034346449E+02  0.90160293518E+03  0.91725450245E+03  0.80133488273E+02 0.  0.
      -13    1    4    4    0    0 -0.66422099942E+02  0.39894249882E+02  0.25074202425E+03  0.26244048708E+03  0.00000000000E+00 0.  1.
       14    1    4    4    0    0 -0.68014743086E+02  0.23140096567E+02  0.65086091093E+03  0.65481401537E+03  0.00000000000E+00 0. -1.
        1    1    3    3  502    0  0.40774507137E+02 -0.63279546107E+02  0.36983870728E+02  0.83872928182E+02  0.00000000000E+00 0. -1.
       -2    1    3    3    0  502  0.93662335891E+02  0.24519965861E+00  0.56624821258E+02  0.10944890895E+03  0.00000000000E+00 0.  1.
</event>
<event>
 8   1  0.2279600E-02  0.8608039E+02  0.7546771E-02  0.1314349E+00
       -4   -1    0    0    0  501 -0.00000000000E+00  0.00000000000E+00  0.14607744659E+03  0.14607744659E+03  0.00000000000E+00 0.  1.
        4   -1    0    0  501    0  0.00000000000E+00 -0.00000000000E+00 -0.49205366068E+02  0.49205366068E+02  0.00000000000E+00 0. -1.
      -24    2    1    2    0    0 -0.50393382070E+01  0.21379506569E+02  0.51015849110E+02  0.10006222977E+03  0.83230731914E+02 0.  0.
       24    2    1    2    0    0  0.50393382070E+01 -0.21379506569E+02  0.45856231414E+02  0.95220582892E+02  0.80508926314E+02 0.  0.
      -13    1    4    4    0    0  0.36386603416E+02 -0.10686662006E+02 -0.88547088781E+00  0.37933806975E+02  0.00000000000E+00 0.  1.
       14    1    4    4    0    0 -0.31347265209E+02 -0.10692844562E+02  0.46741702302E+02  0.57286775917E+02  0.00000000000E+00 0. -1.
        3    1    3    3  502    0 -0.42752737003E+02  0.86815940369E+01  0.14275912443E+02  0.45901724067E+02  0.00000000000E+00 0. -1.
       -4    1    3    3    0  502  0.37713398796E+02  0.12697912532E+02  0.36739936667E+02  0.54160505700E+02  0.00000000000E+00 0.  1.
</event>
<event>
 8   1  0.2279600E-02  0.9597659E+02  0.7546771E-02  0.1289179E+00
        2   -1    0    0  501    0  0.00000000000E+00  0.00000000000E+00  0.12204535569E+04  0.12204535569E+04  0.00000000000E+00 0. -1.
       -2   -1    0    0    0  501 -0.00000000000E+00 -0.00000000000E+00 -0.11739653591E+02  0.11739653591E+02  0.00000000000E+00 0.  1.
       24    2    1    2    0    0 -0.58178710173E+01  0.50105177090E+02  0.97435923033E+03  0.97907477513E+03  0.81652490317E+02 0.  0.
      -24    2    1    2    0    0  0.58178710173E+01 -0.50105177090E+02  0.23435467296E+03  0.25311843534E+03  0.81255480899E+02 0.  0.
      -13    1    3    3    0    0  0.10951979478E+02 -0.10321012044E+02  0.42100937860E+02  0.44709709379E+02  0.00000000000E+00 0.  1.
       14    1    3    3    0    0 -0.16769850495E+02  0.60426189133E+02  0.93225829247E+03  0.93436506575E+03  0.00000000000E+00 0. -1.
        1    1    4    4  502    0 -0.11871864704E+02 -0.64294866379E+02  0.12116923949E+03  0.13768353429E+03  0.00000000000E+00 0. -1.
       -2    1    4    4    0  502  0.17689735721E+02  0.14189689290E+02  0.11318543347E+03  0.11543490105E+03  0.00000000000E+00 0.  1.
</event>
<event>
 8   1  0.2279600E-02  0.8743955E+02  0.7546771E-02  0.1310086E+00
       -2   -1    0    0    0  501 -0.00000000000E+00  0.00000000000E+00  0.73235390878E+01  0.73235390878E+01  0.00000000000E+00 0.  1.
        2   -1    0    0  501    0  0.00000000000E+00 -0.00000000000E+00 -0.15326167268E+04  0.15326167268E+04  0.00000000000E+00 0. -1.
      -24    2    1    2    0    0 -0.37118781743E+01  0.29684005716E+02 -0.32459497705E+03  0.33616599211E+03  0.82162989782E+02 0.  0.
       24    2    1    2    0    0  0.37118781743E+01 -0.29684005716E+02 -0.12006982106E+04  0.12037742737E+04  0.80631202943E+02 0.  0.
      -13    1    4    4    0    0 -0.29660669179E+02 -0.10418252652E+02 -0.21128646865E+03  0.21361242267E+03  0.00000000000E+00 0.  1.
       14    1    4    4    0    0  0.33372547354E+02 -0.19265753064E+02 -0.98941174198E+03  0.99016185107E+03  0.00000000000E+00 0. -1.
        1    1    3    3  502    0  0.32589926535E+02  0.75673938080E+01 -0.64913212379E+02  0.73028035041E+02  0.00000000000E+00 0. -1.
       -2    1    3    3    0  502 -0.36301804709E+02  0.22116611908E+02 -0.25968176467E+03  0.26313795707E+03  0.00000000000E+00 0.  1.
</event>
<event>
 8   1  0.2279600E-02  0.1191896E+03  0.7546771E-02  0.1249141E+00
       -1   -1    0    0    0  501 -0.00000000000E+00  0.00000000000E+00  0.29894791075E+02  0.29894791075E+02  0.00000000000E+00 0.  1.
        1   -1    0    0  501    0  0.00000000000E+00 -0.00000000000E+00 -0.60878729244E+03  0.60878729244E+03  0.00000000000E+00 0. -1.
       24    2    1    2    0    0  0.90211994723E+01 -0.72321767348E+02 -0.12787661550E+03  0.17481012110E+03  0.94309753329E+02 0.  0.
      -24    2    1    2    0    0 -0.90211994723E+01  0.72321767348E+02 -0.45101588586E+03  0.46387196241E+03  0.80312191760E+02 0.  0.
      -13    1    3    3    0    0  0.23334938669E+02 -0.88352446725E+02 -0.76701227661E+02  0.11930529129E+03  0.00000000000E+00 0.  1.
       14    1    3    3    0    0 -0.14313739197E+02  0.16030679377E+02 -0.51175387843E+02  0.55504829808E+02  0.00000000000E+00 0. -1.
        1    1    4    4  502    0  0.33184979060E+02  0.49371385254E+02 -0.21909281459E+03  0.22702519227E+03  0.00000000000E+00 0. -1.
       -2    1    4    4    0  502 -0.42206178533E+02  0.22950382094E+02 -0.23192307127E+03  0.23684677015E+03  0.00000000000E+00 0.  1.
</event>
<event>
 8   1  0.2279600E-02  0.8852990E+02  0.7546771E-02  0.1313112E+00
       -1   -1    0    0    0  501 -0.00000000000E+00  0.00000000000E+00  0.28057729998E+02  0.28057729998E+02  0.00000000000E+00 0.  1.
        1   -1    0    0  501    0  0.00000000000E+00 -0.00000000000E+00 -0.36999875930E+03  0.36999875930E+03  0.00000000000E+00 0. -1.
       24    2    1    2    0    0 -0.11420080166E+02 -0.36437032779E+02 -0.63956886266E+02  0.10921550616E+03  0.79871571258E+02 0.  0.
      -24    2    1    2    0    0  0.11420080166E+02  0.36437032779E+02 -0.27798414303E+03  0.28884098314E+03  0.68526302796E+02 0.  0.
      -13    1    3    3    0    0  0.21140238961E+02 -0.21477483717E+02  0.58966352710E+01  0.30707691506E+02  0.00000000000E+00 0.  1.
       14    1    3    3    0    0 -0.32560319127E+02 -0.14959549062E+02 -0.69853521537E+02  0.78507814649E+02  0.00000000000E+00 0. -1.
        3    1    4    4  502    0  0.55895275064E+00  0.37906179180E+02 -0.62643265893E+02  0.73221373996E+02  0.00000000000E+00 0. -1.
       -4    1    4    4    0  502  0.10861127416E+02 -0.14691464010E+01 -0.21534087714E+03  0.21561960914E+03  0.00000000000E+00 0.  1.
</event>
<event>
 8   1  0.2279600E-02  0.1197896E+03  0.7546771E-02  0.1249104E+00
        2   -1    0    0  501    0  0.00000000000E+00  0.00000000000E+00  0.55959271727E+03  0.55959271727E+03  0.00000000000E+00 0. -1.
       -2   -1    0    0    0  501 -0.00000000000E+00 -0.00000000000E+00 -0.22960584699E+02  0.22960584699E+02  0.00000000000E+00 0.  1.
      -24    2    1    2    0    0  0.12369855846E+02  0.68997624786E+02  0.25498565991E+03  0.27649076809E+03  0.80720335210E+02 0.  0.
       24    2    1    2    0    0 -0.12369855846E+02 -0.68997624786E+02  0.28164647266E+03  0.30606253388E+03  0.97138321613E+02 0.  0.
      -13    1    4    4    0    0 -0.25579284302E+02 -0.30067544410E+02  0.26315566737E+02  0.47443293150E+02  0.00000000000E+00 0.  1.
       14    1    4    4    0    0  0.13209428456E+02 -0.38930080377E+02  0.25533090592E+03  0.25861924074E+03  0.00000000000E+00 0. -1.
        3    1    3    3  502    0  0.46464441867E+02  0.39904030622E+02  0.12983352263E+03  0.14355493588E+03  0.00000000000E+00 0. -1.
       -4    1    3    3    0  502 -0.34094586021E+02  0.29093594165E+02  0.12515213728E+03  0.13293583220E+03  0.00000000000E+00 0.  1.
</event>
<event>
 8   1  0.2279600E-02  0.8216118E+02  0.7546771E-02  0.1323100E+00
       -1   -1    0    0    0  501 -0.00000000000E+00  0.00000000000E+00  0.11560401838E+02  0.11560401838E+02  0.00000000000E+00 0.  1.
        1   -1    0    0  501    0  0.00000000000E+00 -0.00000000000E+00 -0.12489860764E+04  0.12489860764E+04  0.00000000000E+00 0. -1.
       24    2    1    2    0    0  0.13915305411E+01 -0.17346060011E+02 -0.15834881552E+03  0.17834625335E+03  0.80188631064E+02 0.  0.
      -24    2    1    2    0    0 -0.13915305411E+01  0.17346060011E+02 -0.10790768590E+04  0.10822002249E+04  0.80297178494E+02 0.  0.
      -13    1    3    3    0    0  0.18139863042E+02 -0.35978945994E+02 -0.14387814819E+03  0.14941372331E+03  0.00000000000E+00 0.  1.
       14    1    3    3    0    0 -0.16748332500E+02  0.18632885983E+02 -0.14470667328E+02  0.28932530040E+02  0.00000000000E+00 0. -1.
        3    1    4    4  502    0  0.19816010925E+02  0.14159145418E+02 -0.99913440402E+03  0.99943119472E+03  0.00000000000E+00 0. -1.
       -4    1    4    4    0  502 -0.21207541466E+02  0.31869145936E+01 -0.79942455012E+02  0.82769030156E+02  0.00000000000E+00 0.  1.
</event>
<event>
 8   1  0.2279600E-02  0.1209219E+03  0.7546771E-02  0.1241920E+00
        2   -1    0    0  501    0  0.00000000000E+00  0.00000000000E+00  0.52851369240E+03  0.52851369240E+03  0.00000000000E+00 0. -1.
       -2   -1    0    0    0  501 -0.00000000000E+00 -0.00000000000E+00 -0.35115186248E+02  0.35115186248E+02  0.00000000000E+00 0.  1.
       24    2    1    2    0    0  0.67576057599E+02 -0.59849025698E+02  0.37877113279E+03  0.39760493636E+03  0.80459212920E+02 0.  0.
      -24    2    1    2    0    0 -0.67576057599E+02  0.59849025698E+02  0.11462737336E+03  0.16602394229E+03  0.79221747341E+02 0.  0.
      -13    1    3    3    0    0 -0.15979281902E+02  0.11964403152E+01  0.33055110843E+02  0.36734306477E+02  0.00000000000E+00 0.  1.
       14    1    3    3    0    0  0.83555339500E+02 -0.61045466014E+02  0.34571602195E+03  0.36087062988E+03  0.00000000000E+00 0. -1.
        3    1    4    4  502    0 -0.11185327640E+02  0.36557577420E+01  0.77136063059E+02  0.78028509811E+02  0.00000000000E+00 0. -1.
       -4    1    4    4    0  502 -0.56390729958E+02  0.56193267956E+02  0.37491310303E+02  0.87995432479E+02  0.00000000000E+00 0.  1.
</event>
<event>
 8   1  0.2279600E-02  0.1098189E+03  0.7546771E-02  0.1265202E+00
       -2   -1    0    0    0  501 -0.00000000000E+00  0.00000000000E+00  0.74072087799E+01  0.74072087799E+01  0.00000000000E+00 0.  1.
        2   -1    0    0  501    0  0.00000000000E+00 -0.00000000000E+00 -0.15521582888E+04  0.15521582888E+04  0.00000000000E+00 0. -1.
      -24    2    1    2    0    0 -0.58198306466E+02 -0.30460142332E+02 -0.66033168977E+03  0.66940132292E+03  0.88007542095E+02 0.  0.
       24    2    1    2    0    0  0.58198306466E+02  0.30460142332E+02 -0.88441939024E+03  0.89016417465E+03  0.76679442172E+02 0.  0.
      -13    1    4    4    0    0  0.24565142742E+01  0.30978192068E+02 -0.12897403528E+03  0.13266493366E+03  0.00000000000E+00 0.  1.
       14    1    4    4    0    0  0.55741792192E+02 -0.51804973622E+00 -0.75544535496E+03  0.75749924099E+03  0.00000000000E+00 0. -1.
        3    1    3    3  502    0  0.37962109495E+00 -0.13879654627E+01 -0.42903971054E+03  0.42904212355E+03  0.00000000000E+00 0. -1.
       -4    1    3    3    0  502 -0.58577927561E+02 -0.29072176869E+02 -0.23129197923E+03  0.24035919936E+03  0.00000000000E+00 0.  1.
</event>
<event>
 8   1  0.2279600E-02  0.8714059E+02  0.7546771E-02  0.1311938E+00
       -1   -1    0    0    0  501 -0.00000000000E+00  0.00000000000E+00  0.39969075534E+03  0.39969075534E+03  0.00000000000E+00 0.  1.
        1   -1    0    0  501    0  0.00000000000E+00 -0.00000000000E+00 -0.18413690483E+02  0.18413690483E+02  0.00000000000E+00 0. -1.
       24    2    1    2    0    0 -0.21884569800E+02  0.12197376799E+02  0.17957995112E+03  0.19960571449E+03  0.83461200659E+02 0.  0.
      -24    2    1    2    0    0  0.21884569800E+02 -0.12197376799E+02  0.20169711373E+03  0.21849873133E+03  0.80201368498E+02 0.  0.
      -13    1    3    3    0    0 -0.31719488047E+02  0.42451648428E+02  0.13328942657E+03  0.14343758089E+03  0.00000000000E+00 0.  1.
       14    1    3    3    0    0  0.98349182473E+01 -0.30254271628E+02  0.46290524556E+02  0.56168133602E+02  0.00000000000E+00 0. -1.
        1    1    4    4  502    0  0.40412911116E+02 -0.22511621013E+02  0.62836245610E+02  0.78028009252E+02  0.00000000000E+00 0. -1.
       -2    1    4    4    0  502 -0.18528341316E+02  0.10314244213E+02  0.13886086812E+03  0.14047072208E+03  0.00000000000E+00 0.  1.
</event>
<event>
 8   1  0.2279600E-02  0.9013850E+02  0.7546771E-02  0.1303284E+00
        2   -1    0    0  501    0  0.00000000000E+00  0.00000000000E+00  0.33181998680E+03  0.33181998680E+03  0.00000000000E+00 0. -1.
       -2   -1    0    0    0  501 -0.00000000000E+00 -0.00000000000E+00 -0.36569882167E+02  0.36569882167E+02  0.00000000000E+00 0.  1.
       24    2    1    2    0    0 -0.26547987873E+01 -0.38987936206E+02  0.25430280765E+03  0.26938668825E+03  0.79825827278E+02 0.  0.
      -24    2    1    2    0    0  0.26547987873E+01  0.38987936206E+02  0.40947296988E+02  0.99003180723E+02  0.81227098535E+02 0.  0.
      -13    1    3    3    0    0  0.37551003248E+02 -0.28337527518E+02  0.12501864237E+03  0.13357677287E+03  0.00000000000E+00 0.  1.
       14    1    3    3    0    0 -0.40205802035E+02 -0.10650408688E+02  0.12928416528E+03  0.13580991538E+03  0.00000000000E+00 0. -1.
        3    1    4    4  502    0 -0.34097115002E+02  0.16988435058E+02  0.41275988774E+02  0.56168740652E+02  0.00000000000E+00 0. -1.
       -4    1    4    4    0  502  0.36751913789E+02  0.21999501148E+02 -0.32869178598E+00  0.42834440071E+02  0.00000000000E+00 0.  1.
</event>
<event>
 8   1  0.2279600E-02  0.1103233E+03  0.7546771E-02  0.1261860E+00
       -1   -1    0    0    0  501 -0.00000000000E+00  0.00000000000E+00  0.77811036109E+03  0.77811036109E+03  0.00000000000E+00 0.  1.
        1   -1    0    0  501    0  0.00000000000E+00 -0.00000000000E+00 -0.52740253592E+02  0.52740253592E+02  0.00000000000E+00 0. -1.
       24    2    1    2    0    0 -0.60456668269E+02  0.43778879026E+02  0.71564051605E+03  0.72409431804E+03  0.81238132784E+02 0.  0.
      -24    2    1    2    0    0  0.60456668269E+02 -0.43778879026E+02  0.97295914457E+01  0.10675629664E+03  0.75701010138E+02 0.  0.
      -13    1    3    3    0    0 -0.55610194896E+02  0.57114972059E+02  0.69159728267E+03  0.69617628170E+03  0.00000000000E+00 0.  1.
       14    1    3    3    0    0 -0.48464733728E+01 -0.13336093033E+02  0.24043233381E+02  0.27918036337E+02  0.00000000000E+00 0. -1.
        1    1    4    4  502    0  0.44328135330E+02 -0.48820277468E+02 -0.23068534812E+02  0.69861007524E+02  0.00000000000E+00 0. -1.
       -2    1    4    4    0  502  0.16128532938E+02  0.50413984420E+01  0.32798126258E+02  0.36895289117E+02  0.00000000000E+00 0.  1.
</event>
<event>
 8   1  0.2279600E-02  0.1013644E+03  0.7546771E-02  0.1278436E+00
       -1   -1    0    0    0  501 -0.00000000000E+00  0.00000000000E+00  0.62145845194E+01  0.62145845194E+01  0.00000000000E+00 0.  1.
        1   -1    0    0  501    0  0.00000000000E+00 -0.00000000000E+00 -0.17031062171E+04  0.17031062171E+04  0.00000000000E+00 0. -1.
       24    2    1    2    0    0  0.25556715415E+02  0.53542102459E+02 -0.65517716629E+03  0.66268630565E+03  0.79850598164E+02 0.  0.
      -24    2    1    2    0    0 -0.25556715415E+02 -0.53542102459E+02 -0.10417144663E+04  0.10466344959E+04  0.82187811987E+02 0.  0.
      -13    1    3    3    0    0  0.28085961075E+02  0.65703605349E+01 -0.71244536470E+02  0.76862050609E+02  0.00000000000E+00 0.  1.
       14    1    3    3    0    0 -0.25292456599E+01  0.46971741924E+02 -0.58393262982E+03  0.58582425504E+03  0.00000000000E+00 0. -1.
        1    1    4    4  502    0 -0.31387545060E+02  0.13089227142E+02 -0.30503263061E+03  0.30692248466E+03  0.00000000000E+00 0. -1.
       -2    1    4    4    0  502  0.58308296448E+01 -0.66631329601E+02 -0.73668183565E+03  0.73971201128E+03  0.00000000000E+00 0.  1.
</event>
<event>
 8   1  0.2279600E-02  0.8468083E+02  0.7546771E-02  0.1319291E+00
       -1   -1    0    0    0  501 -0.00000000000E+00  0.00000000000E+00  0.36782029865E+02  0.36782029865E+02  0.00000000000E+00 0.  1.
        1   -1    0    0  501    0  0.00000000000E+00 -0.00000000000E+00 -0.21405948884E+03  0.21405948884E+03  0.00000000000E+00 0. -1.
       24    2    1    2    0    0 -0.33910960774E+01  0.16145236681E+02 -0.13705878069E+03  0.16110851045E+03  0.83058260132E+02 0.  0.
      -24    2    1    2    0    0  0.33910960774E+01 -0.16145236681E+02 -0.40218678292E+02  0.89733008258E+02  0.78500334314E+02 0.  0.
      -13    1    3    3    0    0 -0.41968725955E+02 -0.51355257613E+00 -0.58241433618E+02  0.71789290875E+02  0.00000000000E+00 0.  1.
       14    1    3    3    0    0  0.38577629878E+02  0.16658789257E+02 -0.78817347068E+02  0.89319219574E+02  0.00000000000E+00 0. -1.
        3    1    4    4  502    0  0.38746745384E+02  0.45316885969E+01 -0.23134970133E+02  0.45354970207E+02  0.00000000000E+00 0. -1.
       -4    1    4    4    0  502 -0.35355649307E+02 -0.20676925278E+02 -0.17083708159E+02  0.44378038052E+02  0.00000000000E+00 0.  1.
</event>
<event>
 8   1  0.2279600E-02  0.1554050E+03  0.7546771E-02  0.1194462E+00
        2   -1    0    0  501    0  0.00000000000E+00  0.00000000000E+00  0.22571403638E+04  0.22571403638E+04  0.00000000000E+00 0. -1.
       -2   -1    0    0    0  501 -0.00000000000E+00 -0.00000000000E+00 -0.27005923733E+02  0.27005923733E+02  0.00000000000E+00 0.  1.
       24    2    1    2    0    0 -0.12815673203E+03  0.24903587508E+02  0.20032378663E+04  0.20091321415E+04  0.81275313263E+02 0.  0.
      -24    2    1    2    0    0  0.12815673203E+03 -0.24903587508E+02  0.22689657381E+03  0.27501414604E+03  0.84299399041E+02 0.  0.
      -13    1    3    3    0    0 -0.95281509407E+02 -0.16804276478E+01  0.88912136787E+03  0.89421373098E+03  0.00000000000E+00 0.  1.
       14    1    3    3    0    0 -0.32875222624E+02  0.26584015156E+02  0.11141164984E+04  0.11149184105E+04  0.00000000000E+00 0. -1.
        3    1    4    4  502    0  0.25291199950E+02  0.15297354608E+02  0.11122307391E+03  0.11508356104E+03  0.00000000000E+00 0. -1.
       -4    1    4    4    0  502  0.10286553208E+03 -0.40200942115E+02  0.11567349990E+03  0.15993058500E+03  0.00000000000E+00 0.  1.
</event>
<event>
 8   1  0.2279600E-02  0.9426254E+02  0.7546771E-02  0.1295101E+00
        2   -1    0    0  501    0  0.00000000000E+00  0.00000000000E+00  0.10213569931E+04  0.10213569931E+04  0.00000000000E+00 0. -1.
       -2   -1    0    0    0  501 -0.00000000000E+00 -0.00000000000E+00 -0.48842117654E+02  0.48842117654E+02  0.00000000000E+00 0.  1.
      -24    2    1    2    0    0  0.13553794365E+02 -0.40023854976E+02  0.77624271202E+00  0.94265731955E+02  0.84260378349E+02 0.  0.
       24    2    1    2    0    0 -0.13553794365E+02  0.40023854976E+02  0.97173863270E+03  0.97593337877E+03  0.79902285308E+02 0.  0.
      -13    1    4    4    0    0 -0.22705488364E+01  0.13643780792E+02  0.23554523000E+02  0.27315264964E+02  0.00000000000E+00 0.  1.
       14    1    4    4    0    0 -0.11283245528E+02  0.26380074185E+02  0.94818410970E+03  0.94861811381E+03  0.00000000000E+00 0. -1.
        1    1    3    3  502    0  0.18854262441E+02  0.21149556063E+02  0.13771479877E+02  0.31503025122E+02  0.00000000000E+00 0. -1.
       -2    1    3    3    0  502 -0.53004680764E+01 -0.61173411040E+02 -0.12995237165E+02  0.62762706833E+02  0.00000000000E+00 0.  1.
</event>
<event>
 8   1  0.2279600E-02  0.9884991E+02  0.7546771E-02  0.1285063E+00
        2   -1    0    0  501    0  0.00000000000E+00  0.00000000000E+00  0.71699053690E+03  0.71699053690E+03  0.00000000000E+00 0. -1.
       -2   -1    0    0    0  501 -0.00000000000E+00 -0.00000000000E+00 -0.13092202547E+02  0.13092202547E+02  0.00000000000E+00 0.  1.
      -24    2    1    2    0    0 -0.10363630289E+02  0.47822828867E+02  0.33826205664E+03  0.35240959511E+03  0.85888741792E+02 0.  0.
       24    2    1    2    0    0  0.10363630289E+02 -0.47822828867E+02  0.36563627771E+03  0.37767314434E+03  0.80948678704E+02 0.  0.
      -13    1    4    4    0    0  0.41928062244E+02 -0.62514567418E+01  0.16472357634E+03  0.17009085724E+03  0.00000000000E+00 0.  1.
       14    1    4    4    0    0 -0.31564431955E+02 -0.41571372125E+02  0.20091270137E+03  0.20758228710E+03  0.00000000000E+00 0. -1.
        1    1    3    3  502    0 -0.41951432207E+02  0.15220707556E+02  0.24071966687E+03  0.24482146683E+03  0.00000000000E+00 0. -1.
       -2    1    3    3    0  502  0.31587801917E+02  0.32602121310E+02  0.97542389774E+02  0.10758812828E+03  0.00000000000E+00 0.  1.
</event>
<event>
 8   1  0.2279600E-02  0.9630117E+02  0.7546771E-02  0.1288398E+00
        1   -1    0    0  501    0  0.00000000000E+00  0.00000000000E+00  0.56383693221E+02  0.56383693221E+02  0.00000000000E+00 0. -1.
       -1   -1    0    0    0  501 -0.00000000000E+00 -0.00000000000E+00 -0.27012369134E+03  0.27012369134E+03  0.00000000000E+00 0.  1.
       24    2    1    2    0    0 -0.33349418603E+02  0.40252300565E+02 -0.20923030891E+03  0.23032854057E+03  0.80879435037E+02 0.  0.
      -24    2    1    2    0    0  0.33349418603E+02 -0.40252300565E+02 -0.45096892126E+01  0.96178843997E+02  0.80607700090E+02 0.  0.
      -13    1    3    3    0    0 -0.25572780435E+02 -0.14876300778E+02 -0.27980689154E+02  0.40720883949E+02  0.00000000000E+00 0.  1.
       14    1    3    3    0    0 -0.77766381678E+01  0.55128601343E+02 -0.18124961975E+03  0.18960765662E+03  0.00000000000E+00 0. -1.
        1    1    4    4  502    0  0.36718774873E+02 -0.35121078743E+02  0.31411824847E+02  0.59736599673E+02  0.00000000000E+00 0. -1.
       -2    1    4    4    0  502 -0.33693562707E+01 -0.51312218223E+01 -0.35921514059E+02  0.36442244324E+02  0.00000000000E+00 0.  1.
</event>
<event>
 8   1  0.2279600E-02  0.8398957E+02  0.7546771E-02  0.1319781E+00
        3   -1    0    0  501    0  0.00000000000E+00  0.00000000000E+00  0.13808193716E+03  0.13808193716E+03  0.00000000000E+00 0. -1.
       -3   -1    0    0    0  501 -0.00000000000E+00 -0.00000000000E+00 -0.27354349458E+03  0.27354349458E+03  0.00000000000E+00 0.  1.
       24    2    1    2    0    0 -0.71213984544E+01 -0.17891887317E+02 -0.25414047414E+03  0.26765953852E+03  0.81752149894E+02 0.  0.
      -24    2    1    2    0    0  0.71213984544E+01  0.17891887317E+02  0.11867891673E+03  0.14396589323E+03  0.79187493890E+02 0.  0.
      -13    1    3    3    0    0 -0.15528965887E+01 -0.50586161397E+02 -0.14404606060E+03  0.15267821975E+03  0.00000000000E+00 0.  1.
       14    1    3    3    0    0 -0.55685018657E+01  0.32694274079E+02 -0.11009441355E+03  0.11498131877E+03  0.00000000000E+00 0. -1.
        3    1    4    4  502    0 -0.16775037428E+02  0.33610708460E+02  0.10640456086E+03  0.11284064948E+03  0.00000000000E+00 0. -1.
       -4    1    4    4    0  502  0.23896435882E+02 -0.15718821143E+02  0.12274355868E+02  0.31125243741E+02  0.00000000000E+00 0.  1.
</event>
<event>
 8   1  0.2279600E-02  0.9497124E+02  0.7546771E-02  0.1291510E+00
       -2   -1    0    0    0  501 -0.00000000000E+00  0.00000000000E+00  0.26299515710E+02  0.26299515710E+02  0.00000000000E+00 0.  1.
        2   -1    0    0  501    0  0.00000000000E+00 -0.00000000000E+00 -0.48322338493E+03  0.48322338493E+03  0.00000000000E+00 0. -1.
      -24    2    1    2    0    0  0.27425672172E+02 -0.43568401787E+02 -0.90770362429E+02  0.13137273126E+03  0.79807034127E+02 0.  0.
       24    2    1    2    0    0 -0.27425672172E+02  0.43568401787E+02 -0.36615350680E+03  0.37815016938E+03  0.79238796903E+02 0.  0.
      -13    1    4    4    0    0  0.23751186894E+02 -0.38351268574E+01 -0.11495433787E+03  0.11744499509E+03  0.00000000000E+00 0.  1.
       14    1    4    4    0    0 -0.51176859066E+02  0.47403528644E+02 -0.25119916893E+03  0.26070517429E+03  0.00000000000E+00 0. -1.
        3    1    3    3  502    0 -0.83917422438E+01 -0.27555658583E+02 -0.87365209512E+02  0.91991388135E+02  0.00000000000E+00 0. -1.
       -4    1    3    3    0  502  0.35817414416E+02 -0.16012743204E+02 -0.34051529170E+01  0.39381343130E+02  0.00000000000E+00 0.  1.
</event>
<event>
 8   1  0.2279600E-02  0.8595192E+02  0.7546771E-02  0.1314379E+00
       -1   -1    0    0    0  501 -0.00000000000E+00  0.00000000000E+00  0.76871054781E+02  0.76871054781E+02  0.00000000000E+00 0.  1.
        1   -1    0    0  501    0  0.00000000000E+00 -0.00000000000E+00 -0.96497229402E+02  0.96497229402E+02  0.00000000000E+00 0. -1.
       24    2    1    2    0    0 -0.13957686059E+02  0.22653343971E+02 -0.24707618814E+02  0.89432648604E+02  0.81729683810E+02 0.  0.
      -24    2    1    2    0    0  0.13957686059E+02 -0.22653343971E+02  0.50814441936E+01  0.83935635578E+02  0.79444187023E+02 0.  0.
      -13    1    3    3    0    0  0.24629797311E+02 -0.12251760049E+02 -0.25333225171E+02  0.37396588581E+02  0.00000000000E+00 0.  1.
       14    1    3    3    0    0 -0.38587483370E+02  0.34905104020E+02  0.62560635690E+00  0.52036060023E+02  0.00000000000E+00 0. -1.
        1    1    4    4  502    0  0.47573301460E+01  0.23136037639E+02 -0.19975334176E+02  0.30934162397E+02  0.00000000000E+00 0. -1.
       -2    1    4    4    0  502  0.92003559125E+01 -0.45789381610E+02  0.25056778370E+02  0.53001473182E+02  0.00000000000E+00 0.  1.
</event>
<event>
 8   1  0.2279600E-02  0.1180639E+03  0.7546771E-02  0.1246409E+00
        1   -1    0    0  501    0  0.00000000000E+00  0.00000000000E+00  0.19010488775E+04  0.19010488775E+04  0.00000000000E+00 0. -1.
       -1   -1    0    0    0  501 -0.00000000000E+00 -0.00000000000E+00 -0.73311597853E+01  0.73311597853E+01  0.00000000000E+00 0.  1.
       24    2    1    2    0    0  0.79165289052E+02  0.33085845471E+02  0.91045562064E+03  0.91807871322E+03  0.81100372050E+02 0.  0.
      -24    2    1    2    0    0 -0.79165289052E+02 -0.33085845471E+02  0.98326209706E+03  0.99030132406E+03  0.80811785932E+02 0.  0.
      -13    1    3    3    0    0  0.77654856282E+02 -0.69451325498E+01  0.59006932030E+03  0.59519771029E+03  0.00000000000E+00 0.  1.
       14    1    3    3    0    0  0.15104327699E+01  0.40030978021E+02  0.32038630034E+03  0.32288100293E+03  0.00000000000E+00 0. -1.
        3    1    4    4  502    0 -0.40676228646E+02 -0.20689660074E+02  0.84541582944E+03  0.84664664546E+03  0.00000000000E+00 0. -1.
       -4    1    4    4    0  502 -0.38489060406E+02 -0.12396185397E+02  0.13784626763E+03  0.14365467860E+03  0.00000000000E+00 0.  1.
</event>
<event>
 8   1  0.2279600E-02  0.8414834E+02  0.7546771E-02  0.1320698E+00
       -4   -1    0    0    0  501 -0.00000000000E+00  0.00000000000E+00  0.18539131579E+03  0.18539131579E+03  0.00000000000E+00 0.  1.
        4   -1    0    0  501    0  0.00000000000E+00 -0.00000000000E+00 -0.36868457462E+02  0.36868457462E+02  0.00000000000E+00 0. -1.
      -24    2    1    2    0    0  0.29282248525E+01  0.13309803055E+02  0.87134154239E+02  0.11809876137E+03  0.78544453929E+02 0.  0.
       24    2    1    2    0    0 -0.29282248525E+01 -0.13309803055E+02  0.61388704092E+02  0.10416101189E+03  0.83037449682E+02 0.  0.
      -13    1    4    4    0    0 -0.81160128288E+01  0.30844730084E+02  0.48892849928E+01  0.32267199226E+02  0.00000000000E+00 0.  1.
       14    1    4    4    0    0  0.51877879763E+01 -0.44154533139E+02  0.56499419099E+02  0.71893812664E+02  0.00000000000E+00 0. -1.
        1    1    3    3  502    0 -0.18866974770E+02 -0.14729987160E+01 -0.71314510064E+01  0.20223502556E+02  0.00000000000E+00 0. -1.
       -2    1    3    3    0  502  0.21795199622E+02  0.14782801771E+02  0.94265605245E+02  0.97875258809E+02  0.00000000000E+00 0.  1.
</event>
<event>
 8   1  0.2279600E-02  0.8508589E+02  0.7546771E-02  0.1316728E+00
        2   -1    0    0  501    0  0.00000000000E+00  0.00000000000E+00  0.12330377521E+04  0.12330377521E+04  0.00000000000E+00 0. -1.
       -2   -1    0    0    0  501 -0.00000000000E+00 -0.00000000000E+00 -0.21722563147E+02  0.21722563147E+02  0.00000000000E+00 0.  1.
       24    2    1    2    0    0 -0.70119553952E+01  0.26566704113E+02  0.11464010667E+04  0.11495542675E+04  0.80527329262E+02 0.  0.
      -24    2    1    2    0    0  0.70119553952E+01 -0.26566704113E+02  0.64914122204E+02  0.10520604776E+03  0.78099372205E+02 0.  0.
      -13    1    3    3    0    0  0.30023973585E+01  0.26433333346E+02  0.11242583233E+03  0.11553052963E+03  0.00000000000E+00 0.  1.
       14    1    3    3    0    0 -0.10014352754E+02  0.13337076703E+00  0.10339752344E+04  0.10340237378E+04  0.00000000000E+00 0. -1.
        3    1    4    4  502    0 -0.11845881433E+02 -0.12875211579E+02  0.76994344987E+02  0.78957109497E+02  0.00000000000E+00 0. -1.
       -4    1    4    4    0  502  0.18857836828E+02 -0.13691492534E+02 -0.12080222783E+02  0.26248938267E+02  0.00000000000E+00 0.  1.
</event>
<event>
 8   1  0.2279600E-02  0.8847363E+02  0.7546771E-02  0.1310435E+00
        2   -1    0    0  501    0  0.00000000000E+00  0.00000000000E+00  0.71396425235E+03  0.71396425235E+03  0.00000000000E+00 0. -1.
       -2   -1    0    0    0  501 -0.00000000000E+00 -0.00000000000E+00 -0.13374576915E+02  0.13374576915E+02  0.00000000000E+00 0.  1.
      -24    2    1    2    0    0  0.10511471020E+02 -0.76484747914E+01  0.16482395903E+03  0.18431720325E+03  0.81467194360E+02 0.  0.
       24    2    1    2    0    0 -0.10511471020E+02  0.76484747914E+01  0.53576571641E+03  0.54302162601E+03  0.87513388952E+02 0.  0.
      -13    1    4    4    0    0 -0.45348275787E+02 -0.10509721304E+02  0.22363606963E+03  0.22842944643E+03  0.00000000000E+00 0.  1.
       14    1    4    4    0    0  0.34836804767E+02  0.18158196095E+02  0.31212964678E+03  0.31459217958E+03  0.00000000000E+00 0. -1.
        1    1    3    3  502    0 -0.19498154930E+02  0.12585875677E+02  0.99159537720E+01  0.25237045220E+02  0.00000000000E+00 0. -1.
       -2    1    3    3    0  502  0.30009625950E+02 -0.20234350468E+02  0.15490800525E+03  0.15908015803E+03  0.00000000000E+00 0.  1.
</event>
<event>
 8   1  0.2279600E-02  0.1382147E+03  0.7546771E-02  0.1216003E+00
       -4   -1    0    0    0  501 -0.00000000000E+00  0.00000000000E+00  0.19017557568E+04  0.19017557568E+04  0.00000000000E+00 0.  1.
        4   -1    0    0  501    0  0.00000000000E+00 -0.00000000000E+00 -0.22525595212E+02  0.22525595212E+02  0.00000000000E+00 0. -1.
      -24    2    1    2    0    0 -0.10682513986E+03 -0.30810182039E+02  0.16584218432E+04  0.16641713620E+04  0.82112326239E+02 0.  0.
       24    2    1    2    0    0  0.10682513986E+03  0.30810182039E+02  0.22080831833E+03  0.26010999000E+03  0.80870363123E+02 0.  0.
      -13    1    4    4    0    0  0.63907209506E+02  0.18421179230E+02  0.20011788381E+03  0.21088062664E+03  0.00000000000E+00 0.  1.
       14    1    4    4    0    0  0.42917930350E+02  0.12389002809E+02  0.20690434516E+02  0.49229363357E+02  0.00000000000E+00 0. -1.
        1    1    3    3  502    0 -0.16288071208E+02  0.25135257547E+02  0.48907717643E+03  0.48999343561E+03  0.00000000000E+00 0. -1.
       -2    1    3    3    0  502 -0.90537068647E+02 -0.55945439587E+02  0.11693446668E+04  0.11741779264E+04  0.00000000000E+00 0.  1.
</event>
<event>
 8   1  0.2279600E-02  0.8231584E+02  0.7546771E-02  0.1324775E+00
        2   -1    0    0  501    0  0.00000000000E+00  0.00000000000E+00  0.96777779319E+03  0.96777779319E+03  0.00000000000E+00 0. -1.
       -2   -1    0    0    0  501 -0.00000000000E+00 -0.00000000000E+00 -0.71509369278E+01  0.71509369278E+01  0.00000000000E+00 0.  1.
      -24    2    1    2    0    0  0.12600247528E+02 -0.89534503723E+01  0.35464952169E+03  0.36338606779E+03  0.77680245330E+02 0.  0.
       24    2    1    2    0    0 -0.12600247528E+02  0.89534503723E+01  0.60597733457E+03  0.61154266233E+03  0.80851514058E+02 0.  0.
      -13    1    4    4    0    0 -0.20891429221E+02 -0.25051878089E+02  0.47007367498E+03  0.47120410473E+03  0.00000000000E+00 0.  1.
       14    1    4    4    0    0  0.82911816927E+01  0.34005328461E+02  0.13590365959E+03  0.14033855760E+03  0.00000000000E+00 0. -1.
        1    1    3    3  502    0  0.36456878260E+02  0.19563402421E+02  0.20981747895E+03  0.21385790881E+03  0.00000000000E+00 0. -1.
       -2    1    3    3    0  502 -0.23856630732E+02 -0.28516852793E+02  0.14483204274E+03  0.14952815898E+03  0.00000000000E+00 0.  1.
</event>
<event>
 8   1  0.2279600E-02  0.8505380E+02  0.7546771E-02  0.1316169E+00
        2   -1    0    0  501    0  0.00000000000E+00  0.00000000000E+00  0.30338685967E+03  0.30338685967E+03  0.00000000000E+00 0. -1.
       -2   -1    0    0    0  501 -0.00000000000E+00 -0.00000000000E+00 -0.24105580006E+02  0.24105580006E+02  0.00000000000E+00 0.  1.
      -24    2    1    2    0    0  0.24023171657E+02  0.41586344934E+01  0.16509489045E+03  0.18511027675E+03  0.80094223803E+02 0.  0.
       24    2    1    2    0    0 -0.24023171657E+02 -0.41586344934E+01  0.11418638921E+03  0.14238216292E+03  0.81484610948E+02 0.  0.
      -13    1    4    4    0    0  0.14775316743E+02  0.23304216098E+02  0.12824803266E+02  0.30428145715E+02  0.00000000000E+00 0.  1.
       14    1    4    4    0    0 -0.38798488400E+02 -0.27462850591E+02  0.10136158594E+03  0.11195401721E+03  0.00000000000E+00 0. -1.
        3    1    3    3  502    0 -0.25216408218E+02  0.18351492232E+02  0.78797839265E+02  0.84745170856E+02  0.00000000000E+00 0. -1.
       -4    1    3    3    0  502  0.49239579875E+02 -0.14192857738E+02  0.86297051188E+02  0.10036510589E+03  0.00000000000E+00 0.  1.
</event>
<event>
 8   1  0.2279600E-02  0.8464447E+02  0.7546771E-02  0.1316824E+00
        2   -1    0    0  501    0  0.00000000000E+00  0.00000000000E+00  0.13927233059E+03  0.13927233059E+03  0.00000000000E+00 0. -1.
       -2   -1    0    0    0  501 -0.00000000000E+00 -0.00000000000E+00 -0.96001430417E+02  0.96001430417E+02  0.00000000000E+00 0.  1.
       24    2    1    2    0    0 -0.24448944392E+01  0.26328319197E+02  0.10210919393E+03  0.13218820988E+03  0.79676078246E+02 0.  0.
      -24    2    1    2    0    0  0.24448944392E+01 -0.26328319197E+02 -0.58838293763E+02  0.10308555112E+03  0.80408507865E+02 0.  0.
      -13    1    3    3    0    0  0.26284725130E+02  0.35827049736E+02  0.28990754980E+02  0.53055896395E+02  0.00000000000E+00 0.  1.
       14    1    3    3    0    0 -0.28729619569E+02 -0.94987305388E+01  0.73118438952E+02  0.79132313483E+02  0.00000000000E+00 0. -1.
        1    1    4    4  502    0 -0.33828569943E+02  0.66604549248E+01 -0.32718358672E+02  0.47531303352E+02  0.00000000000E+00 0. -1.
       -2    1    4    4    0  502  0.36273464382E+02 -0.32988774122E+02 -0.26119935091E+02  0.55554247772E+02  0.00000000000E+00 0.  1.
</event>
<event>
 8   1  0.2279600E-02  0.8703269E+02  0.7546771E-02  0.1312786E+00
        1   -1    0    0  501    0  0.00000000000E+00  0.00000000000E+00  0.16669250079E+04  0.16669250079E+04  0.00000000000E+00 0. -1.
       -1   -1    0    0    0  501 -0.00000000000E+00 -0.00000000000E+00 -0.68330898812E+01  0.68330898812E+01  0.00000000000E+00 0.  1.
       24    2    1    2    0    0 -0.17008498688E+02 -0.28173609866E+02  0.33683016194E+03  0.34789257948E+03  0.80570761107E+02 0.  0.
      -24    2    1    2    0    0  0.17008498688E+02  0.28173609866E+02  0.13232617561E+04  0.13258655183E+04  0.76253892976E+02 0.  0.
      -13    1    3    3    0    0 -0.39578926057E+02 -0.33073149670E+02  0.13127801382E+03  0.14104694796E+03  0.00000000000E+00 0.  1.
       14    1    3    3    0    0  0.22570427369E+02  0.48995398043E+01  0.20555214812E+03  0.20684563152E+03  0.00000000000E+00 0. -1.
        1    1    4    4  502    0  0.45794482210E+02  0.27060931608E+02  0.75285955710E+03  0.75473633895E+03  0.00000000000E+00 0. -1.
       -2    1    4    4    0  502 -0.28785983522E+02  0.11126782580E+01  0.57040219897E+03  0.57112917934E+03  0.00000000000E+00 0.  1.
</event>
<event>
 8   1  0.2279600E-02  0.8925123E+02  0.7546771E-02  0.1305499E+00
       -1   -1    0    0    0  501 -0.00000000000E+00  0.00000000000E+00  0.68348984990E+01  0.68348984990E+01  0.00000000000E+00 0.  1.
        1   -1    0    0  501    0  0.00000000000E+00 -0.00000000000E+00 -0.12180818186E+04  0.12180818186E+04  0.00000000000E+00 0. -1.
       24    2    1    2    0    0 -0.30323186789E+02  0.16052890046E+02 -0.75673697691E+03  0.76198204356E+03  0.82392909577E+02 0.  0.
      -24    2    1    2    0    0  0.30323186789E+02 -0.16052890046E+02 -0.45450994320E+03  0.46293467355E+03  0.80944626566E+02 0.  0.
      -13    1    3    3    0    0 -0.65336295062E+01 -0.31257764654E+02 -0.17925481487E+03  0.18207697498E+03  0.00000000000E+00 0.  1.
       14    1    3    3    0    0 -0.23789557282E+02  0.47310654700E+02 -0.57748216205E+03  0.57990506858E+03  0.00000000000E+00 0. -1.
        1    1    4    4  502    0  0.10034700487E+02  0.24267245843E+02 -0.31954248098E+03  0.32061969931E+03  0.00000000000E+00 0. -1.
       -2    1    4    4    0  502  0.20288486301E+02 -0.40320135889E+02 -0.13496746223E+03  0.14231497424E+03  0.00000000000E+00 0.  1.
</event>
<event>
 8   1  0.2279600E-02  0.1018194E+03  0.7546771E-02  0.1288357E+00
        2   -1    0    0  501    0  0.00000000000E+00  0.00000000000E+00  0.21568558333E+03  0.21568558333E+03  0.00000000000E+00 0. -1.
       -2   -1    0    0    0  501 -0.00000000000E+00 -0.00000000000E+00 -0.44695902975E+02  0.44695902975E+02  0.00000000000E+00 0.  1.
      -24    2    1    2    0    0 -0.10549429792E+02  0.19209767458E+02  0.30504878444E+02  0.86878806992E+02  0.78339478303E+02 0.  0.
       24    2    1    2    0    0  0.10549429792E+02 -0.19209767458E+02  0.14048480191E+03  0.17350267931E+03  0.99432864416E+02 0.  0.
      -13    1    4    4    0    0  0.41763637241E+02  0.24245334985E+02  0.68540709905E+02  0.83844299617E+02  0.00000000000E+00 0.  1.
       14    1    4    4    0    0 -0.31214207449E+02 -0.43455102443E+02  0.71944092006E+02  0.89658379695E+02  0.00000000000E+00 0. -1.
        1    1    3    3  502    0  0.14709747115E+02  0.13769063693E+02  0.50393580977E+02  0.54272246856E+02  0.00000000000E+00 0. -1.
       -2    1    3    3    0  502 -0.25259176907E+02  0.54407037652E+01 -0.19888702533E+02  0.32606560136E+02  0.00000000000E+00 0.  1.
</event>
<event>
 8   1  0.2279600E-02  0.8930189E+02  0.7546771E-02  0.1306183E+00
       -3   -1    0    0    0  501 -0.00000000000E+00  0.00000000000E+00  0.14007159441E+03  0.14007159441E+03  0.00000000000E+00 0.  1.
        3   -1    0    0  501    0  0.00000000000E+00 -0.00000000000E+00 -0.64922305400E+02  0.64922305400E+02  0.00000000000E+00 0. -1.
       24    2    1    2    0    0 -0.87850574679E+01 -0.32157396158E+02  0.76609567310E+02  0.11568006740E+03  0.80009854563E+02 0.  0.
      -24    2    1    2    0    0  0.87850574679E+01  0.32157396158E+02 -0.14602783012E+01  0.89313832412E+02  0.82846562300E+02 0.  0.
      -13    1    3    3    0    0 -0.13012714475E+02  0.21341161114E+02  0.38806304469E+01  0.25294963696E+02  0.00000000000E+00 0.  1.
       14    1    3    3    0    0  0.42276570074E+01 -0.53498557272E+02  0.72728936863E+02  0.90385103702E+02  0.00000000000E+00 0. -1.
        3    1    4    4  502    0  0.20546011505E+02 -0.93308479225E+01 -0.30046372319E+02  0.37576426138E+02  0.00000000000E+00 0. -1.
       -4    1    4    4    0  502 -0.11760954037E+02  0.41488244081E+02  0.28586094018E+02  0.51737406274E+02  0.00000000000E+00 0.  1.
</event>
<event>
 8   1  0.2279600E-02  0.8558467E+02  0.7546771E-02  0.1314208E+00
        2   -1    0    0  501    0  0.00000000000E+00  0.00000000000E+00  0.16745642039E+04  0.16745642039E+04  0.00000000000E+00 0. -1.
       -2   -1    0    0    0  501 -0.00000000000E+00 -0.00000000000E+00 -0.45928189211E+01  0.45928189211E+01  0.00000000000E+00 0.  1.
      -24    2    1    2    0    0 -0.20484801281E+02  0.13888022497E+02  0.64435313905E+03  0.65001208014E+03  0.81928214132E+02 0.  0.
       24    2    1    2    0    0  0.20484801281E+02 -0.13888022497E+02  0.10256182460E+04  0.10291449427E+04  0.81449508369E+02 0.  0.
      -13    1    4    4    0    0  0.54378851010E+01  0.71787365043E+01  0.11088523564E+02  0.14284964368E+02  0.00000000000E+00 0.  1.
       14    1    4    4    0    0  0.15046916180E+02 -0.21066759002E+02  0.10145297224E+04  0.10148599784E+04  0.00000000000E+00 0. -1.
        3    1    3    3  502    0  0.22187700355E+02 -0.20900889223E+02  0.23997026778E+03  0.24189847176E+03  0.00000000000E+00 0. -1.
       -4    1    3    3    0  502 -0.42672501636E+02  0.34788911720E+02  0.40438287127E+03  0.40811360839E+03  0.00000000000E+00 0.  1.
</event>
<event>
 8   1  0.2279600E-02  0.8955321E+02  0.7546771E-02  0.1304950E+00
        1   -1    0    0  501    0  0.00000000000E+00  0.00000000000E+00  0.12014050054E+04  0.12014050054E+04  0.00000000000E+00 0. -1.
       -1   -1    0    0    0  501 -0.00000000000E+00 -0.00000000000E+00 -0.25170062394E+02  0.25170062394E+02  0.00000000000E+00 0.  1.
       24    2    1    2    0    0 -0.29715268709E+02  0.24498386979E+02  0.62101121447E+02  0.10897855977E+03  0.80849298365E+02 0.  0.
      -24    2    1    2    0    0  0.29715268709E+02 -0.24498386979E+02  0.11141338215E+04  0.11175965080E+04  0.79022871621E+02 0.  0.
      -13    1    3    3    0    0 -0.40977378920E+02  0.25212717940E+02  0.23487794788E+01  0.48169943888E+02  0.00000000000E+00 0.  1.
       14    1    3    3    0    0  0.11262110211E+02 -0.71433096163E+00  0.59752341969E+02  0.60808615885E+02  0.00000000000E+00 0. -1.
        3    1    4    4  502    0 -0.14309383540E+02 -0.38405940271E+02  0.59738239395E+03  0.59878668932E+03  0.00000000000E+00 0. -1.
       -4    1    4    4    0  502  0.44024652249E+02  0.13907553292E+02  0.51675142756E+03  0.51880981866E+03  0.00000000000E+00 0.  1.
</event>
<event>
 8   1  0.2279600E-02  0.8586886E+02  0.7546771E-02  0.1313568E+00
       -1   -1    0    0    0  501 -0.00000000000E+00  0.00000000000E+00  0.23872597783E+03  0.23872597783E+03  0.00000000000E+00 0.  1.
        1   -1    0    0  501    0  0.00000000000E+00 -0.00000000000E+00 -0.21654270788E+03  0.21654270788E+03  0.00000000000E+00 0. -1.
       24    2    1    2    0    0 -0.20832819068E+02 -0.21107695849E+02  0.22199619625E+03  0.23802473104E+03  0.80584863733E+02 0.  0.
      -24    2    1    2    0    0  0.20832819068E+02  0.21107695849E+02 -0.19981292630E+03  0.21724395467E+03  0.79938658669E+02 0.  0.
      -13    1    3    3    0    0  0.10563427450E+02 -0.24867771449E+02  0.19375166505E+03  0.19562642911E+03  0.00000000000E+00 0.  1.
       14    1    3    3    0    0 -0.31396246518E+02  0.37600756002E+01  0.28244531200E+02  0.42398301931E+02  0.00000000000E+00 0. -1.
        1    1    4    4  502    0  0.16253997027E+02  0.45861822977E+02 -0.17596216518E+03  0.18256555755E+03  0.00000000000E+00 0. -1.
       -2    1    4    4    0  502  0.45788220410E+01 -0.24754127128E+02 -0.23850761111E+02  0.34678397119E+02  0.00000000000E+00 0.  1.
</event>
<event>
 8   1  0.2279600E-02  0.1479573E+03  0.7546771E-02  0.1203192E+00
       -2   -1    0    0    0  501 -0.00000000000E+00  0.00000000000E+00  0.91804290175E+02  0.91804290175E+02  0.00000000000E+00 0.  1.
        2   -1    0    0  501    0  0.00000000000E+00 -0.00000000000E+00 -0.37660977078E+03  0.37660977078E+03  0.00000000000E+00 0. -1.
      -24    2    1    2    0    0 -0.97444133984E+02  0.77205569437E+02 -0.24208268092E+00  0.14795750047E+03  0.80220347429E+02 0.  0.
       24    2    1    2    0    0  0.97444133984E+02 -0.77205569437E+02 -0.28456339792E+03  0.32045656048E+03  0.79120291449E+02 0.  0.
      -13    1    4    4    0    0  0.21216393775E+00  0.89035613274E+01 -0.15176856514E+01  0.90344777151E+01  0.00000000000E+00 0.  1.
       14    1    4    4    0    0  0.97231970046E+02 -0.86109130764E+02 -0.28304571227E+03  0.31142208276E+03  0.00000000000E+00 0. -1.
        3    1    3    3  502    0 -0.26347975096E+02 -0.15003849785E+02  0.75989929755E+01  0.31258214829E+02  0.00000000000E+00 0. -1.
       -4    1    3    3    0  502 -0.71096158888E+02  0.92209419222E+02 -0.78410756564E+01  0.11669928564E+03  0.00000000000E+00 0.  1.
</event>
<event>
 8   1  0.2279600E-02  0.8121179E+02  0.7546771E-02  0.1326382E+00
       -1   -1    0    0    0  501 -0.00000000000E+00  0.00000000000E+00  0.86788982099E+01  0.86788982099E+01  0.00000000000E+00 0.  1.
        1   -1    0    0  501    0  0.00000000000E+00 -0.00000000000E+00 -0.16911570471E+04  0.16911570471E+04  0.00000000000E+00 0. -1.
       24    2    1    2    0    0 -0.15022080193E+01  0.73677091205E+01 -0.20968079045E+03  0.22485859742E+03  0.80862940738E+02 0.  0.
      -24    2    1    2    0    0  0.15022080193E+01 -0.73677091205E+01 -0.14727973584E+04  0.14749773479E+04  0.79809635908E+02 0.  0.
      -13    1    3    3    0    0 -0.88084097173E+01  0.40728766832E+02 -0.15400474672E+03  0.15954272952E+03  0.00000000000E+00 0.  1.
       14    1    3    3    0    0  0.73062016980E+01 -0.33361057711E+02 -0.55676043726E+02  0.65315867903E+02  0.00000000000E+00 0. -1.
        3    1    4    4  502    0 -0.93123552563E+01 -0.10235539819E+02 -0.14442427798E+04  0.14443090712E+04  0.00000000000E+00 0. -1.
       -4    1    4    4    0  502  0.10814563276E+02  0.28678306985E+01 -0.28554578651E+02  0.30668276667E+02  0.00000000000E+00 0.  1.
</event>
<event>
 8   1  0.2279600E-02  0.9008547E+02  0.7546771E-02  0.1303035E+00
       -2   -1    0    0    0  501 -0.00000000000E+00  0.00000000000E+00  0.26841633265E+03  0.26841633265E+03  0.00000000000E+00 0.  1.
        2   -1    0    0  501    0  0.00000000000E+00 -0.00000000000E+00 -0.49753352027E+02  0.49753352027E+02  0.00000000000E+00 0. -1.
      -24    2    1    2    0    0  0.21383079556E+02  0.36302759768E+02  0.20975832394E+03  0.22828479315E+03  0.79625786425E+02 0.  0.
       24    2    1    2    0    0 -0.21383079556E+02 -0.36302759768E+02  0.89046566803E+01  0.89884891523E+02  0.78897872946E+02 0.  0.
      -13    1    4    4    0    0  0.25008934406E+02  0.36658280877E+00  0.16938343121E+02  0.30207427080E+02  0.00000000000E+00 0.  1.
       14    1    4    4    0    0 -0.46392013962E+02 -0.36669342576E+02 -0.80336864409E+01  0.59677464443E+02  0.00000000000E+00 0. -1.
        3    1    3    3  502    0 -0.46296240064E+01 -0.75742419978E+01 -0.30979137856E+01  0.94021077480E+01  0.00000000000E+00 0. -1.
       -4    1    3    3    0  502  0.26012703563E+02  0.43877001766E+02  0.21285623772E+03  0.21888268540E+03  0.00000000000E+00 0.  1.
</event>
<event>
 8   1  0.2279600E-02  0.8488123E+02  0.7546771E-02  0.1316147E+00
        2   -1    0    0  501    0  0.00000000000E+00  0.00000000000E+00  0.42765027515E+03  0.42765027515E+03  0.00000000000E+00 0. -1.
       -2   -1    0    0    0  501 -0.00000000000E+00 -0.00000000000E+00 -0.30613108021E+02  0.30613108021E+02  0.00000000000E+00 0.  1.
      -24    2    1    2    0    0  0.25298958567E+02 -0.21857527603E+02  0.43799850172E+02  0.94970904304E+02  0.77351515640E+02 0.  0.
       24    2    1    2    0    0 -0.25298958567E+02  0.21857527603E+02  0.35323731696E+03  0.36329247887E+03  0.78019448165E+02 0.  0.
      -13    1    4    4    0    0  0.63169255893E+01  0.10815453287E+02  0.50603345703E+01  0.13508684787E+02  0.00000000000E+00 0.  1.
       14    1    4    4    0    0 -0.31615884156E+02  0.11042074316E+02  0.34817698239E+03  0.34978379408E+03  0.00000000000E+00 0. -1.
        3    1    3    3  502    0  0.18234319906E+02 -0.37014849743E+02  0.59250805887E+02  0.72202822120E+02  0.00000000000E+00 0. -1.
       -4    1    3    3    0  502  0.70646386615E+01  0.15157322139E+02 -0.15450955715E+02  0.22768082184E+02  0.00000000000E+00 0.  1.
</event>
<event>
 8   1  0.2279600E-02  0.8168546E+02  0.7546771E-02  0.1325007E+00
        2   -1    0    0  501    0  0.00000000000E+00  0.00000000000E+00  0.94525181371E+02  0.94525181371E+02  0.00000000000E+00 0. -1.
       -2   -1    0    0    0  501 -0.00000000000E+00 -0.00000000000E+00 -0.73879877583E+02  0.73879877583E+02  0.00000000000E+00 0.  1.
      -24    2    1    2    0    0  0.75279183397E+01  0.10154687710E+02  0.30157854187E+02  0.86167583987E+02  0.79721823386E+02 0.  0.
       24    2    1    2    0    0 -0.75279183397E+01 -0.10154687710E+02 -0.95125503999E+01  0.82237474967E+02  0.80701464899E+02 0.  0.
      -13    1    4    4    0    0 -0.20102142262E+02  0.82252950720E+00 -0.41520851771E+02  0.46138420108E+02  0.00000000000E+00 0.  1.
       14    1    4    4    0    0  0.12574223922E+02 -0.10977217217E+02  0.32008301371E+02  0.36099054859E+02  0.00000000000E+00 0. -1.
        1    1    3    3  502    0 -0.31454496594E+02 -0.11953499806E+02  0.23062970494E+02  0.40794265793E+02  0.00000000000E+00 0. -1.
       -2    1    3    3    0  502  0.38982414934E+02  0.22108187516E+02  0.70948836934E+01  0.45373318194E+02  0.00000000000E+00 0.  1.
</event>
<event>
 8   1  0.2279600E-02  0.1012856E+03  0.7546771E-02  0.1278234E+00
       -2   -1    0    0    0  501 -0.00000000000E+00  0.00000000000E+00  0.61472474273E+01  0.61472474273E+01  0.00000000000E+00 0.  1.
        2   -1    0    0  501    0  0.00000000000E+00 -0.00000000000E+00 -0.16493116662E+04  0.16493116662E+04  0.00000000000E+00 0. -1.
      -24    2    1    2    0    0 -0.60584151068E+02  0.29225181715E+01 -0.82860798234E+03  0.83477539107E+03  0.81115871861E+02 0.  0.
       24    2    1    2    0    0  0.60584151068E+02 -0.29225181715E+01 -0.81455643642E+03  0.82068352255E+03  0.79625847485E+02 0.  0.
      -13    1    4    4    0    0 -0.16984832317E+02  0.73435444735E+01 -0.87904706222E+02  0.89831228146E+02  0.00000000000E+00 0.  1.
       14    1    4    4    0    0  0.77568983386E+02 -0.10266062645E+02 -0.72665173020E+03  0.73085229440E+03  0.00000000000E+00 0. -1.
        3    1    3    3  502    0 -0.32010460176E+02  0.27154678033E+02 -0.68744060740E+03  0.68872101377E+03  0.00000000000E+00 0. -1.
       -4    1    3    3    0  502 -0.28573690892E+02 -0.24232159862E+02 -0.14116737494E+03  0.14605437731E+03  0.00000000000E+00 0.  1.
</event>
<event>
 8   1  0.2279600E-02  0.8476225E+02  0.7546771E-02  0.1316479E+00
        3   -1    0    0  501    0  0.00000000000E+00  0.00000000000E+00  0.96687338132E+02  0.96687338132E+02  0.00000000000E+00 0. -1.
       -3   -1    0    0    0  501 -0.00000000000E+00 -0.00000000000E+00 -0.76099599870E+02  0.76099599870E+02  0.00000000000E+00 0.  1.
       24    2    1    2    0    0  0.24564444969E+02  0.68372693446E+01 -0.48622474448E+01  0.84901589002E+02  0.80836119130E+02 0.  0.
      -24    2    1    2    0    0 -0.24564444969E+02 -0.68372693446E+01  0.25449985707E+02  0.87885349000E+02  0.80162164315E+02 0.  0.
      -13    1    3    3    0    0  0.19099859594E+02 -0.31030130191E+02 -0.22444634831E+02  0.42795271339E+02  0.00000000000E+00 0.  1.
       14    1    3    3    0    0  0.54645853751E+01  0.37867399536E+02  0.17582387387E+02  0.42106317663E+02  0.00000000000E+00 0. -1.
        1    1    4    4  502    0  0.55212614077E+01  0.22997557026E+02  0.37050166832E+02  0.43955509541E+02  0.00000000000E+00 0. -1.
       -2    1    4    4    0  502 -0.30085706377E+02 -0.29834826371E+02 -0.11600181126E+02  0.43929839459E+02  0.00000000000E+00 0.  1.
</event>
<event>
 8   1  0.2279600E-02  0.8874884E+02  0.7546771E-02  0.1307830E+00
       -2   -1    0    0    0  501 -0.00000000000E+00  0.00000000000E+00  0.15955369165E+02  0.15955369165E+02  0.00000000000E+00 0.  1.
        2   -1    0    0  501    0  0.00000000000E+00 -0.00000000000E+00 -0.81526474951E+03  0.81526474951E+03  0.00000000000E+00 0. -1.
      -24    2    1    2    0    0 -0.19790997629E+02  0.10139211969E+02 -0.13598438472E+03  0.16238260026E+03  0.85917802435E+02 0.  0.
       24    2    1    2    0    0  0.19790997629E+02 -0.10139211969E+02 -0.66332499563E+03  0.66883751841E+03  0.82759223060E+02 0.  0.
      -13    1    4    4    0    0 -0.12038804072E+02  0.16235928090E+02 -0.47434339424E+02  0.51561174550E+02  0.00000000000E+00 0.  1.
       14    1    4    4    0    0  0.31829801701E+02 -0.26375140059E+02 -0.61589065620E+03  0.61727634386E+03  0.00000000000E+00 0. -1.
        3    1    3    3  502    0 -0.58114466888E+01  0.22478311370E+01 -0.14421016562E+03  0.14434471770E+03  0.00000000000E+00 0. -1.
       -4    1    3    3    0  502 -0.13979550941E+02  0.78913808321E+01  0.82257809089E+01  0.18037882567E+02  0.00000000000E+00 0.  1.
</event>
<event>
 8   1  0.2279600E-02  0.8274310E+02  0.7546771E-02  0.1321614E+00
       -2   -1    0    0    0  501 -0.00000000000E+00  0.00000000000E+00  0.30935507004E+03  0.30935507004E+03  0.00000000000E+00 0.  1.
        2   -1    0    0  501    0  0.00000000000E+00 -0.00000000000E+00 -0.83096313517E+02  0.83096313517E+02  0.00000000000E+00 0. -1.
      -24    2    1    2    0    0 -0.13843078176E+02 -0.99358059287E+01  0.28134405810E+03  0.29325910021E+03  0.80969560820E+02 0.  0.
       24    2    1    2    0    0  0.13843078176E+02  0.99358059287E+01 -0.55085301570E+02  0.99192283347E+02  0.80711632208E+02 0.  0.
      -13    1    4    4    0    0  0.19587550565E+02 -0.23551213967E+02  0.41426232011E+01  0.30911052125E+02  0.00000000000E+00 0.  1.
       14    1    4    4    0    0 -0.57444723886E+01  0.33487019896E+02 -0.59227924771E+02  0.68281231222E+02  0.00000000000E+00 0. -1.
        3    1    3    3  502    0 -0.25076878608E+02  0.19548218848E+02  0.46660063199E+02  0.56463653783E+02  0.00000000000E+00 0. -1.
       -4    1    3    3    0  502  0.11233800432E+02 -0.29484024776E+02  0.23468399490E+03  0.23679544643E+03  0.00000000000E+00 0.  1.
</event>
<event>
 8   1  0.2279600E-02  0.1036781E+03  0.7546771E-02  0.1273085E+00
       -2   -1    0    0    0  501 -0.00000000000E+00  0.00000000000E+00  0.38171475657E+02  0.38171475657E+02  0.00000000000E+00 0.  1.
        2   -1    0    0  501    0  0.00000000000E+00 -0.00000000000E+00 -0.82187591091E+03  0.82187591091E+03  0.00000000000E+00 0. -1.
      -24    2    1    2    0    0  0.64884303668E+02 -0.11441075264E+02 -0.42173029517E+02  0.11130312296E+03  0.79176699206E+02 0.  0.
       24    2    1    2    0    0 -0.64884303668E+02  0.11441075264E+02 -0.74153140573E+03  0.74874426360E+03  0.80051705299E+02 0.  0.
      -13    1    4    4    0    0 -0.31189872137E+02  0.45306368249E+02 -0.44555096022E+03  0.44893332832E+03  0.00000000000E+00 0.  1.
       14    1    4    4    0    0 -0.33694431531E+02 -0.33865292984E+02 -0.29598044551E+03  0.29981093528E+03  0.00000000000E+00 0. -1.
        1    1    3    3  502    0  0.54519123487E+02 -0.91277392374E+01 -0.65478575547E+02  0.85691856702E+02  0.00000000000E+00 0. -1.
       -2    1    3    3    0  502  0.10365180181E+02 -0.23133360267E+01  0.23305546030E+02  0.25611266261E+02  0.00000000000E+00 0.  1.
</event>
<event>
 8   1  0.2279600E-02  0.1006323E+03  0.7546771E-02  0.1280168E+00
       -2   -1    0    0    0  501 -0.00000000000E+00  0.00000000000E+00  0.23295642669E+02  0.23295642669E+02  0.00000000000E+00 0.  1.
        2   -1    0    0  501    0  0.00000000000E+00 -0.00000000000E+00 -0.45849244089E+03  0.45849244089E+03  0.00000000000E+00 0. -1.
       24    2    1    2    0    0 -0.52709380547E+02  0.25893714368E+02 -0.28501942346E+03  0.30226300148E+03  0.81719563588E+02 0.  0.
      -24    2    1    2    0    0  0.52709380547E+02 -0.25893714368E+02 -0.15017737476E+03  0.17952508208E+03  0.78912913795E+02 0.  0.
      -13    1    3    3    0    0 -0.55821515294E+02  0.49362489344E+02 -0.18420693889E+03  0.19870806038E+03  0.00000000000E+00 0.  1.
       14    1    3    3    0    0  0.31121347469E+01 -0.23468774976E+02 -0.10081248457E+03  0.10355494110E+03  0.00000000000E+00 0. -1.
        1    1    4    4  502    0  0.72618250136E+02 -0.29041691771E+02 -0.11959494022E+03  0.14289779509E+03  0.00000000000E+00 0. -1.
       -2    1    4    4    0  502 -0.19908869589E+02  0.31479774034E+01 -0.30582434536E+02  0.36627286989E+02  0.00000000000E+00 0.  1.
</event>
<event>
 8   1  0.2279600E-02  0.1380782E+03  0.7546771E-02  0.1216004E+00
       -2   -1    0    0    0  501 -0.00000000000E+00  0.00000000000E+00  0.25051704611E+03  0.25051704611E+03  0.00000000000E+00 0.  1.
        2   -1    0    0  501    0  0.00000000000E+00 -0.00000000000E+00 -0.76450195584E+02  0.76450195584E+02  0.00000000000E+00 0. -1.
      -24    2    1    2    0    0 -0.11183100558E+03 -0.10041238526E+02  0.74431593483E+02  0.15669461467E+03  0.80038365040E+02 0.  0.
       24    2    1    2    0    0  0.11183100558E+03  0.10041238526E+02  0.99635257048E+02  0.17027262703E+03  0.80365308373E+02 0.  0.
      -13    1    4    4    0    0  0.11209869043E+02 -0.26934592642E+02  0.11012800967E+02  0.31183573078E+02  0.00000000000E+00 0.  1.
       14    1    4    4    0    0  0.10062113653E+03  0.36975831168E+02  0.88622456081E+02  0.13908905395E+03  0.00000000000E+00 0. -1.
        3    1    3    3  502    0 -0.57183900310E+01 -0.13688603043E+02 -0.12556247570E+02  0.19435462198E+02  0.00000000000E+00 0. -1.
       -4    1    3    3    0  502 -0.10611261554E+03  0.36473645164E+01  0.86987841053E+02  0.13725915247E+03  0.00000000000E+00 0.  1.
</event>
<event>
 8   1  0.2279600E-02  0.1167696E+03  0.7546771E-02  0.1252541E+00
       -1   -1    0    0    0  501 -0.00000000000E+00  0.00000000000E+00  0.22513598798E+02  0.22513598798E+02  0.00000000000E+00 0.  1.
        1   -1    0    0  501    0  0.00000000000E+00 -0.00000000000E+00 -0.72959070128E+03  0.72959070128E+03  0.00000000000E+00 0. -1.
       24    2    1    2    0    0 -0.82597084335E+02  0.51616344720E+01 -0.16139818052E+03  0.19407147532E+03  0.69032195719E+02 0.  0.
      -24    2    1    2    0    0  0.82597084335E+02 -0.51616344720E+01 -0.54567892196E+03  0.55803282476E+03  0.82378558047E+02 0.  0.
      -13    1    3    3    0    0  0.56169979203E+01  0.12376289537E+02 -0.52241327391E+01  0.14560727015E+02  0.00000000000E+00 0.  1.
       14    1    3    3    0    0 -0.88214082255E+02 -0.72146550651E+01 -0.15617404778E+03  0.17951074830E+03  0.00000000000E+00 0. -1.
        3    1    4    4  502    0 -0.15111194577E+01 -0.28329375054E+02 -0.17051953150E+03  0.17286337841E+03  0.00000000000E+00 0. -1.
       -4    1    4    4    0  502  0.84108203793E+02  0.23167740582E+02 -0.37515939046E+03  0.38516944635E+03  0.00000000000E+00 0.  1.
</event>
<event>
 8   1  0.2279600E-02  0.1642612E+03  0.7546771E-02  0.1184124E+00
        2   -1    0    0  501    0  0.00000000000E+00  0.00000000000E+00  0.48783610100E+03  0.48783610100E+03  0.00000000000E+00 0. -1.
       -2   -1    0    0    0  501 -0.00000000000E+00 -0.00000000000E+00 -0.12641858890E+03  0.12641858890E+03  0.00000000000E+00 0.  1.
       24    2    1    2    0    0  0.85781912135E+02 -0.11411011484E+03  0.41149926056E+03  0.44307267244E+03  0.81253288340E+02 0.  0.
      -24    2    1    2    0    0 -0.85781912135E+02  0.11411011484E+03 -0.50081748451E+02  0.17118201746E+03  0.80096484424E+02 0.  0.
      -13    1    3    3    0    0  0.38541884238E+02  0.24842612819E+00  0.70962272977E+02  0.80753840418E+02  0.00000000000E+00 0.  1.
       14    1    3    3    0    0  0.47240027897E+02 -0.11435854097E+03  0.34053698758E+03  0.36231883202E+03  0.00000000000E+00 0. -1.
        1    1    4    4  502    0 -0.93877151355E+01  0.60399629219E+02  0.73256239528E+01  0.61562238195E+02  0.00000000000E+00 0. -1.
       -2    1    4    4    0  502 -0.76394196999E+02  0.53710485619E+02 -0.57407372403E+02  0.10961977927E+03  0.00000000000E+00 0.  1.
</event>
<event>
 8   1  0.2279600E-02  0.8502967E+02  0.7546771E-02  0.1316077E+00
        2   -1    0    0  501    0  0.00000000000E+00  0.00000000000E+00  0.17749927213E+03  0.17749927213E+03  0.00000000000E+00 0. -1.
       -2   -1    0    0    0  501 -0.00000000000E+00 -0.00000000000E+00 -0.55903046814E+02  0.55903046814E+02  0.00000000000E+00 0.  1.
       24    2    1    2    0    0 -0.10234576435E+02 -0.24871542325E+02  0.12234656974E+03  0.14836934091E+03  0.79507471497E+02 0.  0.
      -24    2    1    2    0    0  0.10234576435E+02  0.24871542325E+02 -0.75034442154E+00  0.85032978032E+02  0.80664144227E+02 0.  0.
      -13    1    3    3    0    0 -0.43030596658E+02 -0.24009312644E+02  0.88100971499E+02  0.10094483900E+03  0.00000000000E+00 0.  1.
       14    1    3    3    0    0  0.32796020224E+02 -0.86222968067E+00  0.34245598237E+02  0.47424501908E+02  0.00000000000E+00 0. -1.
        3    1    4    4  502    0 -0.24401944689E+02 -0.16517690393E+02  0.75746000812E+01  0.30424719669E+02  0.00000000000E+00 0. -1.
       -4    1    4    4    0  502  0.34636521123E+02  0.41389232718E+02 -0.83249445027E+01  0.54608258363E+02  0.00000000000E+00 0.  1.
</event>
<event>
 8   1  0.2279600E-02  0.8256819E+02  0.7546771E-02  0.1322759E+00
       -1   -1    0    0    0  501 -0.00000000000E+00  0.00000000000E+00  0.59842939192E+03  0.59842939192E+03  0.00000000000E+00 0.  1.
        1   -1    0    0  501    0  0.00000000000E+00 -0.00000000000E+00 -0.15148999463E+02  0.15148999463E+02  0.00000000000E+00 0. -1.
       24    2    1    2    0    0  0.15732153331E+02  0.44748927862E+01  0.44942264941E+03  0.45694444334E+03  0.80931953973E+02 0.  0.
      -24    2    1    2    0    0 -0.15732153331E+02 -0.44748927862E+01  0.13385774304E+03  0.15663394805E+03  0.79679187966E+02 0.  0.
      -13    1    3    3    0    0  0.41007597704E+02 -0.21465690286E+02  0.26100853464E+03  0.26508084443E+03  0.00000000000E+00 0.  1.
       14    1    3    3    0    0 -0.25275444373E+02  0.25940583072E+02  0.18841411477E+03  0.19186359890E+03  0.00000000000E+00 0. -1.
        3    1    4    4  502    0 -0.31966508481E+02  0.10731432422E+02  0.17159671956E+02  0.37834847005E+02  0.00000000000E+00 0. -1.
       -4    1    4    4    0  502  0.16234355150E+02 -0.15206325208E+02  0.11669807109E+03  0.11879910104E+03  0.00000000000E+00 0.  1.
</event>
<event>
 8   1  0.2279600E-02  0.9031880E+02  0.7546771E-02  0.1302898E+00
        2   -1    0    0  501    0  0.00000000000E+00  0.00000000000E+00  0.44071616148E+02  0.44071616148E+02  0.00000000000E+00 0. -1.
       -2   -1    0    0    0  501 -0.00000000000E+00 -0.00000000000E+00 -0.18256870465E+03  0.18256870465E+03  0.00000000000E+00 0.  1.
      -24    2    1    2    0    0 -0.31928700661E+02 -0.21494594806E+02 -0.73664888727E+02  0.11655042590E+03  0.81706954498E+02 0.  0.
       24    2    1    2    0    0  0.31928700661E+02  0.21494594806E+02 -0.64832199774E+02  0.11008989490E+03  0.80219145472E+02 0.  0.
      -13    1    4    4    0    0  0.80566646995E-01  0.29585054032E+02 -0.70763560247E+02  0.76699174519E+02  0.00000000000E+00 0.  1.
       14    1    4    4    0    0  0.31848134014E+02 -0.80904592253E+01  0.59313604733E+01  0.33390720383E+02  0.00000000000E+00 0. -1.
        3    1    3    3  502    0  0.42885097555E+01  0.14289936573E+02 -0.62724433150E+02  0.64474398928E+02  0.00000000000E+00 0. -1.
       -4    1    3    3    0  502 -0.36217210416E+02 -0.35784531380E+02 -0.10940455578E+02  0.52076026967E+02  0.00000000000E+00 0.  1.
</event>
<event>
 8   1  0.2279600E-02  0.7961956E+02  0.7546771E-02  0.1330679E+00
        2   -1    0    0  501    0  0.00000000000E+00  0.00000000000E+00  0.13685042654E+04  0.13685042654E+04  0.00000000000E+00 0. -1.
       -2   -1    0    0    0  501 -0.00000000000E+00 -0.00000000000E+00 -0.11774012609E+02  0.11774012609E+02  0.00000000000E+00 0.  1.
       24    2    1    2    0    0 -0.65516166358E+00  0.10044898925E+01  0.12187798374E+04  0.12213777327E+04  0.79610524684E+02 0.  0.
      -24    2    1    2    0    0  0.65516166358E+00 -0.10044898925E+01  0.13795041545E+03  0.15890054537E+03  0.78851936942E+02 0.  0.
      -13    1    3    3    0    0 -0.30244219449E+02 -0.51759605248E+01  0.21878973963E+03  0.22093087957E+03  0.00000000000E+00 0.  1.
       14    1    3    3    0    0  0.29589057785E+02  0.61804504173E+01  0.99999009772E+03  0.10004468531E+04  0.00000000000E+00 0. -1.
        1    1    4    4  502    0  0.37136772657E+02 -0.29320284300E+01  0.97607482055E+02  0.10447467266E+03  0.00000000000E+00 0. -1.
       -2    1    4    4    0  502 -0.36481610994E+02  0.19275385376E+01  0.40342933399E+02  0.54425872715E+02  0.00000000000E+00 0.  1.
</event>
<event>
 8   1  0.2279600E-02  0.9596627E+02  0.7546771E-02  0.1291893E+00
       -2   -1    0    0    0  501 -0.00000000000E+00  0.00000000000E+00  0.55178549054E+02  0.55178549054E+02  0.00000000000E+00 0.  1.
        2   -1    0    0  501    0  0.00000000000E+00 -0.00000000000E+00 -0.44498442261E+03  0.44498442261E+03  0.00000000000E+00 0. -1.
      -24    2    1    2    0    0 -0.41202323842E+02  0.26693738066E+02  0.76792160152E+01  0.91257211659E+02  0.76542283604E+02 0.  0.
       24    2    1    2    0    0  0.41202323842E+02 -0.26693738066E+02 -0.39748508957E+03  0.40890576001E+03  0.82458092333E+02 0.  0.
      -13    1    4    4    0    0  0.25467189261E+02  0.25744738154E+02 -0.98420145618E+02  0.10487084597E+03  0.00000000000E+00 0.  1.
       14    1    4    4    0    0  0.15735134581E+02 -0.52438476221E+02 -0.29906494396E+03  0.30403491403E+03  0.00000000000E+00 0. -1.
        3    1    3    3  502    0 -0.19006459492E+02 -0.23185653189E+02 -0.13263484447E+02  0.32783227967E+02  0.00000000000E+00 0. -1.
       -4    1    3    3    0  502 -0.22195864350E+02  0.49879391255E+02  0.20942700462E+02  0.58473983693E+02  0.00000000000E+00 0.  1.
</event>
<event>
 8   1  0.2279600E-02  0.9634734E+02  0.7546771E-02  0.1288334E+00
        1   -1    0    0  501    0  0.00000000000E+00  0.00000000000E+00  0.60050653802E+03  0.60050653802E+03  0.00000000000E+00 0. -1.
       -1   -1    0    0    0  501 -0.00000000000E+00 -0.00000000000E+00 -0.12338406156E+03  0.12338406156E+03  0.00000000000E+00 0.  1.
       24    2    1    2    0    0  0.80402892647E+01 -0.44946648662E+02 -0.10007263651E+03  0.13870942433E+03  0.84503990096E+02 0.  0.
      -24    2    1    2    0    0 -0.80402892647E+01  0.44946648662E+02  0.57719511298E+03  0.58518117526E+03  0.84840803587E+02 0.  0.
      -13    1    3    3    0    0 -0.21869490997E+02 -0.47636713976E+02 -0.94647530270E+02  0.10819281927E+03  0.00000000000E+00 0.  1.
       14    1    3    3    0    0  0.29909780262E+02  0.26900653139E+01 -0.54251062396E+01  0.30516605061E+02  0.00000000000E+00 0. -1.
        3    1    4    4  502    0 -0.35549441076E+02  0.31598415315E+02  0.49835286143E+03  0.50061741591E+03  0.00000000000E+00 0. -1.
       -4    1    4    4    0  502  0.27509151811E+02  0.13348233347E+02  0.78842251544E+02  0.84563759350E+02  0.00000000000E+00 0.  1.
</event>
<event>
 8   1  0.2279600E-02  0.8157394E+02  0.7546771E-02  0.1325849E+00
       -1   -1    0    0    0  501 -0.00000000000E+00  0.00000000000E+00  0.43369102761E+03  0.43369102761E+03  0.00000000000E+00 0.  1.
        1   -1    0    0  501    0  0.00000000000E+00 -0.00000000000E+00 -0.20091109939E+02  0.20091109939E+02  0.00000000000E+00 0. -1.
       24    2    1    2    0    0  0.12667161683E+02 -0.39249866289E+01  0.31912458325E+03  0.32896268433E+03  0.78740621948E+02 0.  0.
      -24    2    1    2    0    0 -0.12667161683E+02  0.39249866289E+01  0.94475334424E+02  0.12481945322E+03  0.80488785442E+02 0.  0.
      -13    1    3    3    0    0  0.30709238238E+02  0.13425818345E+02  0.28320665084E+03  0.28518295354E+03  0.00000000000E+00 0.  1.
       14    1    3    3    0    0 -0.18042076554E+02 -0.17350804973E+02  0.35917932413E+02  0.43779730794E+02  0.00000000000E+00 0. -1.
        1    1    4    4  502    0  0.25663342164E+02  0.24649341654E+02  0.57751122482E+02  0.67833541282E+02  0.00000000000E+00 0. -1.
       -2    1    4    4    0  502 -0.38330503847E+02 -0.20724355025E+02  0.36724211942E+02  0.56985911936E+02  0.00000000000E+00 0.  1.
</event>
<event>
 8   1  0.2279600E-02  0.8860308E+02  0.7546771E-02  0.1306995E+00
       -1   -1    0    0    0  501 -0.00000000000E+00  0.00000000000E+00  0.54540778379E+02  0.54540778379E+02  0.00000000000E+00 0.  1.
        1   -1    0    0  501    0  0.00000000000E+00 -0.00000000000E+00 -0.16230152747E+03  0.16230152747E+03  0.00000000000E+00 0. -1.
       24    2    1    2    0    0 -0.31065608380E+02  0.16166741491E+02 -0.15273557043E+02  0.88762694811E+02  0.80119279146E+02 0.  0.
      -24    2    1    2    0    0  0.31065608380E+02 -0.16166741491E+02 -0.92487192044E+02  0.12807961104E+03  0.81388393007E+02 0.  0.
      -13    1    3    3    0    0 -0.32338470737E+02  0.29109972788E+02  0.22378192624E+02  0.48928015598E+02  0.00000000000E+00 0.  1.
       14    1    3    3    0    0  0.12728623574E+01 -0.12943231297E+02 -0.37651749667E+02  0.39834679212E+02  0.00000000000E+00 0. -1.
        3    1    4    4  502    0  0.12610199788E+02 -0.49184961370E+02 -0.52653608260E+02  0.73147659064E+02  0.00000000000E+00 0. -1.
       -4    1    4    4    0  502  0.18455408591E+02  0.33018219880E+02 -0.39833583784E+02  0.54931951971E+02  0.00000000000E+00 0.  1.
</event>
<event>
 8   1  0.2279600E-02  0.1339996E+03  0.7546771E-02  0.1221915E+00
       -1   -1    0    0    0  501 -0.00000000000E+00  0.00000000000E+00  0.46699834998E+03  0.46699834998E+03  0.00000000000E+00 0.  1.
        1   -1    0    0  501    0  0.00000000000E+00 -0.00000000000E+00 -0.62991123732E+02  0.62991123732E+02  0.00000000000E+00 0. -1.
       24    2    1    2    0    0  0.61187591830E+02 -0.87316912689E+02  0.36850501312E+03  0.39211201846E+03  0.81164805736E+02 0.  0.
      -24    2    1    2    0    0 -0.61187591830E+02  0.87316912689E+02  0.35502213124E+02  0.13787745525E+03  0.79885047997E+02 0.  0.
      -13    1    3    3    0    0  0.59544812703E+02 -0.58957399444E+02  0.34562171609E+03  0.35563454599E+03  0.00000000000E+00 0.  1.
       14    1    3    3    0    0  0.16427791273E+01 -0.28359513244E+02  0.22883297030E+02  0.36477472468E+02  0.00000000000E+00 0. -1.
        1    1    4    4  502    0 -0.54710762602E+02  0.33769553360E+02 -0.12704769816E+02  0.65536718370E+02  0.00000000000E+00 0. -1.
       -2    1    4    4    0  502 -0.64768292286E+01  0.53547359329E+02  0.48206982940E+02  0.72340736878E+02  0.00000000000E+00 0.  1.
</event>
<event>
 8   1  0.2279600E-02  0.8397984E+02  0.7546771E-02  0.1323688E+00
       -2   -1    0    0    0  501 -0.00000000000E+00  0.00000000000E+00  0.13720820894E+03  0.13720820894E+03  0.00000000000E+00 0.  1.
        2   -1    0    0  501    0  0.00000000000E+00 -0.00000000000E+00 -0.27587471273E+03  0.27587471273E+03  0.00000000000E+00 0. -1.
      -24    2    1    2    0    0  0.18738748215E+02 -0.18354136547E+02  0.11831362493E+03  0.14508868732E+03  0.79778432744E+02 0.  0.
       24    2    1    2    0    0 -0.18738748215E+02  0.18354136547E+02 -0.25698012871E+03  0.26799423435E+03  0.71373020638E+02 0.  0.
      -13    1    4    4    0    0  0.16940122161E+02 -0.56789935906E+01 -0.18704657588E+02  0.25866637248E+02  0.00000000000E+00 0.  1.
       14    1    4    4    0    0 -0.35678870376E+02  0.24033130137E+02 -0.23827547113E+03  0.24212759710E+03  0.00000000000E+00 0. -1.
        1    1    3    3  502    0 -0.91843320496E+01  0.22503450668E+02  0.10532763392E+02  0.26489551749E+02  0.00000000000E+00 0. -1.
       -2    1    3    3    0  502  0.27923080264E+02 -0.40857587215E+02  0.10778086154E+03  0.11859913557E+03  0.00000000000E+00 0.  1.
</event>
<event>
 8   1  0.2279600E-02  0.9400482E+02  0.7546771E-02  0.1301324E+00
        1   -1    0    0  501    0  0.00000000000E+00  0.00000000000E+00  0.34122864808E+04  0.34122864808E+04  0.00000000000E+00 0. -1.
       -1   -1    0    0    0  501 -0.00000000000E+00 -0.00000000000E+00 -0.75579369644E+01  0.75579369644E+01  0.00000000000E+00 0.  1.
       24    2    1    2    0    0 -0.15125390783E+02  0.93180304709E+01  0.23354874717E+03  0.24727161176E+03  0.79263040196E+02 0.  0.
      -24    2    1    2    0    0  0.15125390783E+02 -0.93180304709E+01  0.31711797967E+04  0.31725728060E+04  0.92310906500E+02 0.  0.
      -13    1    3    3    0    0 -0.36066483289E+02 -0.17343380801E+02  0.73673438048E+02  0.83841275922E+02  0.00000000000E+00 0.  1.
       14    1    3    3    0    0  0.20941092505E+02  0.26661411272E+02  0.15987530912E+03  0.16343033584E+03  0.00000000000E+00 0. -1.
        1    1    4    4  502    0  0.23379116270E+02  0.19534143336E+02  0.28049811593E+04  0.28051466040E+04  0.00000000000E+00 0. -1.
       -2    1    4    4    0  502 -0.82537254866E+01 -0.28852173807E+02  0.36619863737E+03  0.36742620201E+03  0.00000000000E+00 0.  1.
</event>
<event>
 8   1  0.2279600E-02  0.8645132E+02  0.7546771E-02  0.1311778E+00
        2   -1    0    0  501    0  0.00000000000E+00  0.00000000000E+00  0.21820386656E+04  0.21820386656E+04  0.00000000000E+00 0. -1.
       -2   -1    0    0    0  501 -0.00000000000E+00 -0.00000000000E+00 -0.38679216191E+01  0.38679216191E+01  0.00000000000E+00 0.  1.
       24    2    1    2    0    0  0.25165420220E+02 -0.21786004556E+02  0.71591746472E+03  0.72109995043E+03  0.79620310511E+02 0.  0.
      -24    2    1    2    0    0 -0.25165420220E+02  0.21786004556E+02  0.14622532792E+04  0.14648066368E+04  0.79786603577E+02 0.  0.
      -13    1    3    3    0    0 -0.24382628592E+01 -0.24799297830E+02  0.65344086833E+02  0.69934254716E+02  0.00000000000E+00 0.  1.
       14    1    3    3    0    0  0.27603683080E+02  0.30132932743E+01  0.65057337789E+03  0.65116569571E+03  0.00000000000E+00 0. -1.
        1    1    4    4  502    0  0.19903662601E+02  0.30522513730E+01  0.95463152332E+03  0.95484387066E+03  0.00000000000E+00 0. -1.
       -2    1    4    4    0  502 -0.45069082821E+02  0.18733753183E+02  0.50762175590E+03  0.50996276609E+03  0.00000000000E+00 0.  1.
</event>
<event>
 8   1  0.2279600E-02  0.8950997E+02  0.7546771E-02  0.1306045E+00
        1   -1    0    0  501    0  0.00000000000E+00  0.00000000000E+00  0.97452339380E+03  0.97452339380E+03  0.00000000000E+00 0. -1.
       -1   -1    0    0    0  501 -0.00000000000E+00 -0.00000000000E+00 -0.79342010236E+01  0.79342010236E+01  0.00000000000E+00 0.  1.
       24    2    1    2    0    0  0.37922879049E+02  0.92012055250E+01  0.46136388776E+03  0.46936438431E+03  0.76964156554E+02 0.  0.
      -24    2    1    2    0    0 -0.37922879049E+02 -0.92012055250E+01  0.50522530501E+03  0.51309321051E+03  0.80555737875E+02 0.  0.
      -13    1    3    3    0    0  0.35636251350E+01 -0.45996806354E+01 -0.66289487522E+00  0.58562714816E+01  0.00000000000E+00 0.  1.
       14    1    3    3    0    0  0.34359253914E+02  0.13800886160E+02  0.46202678263E+03  0.46350811283E+03  0.00000000000E+00 0. -1.
        1    1    4    4  502    0 -0.35233197014E+02  0.32372477844E+02  0.27184818957E+03  0.27602679882E+03  0.00000000000E+00 0. -1.
       -2    1    4    4    0  502 -0.26896820353E+01 -0.41573683369E+02  0.23337711544E+03  0.23706641169E+03  0.00000000000E+00 0.  1.
</event>
<event>
 8   1  0.2279600E-02  0.1135024E+03  0.7546771E-02  0.1256075E+00
        2   -1    0    0  501    0  0.00000000000E+00  0.00000000000E+00  0.11584054042E+03  0.11584054042E+03  0.00000000000E+00 0. -1.
       -2   -1    0    0    0  501 -0.00000000000E+00 -0.00000000000E+00 -0.13979701491E+03  0.13979701491E+03  0.00000000000E+00 0.  1.
      -24    2    1    2    0    0 -0.74916954657E+02  0.84323492253E+01 -0.73830331373E+02  0.13540202829E+03  0.84847727282E+02 0.  0.
       24    2    1    2    0    0  0.74916954657E+02 -0.84323492253E+01  0.49873856884E+02  0.12023552704E+03  0.79281307716E+02 0.  0.
      -13    1    4    4    0    0 -0.12458698805E+02 -0.64233110576E+01 -0.72930816651E+01  0.15800858870E+02  0.00000000000E+00 0.  1.
       14    1    4    4    0    0  0.87375653462E+02 -0.20090381677E+01  0.57166938549E+02  0.10443466817E+03  0.00000000000E+00 0. -1.
        1    1    3    3  502    0 -0.72604017848E+01  0.38395813880E+02 -0.19990284490E+02  0.43892635277E+02  0.00000000000E+00 0. -1.
       -2    1    3    3    0  502 -0.67656552872E+02 -0.29963464655E+02 -0.53840046882E+02  0.91509393009E+02  0.00000000000E+00 0.  1.
</event>
<event>
 8   1  0.2279600E-02  0.8627838E+02  0.7546771E-02  0.1312401E+00
        2   -1    0    0  501    0  0.00000000000E+00  0.00000000000E+00  0.11330708841E+04  0.11330708841E+04  0.00000000000E+00 0. -1.
       -2   -1    0    0    0  501 -0.00000000000E+00 -0.00000000000E+00 -0.10091507019E+02  0.10091507019E+02  0.00000000000E+00 0.  1.
      -24    2    1    2    0    0  0.41789650549E+01  0.30929299329E+02  0.22133935643E+03  0.23740376627E+03  0.79970946154E+02 0.  0.
       24    2    1    2    0    0 -0.41789650549E+01 -0.30929299329E+02  0.90164002067E+03  0.90575862487E+03  0.80435529105E+02 0.  0.
      -13    1    4    4    0    0  0.94360493319E+01  0.23390494843E+02  0.15671738605E+03  0.15873403342E+03  0.00000000000E+00 0.  1.
       14    1    4    4    0    0 -0.13615014387E+02 -0.54319794172E+02  0.74492263463E+03  0.74702459145E+03  0.00000000000E+00 0. -1.
        3    1    3    3  502    0 -0.26888432374E+02  0.91635023106E+01  0.17604968445E+03  0.17832680383E+03  0.00000000000E+00 0. -1.
       -4    1    3    3    0  502  0.31067397429E+02  0.21765797018E+02  0.45289671978E+02  0.59076962436E+02  0.00000000000E+00 0.  1.
</event>
<event>
 8   1  0.2279600E-02  0.8856580E+02  0.7546771E-02  0.1307243E+00
        2   -1    0    0  501    0  0.00000000000E+00  0.00000000000E+00  0.98368138749E+02  0.98368138749E+02  0.00000000000E+00 0. -1.
       -2   -1    0    0    0  501 -0.00000000000E+00 -0.00000000000E+00 -0.25534683462E+03  0.25534683462E+03  0.00000000000E+00 0.  1.
       24    2    1    2    0    0 -0.16870413898E+02  0.30641220123E+02  0.68508543015E+02  0.11197017934E+03  0.81365873429E+02 0.  0.
      -24    2    1    2    0    0  0.16870413898E+02 -0.30641220123E+02 -0.22548723889E+03  0.24174479404E+03  0.79828286379E+02 0.  0.
      -13    1    3    3    0    0  0.11751887565E+02 -0.20904678026E+02  0.39622825746E+02  0.46315016408E+02  0.00000000000E+00 0.  1.
       14    1    3    3    0    0 -0.28622301463E+02  0.51545898149E+02  0.28885717268E+02  0.65655162928E+02  0.00000000000E+00 0. -1.
        1    1    4    4  502    0  0.35733302427E+02  0.12559027759E+02 -0.12752802200E+03  0.13303380952E+03  0.00000000000E+00 0. -1.
       -2    1    4    4    0  502 -0.18862888529E+02 -0.43200247882E+02 -0.97959216890E+02  0.10871098452E+03  0.00000000000E+00 0.  1.
</event>
<event>
 8   1  0.2279600E-02  0.9138371E+02  0.7546771E-02  0.1300714E+00
       -2   -1    0    0    0  501 -0.00000000000E+00  0.00000000000E+00  0.26424747691E+02  0.26424747691E+02  0.00000000000E+00 0.  1.
        2   -1    0    0  501    0  0.00000000000E+00 -0.00000000000E+00 -0.83271625839E+03  0.83271625839E+03  0.00000000000E+00 0. -1.
      -24    2    1    2    0    0  0.36108858800E+02  0.19459494682E+02 -0.64198353163E+02  0.11167994797E+03  0.81660642981E+02 0.  0.
       24    2    1    2    0    0 -0.36108858800E+02 -0.19459494682E+02 -0.74209315753E+03  0.74746105811E+03  0.79456008696E+02 0.  0.
      -13    1    4    4    0    0  0.15604642598E+02 -0.56254609065E+01 -0.39634558562E+02  0.42965671337E+02  0.00000000000E+00 0.  1.
       14    1    4    4    0    0 -0.51713501398E+02 -0.13834033775E+02 -0.70245859897E+03  0.70449538678E+03  0.00000000000E+00 0. -1.
        1    1    3    3  502    0 -0.21875022172E+02  0.20577543477E+02 -0.83622552135E+01  0.31174977190E+02  0.00000000000E+00 0. -1.
       -2    1    3    3    0  502  0.57983880971E+02 -0.11180487948E+01 -0.55836097950E+02  0.80504970777E+02  0.00000000000E+00 0.  1.
</event>
<event>
 8   1  0.2279600E-02  0.9742810E+02  0.7546771E-02  0.1287003E+00
       -1   -1    0    0    0  501 -0.00000000000E+00  0.00000000000E+00  0.99819036350E+01  0.99819036350E+01  0.00000000000E+00 0.  1.
        1   -1    0    0  501    0  0.00000000000E+00 -0.00000000000E+00 -0.12114425353E+04  0.12114425353E+04  0.00000000000E+00 0. -1.
       24    2    1    2    0    0  0.61020941651E+01 -0.51319218887E+02 -0.31147417352E+03  0.32635624116E+03  0.82591389360E+02 0.  0.
      -24    2    1    2    0    0 -0.61020941651E+01  0.51319218887E+02 -0.88998645813E+03  0.89506819775E+03  0.80001782470E+02 0.  0.
      -13    1    3    3    0    0 -0.29600118985E+02 -0.29469405547E+02 -0.71890607390E+02  0.83143684896E+02  0.00000000000E+00 0.  1.
       14    1    3    3    0    0  0.35702213150E+02 -0.21849813340E+02 -0.23958356613E+03  0.24321255627E+03  0.00000000000E+00 0. -1.
        3    1    4    4  502    0  0.22844256310E+02  0.34994762236E+02 -0.75108124279E+03  0.75224299711E+03  0.00000000000E+00 0. -1.
       -4    1    4    4    0  502 -0.28946350476E+02  0.16324456651E+02 -0.13890521534E+03  0.14282520065E+03  0.00000000000E+00 0.  1.
</event>
<event>
 8   1  0.2279600E-02  0.1330363E+03  0.7546771E-02  0.1223090E+00
        1   -1    0    0  501    0  0.00000000000E+00  0.00000000000E+00  0.24667052877E+03  0.24667052877E+03  0.00000000000E+00 0. -1.
       -1   -1    0    0    0  501 -0.00000000000E+00 -0.00000000000E+00 -0.12532183416E+03  0.12532183416E+03  0.00000000000E+00 0.  1.
       24    2    1    2    0    0 -0.10279419160E+03  0.23434151747E+02 -0.61027382116E+02  0.14636599206E+03  0.81134807380E+02 0.  0.
      -24    2    1    2    0    0  0.10279419160E+03 -0.23434151747E+02  0.18237607672E+03  0.22562637088E+03  0.80811017699E+02 0.  0.
      -13    1    3    3    0    0 -0.11213940378E+03  0.14016984933E+02 -0.36992296502E+02  0.11891237004E+03  0.00000000000E+00 0.  1.
       14    1    3    3    0    0  0.93452121844E+01  0.94171668141E+01 -0.24035085614E+02  0.27453622021E+02  0.00000000000E+00 0. -1.
        3    1    4    4  502    0  0.52717833611E+02  0.69724633583E+01  0.14899154379E+03  0.15819691952E+03  0.00000000000E+00 0. -1.
       -4    1    4    4    0  502  0.50076357985E+02 -0.30406615106E+02  0.33384532936E+02  0.67429451359E+02  0.00000000000E+00 0.  1.
</event>
<event>
 8   1  0.2279600E-02  0.9307530E+02  0.7546771E-02  0.1301281E+00
       -1   -1    0    0    0  501 -0.00000000000E+00  0.00000000000E+00  0.14405998362E+02  0.14405998362E+02  0.00000000000E+00 0.  1.
        1   -1    0    0  501    0  0.00000000000E+00 -0.00000000000E+00 -0.62845247462E+03  0.62845247462E+03  0.00000000000E+00 0. -1.
       24    2    1    2    0    0  0.42778026716E+02  0.17846275770E+02 -0.17440638475E+03  0.19347398020E+03  0.69757758306E+02 0.  0.
      -24    2    1    2    0    0 -0.42778026716E+02 -0.17846275770E+02 -0.43964009151E+03  0.44938449278E+03  0.80712843862E+02 0.  0.
      -13    1    3    3    0    0  0.45210549726E+02  0.38337963375E+02 -0.99900870771E+02  0.11616357959E+03  0.00000000000E+00 0.  1.
       14    1    3    3    0    0 -0.24325230099E+01 -0.20491687605E+02 -0.74505513980E+02  0.77310400610E+02  0.00000000000E+00 0. -1.
        3    1    4    4  502    0 -0.51614603784E+02 -0.21116815017E+02 -0.43556177785E+03  0.43911735280E+03  0.00000000000E+00 0. -1.
       -4    1    4    4    0  502  0.88365770677E+01  0.32705392472E+01 -0.40783136548E+01  0.10267139987E+02  0.00000000000E+00 0.  1.
</event>
<event>
 8   1  0.2279600E-02  0.1113254E+03  0.7546771E-02  0.1258581E+00
        1   -1    0    0  501    0  0.00000000000E+00  0.00000000000E+00  0.41141873652E+02  0.41141873652E+02  0.00000000000E+00 0. -1.
       -1   -1    0    0    0  501 -0.00000000000E+00 -0.00000000000E+00 -0.41182184797E+03  0.41182184797E+03  0.00000000000E+00 0.  1.
       24    2    1    2    0    0  0.69347369592E+02 -0.29251831483E+02 -0.30467933200E+03  0.32438070331E+03  0.82028153777E+02 0.  0.
      -24    2    1    2    0    0 -0.69347369592E+02  0.29251831483E+02 -0.66000642318E+02  0.12858301832E+03  0.80701799854E+02 0.  0.
      -13    1    3    3    0    0  0.70347989872E+02  0.10688611610E+02 -0.18523677130E+03  0.19843323194E+03  0.00000000000E+00 0.  1.
       14    1    3    3    0    0 -0.10006202801E+01 -0.39940443092E+02 -0.11944256071E+03  0.12594747137E+03  0.00000000000E+00 0. -1.
        1    1    4    4  502    0 -0.77106080117E+02  0.43968489485E+02 -0.39185331207E+02  0.97026109065E+02  0.00000000000E+00 0. -1.
       -2    1    4    4    0  502  0.77587105252E+01 -0.14716658002E+02 -0.26815311111E+02  0.31556909256E+02  0.00000000000E+00 0.  1.
</event>
<event>
 8   1  0.2279600E-02  0.9498220E+02  0.7546771E-02  0.1293110E+00
       -1   -1    0    0    0  501 -0.00000000000E+00  0.00000000000E+00  0.15132783021E+02  0.15132783021E+02  0.00000000000E+00 0.  1.
        1   -1    0    0  501    0  0.00000000000E+00 -0.00000000000E+00 -0.77087362712E+03  0.77087362712E+03  0.00000000000E+00 0. -1.
       24    2    1    2    0    0 -0.44949581693E+02 -0.23171823305E+02 -0.18509830327E+03  0.20804566733E+03  0.80400370228E+02 0.  0.
      -24    2    1    2    0    0  0.44949581693E+02  0.23171823305E+02 -0.57064254083E+03  0.57796074281E+03  0.76474260597E+02 0.  0.
      -13    1    3    3    0    0  0.23184618008E+01  0.26201113224E+02 -0.59452331319E+02  0.65011178259E+02  0.00000000000E+00 0.  1.
       14    1    3    3    0    0 -0.47268043493E+02 -0.49372936529E+02 -0.12564597195E+03  0.14303448907E+03  0.00000000000E+00 0. -1.
        1    1    4    4  502    0  0.39040232301E+02 -0.28008674944E+01 -0.51266725806E+03  0.51415921861E+03  0.00000000000E+00 0. -1.
       -2    1    4    4    0  502  0.59093493918E+01  0.25972690799E+02 -0.57975282766E+02  0.63801524193E+02  0.00000000000E+00 0.  1.
</event>
<event>
 8   1  0.2279600E-02  0.8805290E+02  0.7546771E-02  0.1308058E+00
       -2   -1    0    0    0  501 -0.00000000000E+00  0.00000000000E+00  0.56913237119E+02  0.56913237119E+02  0.00000000000E+00 0.  1.
        2   -1    0    0  501    0  0.00000000000E+00 -0.00000000000E+00 -0.11152393349E+04  0.11152393349E+04  0.00000000000E+00 0. -1.
      -24    2    1    2    0    0  0.23207614819E+02  0.25407584419E+02  0.19996967180E+02  0.90295030109E+02  0.81050447466E+02 0.  0.
       24    2    1    2    0    0 -0.23207614819E+02 -0.25407584419E+02 -0.10783230649E+04  0.10818575419E+04  0.80317929682E+02 0.  0.
      -13    1    4    4    0    0  0.88184926233E+01 -0.23029431707E+02 -0.99588355037E+02  0.10259610614E+03  0.00000000000E+00 0.  1.
       14    1    4    4    0    0 -0.32026107442E+02 -0.23781527112E+01 -0.97873470990E+03  0.97926143574E+03  0.00000000000E+00 0. -1.
        3    1    3    3  502    0 -0.21706492358E+02 -0.80897167651E+01 -0.11666896962E+02  0.25937074094E+02  0.00000000000E+00 0. -1.
       -4    1    3    3    0  502  0.44914107177E+02  0.33497301184E+02  0.31663864142E+02  0.64357956015E+02  0.00000000000E+00 0.  1.
</event>
<event>
 8   1  0.2279600E-02  0.8302267E+02  0.7546771E-02  0.1321397E+00
        1   -1    0    0  501    0  0.00000000000E+00  0.00000000000E+00  0.18021481744E+04  0.18021481744E+04  0.00000000000E+00 0. -1.
       -1   -1    0    0    0  501 -0.00000000000E+00 -0.00000000000E+00 -0.43323622016E+01  0.43323622016E+01  0.00000000000E+00 0.  1.
       24    2    1    2    0    0 -0.17820567716E+02 -0.14970053298E+02  0.57046268295E+03  0.57632263299E+03  0.78602986782E+02 0.  0.
      -24    2    1    2    0    0  0.17820567716E+02  0.14970053298E+02  0.12273531292E+04  0.12301579036E+04  0.79693718745E+02 0.  0.
      -13    1    3    3    0    0 -0.82803077595E+01 -0.22328413257E+02  0.55958158295E+03  0.56008809085E+03  0.00000000000E+00 0.  1.
       14    1    3    3    0    0 -0.95402599563E+01  0.73583599593E+01  0.10881099997E+02  0.16234542139E+02  0.00000000000E+00 0. -1.
        1    1    4    4  502    0  0.25119635913E+02  0.58239951975E+01  0.12015363548E+04  0.12018130166E+04  0.00000000000E+00 0. -1.
       -2    1    4    4    0  502 -0.72990681971E+01  0.91460581005E+01  0.25816774490E+02  0.28344887023E+02  0.00000000000E+00 0.  1.
</event>
<event>
 8   1  0.2279600E-02  0.8405823E+02  0.7546771E-02  0.1318434E+00
        1   -1    0    0  501    0  0.00000000000E+00  0.00000000000E+00  0.47036397725E+04  0.47036397725E+04  0.00000000000E+00 0. -1.
       -1   -1    0    0    0  501 -0.00000000000E+00 -0.00000000000E+00 -0.24262860168E+01  0.24262860168E+01  0.00000000000E+00 0.  1.
       24    2    1    2    0    0  0.24311474178E+02  0.63117429239E+01  0.88086714915E+03  0.88479507580E+03  0.79400918273E+02 0.  0.
      -24    2    1    2    0    0 -0.24311474178E+02 -0.63117429239E+01  0.38203463373E+04  0.38212709827E+04  0.80217830610E+02 0.  0.
      -13    1    3    3    0    0  0.15974253999E+02  0.13467451529E+02  0.54695560757E+02  0.58550434739E+02  0.00000000000E+00 0.  1.
       14    1    3    3    0    0  0.83372201788E+01 -0.71557086047E+01  0.82617158840E+03  0.82624464106E+03  0.00000000000E+00 0. -1.
        1    1    4    4  502    0 -0.19269734471E+02 -0.23239995574E+02  0.36254994372E+04  0.36256251308E+04  0.00000000000E+00 0. -1.
       -2    1    4    4    0  502 -0.50417397073E+01  0.16928252650E+02  0.19484690010E+03  0.19564585187E+03  0.00000000000E+00 0.  1.
</event>
<event>
 8   1  0.2279600E-02  0.9628982E+02  0.7546771E-02  0.1288373E+00
        1   -1    0    0  501    0  0.00000000000E+00  0.00000000000E+00  0.28989426450E+02  0.28989426450E+02  0.00000000000E+00 0. -1.
       -1   -1    0    0    0  501 -0.00000000000E+00 -0.00000000000E+00 -0.46204577412E+03  0.46204577412E+03  0.00000000000E+00 0.  1.
       24    2    1    2    0    0  0.22650730894E+02 -0.47558600548E+02 -0.35306426481E+03  0.36595915651E+03  0.80603058545E+02 0.  0.
      -24    2    1    2    0    0 -0.22650730894E+02  0.47558600548E+02 -0.79992082854E+02  0.12507604406E+03  0.80438842500E+02 0.  0.
      -13    1    3    3    0    0  0.44767009895E+02 -0.45480253495E+02 -0.31879785456E+03  0.32512245494E+03  0.00000000000E+00 0.  1.
       14    1    3    3    0    0 -0.22116279001E+02 -0.20783470522E+01 -0.34266410252E+02  0.40836701567E+02  0.00000000000E+00 0. -1.
        1    1    4    4  502    0 -0.50028705435E+02  0.14783246971E+02 -0.33760331819E+02  0.62138359835E+02  0.00000000000E+00 0. -1.
       -2    1    4    4    0  502  0.27377974541E+02  0.32775353576E+02 -0.46231751035E+02  0.62937684227E+02  0.00000000000E+00 0.  1.
</event>
<event>
 8   1  0.2279600E-02  0.9594920E+02  0.7546771E-02  0.1290572E+00
       -1   -1    0    0    0  501 -0.00000000000E+00  0.00000000000E+00  0.23642865514E+02  0.23642865514E+02  0.00000000000E+00 0.  1.
        1   -1    0    0  501    0  0.00000000000E+00 -0.00000000000E+00 -0.66743191820E+03  0.66743191820E+03  0.00000000000E+00 0. -1.
       24    2    1    2    0    0  0.27848962842E+02  0.43426120455E+02 -0.91976265805E+02  0.13098229150E+03  0.77687415620E+02 0.  0.
      -24    2    1    2    0    0 -0.27848962842E+02 -0.43426120455E+02 -0.55181278688E+03  0.56009249221E+03  0.80900280598E+02 0.  0.
      -13    1    3    3    0    0  0.29015292083E+02  0.61193658677E+02 -0.90612166986E+02  0.11312433798E+03  0.00000000000E+00 0.  1.
       14    1    3    3    0    0 -0.11663292414E+01 -0.17767538222E+02 -0.13640988189E+01  0.17857953521E+02  0.00000000000E+00 0. -1.
        1    1    4    4  502    0 -0.22844310863E+02 -0.63386630168E+02 -0.49695975990E+03  0.50150646096E+03  0.00000000000E+00 0. -1.
       -2    1    4    4    0  502 -0.50046519795E+01  0.19960509713E+02 -0.54853026981E+02  0.58586031257E+02  0.00000000000E+00 0.  1.
</event>
<event>
 8   1  0.2279600E-02  0.1106701E+03  0.7546771E-02  0.1259497E+00
       -2   -1    0    0    0  501 -0.00000000000E+00  0.00000000000E+00  0.60776102590E+02  0.60776102590E+02  0.00000000000E+00 0.  1.
        2   -1    0    0  501    0  0.00000000000E+00 -0.00000000000E+00 -0.21201402308E+03  0.21201402308E+03  0.00000000000E+00 0. -1.
      -24    2    1    2    0    0 -0.16978925090E+01 -0.77037798330E+02 -0.44477191638E+02  0.11927317791E+03  0.79436548151E+02 0.  0.
       24    2    1    2    0    0  0.16978925090E+01  0.77037798330E+02 -0.10676072885E+03  0.15351694776E+03  0.78942351205E+02 0.  0.
      -13    1    4    4    0    0 -0.21802853948E+01 -0.13825693360E+02 -0.34915211945E+02  0.37616159645E+02  0.00000000000E+00 0.  1.
       14    1    4    4    0    0  0.38781779039E+01  0.90863491690E+02 -0.71845516906E+02  0.11590078811E+03  0.00000000000E+00 0. -1.
        3    1    3    3  502    0 -0.34956502330E+02 -0.36824215199E+02 -0.43844473853E+02  0.67084407784E+02  0.00000000000E+00 0. -1.
       -4    1    3    3    0  502  0.33258609821E+02 -0.40213583131E+02 -0.63271778444E+00  0.52188770126E+02  0.00000000000E+00 0.  1.
</event>
<event>
 8   1  0.2279600E-02  0.8289353E+02  0.7546771E-02  0.1322816E+00
        2   -1    0    0  501    0  0.00000000000E+00  0.00000000000E+00  0.17799774463E+03  0.17799774463E+03  0.00000000000E+00 0. -1.
       -2   -1    0    0    0  501 -0.00000000000E+00 -0.00000000000E+00 -0.37722470632E+02  0.37722470632E+02  0.00000000000E+00 0.  1.
      -24    2    1    2    0    0  0.16937878692E+02  0.59013755847E+01  0.59176784199E+02  0.99753400335E+02  0.78275993266E+02 0.  0.
       24    2    1    2    0    0 -0.16937878692E+02 -0.59013755847E+01  0.81098489802E+02  0.11596681493E+03  0.80929717338E+02 0.  0.
      -13    1    4    4    0    0 -0.31837439136E+02 -0.36525695607E+02  0.53045308341E+02  0.71843953867E+02  0.00000000000E+00 0.  1.
       14    1    4    4    0    0  0.14899560444E+02  0.30624320022E+02  0.28053181461E+02  0.44122861062E+02  0.00000000000E+00 0. -1.
        1    1    3    3  502    0  0.48133508538E+02  0.41586823024E+01  0.42453674441E+02  0.64315190711E+02  0.00000000000E+00 0. -1.
       -2    1    3    3    0  502 -0.31195629846E+02  0.17426932824E+01  0.16723109758E+02  0.35438209624E+02  0.00000000000E+00 0.  1.
</event>
<event>
 8   1  0.2279600E-02  0.1099569E+03  0.7546771E-02  0.1260774E+00
        1   -1    0    0  501    0  0.00000000000E+00  0.00000000000E+00  0.15227173448E+03  0.15227173448E+03  0.00000000000E+00 0. -1.
       -1   -1    0    0    0  501 -0.00000000000E+00 -0.00000000000E+00 -0.35848460397E+03  0.35848460397E+03  0.00000000000E+00 0.  1.
       24    2    1    2    0    0  0.27194428479E+02 -0.68678422737E+02 -0.32854025215E+03  0.34645234458E+03  0.81451010361E+02 0.  0.
      -24    2    1    2    0    0 -0.27194428479E+02  0.68678422737E+02  0.12232738266E+03  0.16430399388E+03  0.81089772255E+02 0.  0.
      -13    1    3    3    0    0  0.42979260143E+02 -0.77649387082E+02 -0.29787515906E+03  0.31081546696E+03  0.00000000000E+00 0.  1.
       14    1    3    3    0    0 -0.15784831664E+02  0.89709643444E+01 -0.30665093092E+02  0.35636877617E+02  0.00000000000E+00 0. -1.
        1    1    4    4  502    0 -0.46026612543E+02  0.54598825586E+02  0.12131070669E+03  0.14076849213E+03  0.00000000000E+00 0. -1.
       -2    1    4    4    0  502  0.18832184064E+02  0.14079597151E+02  0.10166759715E+01  0.23535501749E+02  0.00000000000E+00 0.  1.
</event>
<event>
 8   1  0.2279600E-02  0.1234487E+03  0.7546771E-02  0.1237631E+00
       -4   -1    0    0    0  501 -0.00000000000E+00  0.00000000000E+00  0.21370889634E+04  0.21370889634E+04  0.00000000000E+00 0.  1.
        4   -1    0    0  501    0  0.00000000000E+00 -0.00000000000E+00 -0.76842785725E+01  0.76842785725E+01  0.00000000000E+00 0. -1.
      -24    2    1    2    0    0 -0.87011620733E+02  0.31620249872E+02  0.13580094679E+04  0.13636089220E+04  0.81662200182E+02 0.  0.
       24    2    1    2    0    0  0.87011620733E+02 -0.31620249872E+02  0.77139521697E+03  0.78116432000E+03  0.81217311811E+02 0.  0.
      -13    1    4    4    0    0  0.30422414836E+02 -0.33301604128E+02  0.57515243408E+03  0.57691840202E+03  0.00000000000E+00 0.  1.
       14    1    4    4    0    0  0.56589205897E+02  0.16813542556E+01  0.19624278289E+03  0.20424591798E+03  0.00000000000E+00 0. -1.
        1    1    3    3  502    0  0.65572554073E+01  0.97711771565E+01  0.31536818678E+02  0.33660725390E+02  0.00000000000E+00 0. -1.
       -2    1    3    3    0  502 -0.93568876140E+02  0.21849072715E+02  0.13264726492E+04  0.13299481966E+04  0.00000000000E+00 0.  1.
</event>
<event>
 8   1  0.2279600E-02  0.9095313E+02  0.7546771E-02  0.1300902E+00
       -3   -1    0    0    0  501 -0.00000000000E+00  0.00000000000E+00  0.40784933357E+02  0.40784933357E+02  0.00000000000E+00 0.  1.
        3   -1    0    0  501    0  0.00000000000E+00 -0.00000000000E+00 -0.22993216747E+03  0.22993216747E+03  0.00000000000E+00 0. -1.
       24    2    1    2    0    0  0.22875611467E+02 -0.34773152685E+02 -0.47287564483E+02  0.10251139539E+03  0.80870307794E+02 0.  0.
      -24    2    1    2    0    0 -0.22875611467E+02  0.34773152685E+02 -0.14185966963E+03  0.16820570544E+03  0.80227973465E+02 0.  0.
      -13    1    3    3    0    0 -0.10631089728E+02 -0.50283673243E+02 -0.15204114158E+02  0.53596949082E+02  0.00000000000E+00 0.  1.
       14    1    3    3    0    0  0.33506701195E+02  0.15510520558E+02 -0.32083450325E+02  0.48914446309E+02  0.00000000000E+00 0. -1.
        3    1    4    4  502    0  0.27162196066E+02  0.90138135520E+01 -0.78007378397E+02  0.83091424433E+02  0.00000000000E+00 0. -1.
       -4    1    4    4    0  502 -0.50037807533E+02  0.25759339133E+02 -0.63852291237E+02  0.85114281007E+02  0.00000000000E+00 0.  1.
</event>
<event>
 8   1  0.2279600E-02  0.8526167E+02  0.7546771E-02  0.1317675E+00
        1   -1    0    0  501    0  0.00000000000E+00  0.00000000000E+00  0.22587389797E+04  0.22587389797E+04  0.00000000000E+00 0. -1.
       -1   -1    0    0    0  501 -0.00000000000E+00 -0.00000000000E+00 -0.31554158281E+01  0.31554158281E+01  0.00000000000E+00 0.  1.
       24    2    1    2    0    0 -0.83605941023E+01  0.21670867076E+01  0.89810715752E+03  0.90174302669E+03  0.80432729657E+02 0.  0.
      -24    2    1    2    0    0  0.83605941023E+01 -0.21670867076E+01  0.13574764063E+04  0.13601513688E+04  0.84823089703E+02 0.  0.
      -13    1    3    3    0    0 -0.37095577496E+02  0.21342182347E+02  0.36138309626E+03  0.36390838529E+03  0.00000000000E+00 0.  1.
       14    1    3    3    0    0  0.28734983394E+02 -0.19175095639E+02  0.53672406126E+03  0.53783464141E+03  0.00000000000E+00 0. -1.
        1    1    4    4  502    0  0.36125069954E+02 -0.29029668236E+02  0.79529966021E+03  0.79664878827E+03  0.00000000000E+00 0. -1.
       -2    1    4    4    0  502 -0.27764475851E+02  0.26862581528E+02  0.56217674613E+03  0.56350258055E+03  0.00000000000E+00 0.  1.
</event>
<event>
 8   1  0.2279600E-02  0.8870220E+02  0.7546771E-02  0.1311024E+00
       -2   -1    0    0    0  501 -0.00000000000E+00  0.00000000000E+00  0.37112666125E+02  0.37112666125E+02  0.00000000000E+00 0.  1.
        2   -1    0    0  501    0  0.00000000000E+00 -0.00000000000E+00 -0.21678501400E+03  0.21678501400E+03  0.00000000000E+00 0. -1.
      -24    2    1    2    0    0  0.29446996405E+02  0.20100024612E+02 -0.52349729197E+02  0.10299793046E+03  0.81221566991E+02 0.  0.
       24    2    1    2    0    0 -0.29446996405E+02 -0.20100024612E+02 -0.12732261868E+03  0.15089974967E+03  0.72722408078E+02 0.  0.
      -13    1    4    4    0    0  0.18454663525E+02 -0.26184565991E+02 -0.60486675349E+02  0.68445920235E+02  0.00000000000E+00 0.  1.
       14    1    4    4    0    0 -0.47901659930E+02  0.60845413791E+01 -0.66835943333E+02  0.82453829438E+02  0.00000000000E+00 0. -1.
        1    1    3    3  502    0 -0.16564506698E+02  0.29892643098E+02 -0.43184526532E+02  0.55071374827E+02  0.00000000000E+00 0. -1.
       -2    1    3    3    0  502  0.46011503102E+02 -0.97926184860E+01 -0.91652026657E+01  0.47926555629E+02  0.00000000000E+00 0.  1.
</event>
<event>
 8   1  0.2279600E-02  0.1102242E+03  0.7546771E-02  0.1261502E+00
        1   -1    0    0  501    0  0.00000000000E+00  0.00000000000E+00  0.93152796859E+03  0.93152796859E+03  0.00000000000E+00 0. -1.
       -1   -1    0    0    0  501 -0.00000000000E+00 -0.00000000000E+00 -0.23169800144E+02  0.23169800144E+02  0.00000000000E+00 0.  1.
       24    2    1    2    0    0 -0.74411863620E+02 -0.14264632612E+02  0.13008993684E+03  0.16866289645E+03  0.76047194440E+02 0.  0.
      -24    2    1    2    0    0  0.74411863620E+02  0.14264632612E+02  0.77826823160E+03  0.78603487228E+03  0.80054824480E+02 0.  0.
      -13    1    3    3    0    0 -0.29665506130E+02  0.65103605591E+01  0.91219059772E+00  0.30385179615E+02  0.00000000000E+00 0.  1.
       14    1    3    3    0    0 -0.44746357490E+02 -0.20774993171E+02  0.12917774624E+03  0.13827771684E+03  0.00000000000E+00 0. -1.
        1    1    4    4  502    0  0.68510667629E+02 -0.14536731214E+02  0.36091860740E+03  0.36765101564E+03  0.00000000000E+00 0. -1.
       -2    1    4    4    0  502  0.59011959902E+01  0.28801363827E+02  0.41734962420E+03  0.41838385664E+03  0.00000000000E+00 0.  1.
</event>
<event>
 8   1  0.2279600E-02  0.8342877E+02  0.7546771E-02  0.1327708E+00
        1   -1    0    0  501    0  0.00000000000E+00  0.00000000000E+00  0.35350588127E+03  0.35350588127E+03  0.00000000000E+00 0. -1.
       -1   -1    0    0    0  501 -0.00000000000E+00 -0.00000000000E+00 -0.52464448384E+02  0.52464448384E+02  0.00000000000E+00 0.  1.
       24    2    1    2    0    0  0.13649670004E+02  0.11878431078E+02 -0.12372745474E+02  0.84341237057E+02  0.81442917565E+02 0.  0.
      -24    2    1    2    0    0 -0.13649670004E+02 -0.11878431078E+02  0.31341417836E+03  0.32162909260E+03  0.69924354781E+02 0.  0.
      -13    1    3    3    0    0  0.16393584038E+02  0.46160223825E+02 -0.87403814572E+01  0.49758518157E+02  0.00000000000E+00 0.  1.
       14    1    3    3    0    0 -0.27439140335E+01 -0.34281792747E+02 -0.36323640172E+01  0.34582718900E+02  0.00000000000E+00 0. -1.
        1    1    4    4  502    0 -0.33151309662E+02 -0.12212457613E+02  0.28490060993E+03  0.28708275983E+03  0.00000000000E+00 0. -1.
       -2    1    4    4    0  502  0.19501639658E+02  0.33402653481E+00  0.28513568435E+02  0.34546332772E+02  0.00000000000E+00 0.  1.
</event>
<event>
 8   1  0.2279600E-02  0.8216750E+02  0.7546771E-02  0.1323801E+00
        3   -1    0    0  501    0  0.00000000000E+00  0.00000000000E+00  0.35290381140E+03  0.35290381140E+03  0.00000000000E+00 0. -1.
       -3   -1    0    0    0  501 -0.00000000000E+00 -0.00000000000E+00 -0.37276335837E+02  0.37276335837E+02  0.00000000000E+00 0.  1.
       24    2    1    2    0    0  0.13319599810E+02  0.21469501611E+01  0.20147981100E+02  0.83488722868E+02  0.79889952870E+02 0.  0.
      -24    2    1    2    0    0 -0.13319599810E+02 -0.21469501611E+01  0.29547949446E+03  0.30669142437E+03  0.81052310265E+02 0.  0.
      -13    1    3    3    0    0 -0.29365746638E+02  0.13379542695E+02  0.22416446696E+02  0.39291937096E+02  0.00000000000E+00 0.  1.
       14    1    3    3    0    0  0.42685346448E+02 -0.11232592534E+02 -0.22684655957E+01  0.44196785772E+02  0.00000000000E+00 0. -1.
        1    1    4    4  502    0  0.27690041943E+02 -0.85977669023E+01  0.20624373707E+03  0.20827179141E+03  0.00000000000E+00 0. -1.
       -2    1    4    4    0  502 -0.41009641754E+02  0.64508167412E+01  0.89235757395E+02  0.98419632957E+02  0.00000000000E+00 0.  1.
</event>
<event>
 8   1  0.2279600E-02  0.8294726E+02  0.7546771E-02  0.1321646E+00
       -2   -1    0    0    0  501 -0.00000000000E+00  0.00000000000E+00  0.25090645149E+02  0.25090645149E+02  0.00000000000E+00 0.  1.
        2   -1    0    0  501    0  0.00000000000E+00 -0.00000000000E+00 -0.69193775248E+03  0.69193775248E+03  0.00000000000E+00 0. -1.
      -24    2    1    2    0    0 -0.10876691782E+02  0.85062175543E+01 -0.54528346470E+02  0.99265240892E+02  0.81789909643E+02 0.  0.
       24    2    1    2    0    0  0.10876691782E+02 -0.85062175543E+01 -0.61231876086E+03  0.61776315674E+03  0.80662226348E+02 0.  0.
      -13    1    4    4    0    0 -0.25129438837E+02 -0.19781300225E+02 -0.44922745603E+03  0.45036440333E+03  0.00000000000E+00 0.  1.
       14    1    4    4    0    0  0.36006130619E+02  0.11275082670E+02 -0.16309130483E+03  0.16739875341E+03  0.00000000000E+00 0. -1.
        1    1    3    3  502    0  0.25530238237E+02 -0.22696849585E+02 -0.15839020583E+02  0.37653879197E+02  0.00000000000E+00 0. -1.
       -2    1    3    3    0  502 -0.36406930019E+02  0.31203067140E+02 -0.38689325887E+02  0.61611361695E+02  0.00000000000E+00 0.  1.
</event>
<event>
 8   1  0.2279600E-02  0.8855930E+02  0.7546771E-02  0.1312056E+00
       -3   -1    0    0    0  501 -0.00000000000E+00  0.00000000000E+00  0.42288114690E+03  0.42288114690E+03  0.00000000000E+00 0.  1.
        3   -1    0    0  501    0  0.00000000000E+00 -0.00000000000E+00 -0.23427081748E+02  0.23427081748E+02  0.00000000000E+00 0. -1.
       24    2    1    2    0    0  0.13367647446E+02  0.32873496173E+02  0.32591440986E+03  0.33773207278E+03  0.81138090203E+02 0.  0.
      -24    2    1    2    0    0 -0.13367647446E+02 -0.32873496173E+02  0.73539655294E+02  0.10857615587E+03  0.71563538017E+02 0.  0.
      -13    1    3    3    0    0  0.37833621286E+02  0.34628790889E+02  0.28829935078E+03  0.29282597515E+03  0.00000000000E+00 0.  1.
       14    1    3    3    0    0 -0.24465973840E+02 -0.17552947165E+01  0.37615059074E+02  0.44906097633E+02  0.00000000000E+00 0. -1.
        3    1    4    4  502    0 -0.43932497998E+01 -0.92391967992E+01 -0.14067551859E+02  0.17394235154E+02  0.00000000000E+00 0. -1.
       -4    1    4    4    0  502 -0.89743976466E+01 -0.23634299374E+02  0.87607207153E+02  0.91181920714E+02  0.00000000000E+00 0.  1.
</event>
<event>
 8   1  0.2279600E-02  0.1021693E+03  0.7546771E-02  0.1284495E+00
        2   -1    0    0  501    0  0.00000000000E+00  0.00000000000E+00  0.54607350135E+01  0.54607350135E+01  0.00000000000E+00 0. -1.
       -2   -1    0    0    0  501 -0.00000000000E+00 -0.00000000000E+00 -0.18317492109E+04  0.18317492109E+04  0.00000000000E+00 0.  1.
      -24    2    1    2    0    0 -0.80871076713E+01  0.32198266585E+02 -0.11490721308E+04  0.11523299934E+04  0.79972008545E+02 0.  0.
       24    2    1    2    0    0  0.80871076713E+01 -0.32198266585E+02 -0.67721634511E+03  0.68487995257E+03  0.96625264121E+02 0.  0.
      -13    1    4    4    0    0 -0.19745394031E+02  0.14306961273E+02 -0.47193745175E+03  0.47256695620E+03  0.00000000000E+00 0.  1.
       14    1    4    4    0    0  0.27832501702E+02 -0.46505227858E+02 -0.20527889336E+03  0.21231299637E+03  0.00000000000E+00 0. -1.
        3    1    3    3  502    0  0.59747690833E+01  0.32504940682E+02 -0.17143022969E+03  0.17458692015E+03  0.00000000000E+00 0. -1.
       -4    1    3    3    0  502 -0.14061876755E+02 -0.30667409710E+00 -0.97764190113E+03  0.97774307324E+03  0.00000000000E+00 0.  1.
</event>
<event>
 8   1  0.2279600E-02  0.9946731E+02  0.7546771E-02  0.1281927E+00
       -1   -1    0    0    0  501 -0.00000000000E+00  0.00000000000E+00  0.26644555525E+02  0.26644555525E+02  0.00000000000E+00 0.  1.
        1   -1    0    0  501    0  0.00000000000E+00 -0.00000000000E+00 -0.39368928210E+03  0.39368928210E+03  0.00000000000E+00 0. -1.
       24    2    1    2    0    0 -0.15493844877E+02  0.55952547172E+02 -0.12878174025E+03  0.16214205572E+03  0.79589967007E+02 0.  0.
      -24    2    1    2    0    0  0.15493844877E+02 -0.55952547172E+02 -0.23826298633E+03  0.25819178190E+03  0.80765084194E+02 0.  0.
      -13    1    3    3    0    0 -0.15484812231E+02  0.62288401759E+02 -0.45634137857E+02  0.78753405904E+02  0.00000000000E+00 0.  1.
       14    1    3    3    0    0 -0.90326461917E-02 -0.63358545873E+01 -0.83147602392E+02  0.83388649818E+02  0.00000000000E+00 0. -1.
        3    1    4    4  502    0  0.45857987817E+02 -0.40070513870E+02 -0.18583325132E+03  0.19555714874E+03  0.00000000000E+00 0. -1.
       -4    1    4    4    0  502 -0.30364142939E+02 -0.15882033302E+02 -0.52429735010E+02  0.62634633164E+02  0.00000000000E+00 0.  1.
</event>
<event>
 8   1  0.2279600E-02  0.8387804E+02  0.7546771E-02  0.1321681E+00
        1   -1    0    0  501    0  0.00000000000E+00  0.00000000000E+00  0.53481057496E+03  0.53481057496E+03  0.00000000000E+00 0. -1.
       -1   -1    0    0    0  501 -0.00000000000E+00 -0.00000000000E+00 -0.13104713550E+02  0.13104713550E+02  0.00000000000E+00 0.  1.
       24    2    1    2    0    0  0.14011081647E+02 -0.17457974171E+02  0.31640311215E+03  0.32613895153E+03  0.75859047282E+02 0.  0.
      -24    2    1    2    0    0 -0.14011081647E+02  0.17457974171E+02  0.20530274926E+03  0.22177633698E+03  0.80835843043E+02 0.  0.
      -13    1    3    3    0    0  0.52835485737E+01  0.23494736747E+02  0.40828400080E+02  0.47401231983E+02  0.00000000000E+00 0.  1.
       14    1    3    3    0    0  0.87275330737E+01 -0.40952710918E+02  0.27557471207E+03  0.27873771955E+03  0.00000000000E+00 0. -1.
        1    1    4    4  502    0  0.19111831033E+02 -0.14203903545E+02  0.13994451553E+03  0.14195591001E+03  0.00000000000E+00 0. -1.
       -2    1    4    4    0  502 -0.33122912680E+02  0.31661877716E+02  0.65358233732E+02  0.79820426969E+02  0.00000000000E+00 0.  1.
</event>
<event>
 8   1  0.2279600E-02  0.8269550E+02  0.7546771E-02  0.1322033E+00
        4   -1    0    0  501    0  0.00000000000E+00  0.00000000000E+00  0.10113996937E+02  0.10113996937E+02  0.00000000000E+00 0. -1.
       -4   -1    0    0    0  501 -0.00000000000E+00 -0.00000000000E+00 -0.73036415745E+03  0.73036415745E+03  0.00000000000E+00 0.  1.
      -24    2    1    2    0    0  0.18209831941E+02  0.37894480361E+01 -0.46465182120E+03  0.47183516319E+03  0.79882090498E+02 0.  0.
       24    2    1    2    0    0 -0.18209831941E+02 -0.37894480361E+01 -0.25559833931E+03  0.26864299120E+03  0.80576595637E+02 0.  0.
      -13    1    4    4    0    0  0.79691645212E+01 -0.35738446758E+02 -0.16588033056E+03  0.16987356541E+03  0.00000000000E+00 0.  1.
       14    1    4    4    0    0 -0.26178996462E+02  0.31948998722E+02 -0.89718008759E+02  0.98769425789E+02  0.00000000000E+00 0. -1.
        3    1    3    3  502    0  0.65221912106E+01  0.41045764908E+02 -0.19576360383E+03  0.20012666583E+03  0.00000000000E+00 0. -1.
       -4    1    3    3    0  502  0.11687640730E+02 -0.37256316872E+02 -0.26888821737E+03  0.27170849735E+03  0.00000000000E+00 0.  1.
</event>
<event>
 8   1  0.2279600E-02  0.8696494E+02  0.7546771E-02  0.1312120E+00
       -1   -1    0    0    0  501 -0.00000000000E+00  0.00000000000E+00  0.27649409779E+03  0.27649409779E+03  0.00000000000E+00 0.  1.
        1   -1    0    0  501    0  0.00000000000E+00 -0.00000000000E+00 -0.39126273427E+02  0.39126273427E+02  0.00000000000E+00 0. -1.
       24    2    1    2    0    0  0.23613236754E+02  0.53270973528E+01  0.20702610020E+03  0.22351434318E+03  0.80702493946E+02 0.  0.
      -24    2    1    2    0    0 -0.23613236754E+02 -0.53270973528E+01  0.30341724169E+02  0.92106028038E+02  0.83528062704E+02 0.  0.
      -13    1    3    3    0    0  0.63374853815E+00 -0.23365799156E+01  0.19745261057E+03  0.19746745217E+03  0.00000000000E+00 0.  1.
       14    1    3    3    0    0  0.22979488216E+02  0.76636772685E+01  0.95734896217E+01  0.26046891014E+02  0.00000000000E+00 0. -1.
        1    1    4    4  502    0  0.28141445859E+02  0.49193321335E+01  0.26891935719E+02  0.39234130682E+02  0.00000000000E+00 0. -1.
       -2    1    4    4    0  502 -0.51754682613E+02 -0.10246429486E+02  0.34497884499E+01  0.52871897355E+02  0.00000000000E+00 0.  1.
</event>
<event>
 8   1  0.2279600E-02  0.8891248E+02  0.7546771E-02  0.1307594E+00
       -1   -1    0    0    0  501 -0.00000000000E+00  0.00000000000E+00  0.37437548975E+02  0.37437548975E+02  0.00000000000E+00 0.  1.
        1   -1    0    0  501    0  0.00000000000E+00 -0.00000000000E+00 -0.13350414742E+04  0.13350414742E+04  0.00000000000E+00 0. -1.
       24    2    1    2    0    0  0.15720160739E+02 -0.34222979131E+02 -0.15118005563E+02  0.86914725727E+02  0.76858829692E+02 0.  0.
      -24    2    1    2    0    0 -0.15720160739E+02  0.34222979131E+02 -0.12824859197E+04  0.12855642975E+04  0.80542491821E+02 0.  0.
      -13    1    3    3    0    0  0.29889179393E+02 -0.42296428398E+02  0.13903572547E+02  0.53625182794E+02  0.00000000000E+00 0.  1.
       14    1    3    3    0    0 -0.14169018654E+02  0.80734492670E+01 -0.29021578110E+02  0.33289542933E+02  0.00000000000E+00 0. -1.
        3    1    4    4  502    0 -0.16977350899E+02  0.15428134564E+02 -0.12219511460E+04  0.12221664621E+04  0.00000000000E+00 0. -1.
       -4    1    4    4    0  502  0.12571901600E+01  0.18794844567E+02 -0.60534773679E+02  0.63397835403E+02  0.00000000000E+00 0.  1.
</event>
<event>
 8   1  0.2279600E-02  0.1359361E+03  0.7546771E-02  0.1218985E+00
        2   -1    0    0  501    0  0.00000000000E+00  0.00000000000E+00  0.20512999375E+04  0.20512999375E+04  0.00000000000E+00 0. -1.
       -2   -1    0    0    0  501 -0.00000000000E+00 -0.00000000000E+00 -0.92272771859E+01  0.92272771859E+01  0.00000000000E+00 0.  1.
      -24    2    1    2    0    0 -0.95577514922E+02 -0.52664524084E+02  0.85602901237E+03  0.86671895897E+03  0.80668893481E+02 0.  0.
       24    2    1    2    0    0  0.95577514922E+02  0.52664524084E+02  0.11860436480E+04  0.11938082557E+04  0.81055555729E+02 0.  0.
      -13    1    4    4    0    0 -0.11262883010E+02  0.13701613226E+02  0.29563927928E+03  0.29617084629E+03  0.00000000000E+00 0.  1.
       14    1    4    4    0    0  0.10684039793E+03  0.38962910858E+02  0.89040436867E+03  0.89763740942E+03  0.00000000000E+00 0. -1.
        1    1    3    3  502    0 -0.52866473641E+01  0.19340015258E+02  0.11197007575E+03  0.11375096788E+03  0.00000000000E+00 0. -1.
       -2    1    3    3    0  502 -0.90290867558E+02 -0.72004539342E+02  0.74405893662E+03  0.75296799109E+03  0.00000000000E+00 0.  1.
</event>
<event>
 8   1  0.2279600E-02  0.1254030E+03  0.7546771E-02  0.1234787E+00
        2   -1    0    0  501    0  0.00000000000E+00  0.00000000000E+00  0.46067114793E+03  0.46067114793E+03  0.00000000000E+00 0. -1.
       -2   -1    0    0    0  501 -0.00000000000E+00 -0.00000000000E+00 -0.94082373155E+02  0.94082373155E+02  0.00000000000E+00 0.  1.
      -24    2    1    2    0    0 -0.58326782872E+01 -0.95570387330E+02 -0.38791964932E+02  0.13041939998E+03  0.79603293131E+02 0.  0.
       24    2    1    2    0    0  0.58326782872E+01  0.95570387330E+02  0.40538073971E+03  0.42433412111E+03  0.80982610098E+02 0.  0.
      -13    1    4    4    0    0  0.94546862275E+01  0.16163324978E+02  0.24116850330E+03  0.24189438015E+03  0.00000000000E+00 0.  1.
       14    1    4    4    0    0 -0.36220079403E+01  0.79407062352E+02  0.16421223642E+03  0.18243974096E+03  0.00000000000E+00 0. -1.
        3    1    3    3  502    0  0.19081872834E+02 -0.17670935130E+02  0.17309165994E+02  0.31240791390E+02  0.00000000000E+00 0. -1.
       -4    1    3    3    0  502 -0.24914551122E+02 -0.77899452200E+02 -0.56101130926E+02  0.99178608590E+02  0.00000000000E+00 0.  1.
</event>
<event>
 8   1  0.2279600E-02  0.9593654E+02  0.7546771E-02  0.1289312E+00
        2   -1    0    0  501    0  0.00000000000E+00  0.00000000000E+00  0.19089806362E+03  0.19089806362E+03  0.00000000000E+00 0. -1.
       -2   -1    0    0    0  501 -0.00000000000E+00 -0.00000000000E+00 -0.12847431506E+03  0.12847431506E+03  0.00000000000E+00 0.  1.
      -24    2    1    2    0    0 -0.39719722742E+01  0.52165641967E+02 -0.95141748818E+02  0.13511391999E+03  0.80416343120E+02 0.  0.
       24    2    1    2    0    0  0.39719722742E+01 -0.52165641967E+02  0.15756549737E+03  0.18425845869E+03  0.79920353295E+02 0.  0.
      -13    1    4    4    0    0  0.38032881728E+02 -0.96313699686E+01  0.83989884601E+02  0.92701478388E+02  0.00000000000E+00 0.  1.
       14    1    4    4    0    0 -0.34060909454E+02 -0.42534271998E+02  0.73575612773E+02  0.91556980303E+02  0.00000000000E+00 0. -1.
        3    1    3    3  502    0  0.58695575928E+01  0.12749742597E+02  0.13284963336E+02  0.19326093591E+02  0.00000000000E+00 0. -1.
       -4    1    3    3    0  502 -0.98415298670E+01  0.39415899369E+02 -0.10842671215E+03  0.11578782640E+03  0.00000000000E+00 0.  1.
</event>
<event>
 8   1  0.2279600E-02  0.8638159E+02  0.7546771E-02  0.1313207E+00
       -3   -1    0    0    0  501 -0.00000000000E+00  0.00000000000E+00  0.47710670240E+02  0.47710670240E+02  0.00000000000E+00 0.  1.
        3   -1    0    0  501    0  0.00000000000E+00 -0.00000000000E+00 -0.16168819493E+03  0.16168819493E+03  0.00000000000E+00 0. -1.
       24    2    1    2    0    0  0.13779102743E+02 -0.38407306529E+01 -0.31586472327E+02  0.90025233888E+02  0.83079616142E+02 0.  0.
      -24    2    1    2    0    0 -0.13779102743E+02  0.38407306529E+01 -0.82391052364E+02  0.11937363128E+03  0.85188986681E+02 0.  0.
      -13    1    3    3    0    0  0.11459576659E+02 -0.15686905531E+02  0.25285322907E+02  0.31886493330E+02  0.00000000000E+00 0.  1.
       14    1    3    3    0    0  0.23195260839E+01  0.11846174879E+02 -0.56871795234E+02  0.58138740558E+02  0.00000000000E+00 0. -1.
        3    1    4    4  502    0 -0.34593463772E+02  0.14766106684E+02 -0.43438592535E+01  0.37863105467E+02  0.00000000000E+00 0. -1.
       -4    1    4    4    0  502  0.20814361029E+02 -0.10925376031E+02 -0.78047193111E+02  0.81510525817E+02  0.00000000000E+00 0.  1.
</event>
<event>
 8   1  0.2279600E-02  0.9474344E+02  0.7546771E-02  0.1293132E+00
        1   -1    0    0  501    0  0.00000000000E+00  0.00000000000E+00  0.19557550894E+03  0.19557550894E+03  0.00000000000E+00 0. -1.
       -1   -1    0    0    0  501 -0.00000000000E+00 -0.00000000000E+00 -0.58805493418E+02  0.58805493418E+02  0.00000000000E+00 0.  1.
       24    2    1    2    0    0 -0.21796147844E+02  0.43983480893E+02  0.68523046929E+01  0.94990911573E+02  0.81035180938E+02 0.  0.
      -24    2    1    2    0    0  0.21796147844E+02 -0.43983480893E+02  0.12991771083E+03  0.15939009079E+03  0.78211065723E+02 0.  0.
      -13    1    3    3    0    0 -0.10832606209E+02  0.67485735847E+02  0.91332234465E+01  0.68957129223E+02  0.00000000000E+00 0.  1.
       14    1    3    3    0    0 -0.10963541635E+02 -0.23502254954E+02 -0.22809187536E+01  0.26033782350E+02  0.00000000000E+00 0. -1.
        1    1    4    4  502    0 -0.75211905829E+00 -0.45979368969E+02  0.12875863450E+03  0.13672400671E+03  0.00000000000E+00 0. -1.
       -2    1    4    4    0  502  0.22548266902E+02  0.19958880764E+01  0.11590763372E+01  0.22666084079E+02  0.00000000000E+00 0.  1.
</event>
<event>
 8   1  0.2279600E-02  0.8339065E+02  0.7546771E-02  0.1320258E+00
       -2   -1    0    0    0  501 -0.00000000000E+00  0.00000000000E+00  0.15355988969E+02  0.15355988969E+02  0.00000000000E+00 0.  1.
        2   -1    0    0  501    0  0.00000000000E+00 -0.00000000000E+00 -0.52322575536E+03  0.52322575536E+03  0.00000000000E+00 0. -1.
      -24    2    1    2    0    0 -0.37834245883E+01  0.21156497627E+02 -0.15096249538E+03  0.17206189493E+03  0.79710156084E+02 0.  0.
       24    2    1    2    0    0  0.37834245883E+01 -0.21156497627E+02 -0.35690727101E+03  0.36651984940E+03  0.80573495693E+02 0.  0.
      -13    1    4    4    0    0  0.16177841667E+02  0.16183830349E+02 -0.27176659013E+03  0.27272828683E+03  0.00000000000E+00 0.  1.
       14    1    4    4    0    0 -0.12394417079E+02 -0.37340327976E+02 -0.85140680881E+02  0.93791562568E+02  0.00000000000E+00 0. -1.
        3    1    3    3  502    0 -0.97982399928E+01 -0.90548781870E+00 -0.14876418674E+03  0.14908926411E+03  0.00000000000E+00 0. -1.
       -4    1    3    3    0  502  0.60148154044E+01  0.22061985445E+02 -0.21983086375E+01  0.22972630825E+02  0.00000000000E+00 0.  1.
</event>
<event>
 8   1  0.2279600E-02  0.8199159E+02  0.7546771E-02  0.1326809E+00
       -2   -1    0    0    0  501 -0.00000000000E+00  0.00000000000E+00  0.12510716332E+03  0.12510716332E+03  0.00000000000E+00 0.  1.
        2   -1    0    0  501    0  0.00000000000E+00 -0.00000000000E+00 -0.58604837603E+03  0.58604837603E+03  0.00000000000E+00 0. -1.
      -24    2    1    2    0    0 -0.65871395510E+01  0.16077181537E+02  0.10994809733E+03  0.13440843295E+03  0.75333767784E+02 0.  0.
       24    2    1    2    0    0  0.65871395510E+01 -0.16077181537E+02 -0.57088931003E+03  0.57674710640E+03  0.80129609110E+02 0.  0.
      -13    1    4    4    0    0  0.26519628273E+01 -0.29036701751E+02 -0.72081012705E+02  0.77754969925E+02  0.00000000000E+00 0.  1.
       14    1    4    4    0    0  0.39351767237E+01  0.12959520214E+02 -0.49880829733E+03  0.49899213647E+03  0.00000000000E+00 0. -1.
        3    1    3    3  502    0  0.20911026376E+02  0.23025099958E+02  0.13554090395E+02  0.33928448514E+02  0.00000000000E+00 0. -1.
       -4    1    3    3    0  502 -0.27498165927E+02 -0.69479184212E+01  0.96394006931E+02  0.10047998443E+03  0.00000000000E+00 0.  1.
</event>
<event>
 8   1  0.2279600E-02  0.9185266E+02  0.7546771E-02  0.1299666E+00
        3   -1    0    0  501    0  0.00000000000E+00  0.00000000000E+00  0.20219245125E+03  0.20219245125E+03  0.00000000000E+00 0. -1.
       -3   -1    0    0    0  501 -0.00000000000E+00 -0.00000000000E+00 -0.11282121824E+03  0.11282121824E+03  0.00000000000E+00 0.  1.
       24    2    1    2    0    0 -0.30030615153E+02  0.35074506363E+02 -0.81350953978E+02  0.12115037649E+03  0.76989461399E+02 0.  0.
      -24    2    1    2    0    0  0.30030615153E+02 -0.35074506363E+02  0.17072218698E+03  0.19386329300E+03  0.79403100707E+02 0.  0.
      -13    1    3    3    0    0 -0.13838401100E+02  0.55092331270E+02 -0.31277957969E+02  0.64845793730E+02  0.00000000000E+00 0.  1.
       14    1    3    3    0    0 -0.16192214053E+02 -0.20017824908E+02 -0.50072996009E+02  0.56304582756E+02  0.00000000000E+00 0. -1.
        3    1    4    4  502    0 -0.71272956663E+01 -0.36308035825E+02  0.14239264171E+03  0.14712150156E+03  0.00000000000E+00 0. -1.
       -4    1    4    4    0  502  0.37157910820E+02  0.12335294626E+01  0.28329545272E+02  0.46741791437E+02  0.00000000000E+00 0.  1.
</event>
<event>
 8   1  0.2279600E-02  0.8634805E+02  0.7546771E-02  0.1312323E+00
       -1   -1    0    0    0  501 -0.00000000000E+00  0.00000000000E+00  0.69237590445E+01  0.69237590445E+01  0.00000000000E+00 0.  1.
        1   -1    0    0  501    0  0.00000000000E+00 -0.00000000000E+00 -0.22814604367E+04  0.22814604367E+04  0.00000000000E+00 0. -1.
       24    2    1    2    0    0  0.94879729354E+01  0.27836847203E+02 -0.30516326482E+03  0.31714445288E+03  0.81185430357E+02 0.  0.
      -24    2    1    2    0    0 -0.94879729354E+01 -0.27836847203E+02 -0.19693734128E+04  0.19712397428E+04  0.80557885930E+02 0.  0.
      -13    1    3    3    0    0 -0.22035638514E+02  0.99275432614E+01 -0.25472993561E+02  0.35114083797E+02  0.00000000000E+00 0.  1.
       14    1    3    3    0    0  0.31523611449E+02  0.17909303942E+02 -0.27969027126E+03  0.28203036908E+03  0.00000000000E+00 0. -1.
        3    1    4    4  502    0 -0.67000032782E+01 -0.56406315707E+02 -0.13774574820E+04  0.13786281868E+04  0.00000000000E+00 0. -1.
       -4    1    4    4    0  502 -0.27879696572E+01  0.28569468504E+02 -0.59191593077E+03  0.59261155609E+03  0.00000000000E+00 0.  1.
</event>
<event>
 8   1  0.2279600E-02  0.9836326E+02  0.7546771E-02  0.1284110E+00
       -2   -1    0    0    0  501 -0.00000000000E+00  0.00000000000E+00  0.12524524168E+02  0.12524524168E+02  0.00000000000E+00 0.  1.
        2   -1    0    0  501    0  0.00000000000E+00 -0.00000000000E+00 -0.83648726795E+03  0.83648726795E+03  0.00000000000E+00 0. -1.
      -24    2    1    2    0    0  0.50336389359E+01  0.55625046709E+02 -0.28900933001E+03  0.30509039450E+03  0.80213917980E+02 0.  0.
       24    2    1    2    0    0 -0.50336389359E+01 -0.55625046709E+02 -0.53495341377E+03  0.54392139762E+03  0.80968194650E+02 0.  0.
      -13    1    4    4    0    0 -0.21604235743E+02  0.14643476994E+02 -0.13328025909E+03  0.13581164120E+03  0.00000000000E+00 0.  1.
       14    1    4    4    0    0  0.16570596807E+02 -0.70268523703E+02 -0.40167315467E+03  0.40810975642E+03  0.00000000000E+00 0. -1.
        1    1    3    3  502    0 -0.31590600063E+01 -0.20360153100E+02 -0.47472630410E+02  0.51751001270E+02  0.00000000000E+00 0. -1.
       -2    1    3    3    0  502  0.81926989422E+01  0.75985199809E+02 -0.24153669960E+03  0.25333939323E+03  0.00000000000E+00 0.  1.
</event>
<event>
 8   1  0.2279600E-02  0.1141087E+03  0.7546771E-02  0.1257760E+00
        2   -1    0    0  501    0  0.00000000000E+00  0.00000000000E+00  0.47438406497E+03  0.47438406497E+03  0.00000000000E+00 0. -1.
       -2   -1    0    0    0  501 -0.00000000000E+00 -0.00000000000E+00 -0.44104013123E+02  0.44104013123E+02  0.00000000000E+00 0.  1.
       24    2    1    2    0    0  0.69490217686E+02 -0.40813092182E+02  0.37960754037E+03  0.39363420968E+03  0.65965198998E+02 0.  0.
      -24    2    1    2    0    0 -0.69490217686E+02  0.40813092182E+02  0.50672511479E+02  0.12485386841E+03  0.80784814109E+02 0.  0.
      -13    1    3    3    0    0  0.34034968626E+02 -0.51215477028E+02  0.29450389315E+03  0.30085535937E+03  0.00000000000E+00 0.  1.
       14    1    3    3    0    0  0.35455249060E+02  0.10402384847E+02  0.85103647214E+02  0.92778850314E+02  0.00000000000E+00 0. -1.
        3    1    4    4  502    0 -0.10979640070E+02 -0.16458622566E+02  0.36842696078E+02  0.41818931205E+02  0.00000000000E+00 0. -1.
       -4    1    4    4    0  502 -0.58510577617E+02  0.57271714748E+02  0.13829815401E+02  0.83034937208E+02  0.00000000000E+00 0.  1.
</event>
<event>
 8   1  0.2279600E-02  0.8525090E+02  0.7546771E-02  0.1314840E+00
       -2   -1    0    0    0  501 -0.00000000000E+00  0.00000000000E+00  0.47823599749E+02  0.47823599749E+02  0.00000000000E+00 0.  1.
        2   -1    0    0  501    0  0.00000000000E+00 -0.00000000000E+00 -0.21748489164E+03  0.21748489164E+03  0.00000000000E+00 0. -1.
      -24    2    1    2    0    0 -0.13560426735E+02  0.25618913503E+02 -0.11894245186E+02  0.85981535104E+02  0.80069578543E+02 0.  0.
       24    2    1    2    0    0  0.13560426735E+02 -0.25618913503E+02 -0.15776704670E+03  0.17932695628E+03  0.80171705244E+02 0.  0.
      -13    1    4    4    0    0 -0.11962215954E+02  0.20643145760E+02 -0.17941022649E+02  0.29851538839E+02  0.00000000000E+00 0.  1.
       14    1    4    4    0    0  0.25522642688E+02 -0.46262059263E+02 -0.13982602405E+03  0.14947541744E+03  0.00000000000E+00 0. -1.
        3    1    3    3  502    0  0.96344274955E+01 -0.93827954255E+01  0.26095471512E+02  0.29356986845E+02  0.00000000000E+00 0. -1.
       -4    1    3    3    0  502 -0.23194854230E+02  0.35001708929E+02 -0.37989716699E+02  0.56624548259E+02  0.00000000000E+00 0.  1.
</event>
<event>
 8   1  0.2279600E-02  0.8952841E+02  0.7546771E-02  0.1304447E+00
       -2   -1    0    0    0  501 -0.00000000000E+00  0.00000000000E+00  0.79725515007E+01  0.79725515007E+01  0.00000000000E+00 0.  1.
        2   -1    0    0  501    0  0.00000000000E+00 -0.00000000000E+00 -0.10341791791E+04  0.10341791791E+04  0.00000000000E+00 0. -1.
      -24    2    1    2    0    0  0.75628520198E+01 -0.36406586943E+02 -0.41247139414E+03  0.42192090864E+03  0.80634768292E+02 0.  0.
       24    2    1    2    0    0 -0.75628520198E+01  0.36406586943E+02 -0.61373523348E+03  0.62023082199E+03  0.81441386417E+02 0.  0.
      -13    1    4    4    0    0  0.34198596446E+02  0.26229903910E+02 -0.39245482845E+03  0.39481431615E+03  0.00000000000E+00 0.  1.
       14    1    4    4    0    0 -0.41761448466E+02  0.10176683033E+02 -0.22128040503E+03  0.22541650584E+03  0.00000000000E+00 0. -1.
        1    1    3    3  502    0 -0.23355459523E+02 -0.27284690190E+02 -0.34791197100E+03  0.34976087742E+03  0.00000000000E+00 0. -1.
       -2    1    3    3    0  502  0.30918311543E+02 -0.91218967529E+01 -0.64559423140E+02  0.72160031217E+02  0.00000000000E+00 0.  1.
</event>
<event>
 8   1  0.2279600E-02  0.9469174E+02  0.7546771E-02  0.1295864E+00
        1   -1    0    0  501    0  0.00000000000E+00  0.00000000000E+00  0.24533222402E+03  0.24533222402E+03  0.00000000000E+00 0. -1.
       -1   -1    0    0    0  501 -0.00000000000E+00 -0.00000000000E+00 -0.47329888747E+02  0.47329888747E+02  0.00000000000E+00 0.  1.
       24    2    1    2    0    0  0.31079869538E+02 -0.35352002216E+02  0.18678212954E+02  0.89872403800E+02  0.74245881869E+02 0.  0.
      -24    2    1    2    0    0 -0.31079869538E+02  0.35352002216E+02  0.17932412232E+03  0.20278970896E+03  0.82163269564E+02 0.  0.
      -13    1    3    3    0    0 -0.28919596516E+01 -0.37371827115E+02 -0.16475345960E+02  0.40944522430E+02  0.00000000000E+00 0.  1.
       14    1    3    3    0    0  0.33971829190E+02  0.20198248987E+01  0.35153558913E+02  0.48927881370E+02  0.00000000000E+00 0. -1.
        3    1    4    4  502    0 -0.39109524980E+02  0.58374352679E+02  0.13580995554E+03  0.15290998665E+03  0.00000000000E+00 0. -1.
       -4    1    4    4    0  502  0.80296554416E+01 -0.23022350463E+02  0.43514166778E+02  0.49879722310E+02  0.00000000000E+00 0.  1.
</event>
<event>
 8   1  0.2279600E-02  0.1095178E+03  0.7546771E-02  0.1263133E+00
        2   -1    0    0  501    0  0.00000000000E+00  0.00000000000E+00  0.53279317512E+03  0.53279317512E+03  0.00000000000E+00 0. -1.
       -2   -1    0    0    0  501 -0.00000000000E+00 -0.00000000000E+00 -0.23116213115E+02  0.23116213115E+02  0.00000000000E+00 0.  1.
      -24    2    1    2    0    0 -0.66164782984E+02 -0.25357928538E+02  0.18446105995E+03  0.21274829520E+03  0.78836231674E+02 0.  0.
       24    2    1    2    0    0  0.66164782984E+02  0.25357928538E+02  0.32521590205E+03  0.34316109303E+03  0.83506585239E+02 0.  0.
      -13    1    4    4    0    0 -0.51558722530E+01  0.35663783392E+02  0.83786367003E+02  0.91206599323E+02  0.00000000000E+00 0.  1.
       14    1    4    4    0    0  0.71320655237E+02 -0.10305854853E+02  0.24142953504E+03  0.25195449371E+03  0.00000000000E+00 0. -1.
        1    1    3    3  502    0  0.18154159535E+02 -0.78842543118E+00  0.31036313678E+02  0.35964536557E+02  0.00000000000E+00 0. -1.
       -2    1    3    3    0  502 -0.84318942518E+02 -0.24569503107E+02  0.15342474628E+03  0.17678375864E+03  0.00000000000E+00 0.  1.
</event>
<event>
 8   1  0.2279600E-02  0.8430672E+02  0.7546771E-02  0.1317893E+00
        2   -1    0    0  501    0  0.00000000000E+00  0.00000000000E+00  0.19158310343E+03  0.19158310343E+03  0.00000000000E+00 0. -1.
       -2   -1    0    0    0  501 -0.00000000000E+00 -0.00000000000E+00 -0.43277773649E+02  0.43277773649E+02  0.00000000000E+00 0.  1.
      -24    2    1    2    0    0  0.25407676447E+02 -0.14113490456E+02  0.28658559644E+02  0.89044571862E+02  0.79138373132E+02 0.  0.
       24    2    1    2    0    0 -0.25407676447E+02  0.14113490456E+02  0.11964677014E+03  0.14581630522E+03  0.78117249231E+02 0.  0.
      -13    1    4    4    0    0  0.48415853179E+01 -0.12929203786E+02 -0.50373807673E+01  0.14696273811E+02  0.00000000000E+00 0.  1.
       14    1    4    4    0    0 -0.30249261765E+02  0.27042694242E+02  0.12468415090E+03  0.13112003141E+03  0.00000000000E+00 0. -1.
        1    1    3    3  502    0 -0.26306282087E+02  0.83862729343E+01  0.59300844684E+01  0.28240324941E+02  0.00000000000E+00 0. -1.
       -2    1    3    3    0  502  0.51713958534E+02 -0.22499763390E+02  0.22728475176E+02  0.60804246921E+02  0.00000000000E+00 0.  1.
</event>
<event>
 8   1  0.2279600E-02  0.1067911E+03  0.7546771E-02  0.1267219E+00
        2   -1    0    0  501    0  0.00000000000E+00  0.00000000000E+00  0.20388964843E+04  0.20388964843E+04  0.00000000000E+00 0. -1.
       -2   -1    0    0    0  501 -0.00000000000E+00 -0.00000000000E+00 -0.12113515659E+02  0.12113515659E+02  0.00000000000E+00 0.  1.
      -24    2    1    2    0    0 -0.67660728222E+02  0.64273368655E+01  0.25473160039E+03  0.27574371072E+03  0.80790599473E+02 0.  0.
       24    2    1    2    0    0  0.67660728222E+02 -0.64273368655E+01  0.17720513682E+04  0.17752662892E+04  0.82371482785E+02 0.  0.
      -13    1    4    4    0    0  0.18463515589E+02 -0.40527920513E+02  0.57671194091E+03  0.57842897277E+03  0.00000000000E+00 0.  1.
       14    1    4    4    0    0  0.49197212633E+02  0.34100583647E+02  0.11953394273E+04  0.11968373165E+04  0.00000000000E+00 0. -1.
        3    1    3    3  502    0  0.12199225392E+02 -0.12202222944E+02  0.16821140066E+02  0.24097014298E+02  0.00000000000E+00 0. -1.
       -4    1    3    3    0  502 -0.79859953614E+02  0.18629559810E+02  0.23791046033E+03  0.25164669643E+03  0.00000000000E+00 0.  1.
</event>
<event>
 8   1  0.2279600E-02  0.1214117E+03  0.7546771E-02  0.1241829E+00
        1   -1    0    0  501    0  0.00000000000E+00  0.00000000000E+00  0.68688900976E+03  0.68688900976E+03  0.00000000000E+00 0. -1.
       -1   -1    0    0    0  501 -0.00000000000E+00 -0.00000000000E+00 -0.23873424031E+02  0.23873424031E+02  0.00000000000E+00 0.  1.
       24    2    1    2    0    0 -0.73656965609E+02 -0.46690290654E+02  0.20544060839E+03  0.23735389067E+03  0.80781767859E+02 0.  0.
      -24    2    1    2    0    0  0.73656965609E+02  0.46690290654E+02  0.45757497735E+03  0.47340854313E+03  0.84471634201E+02 0.  0.
      -13    1    3    3    0    0 -0.42621309754E+02  0.15251661809E+02  0.51661360484E+02  0.68688320697E+02  0.00000000000E+00 0.  1.
       14    1    3    3    0    0 -0.31035655855E+02 -0.61941952463E+02  0.15377924790E+03  0.16866556997E+03  0.00000000000E+00 0. -1.
        1    1    4    4  502    0  0.77266047933E+02  0.57531236132E+02  0.29283839021E+03  0.30827618797E+03  0.00000000000E+00 0. -1.
       -2    1    4    4    0  502 -0.36090823246E+01 -0.10840945478E+02  0.16473658714E+03  0.16513235515E+03  0.00000000000E+00 0.  1.
</event>
<event>
 8   1  0.2279600E-02  0.2741762E+03  0.7546771E-02  0.1099083E+00
        1   -1    0    0  501    0  0.00000000000E+00  0.00000000000E+00  0.19017623977E+03  0.19017623977E+03  0.00000000000E+00 0. -1.
       -1   -1    0    0    0  501 -0.00000000000E+00 -0.00000000000E+00 -0.91899428937E+03  0.91899428937E+03  0.00000000000E+00 0.  1.
       24    2    1    2    0    0  0.23099921589E+03  0.12154457498E+03 -0.78410884704E+03  0.83066193202E+03  0.83897794077E+02 0.  0.
      -24    2    1    2    0    0 -0.23099921589E+03 -0.12154457498E+03  0.55290797447E+02  0.27850859712E+03  0.79851392850E+02 0.  0.
      -13    1    3    3    0    0  0.19394547418E+03  0.13304587566E+03 -0.66205934959E+03  0.70259421743E+03  0.00000000000E+00 0.  1.
       14    1    3    3    0    0  0.37053741715E+02 -0.11501300689E+02 -0.12204949745E+03  0.12806771459E+03  0.00000000000E+00 0. -1.
        3    1    4    4  502    0 -0.22927364180E+03 -0.12851046680E+03  0.60418809523E+02  0.26968829312E+03  0.00000000000E+00 0. -1.
       -4    1    4    4    0  502 -0.17255740941E+01  0.69658918254E+01 -0.51280120762E+01  0.88203040045E+01  0.00000000000E+00 0.  1.
</event>
<event>
 8   1  0.2279600E-02  0.1009300E+03  0.7546771E-02  0.1282467E+00
       -1   -1    0    0    0  501 -0.00000000000E+00  0.00000000000E+00  0.15104598784E+03  0.15104598784E+03  0.00000000000E+00 0.  1.
        1   -1    0    0  501    0  0.00000000000E+00 -0.00000000000E+00 -0.12739549572E+03  0.12739549572E+03  0.00000000000E+00 0. -1.
       24    2    1    2    0    0  0.17740778461E+02 -0.51319170557E+02  0.11140904759E+03  0.15032909303E+03  0.85079185700E+02 0.  0.
      -24    2    1    2    0    0 -0.17740778461E+02  0.51319170557E+02 -0.87758555470E+02  0.12811239052E+03  0.75913293043E+02 0.  0.
      -13    1    3    3    0    0  0.48283261010E+02 -0.99727119723E+01  0.59545988165E+02  0.77307522172E+02  0.00000000000E+00 0.  1.
       14    1    3    3    0    0 -0.30542482549E+02 -0.41346458585E+02  0.51863059427E+02  0.73021570860E+02  0.00000000000E+00 0. -1.
        3    1    4    4  502    0 -0.24729736666E+02  0.55064934104E+02 -0.98037348668E+02  0.11513048500E+03  0.00000000000E+00 0. -1.
       -4    1    4    4    0  502  0.69889582055E+01 -0.37457635466E+01  0.10278793198E+02  0.12981905521E+02  0.00000000000E+00 0.  1.
</event>
<event>
 8   1  0.2279600E-02  0.8770311E+02  0.7546771E-02  0.1308749E+00
       -2   -1    0    0    0  501 -0.00000000000E+00  0.00000000000E+00  0.63969903786E+01  0.63969903786E+01  0.00000000000E+00 0.  1.
        2   -1    0    0  501    0  0.00000000000E+00 -0.00000000000E+00 -0.13661320667E+04  0.13661320667E+04  0.00000000000E+00 0. -1.
      -24    2    1    2    0    0 -0.33928683171E+02 -0.12263741290E+01 -0.43728437512E+03  0.44591849634E+03  0.80455087587E+02 0.  0.
       24    2    1    2    0    0  0.33928683171E+02  0.12263741290E+01 -0.92245070124E+03  0.92661056078E+03  0.80865169206E+02 0.  0.
      -13    1    4    4    0    0  0.24050322173E+02 -0.73464909145E+01 -0.75873528379E+02  0.79932354113E+02  0.00000000000E+00 0.  1.
       14    1    4    4    0    0  0.98783609986E+01  0.85728650435E+01 -0.84657717286E+03  0.84667820666E+03  0.00000000000E+00 0. -1.
        3    1    3    3  502    0 -0.64917382666E+01  0.20756397187E+02 -0.36387793166E+03  0.36452725527E+03  0.00000000000E+00 0. -1.
       -4    1    3    3    0  502 -0.27436944905E+02 -0.21982771316E+02 -0.73406443458E+02  0.81391241062E+02  0.00000000000E+00 0.  1.
</event>
<event>
 8   1  0.2279600E-02  0.1790000E+03  0.7546771E-02  0.1169009E+00
        2   -1    0    0  501    0  0.00000000000E+00  0.00000000000E+00  0.34125911489E+03  0.34125911489E+03  0.00000000000E+00 0. -1.
       -2   -1    0    0    0  501 -0.00000000000E+00 -0.00000000000E+00 -0.16445267083E+03  0.16445267083E+03  0.00000000000E+00 0.  1.
      -24    2    1    2    0    0  0.11994279322E+02  0.15904873693E+03 -0.77680334474E+02  0.19512876912E+03  0.81244314988E+02 0.  0.
       24    2    1    2    0    0 -0.11994279322E+02 -0.15904873693E+03  0.25448677854E+03  0.31058301660E+03  0.79107055890E+02 0.  0.
      -13    1    4    4    0    0 -0.33372882610E+02 -0.32662851629E+02  0.44135798040E+02  0.64254025857E+02  0.00000000000E+00 0.  1.
       14    1    4    4    0    0  0.21378603288E+02 -0.12638588530E+03  0.21035098050E+03  0.24632899074E+03  0.00000000000E+00 0. -1.
        3    1    3    3  502    0  0.36184197082E+02  0.97424224088E+02 -0.16968250012E+02  0.10530288252E+03  0.00000000000E+00 0. -1.
       -4    1    3    3    0  502 -0.24189917760E+02  0.61624512845E+02 -0.60712084461E+02  0.89825886605E+02  0.00000000000E+00 0.  1.
</event>
<event>
 8   1  0.2279600E-02  0.8986621E+02  0.7546771E-02  0.1313567E+00
        1   -1    0    0  501    0  0.00000000000E+00  0.00000000000E+00  0.30536956142E+04  0.30536956142E+04  0.00000000000E+00 0. -1.
       -1   -1    0    0    0  501 -0.00000000000E+00 -0.00000000000E+00 -0.26486237444E+01  0.26486237444E+01  0.00000000000E+00 0.  1.
       24    2    1    2    0    0  0.81981483951E+01 -0.34126114150E+02  0.78512620004E+03  0.78864210508E+03  0.65585201132E+02 0.  0.
      -24    2    1    2    0    0 -0.81981483951E+01  0.34126114150E+02  0.22659207904E+04  0.22677021329E+04  0.82729279388E+02 0.  0.
      -13    1    3    3    0    0  0.35513450062E+02 -0.21369679342E+02  0.55572411064E+03  0.55726757979E+03  0.00000000000E+00 0.  1.
       14    1    3    3    0    0 -0.27315301667E+02 -0.12756434808E+02  0.22940208940E+03  0.23137452530E+03  0.00000000000E+00 0. -1.
        3    1    4    4  502    0 -0.30586633851E+02  0.39317357587E+02  0.77245041579E+03  0.77405493450E+03  0.00000000000E+00 0. -1.
       -4    1    4    4    0  502  0.22388485455E+02 -0.51912434371E+01  0.14934703746E+04  0.14936471984E+04  0.00000000000E+00 0.  1.
</event>
<event>
 8   1  0.2279600E-02  0.9268272E+02  0.7546771E-02  0.1296609E+00
       -2   -1    0    0    0  501 -0.00000000000E+00  0.00000000000E+00  0.93310061194E+02  0.93310061194E+02  0.00000000000E+00 0.  1.
        2   -1    0    0  501    0  0.00000000000E+00 -0.00000000000E+00 -0.17544375480E+03  0.17544375480E+03  0.00000000000E+00 0. -1.
      -24    2    1    2    0    0 -0.37400956671E+02  0.23892102617E+02  0.51718063494E+02  0.10594601731E+03  0.81118039707E+02 0.  0.
       24    2    1    2    0    0  0.37400956671E+02 -0.23892102617E+02 -0.13385175710E+03  0.16280779868E+03  0.81365977564E+02 0.  0.
      -13    1    4    4    0    0 -0.19876532962E+02  0.22375365983E+01 -0.71328624913E+02  0.74080063881E+02  0.00000000000E+00 0.  1.
       14    1    4    4    0    0  0.57277489633E+02 -0.26129639215E+02 -0.62523132188E+02  0.88727734800E+02  0.00000000000E+00 0. -1.
        1    1    3    3  502    0  0.23607928799E+02  0.20427771728E+02  0.20259966046E+02  0.37216856183E+02  0.00000000000E+00 0. -1.
       -2    1    3    3    0  502 -0.61008885470E+02  0.34643308891E+01  0.31458097448E+02  0.68729161131E+02  0.00000000000E+00 0.  1.
</event>
<event>
 8   1  0.2279600E-02  0.8938418E+02  0.7546771E-02  0.1304693E+00
        2   -1    0    0  501    0  0.00000000000E+00  0.00000000000E+00  0.17745944015E+03  0.17745944015E+03  0.00000000000E+00 0. -1.
       -2   -1    0    0    0  501 -0.00000000000E+00 -0.00000000000E+00 -0.58069023275E+02  0.58069023275E+02  0.00000000000E+00 0.  1.
       24    2    1    2    0    0  0.67446422867E+01  0.36901754436E+02  0.11625920082E+03  0.14664833056E+03  0.81131383568E+02 0.  0.
      -24    2    1    2    0    0 -0.67446422867E+01 -0.36901754436E+02  0.31312160565E+01  0.88880132869E+02  0.80514867104E+02 0.  0.
      -13    1    3    3    0    0  0.35584844932E+02  0.34657953828E+02  0.10395431223E+03  0.11521264680E+03  0.00000000000E+00 0.  1.
       14    1    3    3    0    0 -0.28840202645E+02  0.22438006083E+01  0.12304888589E+02  0.31435683752E+02  0.00000000000E+00 0. -1.
        3    1    4    4  502    0  0.13696479531E+02 -0.57786807877E+02 -0.80018073869E+00  0.59393173054E+02  0.00000000000E+00 0. -1.
       -4    1    4    4    0  502 -0.20441121818E+02  0.20885053441E+02  0.39313967952E+01  0.29486959816E+02  0.00000000000E+00 0.  1.
</event>
<event>
 8   1  0.2279600E-02  0.1023210E+03  0.7546771E-02  0.1276733E+00
        1   -1    0    0  501    0  0.00000000000E+00  0.00000000000E+00  0.81713883537E+03  0.81713883537E+03  0.00000000000E+00 0. -1.
       -1   -1    0    0    0  501 -0.00000000000E+00 -0.00000000000E+00 -0.17536337849E+02  0.17536337849E+02  0.00000000000E+00 0.  1.
       24    2    1    2    0    0 -0.32404574707E+02 -0.50304698311E+02  0.17304341718E+03  0.19981623028E+03  0.80011764868E+02 0.  0.
      -24    2    1    2    0    0  0.32404574707E+02  0.50304698311E+02  0.62655908034E+03  0.63485894294E+03  0.82999862325E+02 0.  0.
      -13    1    3    3    0    0 -0.79867114114E+00 -0.44020365908E+02  0.30216397910E+02  0.53399074832E+02  0.00000000000E+00 0.  1.
       14    1    3    3    0    0 -0.31605903566E+02 -0.62843324033E+01  0.14282701927E+03  0.14641715545E+03  0.00000000000E+00 0. -1.
        1    1    4    4  502    0  0.22980251220E+02  0.71874054678E+02  0.53623552568E+03  0.54151870760E+03  0.00000000000E+00 0. -1.
       -2    1    4    4    0  502  0.94243234867E+01 -0.21569356367E+02  0.90323554654E+02  0.93340235336E+02  0.00000000000E+00 0.  1.
</event>
<event>
 8   1  0.2279600E-02  0.1311109E+03  0.7546771E-02  0.1226044E+00
       -2   -1    0    0    0  501 -0.00000000000E+00  0.00000000000E+00  0.55437541496E+02  0.55437541496E+02  0.00000000000E+00 0.  1.
        2   -1    0    0  501    0  0.00000000000E+00 -0.00000000000E+00 -0.33442306742E+03  0.33442306742E+03  0.00000000000E+00 0. -1.
      -24    2    1    2    0    0 -0.63281097223E+02  0.81800701774E+02 -0.85040248886E+02  0.15575625233E+03  0.79575838877E+02 0.  0.
       24    2    1    2    0    0  0.63281097223E+02 -0.81800701774E+02 -0.19394527704E+03  0.23410435659E+03  0.80586768215E+02 0.  0.
      -13    1    4    4    0    0  0.48177954201E+02 -0.18030860812E+02 -0.14023559792E+03  0.14937285609E+03  0.00000000000E+00 0.  1.
       14    1    4    4    0    0  0.15103143022E+02 -0.63769840962E+02 -0.53709679119E+02  0.84731500497E+02  0.00000000000E+00 0. -1.
        3    1    3    3  502    0 -0.22644104674E+02  0.62386673078E+02 -0.88460968937E+02  0.11059021421E+03  0.00000000000E+00 0. -1.
       -4    1    3    3    0  502 -0.40636992549E+02  0.19414028696E+02  0.34207200508E+01  0.45166038118E+02  0.00000000000E+00 0.  1.
</event>
<event>
 8   1  0.2279600E-02  0.8288049E+02  0.7546771E-02  0.1323569E+00
       -2   -1    0    0    0  501 -0.00000000000E+00  0.00000000000E+00  0.26116060478E+02  0.26116060478E+02  0.00000000000E+00 0.  1.
        2   -1    0    0  501    0  0.00000000000E+00 -0.00000000000E+00 -0.29960589385E+03  0.29960589385E+03  0.00000000000E+00 0. -1.
      -24    2    1    2    0    0  0.78669363676E+01 -0.23250972934E+02 -0.74193322008E+02  0.11123769271E+03  0.79162357333E+02 0.  0.
       24    2    1    2    0    0 -0.78669363676E+01  0.23250972934E+02 -0.19929651137E+03  0.21448426162E+03  0.75378396175E+02 0.  0.
      -13    1    4    4    0    0 -0.57266527399E+01  0.48967701440E+02 -0.94859530077E+02  0.10690631778E+03  0.00000000000E+00 0.  1.
       14    1    4    4    0    0 -0.21402836277E+01 -0.25716728506E+02 -0.10443698129E+03  0.10757794384E+03  0.00000000000E+00 0. -1.
        1    1    3    3  502    0 -0.20050398698E+02  0.13570532409E+02 -0.57009833767E+02  0.61937863895E+02  0.00000000000E+00 0. -1.
       -2    1    3    3    0  502  0.27917335066E+02 -0.36821505343E+02 -0.17183488241E+02  0.49299828814E+02  0.00000000000E+00 0.  1.
</event>
<event>
 8   1  0.2279600E-02  0.9359959E+02  0.7546771E-02  0.1302140E+00
       -1   -1    0    0    0  501 -0.00000000000E+00  0.00000000000E+00  0.17900973367E+02  0.17900973367E+02  0.00000000000E+00 0.  1.
        1   -1    0    0  501    0  0.00000000000E+00 -0.00000000000E+00 -0.65836885843E+03  0.65836885843E+03  0.00000000000E+00 0. -1.
       24    2    1    2    0    0  0.47868802238E+02  0.58953524657E+01 -0.13458285083E+03  0.16393116721E+03  0.80216621941E+02 0.  0.
      -24    2    1    2    0    0 -0.47868802238E+02 -0.58953524657E+01 -0.50588503424E+03  0.51233866459E+03  0.65154140046E+02 0.  0.
      -13    1    3    3    0    0  0.49869557370E+02 -0.28286526894E+02 -0.67097061295E+02  0.88255968583E+02  0.00000000000E+00 0.  1.
       14    1    3    3    0    0 -0.20007551314E+01  0.34181879359E+02 -0.67485789535E+02  0.75675198624E+02  0.00000000000E+00 0. -1.
        3    1    4    4  502    0 -0.63571100348E+02 -0.25305342958E+01 -0.43697515736E+03  0.44158235535E+03  0.00000000000E+00 0. -1.
       -4    1    4    4    0  502  0.15702298110E+02 -0.33648181699E+01 -0.68909876873E+02  0.70756309245E+02  0.00000000000E+00 0.  1.
</event>
<event>
 8   1  0.2279600E-02  0.8181817E+02  0.7546771E-02  0.1324503E+00
       -1   -1    0    0    0  501 -0.00000000000E+00  0.00000000000E+00  0.25760277658E+02  0.25760277658E+02  0.00000000000E+00 0.  1.
        1   -1    0    0  501    0  0.00000000000E+00 -0.00000000000E+00 -0.49265153123E+03  0.49265153123E+03  0.00000000000E+00 0. -1.
       24    2    1    2    0    0  0.71441196159E+01  0.52233037660E+01 -0.54913702903E+02  0.98537948855E+02  0.81338129132E+02 0.  0.
      -24    2    1    2    0    0 -0.71441196159E+01 -0.52233037660E+01 -0.41197755067E+03  0.41987386003E+03  0.80561993130E+02 0.  0.
      -13    1    3    3    0    0  0.13562652801E+02  0.11484652335E+02  0.17870716359E+02  0.25203279418E+02  0.00000000000E+00 0.  1.
       14    1    3    3    0    0 -0.64185331846E+01 -0.62613485689E+01 -0.72784419262E+02  0.73334669437E+02  0.00000000000E+00 0. -1.
        1    1    4    4  502    0 -0.30672209002E+02 -0.26146551422E+02 -0.32269399490E+03  0.32520123139E+03  0.00000000000E+00 0. -1.
       -2    1    4    4    0  502  0.23528089386E+02  0.20923247656E+02 -0.89283555772E+02  0.94672628642E+02  0.00000000000E+00 0.  1.
</event>
<event>
 8   1  0.2279600E-02  0.1060138E+03  0.7546771E-02  0.1268582E+00
       -2   -1    0    0    0  501 -0.00000000000E+00  0.00000000000E+00  0.17897954699E+02  0.17897954699E+02  0.00000000000E+00 0.  1.
        2   -1    0    0  501    0  0.00000000000E+00 -0.00000000000E+00 -0.85447010632E+03  0.85447010632E+03  0.00000000000E+00 0. -1.
      -24    2    1    2    0    0 -0.56955677822E+02  0.35091995566E+02 -0.19235894303E+03  0.21963809654E+03  0.82240702224E+02 0.  0.
       24    2    1    2    0    0  0.56955677822E+02 -0.35091995566E+02 -0.64421320860E+03  0.65272996448E+03  0.81057701703E+02 0.  0.
      -13    1    4    4    0    0  0.62792559920E+01  0.23866568128E+02 -0.10045224020E+03  0.10343932855E+03  0.00000000000E+00 0.  1.
       14    1    4    4    0    0  0.50676421830E+02 -0.58958563694E+02 -0.54376096840E+03  0.54929063593E+03  0.00000000000E+00 0. -1.
        1    1    3    3  502    0 -0.34738549175E+02 -0.17588314293E+02 -0.12683496809E+03  0.13267714471E+03  0.00000000000E+00 0. -1.
       -2    1    3    3    0  502 -0.22217128647E+02  0.52680309859E+02 -0.65523974936E+02  0.86960951832E+02  0.00000000000E+00 0.  1.
</event>
<event>
 8   1  0.2279600E-02  0.1121956E+03  0.7546771E-02  0.1273234E+00
        3   -1    0    0  501    0  0.00000000000E+00  0.00000000000E+00  0.51551634115E+03  0.51551634115E+03  0.00000000000E+00 0. -1.
       -3   -1    0    0    0  501 -0.00000000000E+00 -0.00000000000E+00 -0.19353097248E+02  0.19353097248E+02  0.00000000000E+00 0.  1.
       24    2    1    2    0    0 -0.24630738252E+01 -0.16652804921E+02  0.27762626475E+03  0.28921468162E+03  0.79280555888E+02 0.  0.
      -24    2    1    2    0    0  0.24630738252E+01  0.16652804921E+02  0.21853697916E+03  0.24565475678E+03  0.11092549584E+03 0.  0.
      -13    1    3    3    0    0  0.19522779119E+02 -0.34696777486E+02  0.78004564111E+02  0.87576922158E+02  0.00000000000E+00 0.  1.
       14    1    3    3    0    0 -0.21985852945E+02  0.18043972564E+02  0.19962170064E+03  0.20163775946E+03  0.00000000000E+00 0. -1.
        1    1    4    4  502    0 -0.13817633421E+02  0.46811723895E+02  0.37900633455E+02  0.61795812995E+02  0.00000000000E+00 0. -1.
       -2    1    4    4    0  502  0.16280707246E+02 -0.30158918974E+02  0.18063634570E+03  0.18385894379E+03  0.00000000000E+00 0.  1.
</event>
<event>
 8   1  0.2279600E-02  0.1142860E+03  0.7546771E-02  0.1253056E+00
        2   -1    0    0  501    0  0.00000000000E+00  0.00000000000E+00  0.16381107243E+04  0.16381107243E+04  0.00000000000E+00 0. -1.
       -2   -1    0    0    0  501 -0.00000000000E+00 -0.00000000000E+00 -0.82789842915E+01  0.82789842915E+01  0.00000000000E+00 0.  1.
      -24    2    1    2    0    0 -0.52544196415E+02 -0.61614435133E+02  0.64612769666E+03  0.65606908673E+03  0.79927560834E+02 0.  0.
       24    2    1    2    0    0  0.52544196415E+02  0.61614435133E+02  0.98370404330E+03  0.99032062182E+03  0.80647740116E+02 0.  0.
      -13    1    4    4    0    0  0.39138778176E+02  0.31784388457E+02  0.21158605763E+03  0.21751034708E+03  0.00000000000E+00 0.  1.
       14    1    4    4    0    0  0.13405418238E+02  0.29830046675E+02  0.77211798568E+03  0.77281027473E+03  0.00000000000E+00 0. -1.
        3    1    3    3  502    0 -0.70739088848E+02 -0.32617902816E+02  0.39385371770E+03  0.40148312196E+03  0.00000000000E+00 0. -1.
       -4    1    3    3    0  502  0.18194892433E+02 -0.28996532316E+02  0.25227397896E+03  0.25458596477E+03  0.00000000000E+00 0.  1.
</event>
<event>
 8   1  0.2279600E-02  0.8780999E+02  0.7546771E-02  0.1308931E+00
        1   -1    0    0  501    0  0.00000000000E+00  0.00000000000E+00  0.19845765502E+03  0.19845765502E+03  0.00000000000E+00 0. -1.
       -1   -1    0    0    0  501 -0.00000000000E+00 -0.00000000000E+00 -0.51388401419E+02  0.51388401419E+02  0.00000000000E+00 0.  1.
       24    2    1    2    0    0  0.19964508008E+02  0.23947030255E+02  0.11004902786E+02  0.88496905151E+02  0.82088686784E+02 0.  0.
      -24    2    1    2    0    0 -0.19964508008E+02 -0.23947030255E+02  0.13606435082E+03  0.16134915129E+03  0.80919708480E+02 0.  0.
      -13    1    3    3    0    0 -0.23579260736E+02  0.34923359384E+02  0.11159313060E+02  0.43590742544E+02  0.00000000000E+00 0.  1.
       14    1    3    3    0    0  0.43543768744E+02 -0.10976329129E+02 -0.15441027353E+00  0.44906162608E+02  0.00000000000E+00 0. -1.
        1    1    4    4  502    0 -0.46231648991E+00 -0.22159198596E+02  0.13968571596E+03  0.14143317525E+03  0.00000000000E+00 0. -1.
       -2    1    4    4    0  502 -0.19502191518E+02 -0.17878316591E+01 -0.36213651415E+01  0.19915976038E+02  0.00000000000E+00 0.  1.
</event>
<event>
 8   1  0.2279600E-02  0.1118820E+03  0.7546771E-02  0.1267713E+00
        1   -1    0    0  501    0  0.00000000000E+00  0.00000000000E+00  0.37689116706E+03  0.37689116706E+03  0.00000000000E+00 0. -1.
       -1   -1    0    0    0  501 -0.00000000000E+00 -0.00000000000E+00 -0.10491750187E+03  0.10491750187E+03  0.00000000000E+00 0.  1.
       24    2    1    2    0    0  0.23758052992E+02 -0.35173120344E+02 -0.67297604312E+02  0.13056241761E+03  0.10351803645E+03 0.  0.
      -24    2    1    2    0    0 -0.23758052992E+02  0.35173120344E+02  0.33927126950E+03  0.35124625132E+03  0.80419781663E+02 0.  0.
      -13    1    3    3    0    0  0.36588836898E+02  0.23332485605E+02 -0.53879148850E+02  0.69181721219E+02  0.00000000000E+00 0.  1.
       14    1    3    3    0    0 -0.12830783906E+02 -0.58505605948E+02 -0.13418455462E+02  0.61380696396E+02  0.00000000000E+00 0. -1.
        1    1    4    4  502    0 -0.13056043580E+02 -0.50959275825E+01  0.27032075534E+03  0.27068383682E+03  0.00000000000E+00 0. -1.
       -2    1    4    4    0  502 -0.10702009411E+02  0.40269047926E+02  0.68950514162E+02  0.80562414497E+02  0.00000000000E+00 0.  1.
</event>
<event>
 8   1  0.2279600E-02  0.8468145E+02  0.7546771E-02  0.1319775E+00
       -2   -1    0    0    0  501 -0.00000000000E+00  0.00000000000E+00  0.17547884862E+02  0.17547884862E+02  0.00000000000E+00 0.  1.
        2   -1    0    0  501    0  0.00000000000E+00 -0.00000000000E+00 -0.40329604485E+03  0.40329604485E+03  0.00000000000E+00 0. -1.
      -24    2    1    2    0    0 -0.12394644597E+02  0.21640665561E+02 -0.14125768920E+03  0.16210363977E+03  0.75510990253E+02 0.  0.
       24    2    1    2    0    0  0.12394644597E+02 -0.21640665561E+02 -0.24449047079E+03  0.25874028994E+03  0.80925902592E+02 0.  0.
      -13    1    4    4    0    0 -0.32029861496E+02 -0.23461779206E+02 -0.12965733684E+03  0.13560011839E+03  0.00000000000E+00 0.  1.
       14    1    4    4    0    0  0.44424506093E+02  0.18211136450E+01 -0.11483313395E+03  0.12314017155E+03  0.00000000000E+00 0. -1.
        3    1    3    3  502    0  0.17362501082E+02  0.25862524214E+02 -0.12312051486E+03  0.12699995190E+03  0.00000000000E+00 0. -1.
       -4    1    3    3    0  502 -0.29757145678E+02 -0.42218586532E+01 -0.18137174339E+02  0.35103687875E+02  0.00000000000E+00 0.  1.
</event>
<event>
 8   1  0.2279600E-02  0.8196215E+02  0.7546771E-02  0.1325954E+00
        2   -1    0    0  501    0  0.00000000000E+00  0.00000000000E+00  0.14560216729E+04  0.14560216729E+04  0.00000000000E+00 0. -1.
       -2   -1    0    0    0  501 -0.00000000000E+00 -0.00000000000E+00 -0.74394476406E+02  0.74394476406E+02  0.00000000000E+00 0.  1.
      -24    2    1    2    0    0 -0.13964950374E+02 -0.14883286345E+01 -0.50410940997E+02  0.96223991268E+02  0.80749975618E+02 0.  0.
       24    2    1    2    0    0  0.13964950374E+02  0.14883286345E+01  0.14320381375E+04  0.14341921580E+04  0.77309016196E+02 0.  0.
      -13    1    4    4    0    0  0.34157888836E+02 -0.17912073700E+02  0.42014339421E+03  0.42191003241E+03  0.00000000000E+00 0.  1.
       14    1    4    4    0    0 -0.20192938462E+02  0.19400402335E+02  0.10118947433E+04  0.10122821256E+04  0.00000000000E+00 0. -1.
        3    1    3    3  502    0 -0.11436221664E+02  0.28563751035E+02  0.68366083190E+01  0.31518474779E+02  0.00000000000E+00 0. -1.
       -4    1    3    3    0  502 -0.25287287105E+01 -0.30052079669E+02 -0.57247549316E+02  0.64705516489E+02  0.00000000000E+00 0.  1.
</event>
<event>
 8   1  0.2279600E-02  0.8518253E+02  0.7546771E-02  0.1315180E+00
        2   -1    0    0  501    0  0.00000000000E+00  0.00000000000E+00  0.78924208151E+02  0.78924208151E+02  0.00000000000E+00 0. -1.
       -2   -1    0    0    0  501 -0.00000000000E+00 -0.00000000000E+00 -0.26539084473E+03  0.26539084473E+03  0.00000000000E+00 0.  1.
      -24    2    1    2    0    0  0.10884183921E+02 -0.28380322505E+02 -0.23262610143E+03  0.24773164201E+03  0.79574840382E+02 0.  0.
       24    2    1    2    0    0 -0.10884183921E+02  0.28380322505E+02  0.46159464846E+02  0.96583410875E+02  0.79207012924E+02 0.  0.
      -13    1    4    4    0    0 -0.91456715302E+01 -0.26453860289E+02  0.25796435634E+02  0.38064499515E+02  0.00000000000E+00 0.  1.
       14    1    4    4    0    0 -0.17385123912E+01  0.54834182794E+02  0.20363029212E+02  0.58518911360E+02  0.00000000000E+00 0. -1.
        3    1    3    3  502    0 -0.13087734442E+02 -0.14342189486E+02 -0.73681890886E+01  0.20767219422E+02  0.00000000000E+00 0. -1.
       -4    1    3    3    0  502  0.23971918364E+02 -0.14038133019E+02 -0.22525791234E+03  0.22696442258E+03  0.00000000000E+00 0.  1.
</event>
<event>
 8   1  0.2279600E-02  0.1024413E+03  0.7546771E-02  0.1276056E+00
       -2   -1    0    0    0  501 -0.00000000000E+00  0.00000000000E+00  0.38993188654E+01  0.38993188654E+01  0.00000000000E+00 0.  1.
        2   -1    0    0  501    0  0.00000000000E+00 -0.00000000000E+00 -0.46093137541E+04  0.46093137541E+04  0.00000000000E+00 0. -1.
       24    2    1    2    0    0 -0.13577406717E+02 -0.60795819697E+02 -0.37962785130E+04  0.37976180989E+04  0.79323386264E+02 0.  0.
      -24    2    1    2    0    0  0.13577406717E+02  0.60795819697E+02 -0.80913592232E+03  0.81559497409E+03  0.81324924284E+02 0.  0.
      -13    1    3    3    0    0  0.11177810154E+02 -0.71878278060E+02 -0.29854704551E+04  0.29863565207E+04  0.00000000000E+00 0.  1.
       14    1    3    3    0    0 -0.24755216870E+02  0.11082458363E+02 -0.81080805782E+03  0.81126157820E+03  0.00000000000E+00 0. -1.
        1    1    4    4  502    0  0.85296456955E+00  0.64407548746E+02 -0.78822050334E+03  0.79084803962E+03  0.00000000000E+00 0. -1.
       -2    1    4    4    0  502  0.12724442147E+02 -0.36117290491E+01 -0.20915418978E+02  0.24746934471E+02  0.00000000000E+00 0.  1.
</event>
<event>
 8   1  0.2279600E-02  0.8259935E+02  0.7546771E-02  0.1322957E+00
        2   -1    0    0  501    0  0.00000000000E+00  0.00000000000E+00  0.28860663384E+02  0.28860663384E+02  0.00000000000E+00 0. -1.
       -2   -1    0    0    0  501 -0.00000000000E+00 -0.00000000000E+00 -0.23572883820E+03  0.23572883820E+03  0.00000000000E+00 0.  1.
      -24    2    1    2    0    0 -0.15822942820E+02  0.11417748941E+02 -0.11962637466E+03  0.14444881822E+03  0.78576466327E+02 0.  0.
       24    2    1    2    0    0  0.15822942820E+02 -0.11417748941E+02 -0.87241800156E+02  0.12014068337E+03  0.80261582309E+02 0.  0.
      -13    1    4    4    0    0  0.19664645021E+02  0.77033176307E+01 -0.96334267813E+02  0.98622160397E+02  0.00000000000E+00 0.  1.
       14    1    4    4    0    0 -0.38417022012E+01 -0.19121066571E+02  0.90924676574E+01  0.21518522968E+02  0.00000000000E+00 0. -1.
        1    1    3    3  502    0 -0.14491812129E+02  0.41994166844E+02 -0.42533370254E+02  0.61502928815E+02  0.00000000000E+00 0. -1.
       -2    1    3    3    0  502 -0.13311306913E+01 -0.30576417903E+02 -0.77093004409E+02  0.82945889407E+02  0.00000000000E+00 0.  1.
</event>
<event>
 8   1  0.2279600E-02  0.9016262E+02  0.7546771E-02  0.1302859E+00
       -1   -1    0    0    0  501 -0.00000000000E+00  0.00000000000E+00  0.12773946496E+02  0.12773946496E+02  0.00000000000E+00 0.  1.
        1   -1    0    0  501    0  0.00000000000E+00 -0.00000000000E+00 -0.69885705222E+03  0.69885705222E+03  0.00000000000E+00 0. -1.
       24    2    1    2    0    0  0.40359969837E+02 -0.10560405874E+02 -0.23391588912E+03  0.25069092595E+03  0.79930268549E+02 0.  0.
      -24    2    1    2    0    0 -0.40359969837E+02  0.10560405874E+02 -0.45216721660E+03  0.46094007277E+03  0.79184023506E+02 0.  0.
      -13    1    3    3    0    0  0.12903416280E+02 -0.21680303891E+02 -0.14128474088E+02  0.28916215322E+02  0.00000000000E+00 0.  1.
       14    1    3    3    0    0  0.27456553557E+02  0.11119898016E+02 -0.21978741503E+03  0.22177471062E+03  0.00000000000E+00 0. -1.
        3    1    4    4  502    0 -0.50640371100E+02  0.20539518232E+02 -0.17345192919E+03  0.18185678633E+03  0.00000000000E+00 0. -1.
       -4    1    4    4    0  502  0.10280401263E+02 -0.99791123579E+01 -0.27871528741E+03  0.27908328643E+03  0.00000000000E+00 0.  1.
</event>
<event>
 8   1  0.2279600E-02  0.9531264E+02  0.7546771E-02  0.1293893E+00
        2   -1    0    0  501    0  0.00000000000E+00  0.00000000000E+00  0.17748974782E+04  0.17748974782E+04  0.00000000000E+00 0. -1.
       -2   -1    0    0    0  501 -0.00000000000E+00 -0.00000000000E+00 -0.14623370658E+03  0.14623370658E+03  0.00000000000E+00 0.  1.
      -24    2    1    2    0    0 -0.37822950606E+02  0.10092943407E+02 -0.12944503901E+03  0.16074985888E+03  0.86902565581E+02 0.  0.
       24    2    1    2    0    0  0.37822950606E+02 -0.10092943407E+02  0.17581088107E+04  0.17603813259E+04  0.80395145808E+02 0.  0.
      -13    1    4    4    0    0  0.40789642478E+02  0.28918146347E+02  0.10565463977E+04  0.10577288616E+04  0.00000000000E+00 0.  1.
       14    1    4    4    0    0 -0.29666918721E+01 -0.39011089754E+02  0.70156241300E+03  0.70265246440E+03  0.00000000000E+00 0. -1.
        1    1    3    3  502    0 -0.34054374883E+02 -0.57156364979E+01 -0.45816755792E+01  0.34833327437E+02  0.00000000000E+00 0. -1.
       -2    1    3    3    0  502 -0.37685757230E+01  0.15808579905E+02 -0.12486336344E+03  0.12591653144E+03  0.00000000000E+00 0.  1.
</event>
<event>
 8   1  0.2279600E-02  0.8433044E+02  0.7546771E-02  0.1317743E+00
       -2   -1    0    0    0  501 -0.00000000000E+00  0.00000000000E+00  0.36067338725E+01  0.36067338725E+01  0.00000000000E+00 0.  1.
        2   -1    0    0  501    0  0.00000000000E+00 -0.00000000000E+00 -0.20142612809E+04  0.20142612809E+04  0.00000000000E+00 0. -1.
      -24    2    1    2    0    0  0.22163413329E+02 -0.55702350247E+01 -0.82380114801E+03  0.82802238860E+03  0.80315005766E+02 0.  0.
       24    2    1    2    0    0 -0.22163413329E+02  0.55702350247E+01 -0.11868533991E+04  0.11898456262E+04  0.81174989712E+02 0.  0.
      -13    1    4    4    0    0  0.13470950425E+02  0.35224175745E+02 -0.57912716867E+03  0.58035375983E+03  0.00000000000E+00 0.  1.
       14    1    4    4    0    0 -0.35634363754E+02 -0.29653940720E+02 -0.60772623040E+03  0.60949186639E+03  0.00000000000E+00 0. -1.
        1    1    3    3  502    0  0.24161314801E+02  0.16603799244E+02 -0.75780855474E+03  0.75837540896E+03  0.00000000000E+00 0. -1.
       -2    1    3    3    0  502 -0.19979014720E+01 -0.22174034269E+02 -0.65992593267E+02  0.69646979634E+02  0.00000000000E+00 0.  1.
</event>
<event>
 8   1  0.2279600E-02  0.9724089E+02  0.7546771E-02  0.1286477E+00
        2   -1    0    0  501    0  0.00000000000E+00  0.00000000000E+00  0.74599888470E+03  0.74599888470E+03  0.00000000000E+00 0. -1.
       -2   -1    0    0    0  501 -0.00000000000E+00 -0.00000000000E+00 -0.21735965576E+02  0.21735965576E+02  0.00000000000E+00 0.  1.
       24    2    1    2    0    0 -0.51868455794E+02  0.26950162099E+01  0.61031279876E+03  0.61793357825E+03  0.81624720411E+02 0.  0.
      -24    2    1    2    0    0  0.51868455794E+02 -0.26950162099E+01  0.11395012036E+03  0.14980127202E+03  0.82208219479E+02 0.  0.
      -13    1    3    3    0    0  0.11810031623E+02 -0.29324687596E+01  0.33795703918E+03  0.33817604373E+03  0.00000000000E+00 0.  1.
       14    1    3    3    0    0 -0.63678487417E+02  0.56274849696E+01  0.27235575959E+03  0.27975753453E+03  0.00000000000E+00 0. -1.
        3    1    4    4  502    0  0.70205021760E+01  0.25319812727E+02  0.86134236766E+02  0.90052690746E+02  0.00000000000E+00 0. -1.
       -4    1    4    4    0  502  0.44847953618E+02 -0.28014828937E+02  0.27815883595E+02  0.59748581274E+02  0.00000000000E+00 0.  1.
</event>
<event>
 8   1  0.2279600E-02  0.1014056E+03  0.7546771E-02  0.1277905E+00
       -2   -1    0    0    0  501 -0.00000000000E+00  0.00000000000E+00  0.21870241271E+01  0.21870241271E+01  0.00000000000E+00 0.  1.
        2   -1    0    0  501    0  0.00000000000E+00 -0.00000000000E+00 -0.47571568045E+04  0.47571568045E+04  0.00000000000E+00 0. -1.
      -24    2    1    2    0    0 -0.47394263610E+02  0.37831205501E+02 -0.20151174913E+04  0.20176156032E+04  0.79980011281E+02 0.  0.
       24    2    1    2    0    0  0.47394263610E+02 -0.37831205501E+02 -0.27398522891E+04  0.27417282254E+04  0.81275333446E+02 0.  0.
      -13    1    4    4    0    0  0.29980333862E+02 -0.31706920158E+02 -0.52835528739E+03  0.53015418409E+03  0.00000000000E+00 0.  1.
       14    1    4    4    0    0  0.17413929748E+02 -0.61242853431E+01 -0.22114970017E+04  0.22115740413E+04  0.00000000000E+00 0. -1.
        3    1    3    3  502    0 -0.42432095059E+02  0.21373427491E+02 -0.46856468448E+03  0.47096727024E+03  0.00000000000E+00 0. -1.
       -4    1    3    3    0  502 -0.49621685502E+01  0.16457778010E+02 -0.15465528068E+04  0.15466483330E+04  0.00000000000E+00 0.  1.
</event>
<event>
 8   1  0.2279600E-02  0.8763974E+02  0.7546771E-02  0.1310230E+00
        1   -1    0    0  501    0  0.00000000000E+00  0.00000000000E+00  0.47417964003E+03  0.47417964003E+03  0.00000000000E+00 0. -1.
       -1   -1    0    0    0  501 -0.00000000000E+00 -0.00000000000E+00 -0.16777845784E+02  0.16777845784E+02  0.00000000000E+00 0.  1.
       24    2    1    2    0    0 -0.67663759838E+00  0.25456275662E+02  0.29253782719E+03  0.30538353707E+03  0.83858479398E+02 0.  0.
      -24    2    1    2    0    0  0.67663759838E+00 -0.25456275662E+02  0.16486396706E+03  0.18557394875E+03  0.81296266892E+02 0.  0.
      -13    1    3    3    0    0 -0.24494269270E+02  0.45871158134E+02  0.13327406873E+03  0.14305981187E+03  0.00000000000E+00 0.  1.
       14    1    3    3    0    0  0.23817631671E+02 -0.20414882472E+02  0.15926375845E+03  0.16232372520E+03  0.00000000000E+00 0. -1.
        1    1    4    4  502    0 -0.17807532697E+02 -0.45276091091E+02  0.14204248666E+03  0.15014360014E+03  0.00000000000E+00 0. -1.
       -2    1    4    4    0  502  0.18484170295E+02  0.19819815429E+02  0.22821480396E+02  0.35430348610E+02  0.00000000000E+00 0.  1.
</event>
<event>
 8   1  0.2279600E-02  0.9187814E+02  0.7546771E-02  0.1298563E+00
        1   -1    0    0  501    0  0.00000000000E+00  0.00000000000E+00  0.12527629591E+03  0.12527629591E+03  0.00000000000E+00 0. -1.
       -1   -1    0    0    0  501 -0.00000000000E+00 -0.00000000000E+00 -0.11386306556E+03  0.11386306556E+03  0.00000000000E+00 0.  1.
       24    2    1    2    0    0  0.92512244298E+01  0.43992899806E+02 -0.70894383560E+02  0.11578566160E+03  0.79745504102E+02 0.  0.
      -24    2    1    2    0    0 -0.92512244298E+01 -0.43992899806E+02  0.82307613913E+02  0.12335369987E+03  0.80128843603E+02 0.  0.
      -13    1    3    3    0    0  0.12166430935E+02  0.66313850349E+02 -0.43102923751E+02  0.80021314821E+02  0.00000000000E+00 0.  1.
       14    1    3    3    0    0 -0.29152065049E+01 -0.22320950543E+02 -0.27791459808E+02  0.35764346777E+02  0.00000000000E+00 0. -1.
        3    1    4    4  502    0  0.10911720875E+02 -0.11025993874E+02  0.83265120452E+02  0.84697806803E+02  0.00000000000E+00 0. -1.
       -4    1    4    4    0  502 -0.20162945305E+02 -0.32966905933E+02 -0.95750653872E+00  0.38655893068E+02  0.00000000000E+00 0.  1.
</event>
<event>
 8   1  0.2279600E-02  0.9286857E+02  0.7546771E-02  0.1296817E+00
        1   -1    0    0  501    0  0.00000000000E+00  0.00000000000E+00  0.89586152964E+02  0.89586152964E+02  0.00000000000E+00 0. -1.
       -1   -1    0    0    0  501 -0.00000000000E+00 -0.00000000000E+00 -0.10150657524E+03  0.10150657524E+03  0.00000000000E+00 0.  1.
       24    2    1    2    0    0  0.42621699234E+02  0.58600777187E+01  0.18344244859E+02  0.94662993628E+02  0.82302012653E+02 0.  0.
      -24    2    1    2    0    0 -0.42621699234E+02 -0.58600777187E+01 -0.30264667134E+02  0.96429734576E+02  0.80819514210E+02 0.  0.
      -13    1    3    3    0    0 -0.85564397209E+01  0.29295204576E+02  0.22951289384E+02  0.38186167080E+02  0.00000000000E+00 0.  1.
       14    1    3    3    0    0  0.51178138955E+02 -0.23435126857E+02 -0.46070445253E+01  0.56476826548E+02  0.00000000000E+00 0. -1.
        1    1    4    4  502    0 -0.15386251019E+02 -0.33925742876E+02  0.11720439567E+02  0.39052035206E+02  0.00000000000E+00 0. -1.
       -2    1    4    4    0  502 -0.27235448215E+02  0.28065665157E+02 -0.41985106702E+02  0.57377699370E+02  0.00000000000E+00 0.  1.
</event>
<event>
 8   1  0.2279600E-02  0.2890840E+03  0.7546771E-02  0.1090905E+00
        1   -1    0    0  501    0  0.00000000000E+00  0.00000000000E+00  0.11694938574E+04  0.11694938574E+04  0.00000000000E+00 0. -1.
       -1   -1    0    0    0  501 -0.00000000000E+00 -0.00000000000E+00 -0.13585145246E+03  0.13585145246E+03  0.00000000000E+00 0.  1.
       24    2    1    2    0    0 -0.18113737890E+03 -0.21056719113E+03  0.67241530975E+02  0.29680126310E+03  0.80126614036E+02 0.  0.
      -24    2    1    2    0    0  0.18113737890E+03  0.21056719113E+03  0.96640087397E+03  0.10085440468E+04  0.77981748054E+02 0.  0.
      -13    1    3    3    0    0 -0.16409047196E+03 -0.17009465982E+03  0.28161485033E+02  0.23801459099E+03  0.00000000000E+00 0.  1.
       14    1    3    3    0    0 -0.17046906941E+02 -0.40472531311E+02  0.39080045941E+02  0.58786672110E+02  0.00000000000E+00 0. -1.
        1    1    4    4  502    0  0.12392666637E+03  0.18804603030E+03  0.70934891661E+03  0.74424123351E+03  0.00000000000E+00 0. -1.
       -2    1    4    4    0  502  0.57210712523E+02  0.22521160829E+02  0.25705195736E+03  0.26430281325E+03  0.00000000000E+00 0.  1.
</event>
<event>
 8   1  0.2279600E-02  0.8715997E+02  0.7546771E-02  0.1313972E+00
        2   -1    0    0  501    0  0.00000000000E+00  0.00000000000E+00  0.26217371700E+02  0.26217371700E+02  0.00000000000E+00 0. -1.
       -2   -1    0    0    0  501 -0.00000000000E+00 -0.00000000000E+00 -0.27429163078E+03  0.27429163078E+03  0.00000000000E+00 0.  1.
      -24    2    1    2    0    0  0.27545865556E+02 -0.20017755647E+02 -0.13947623359E+03  0.16125961870E+03  0.73427240435E+02 0.  0.
       24    2    1    2    0    0 -0.27545865556E+02  0.20017755647E+02 -0.10859802550E+03  0.13924938378E+03  0.80233250534E+02 0.  0.
      -13    1    4    4    0    0 -0.30462285999E+02  0.38258251107E+02 -0.11034322382E+03  0.12069495304E+03  0.00000000000E+00 0.  1.
       14    1    4    4    0    0  0.29164204432E+01 -0.18240495460E+02  0.17451983271E+01  0.18554430739E+02  0.00000000000E+00 0. -1.
        1    1    3    3  502    0  0.49883576490E+02 -0.24430677655E+02 -0.11568306161E+03  0.12832692609E+03  0.00000000000E+00 0. -1.
       -2    1    3    3    0  502 -0.22337710934E+02  0.44129220084E+01 -0.23793171972E+02  0.32932692616E+02  0.00000000000E+00 0.  1.
</event>
<event>
 8   1  0.2279600E-02  0.1184546E+03  0.7546771E-02  0.1245813E+00
       -1   -1    0    0    0  501 -0.00000000000E+00  0.00000000000E+00  0.15220814061E+03  0.15220814061E+03  0.00000000000E+00 0.  1.
        1   -1    0    0  501    0  0.00000000000E+00 -0.00000000000E+00 -0.44566152683E+03  0.44566152683E+03  0.00000000000E+00 0. -1.
       24    2    1    2    0    0  0.75760121629E+02 -0.41113537748E+02  0.11955782920E+03  0.16830203879E+03  0.81250124452E+02 0.  0.
      -24    2    1    2    0    0 -0.75760121629E+02  0.41113537748E+02 -0.41301121542E+03  0.42956762865E+03  0.80747535616E+02 0.  0.
      -13    1    3    3    0    0  0.61878342325E+02 -0.24931779553E+02  0.12881024953E+03  0.14506068821E+03  0.00000000000E+00 0.  1.
       14    1    3    3    0    0  0.13881779304E+02 -0.16181758196E+02 -0.92524203290E+01  0.23241350582E+02  0.00000000000E+00 0. -1.
        1    1    4    4  502    0 -0.91694942389E+02  0.41381585722E+02 -0.32819784959E+03  0.34326990339E+03  0.00000000000E+00 0. -1.
       -2    1    4    4    0  502  0.15934820761E+02 -0.26804797344E+00 -0.84813365829E+02  0.86297725263E+02  0.00000000000E+00 0.  1.
</event>
<event>
 8   1  0.2279600E-02  0.1209060E+03  0.7546771E-02  0.1241633E+00
       -2   -1    0    0    0  501 -0.00000000000E+00  0.00000000000E+00  0.31672695474E+02  0.31672695474E+02  0.00000000000E+00 0.  1.
        2   -1    0    0  501    0  0.00000000000E+00 -0.00000000000E+00 -0.48489072952E+03  0.48489072952E+03  0.00000000000E+00 0. -1.
       24    2    1    2    0    0  0.19380588454E+02 -0.88509452504E+02 -0.28360041902E+03  0.30829766552E+03  0.80054497078E+02 0.  0.
      -24    2    1    2    0    0 -0.19380588454E+02  0.88509452504E+02 -0.16961761502E+03  0.20826575947E+03  0.79968499125E+02 0.  0.
      -13    1    3    3    0    0  0.38464114987E+02 -0.10667680509E+02 -0.77809199392E+02  0.87450323380E+02  0.00000000000E+00 0.  1.
       14    1    3    3    0    0 -0.19083526533E+02 -0.77841771995E+02 -0.20579121963E+03  0.22084734214E+03  0.00000000000E+00 0. -1.
        1    1    4    4  502    0 -0.17262181545E+02  0.82705605575E+02 -0.17847715095E+03  0.19746466397E+03  0.00000000000E+00 0. -1.
       -2    1    4    4    0  502 -0.21184069091E+01  0.58038469286E+01  0.88595359349E+01  0.10801095499E+02  0.00000000000E+00 0.  1.
</event>
<event>
 8   1  0.2279600E-02  0.1217590E+03  0.7546771E-02  0.1249957E+00
        2   -1    0    0  501    0  0.00000000000E+00  0.00000000000E+00  0.13073781248E+03  0.13073781248E+03  0.00000000000E+00 0. -1.
       -2   -1    0    0    0  501 -0.00000000000E+00 -0.00000000000E+00 -0.23617166979E+03  0.23617166979E+03  0.00000000000E+00 0.  1.
      -24    2    1    2    0    0 -0.59719658621E+02  0.41878473819E+01 -0.19678286994E+03  0.23140602603E+03  0.10602488053E+03 0.  0.
       24    2    1    2    0    0  0.59719658621E+02 -0.41878473819E+01  0.91349012635E+02  0.13550345623E+03  0.80203296999E+02 0.  0.
      -13    1    4    4    0    0  0.15630565734E+02  0.70978984839E+01 -0.13084241554E+02  0.21584534396E+02  0.00000000000E+00 0.  1.
       14    1    4    4    0    0  0.44089092888E+02 -0.11285745866E+02  0.10443325419E+03  0.11391892183E+03  0.00000000000E+00 0. -1.
        3    1    3    3  502    0 -0.24515722268E+02 -0.22645550435E+02 -0.40075292850E+01  0.33614013206E+02  0.00000000000E+00 0. -1.
       -4    1    3    3    0  502 -0.35203936353E+02  0.26833397816E+02 -0.19277534066E+03  0.19779201283E+03  0.00000000000E+00 0.  1.
</event>
<event>
 8   1  0.2279600E-02  0.1057081E+03  0.7546771E-02  0.1269500E+00
       -3   -1    0    0    0  501 -0.00000000000E+00  0.00000000000E+00  0.60492216826E+02  0.60492216826E+02  0.00000000000E+00 0.  1.
        3   -1    0    0  501    0  0.00000000000E+00 -0.00000000000E+00 -0.18214295426E+03  0.18214295426E+03  0.00000000000E+00 0. -1.
       24    2    1    2    0    0  0.54730490548E+02  0.43356563773E+02 -0.56983912936E+02  0.11871582309E+03  0.77272647820E+02 0.  0.
      -24    2    1    2    0    0 -0.54730490548E+02 -0.43356563773E+02 -0.64666824494E+02  0.12391934799E+03  0.79366166583E+02 0.  0.
      -13    1    3    3    0    0  0.22115799053E+02  0.11382784590E+02  0.18148390721E+02  0.30790265321E+02  0.00000000000E+00 0.  1.
       14    1    3    3    0    0  0.32614691494E+02  0.31973779183E+02 -0.75132303657E+02  0.87925557771E+02  0.00000000000E+00 0. -1.
        3    1    4    4  502    0  0.16084996182E+02 -0.66573461690E+01 -0.34503452235E+02  0.38646288002E+02  0.00000000000E+00 0. -1.
       -4    1    4    4    0  502 -0.70815486730E+02 -0.36699217604E+02 -0.30163372258E+02  0.85273059987E+02  0.00000000000E+00 0.  1.
</event>
<event>
 8   1  0.2279600E-02  0.1185983E+03  0.7546771E-02  0.1245622E+00
       -1   -1    0    0    0  501 -0.00000000000E+00  0.00000000000E+00  0.20224455330E+02  0.20224455330E+02  0.00000000000E+00 0.  1.
        1   -1    0    0  501    0  0.00000000000E+00 -0.00000000000E+00 -0.71006357600E+03  0.71006357600E+03  0.00000000000E+00 0. -1.
       24    2    1    2    0    0  0.80561020438E+02 -0.32801420701E+02 -0.28857093199E+03  0.31199156458E+03  0.80619739309E+02 0.  0.
      -24    2    1    2    0    0 -0.80561020438E+02  0.32801420701E+02 -0.40126818867E+03  0.41829646674E+03  0.79935997112E+02 0.  0.
      -13    1    3    3    0    0  0.44023876002E+02 -0.28802214426E+02 -0.57179801098E+02  0.77699413561E+02  0.00000000000E+00 0.  1.
       14    1    3    3    0    0  0.36537144436E+02 -0.39992062749E+01 -0.23139113089E+03  0.23429215102E+03  0.00000000000E+00 0. -1.
        3    1    4    4  502    0 -0.83449884497E+02  0.24615470768E+02 -0.40020222876E+03  0.40955052012E+03  0.00000000000E+00 0. -1.
       -4    1    4    4    0  502  0.28888640595E+01  0.81859499327E+01 -0.10659599144E+01  0.87459466265E+01  0.00000000000E+00 0.  1.
</event>
<event>
 8   1  0.2279600E-02  0.8577990E+02  0.7546771E-02  0.1314389E+00
       -2   -1    0    0    0  501 -0.00000000000E+00  0.00000000000E+00  0.32354995621E+02  0.32354995621E+02  0.00000000000E+00 0.  1.
        2   -1    0    0  501    0  0.00000000000E+00 -0.00000000000E+00 -0.40063956018E+03  0.40063956018E+03  0.00000000000E+00 0. -1.
      -24    2    1    2    0    0  0.21401713923E+02 -0.23728292841E+02 -0.39252075709E+02  0.92964307786E+02  0.77978021485E+02 0.  0.
       24    2    1    2    0    0 -0.21401713923E+02  0.23728292841E+02 -0.32903248885E+03  0.34003024802E+03  0.79606065132E+02 0.  0.
      -13    1    4    4    0    0 -0.44834740420E+02  0.16929197233E+02 -0.11464416310E+03  0.12425794059E+03  0.00000000000E+00 0.  1.
       14    1    4    4    0    0  0.23433026497E+02  0.67990956075E+01 -0.21438832575E+03  0.21577230742E+03  0.00000000000E+00 0. -1.
        3    1    3    3  502    0 -0.26347108077E+02 -0.13330864178E+02 -0.32033388623E+02  0.43566271707E+02  0.00000000000E+00 0. -1.
       -4    1    3    3    0  502  0.47748822000E+02 -0.10397428663E+02 -0.72186870854E+01  0.49398036079E+02  0.00000000000E+00 0.  1.
</event>
<event>
 8   1  0.2279600E-02  0.8325257E+02  0.7546771E-02  0.1321817E+00
       -2   -1    0    0    0  501 -0.00000000000E+00  0.00000000000E+00  0.73950489862E+01  0.73950489862E+01  0.00000000000E+00 0.  1.
        2   -1    0    0  501    0  0.00000000000E+00 -0.00000000000E+00 -0.10969209217E+04  0.10969209217E+04  0.00000000000E+00 0. -1.
      -24    2    1    2    0    0 -0.76194209589E+01 -0.11177565702E+02 -0.32307976764E+03  0.33363382204E+03  0.82146195265E+02 0.  0.
       24    2    1    2    0    0  0.76194209589E+01  0.11177565702E+02 -0.76644610504E+03  0.77068214862E+03  0.79550919015E+02 0.  0.
      -13    1    4    4    0    0  0.17061162304E+02 -0.30183283969E+02 -0.23480840389E+03  0.23735437731E+03  0.00000000000E+00 0.  1.
       14    1    4    4    0    0 -0.94417413448E+01  0.41360849672E+02 -0.53163770115E+03  0.53332777131E+03  0.00000000000E+00 0. -1.
        1    1    3    3  502    0  0.35849615508E+02 -0.14907981159E+00 -0.10383849299E+03  0.10985285515E+03  0.00000000000E+00 0. -1.
       -2    1    3    3    0  502 -0.43469036467E+02 -0.11028485891E+02 -0.21924127465E+03  0.22378096689E+03  0.00000000000E+00 0.  1.
</event>
<event>
 8   1  0.2279600E-02  0.8908318E+02  0.7546771E-02  0.1306099E+00
        2   -1    0    0  501    0  0.00000000000E+00  0.00000000000E+00  0.19030305251E+04  0.19030305251E+04  0.00000000000E+00 0. -1.
       -2   -1    0    0    0  501 -0.00000000000E+00 -0.00000000000E+00 -0.59857940241E+01  0.59857940241E+01  0.00000000000E+00 0.  1.
      -24    2    1    2    0    0  0.38270879948E+01 -0.34056074887E+02  0.40594106242E+03  0.41525396743E+03  0.80456500466E+02 0.  0.
       24    2    1    2    0    0 -0.38270879948E+01  0.34056074887E+02  0.14911036687E+04  0.14937623517E+04  0.82227427447E+02 0.  0.
      -13    1    4    4    0    0  0.48136689504E+01 -0.26701360944E+02  0.53961972697E+03  0.54030138240E+03  0.00000000000E+00 0.  1.
       14    1    4    4    0    0 -0.86407569452E+01  0.60757435831E+02  0.95148394169E+03  0.95346096930E+03  0.00000000000E+00 0. -1.
        3    1    3    3  502    0  0.11952557729E+02 -0.37125594321E+02  0.40458768435E+03  0.40646324276E+03  0.00000000000E+00 0. -1.
       -4    1    3    3    0  502 -0.81254697344E+01  0.30695194337E+01  0.13533780712E+01  0.87907246665E+01  0.00000000000E+00 0.  1.
</event>
<event>
 8   1  0.2279600E-02  0.8407714E+02  0.7546771E-02  0.1319056E+00
        3   -1    0    0  501    0  0.00000000000E+00  0.00000000000E+00  0.90959265658E+03  0.90959265658E+03  0.00000000000E+00 0. -1.
       -3   -1    0    0    0  501 -0.00000000000E+00 -0.00000000000E+00 -0.92978148598E+01  0.92978148598E+01  0.00000000000E+00 0.  1.
       24    2    1    2    0    0 -0.33135780383E+01  0.17142262517E+02  0.25036903911E+03  0.26354894637E+03  0.80427323847E+02 0.  0.
      -24    2    1    2    0    0  0.33135780383E+01 -0.17142262517E+02  0.64992580261E+03  0.65534152507E+03  0.82244322761E+02 0.  0.
      -13    1    3    3    0    0 -0.55702793982E+01 -0.10893110431E+02  0.65104657000E+00  0.12252009185E+02  0.00000000000E+00 0.  1.
       14    1    3    3    0    0  0.22567013599E+01  0.28035372948E+02  0.24971799254E+03  0.25129693718E+03  0.00000000000E+00 0. -1.
        1    1    4    4  502    0  0.11305284067E+02 -0.41540448776E+02  0.56454781276E+03  0.56618694017E+03  0.00000000000E+00 0. -1.
       -2    1    4    4    0  502 -0.79917060290E+01  0.24398186259E+02  0.85377989849E+02  0.89154584900E+02  0.00000000000E+00 0.  1.
</event>
<event>
 8   1  0.2279600E-02  0.9643551E+02  0.7546771E-02  0.1288038E+00
        2   -1    0    0  501    0  0.00000000000E+00  0.00000000000E+00  0.68667077941E+02  0.68667077941E+02  0.00000000000E+00 0. -1.
       -2   -1    0    0    0  501 -0.00000000000E+00 -0.00000000000E+00 -0.17435872432E+03  0.17435872432E+03  0.00000000000E+00 0.  1.
       24    2    1    2    0    0  0.46518794503E+02 -0.22277226966E+02  0.47105082550E+01  0.96436431088E+02  0.81348160825E+02 0.  0.
      -24    2    1    2    0    0 -0.46518794503E+02  0.22277226966E+02 -0.11040215463E+03  0.14658937117E+03  0.81483341301E+02 0.  0.
      -13    1    3    3    0    0  0.29739349832E+01 -0.17596083601E+02 -0.33732286766E+02  0.38161939388E+02  0.00000000000E+00 0.  1.
       14    1    3    3    0    0  0.43544859520E+02 -0.46811433642E+01  0.38442795021E+02  0.58274491700E+02  0.00000000000E+00 0. -1.
        1    1    4    4  502    0 -0.16594321170E+02  0.10866179691E+01 -0.10861233120E+03  0.10987807207E+03  0.00000000000E+00 0. -1.
       -2    1    4    4    0  502 -0.29924473333E+02  0.21190608997E+02 -0.17898234374E+01  0.36711299103E+02  0.00000000000E+00 0.  1.
</event>
<event>
 8   1  0.2279600E-02  0.8138563E+02  0.7546771E-02  0.1327625E+00
        2   -1    0    0  501    0  0.00000000000E+00  0.00000000000E+00  0.38369666800E+03  0.38369666800E+03  0.00000000000E+00 0. -1.
       -2   -1    0    0    0  501 -0.00000000000E+00 -0.00000000000E+00 -0.27152917219E+02  0.27152917219E+02  0.00000000000E+00 0.  1.
      -24    2    1    2    0    0 -0.57239679895E+01 -0.16733207810E+02  0.52194618671E+02  0.96684537386E+02  0.79440905699E+02 0.  0.
       24    2    1    2    0    0  0.57239679895E+01  0.16733207810E+02  0.30434913211E+03  0.31416504783E+03  0.75884906341E+02 0.  0.
      -13    1    4    4    0    0  0.37300384002E+01  0.76980493752E+01 -0.10566458756E+01  0.86191444561E+01  0.00000000000E+00 0.  1.
       14    1    4    4    0    0  0.19939295893E+01  0.90351584351E+01  0.30540577799E+03  0.30554590338E+03  0.00000000000E+00 0. -1.
        3    1    3    3  502    0 -0.29912643685E+02  0.21002748813E+02  0.24304232495E+02  0.43892794706E+02  0.00000000000E+00 0. -1.
       -4    1    3    3    0  502  0.24188675695E+02 -0.37735956624E+02  0.27890386175E+02  0.52791742680E+02  0.00000000000E+00 0.  1.
</event>
<event>
 8   1  0.2279600E-02  0.1019673E+03  0.7546771E-02  0.1280740E+00
       -2   -1    0    0    0  501 -0.00000000000E+00  0.00000000000E+00  0.58513454224E+01  0.58513454224E+01  0.00000000000E+00 0.  1.
        2   -1    0    0  501    0  0.00000000000E+00 -0.00000000000E+00 -0.20535188490E+04  0.20535188490E+04  0.00000000000E+00 0. -1.
      -24    2    1    2    0    0  0.17358892835E+02  0.45150728021E+02 -0.59331770292E+03  0.60201597323E+03  0.89763110568E+02 0.  0.
       24    2    1    2    0    0 -0.17358892835E+02 -0.45150728021E+02 -0.14543498006E+04  0.14573542211E+04  0.80050383925E+02 0.  0.
      -13    1    4    4    0    0 -0.47224981993E+02 -0.39937799255E+02 -0.10855009675E+04  0.10872615036E+04  0.00000000000E+00 0.  1.
       14    1    4    4    0    0  0.29866089158E+02 -0.52129287658E+01 -0.36884883308E+03  0.37009271754E+03  0.00000000000E+00 0. -1.
        3    1    3    3  502    0  0.45238738211E+02  0.56042532849E+02 -0.41481329401E+03  0.42101945064E+03  0.00000000000E+00 0. -1.
       -4    1    3    3    0  502 -0.27879845375E+02 -0.10891804828E+02 -0.17850440891E+03  0.18099652259E+03  0.00000000000E+00 0.  1.
</event>
<event>
 8   1  0.2279600E-02  0.8242574E+02  0.7546771E-02  0.1322616E+00
        2   -1    0    0  501    0  0.00000000000E+00  0.00000000000E+00  0.16842214348E+04  0.16842214348E+04  0.00000000000E+00 0. -1.
       -2   -1    0    0    0  501 -0.00000000000E+00 -0.00000000000E+00 -0.50173986462E+01  0.50173986462E+01  0.00000000000E+00 0.  1.
       24    2    1    2    0    0  0.38709809769E+01 -0.18979047008E+02  0.12196064611E+04  0.12223886139E+04  0.80117504589E+02 0.  0.
      -24    2    1    2    0    0 -0.38709809769E+01  0.18979047008E+02  0.45959757504E+03  0.46685021961E+03  0.79649280240E+02 0.  0.
      -13    1    3    3    0    0 -0.25005179842E+02 -0.26392045640E+02  0.28537238797E+03  0.28767898586E+03  0.00000000000E+00 0.  1.
       14    1    3    3    0    0  0.28876160819E+02  0.74129986313E+01  0.93423407318E+03  0.93470962801E+03  0.00000000000E+00 0. -1.
        3    1    4    4  502    0  0.34389407600E+02 -0.14046243910E+00  0.28604563873E+03  0.28810546423E+03  0.00000000000E+00 0. -1.
       -4    1    4    4    0  502 -0.38260388577E+02  0.19119509448E+02  0.17355193631E+03  0.17874475538E+03  0.00000000000E+00 0.  1.
</event>
<event>
 8   1  0.2279600E-02  0.9952325E+02  0.7546771E-02  0.1283643E+00
       -2   -1    0    0    0  501 -0.00000000000E+00  0.00000000000E+00  0.25476883750E+02  0.25476883750E+02  0.00000000000E+00 0.  1.
        2   -1    0    0  501    0  0.00000000000E+00 -0.00000000000E+00 -0.37292134413E+03  0.37292134413E+03  0.00000000000E+00 0. -1.
      -24    2    1    2    0    0 -0.46709165575E+02 -0.52722816667E+01 -0.16042966165E+03  0.18655061217E+03  0.82788353397E+02 0.  0.
       24    2    1    2    0    0  0.46709165575E+02  0.52722816667E+01 -0.18701479872E+03  0.21184761571E+03  0.87723054203E+02 0.  0.
      -13    1    4    4    0    0  0.72633904966E+02 -0.16477014259E+01 -0.13393472536E+03  0.15237096091E+03  0.00000000000E+00 0.  1.
       14    1    4    4    0    0 -0.25924739391E+02  0.69199830926E+01 -0.53080073363E+02  0.59476654804E+02  0.00000000000E+00 0. -1.
        1    1    3    3  502    0 -0.64401867196E+02 -0.20511368584E+02 -0.91384416546E+02  0.11366366318E+03  0.00000000000E+00 0. -1.
       -2    1    3    3    0  502  0.17692701621E+02  0.15239086917E+02 -0.69045245109E+02  0.72886948988E+02  0.00000000000E+00 0.  1.
</event>
<event>
 8   1  0.2279600E-02  0.1004633E+03  0.7546771E-02  0.1281546E+00
       -1   -1    0    0    0  501 -0.00000000000E+00  0.00000000000E+00  0.34197456022E+03  0.34197456022E+03  0.00000000000E+00 0.  1.
        1   -1    0    0  501    0  0.00000000000E+00 -0.00000000000E+00 -0.11811250261E+03  0.11811250261E+03  0.00000000000E+00 0. -1.
       24    2    1    2    0    0  0.48955796319E+00 -0.57070848019E+02  0.31194748371E+03  0.32647602504E+03  0.77576033504E+02 0.  0.
      -24    2    1    2    0    0 -0.48955796319E+00  0.57070848019E+02 -0.88085426090E+02  0.13361103779E+03  0.82677359475E+02 0.  0.
      -13    1    3    3    0    0  0.57164653122E+00 -0.38095035056E+02  0.30319395544E+03  0.30557835834E+03  0.00000000000E+00 0.  1.
       14    1    3    3    0    0 -0.82088568035E-01 -0.18975812962E+02  0.87535282710E+01  0.20897666695E+02  0.00000000000E+00 0. -1.
        3    1    4    4  502    0 -0.23471906856E+02  0.69917382853E+02 -0.59622263728E+02  0.94837678001E+02  0.00000000000E+00 0. -1.
       -4    1    4    4    0  502  0.22982348893E+02 -0.12846534834E+02 -0.28463162362E+02  0.38773359792E+02  0.00000000000E+00 0.  1.
</event>
<event>
 8   1  0.2279600E-02  0.1143774E+03  0.7546771E-02  0.1259562E+00
       -2   -1    0    0    0  501 -0.00000000000E+00  0.00000000000E+00  0.84362252141E+02  0.84362252141E+02  0.00000000000E+00 0.  1.
        2   -1    0    0  501    0  0.00000000000E+00 -0.00000000000E+00 -0.13846020060E+03  0.13846020060E+03  0.00000000000E+00 0. -1.
      -24    2    1    2    0    0 -0.36738900662E+02 -0.49587447898E+02 -0.10257348322E+02  0.10033088680E+03  0.78437311531E+02 0.  0.
       24    2    1    2    0    0  0.36738900662E+02  0.49587447898E+02 -0.43840600139E+02  0.12249156595E+03  0.96299136529E+02 0.  0.
      -13    1    4    4    0    0  0.48366486195E+02 -0.12943729782E+02 -0.12596699407E+02  0.51628809434E+02  0.00000000000E+00 0.  1.
       14    1    4    4    0    0 -0.11627585533E+02  0.62531177681E+02 -0.31243900732E+02  0.70862756512E+02  0.00000000000E+00 0. -1.
        3    1    3    3  502    0 -0.50070241495E+02 -0.40228433046E+01 -0.15497116965E+02  0.52567794189E+02  0.00000000000E+00 0. -1.
       -4    1    3    3    0  502  0.13331340833E+02 -0.45564604594E+02  0.52397686431E+01  0.47763092609E+02  0.00000000000E+00 0.  1.
</event>
<event>
 8   1  0.2279600E-02  0.1102740E+03  0.7546771E-02  0.1260956E+00
       -2   -1    0    0    0  501 -0.00000000000E+00  0.00000000000E+00  0.26127762486E+03  0.26127762486E+03  0.00000000000E+00 0.  1.
        2   -1    0    0  501    0  0.00000000000E+00 -0.00000000000E+00 -0.70759386305E+02  0.70759386305E+02  0.00000000000E+00 0. -1.
      -24    2    1    2    0    0  0.50973900874E+02 -0.37429652962E+02  0.19452162224E+03  0.22360460326E+03  0.90338472355E+02 0.  0.
       24    2    1    2    0    0 -0.50973900874E+02  0.37429652962E+02 -0.40033836870E+01  0.10843240791E+03  0.87990013708E+02 0.  0.
      -13    1    4    4    0    0  0.16314180227E+02 -0.67776660499E+01  0.17741410656E+02  0.25036910465E+02  0.00000000000E+00 0.  1.
       14    1    4    4    0    0 -0.67288081101E+02  0.44207319012E+02 -0.21744794343E+02  0.83395497442E+02  0.00000000000E+00 0. -1.
        3    1    3    3  502    0 -0.14559789414E+02 -0.38121179032E+02  0.47399254858E+02  0.62545192619E+02  0.00000000000E+00 0. -1.
       -4    1    3    3    0  502  0.65533690288E+02  0.69152607023E+00  0.14712236738E+03  0.16105941064E+03  0.00000000000E+00 0.  1.
</event>
<event>
 8   1  0.2279600E-02  0.1200490E+03  0.7546771E-02  0.1243341E+00
        4   -1    0    0  501    0  0.00000000000E+00  0.00000000000E+00  0.58912828774E+03  0.58912828774E+03  0.00000000000E+00 0. -1.
       -4   -1    0    0    0  501 -0.00000000000E+00 -0.00000000000E+00 -0.34346459350E+02  0.34346459350E+02  0.00000000000E+00 0.  1.
      -24    2    1    2    0    0 -0.12561676020E+02  0.87268031099E+02  0.10946392022E+03  0.16246267359E+03  0.81475551703E+02 0.  0.
       24    2    1    2    0    0  0.12561676020E+02 -0.87268031099E+02  0.44531790817E+03  0.46101207350E+03  0.80315550265E+02 0.  0.
      -13    1    4    4    0    0 -0.26843010298E+02 -0.17383814315E+02  0.66479312621E+02  0.73771560974E+02  0.00000000000E+00 0.  1.
       14    1    4    4    0    0  0.39404686318E+02 -0.69884216784E+02  0.37883859555E+03  0.38724051252E+03  0.00000000000E+00 0. -1.
        3    1    3    3  502    0 -0.28097336669E+02 -0.26538661811E+01  0.32876144091E+02  0.43328330038E+02  0.00000000000E+00 0. -1.
       -4    1    3    3    0  502  0.15535660649E+02  0.89921897280E+02  0.76587776129E+02  0.11913434356E+03  0.00000000000E+00 0.  1.
</event>
<event>
 8   1  0.2279600E-02  0.9040386E+02  0.7546771E-02  0.1304774E+00
       -3   -1    0    0    0  501 -0.00000000000E+00  0.00000000000E+00  0.63516160026E+02  0.63516160026E+02  0.00000000000E+00 0.  1.
        3   -1    0    0  501    0  0.00000000000E+00 -0.00000000000E+00 -0.12346768805E+03  0.12346768805E+03  0.00000000000E+00 0. -1.
       24    2    1    2    0    0 -0.22956663153E+02 -0.22360594984E+02 -0.20931386300E+02  0.92795369498E+02  0.84533147798E+02 0.  0.
      -24    2    1    2    0    0  0.22956663153E+02  0.22360594984E+02 -0.39020141725E+02  0.94188478578E+02  0.79510335464E+02 0.  0.
      -13    1    3    3    0    0 -0.38511423386E+02  0.18920812469E+02 -0.22899999099E+02  0.48636784788E+02  0.00000000000E+00 0.  1.
       14    1    3    3    0    0  0.15554760234E+02 -0.41281407453E+02  0.19686127983E+01  0.44158584710E+02  0.00000000000E+00 0. -1.
        3    1    4    4  502    0  0.61899412689E+01 -0.18667636082E+02 -0.45336609382E+02  0.49418662063E+02  0.00000000000E+00 0. -1.
       -4    1    4    4    0  502  0.16766721884E+02  0.41028231066E+02  0.63164676574E+01  0.44769816516E+02  0.00000000000E+00 0.  1.
</event>
<event>
 8   1  0.2279600E-02  0.1388665E+03  0.7546771E-02  0.1215146E+00
        1   -1    0    0  501    0  0.00000000000E+00  0.00000000000E+00  0.33980823098E+03  0.33980823098E+03  0.00000000000E+00 0. -1.
       -1   -1    0    0    0  501 -0.00000000000E+00 -0.00000000000E+00 -0.11601464361E+03  0.11601464361E+03  0.00000000000E+00 0.  1.
       24    2    1    2    0    0 -0.18213722547E+02 -0.11175954827E+03 -0.51300822632E+02  0.14803949207E+03  0.80386444699E+02 0.  0.
      -24    2    1    2    0    0  0.18213722547E+02  0.11175954827E+03  0.27509441000E+03  0.30778338252E+03  0.78941369559E+02 0.  0.
      -13    1    3    3    0    0  0.82768140505E+01 -0.67052076584E+02 -0.65571345293E+02  0.94149285439E+02  0.00000000000E+00 0.  1.
       14    1    3    3    0    0 -0.26490536597E+02 -0.44707471684E+02  0.14270522662E+02  0.53890206630E+02  0.00000000000E+00 0. -1.
        1    1    4    4  502    0  0.26898091121E+02  0.11326434697E+03  0.27536875744E+03  0.29896533607E+03  0.00000000000E+00 0. -1.
       -2    1    4    4    0  502 -0.86843685741E+01 -0.15047987067E+01 -0.27434743904E+00  0.88180464501E+01  0.00000000000E+00 0.  1.
</event>
<event>
 8   1  0.2279600E-02  0.8687885E+02  0.7546771E-02  0.1311171E+00
        2   -1    0    0  501    0  0.00000000000E+00  0.00000000000E+00  0.18266375553E+04  0.18266375553E+04  0.00000000000E+00 0. -1.
       -2   -1    0    0    0  501 -0.00000000000E+00 -0.00000000000E+00 -0.45526483093E+01  0.45526483093E+01  0.00000000000E+00 0.  1.
      -24    2    1    2    0    0  0.30824472396E+02 -0.73395926670E+01  0.12075072810E+04  0.12106286664E+04  0.80894477532E+02 0.  0.
       24    2    1    2    0    0 -0.30824472396E+02  0.73395926670E+01  0.61457762596E+03  0.62056153719E+03  0.79918367037E+02 0.  0.
      -13    1    4    4    0    0 -0.98203934843E+01 -0.36237534768E+02  0.25798747213E+03  0.26070507250E+03  0.00000000000E+00 0.  1.
       14    1    4    4    0    0 -0.21004078912E+02  0.43577127435E+02  0.35659015384E+03  0.35985646469E+03  0.00000000000E+00 0. -1.
        3    1    3    3  502    0  0.40084484364E+02  0.14257073935E+02  0.32064865332E+03  0.32345879014E+03  0.00000000000E+00 0. -1.
       -4    1    3    3    0  502 -0.92600119681E+01 -0.21596666602E+02  0.88685862770E+03  0.88716987627E+03  0.00000000000E+00 0.  1.
</event>
<event>
 8   1  0.2279600E-02  0.8295548E+02  0.7546771E-02  0.1321301E+00
        1   -1    0    0  501    0  0.00000000000E+00  0.00000000000E+00  0.52490150217E+03  0.52490150217E+03  0.00000000000E+00 0. -1.
       -1   -1    0    0    0  501 -0.00000000000E+00 -0.00000000000E+00 -0.16515128109E+02  0.16515128109E+02  0.00000000000E+00 0.  1.
       24    2    1    2    0    0  0.14250468181E+02 -0.11639673627E+02  0.12869434960E+03  0.15276814463E+03  0.80232864523E+02 0.  0.
      -24    2    1    2    0    0 -0.14250468181E+02  0.11639673627E+02  0.37969202446E+03  0.38864848565E+03  0.80889147057E+02 0.  0.
      -13    1    3    3    0    0 -0.30578093182E+01 -0.44721752126E+02  0.65552571590E+02  0.79413632036E+02  0.00000000000E+00 0.  1.
       14    1    3    3    0    0  0.17308277499E+02  0.33082078499E+02  0.63141778012E+02  0.73354512597E+02  0.00000000000E+00 0. -1.
        3    1    4    4  502    0  0.16107640493E+02  0.28973044555E+02  0.29736329108E+03  0.29920531458E+03  0.00000000000E+00 0. -1.
       -4    1    4    4    0  502 -0.30358108674E+02 -0.17333370928E+02  0.82328733383E+02  0.89443171066E+02  0.00000000000E+00 0.  1.
</event>
<event>
 8   1  0.2279600E-02  0.1332729E+03  0.7546771E-02  0.1222860E+00
       -1   -1    0    0    0  501 -0.00000000000E+00  0.00000000000E+00  0.16774106482E+03  0.16774106482E+03  0.00000000000E+00 0.  1.
        1   -1    0    0  501    0  0.00000000000E+00 -0.00000000000E+00 -0.11136417627E+03  0.11136417627E+03  0.00000000000E+00 0. -1.
       24    2    1    2    0    0  0.58440431239E+02 -0.88637702333E+02  0.60295499070E+02  0.14627790508E+03  0.80558997194E+02 0.  0.
      -24    2    1    2    0    0 -0.58440431239E+02  0.88637702333E+02 -0.39186105217E+01  0.13282733601E+03  0.79723393084E+02 0.  0.
      -13    1    3    3    0    0  0.72888528087E+02 -0.45002612443E+02  0.49956383585E+02  0.99164574896E+02  0.00000000000E+00 0.  1.
       14    1    3    3    0    0 -0.14448096848E+02 -0.43635089890E+02  0.10339115485E+02  0.47113330186E+02  0.00000000000E+00 0. -1.
        3    1    4    4  502    0 -0.13379117509E+02 -0.11145090817E+02 -0.14732001972E+02  0.22808895562E+02  0.00000000000E+00 0. -1.
       -4    1    4    4    0  502 -0.45061313730E+02  0.99782793150E+02  0.10813391450E+02  0.11001844045E+03  0.00000000000E+00 0.  1.
</event>
<event>
 8   1  0.2279600E-02  0.8574079E+02  0.7546771E-02  0.1314744E+00
        2   -1    0    0  501    0  0.00000000000E+00  0.00000000000E+00  0.15384755604E+04  0.15384755604E+04  0.00000000000E+00 0. -1.
       -2   -1    0    0    0  501 -0.00000000000E+00 -0.00000000000E+00 -0.58799570228E+01  0.58799570228E+01  0.00000000000E+00 0.  1.
      -24    2    1    2    0    0  0.22014697581E+01 -0.27451413793E+02  0.40975272447E+03  0.41824379371E+03  0.79196901299E+02 0.  0.
       24    2    1    2    0    0 -0.22014697581E+01  0.27451413793E+02  0.11228428789E+04  0.11261117237E+04  0.81197641527E+02 0.  0.
      -13    1    4    4    0    0  0.16811279790E+02  0.59422693637E+00  0.49798900172E+02  0.52563320787E+02  0.00000000000E+00 0.  1.
       14    1    4    4    0    0 -0.19012749548E+02  0.26857186857E+02  0.10730439787E+04  0.10735484029E+04  0.00000000000E+00 0. -1.
        3    1    3    3  502    0  0.75100591009E+01  0.22913710528E+02  0.23691904093E+03  0.23814296352E+03  0.00000000000E+00 0. -1.
       -4    1    3    3    0  502 -0.53085893428E+01 -0.50365124322E+02  0.17283368354E+03  0.18010083019E+03  0.00000000000E+00 0.  1.
</event>
<event>
 8   1  0.2279600E-02  0.8503264E+02  0.7546771E-02  0.1317585E+00
        2   -1    0    0  501    0  0.00000000000E+00  0.00000000000E+00  0.76082951030E+03  0.76082951030E+03  0.00000000000E+00 0. -1.
       -2   -1    0    0    0  501 -0.00000000000E+00 -0.00000000000E+00 -0.27838560040E+02  0.27838560040E+02  0.00000000000E+00 0.  1.
      -24    2    1    2    0    0 -0.55188334131E+01  0.24379889726E+02  0.40857743608E+02  0.91331046332E+02  0.77763540725E+02 0.  0.
       24    2    1    2    0    0  0.55188334131E+01 -0.24379889726E+02  0.69213320665E+03  0.69733702401E+03  0.81275536038E+02 0.  0.
      -13    1    4    4    0    0  0.17939798559E+02 -0.36744967683E+02  0.16777785514E+03  0.17268884648E+03  0.00000000000E+00 0.  1.
       14    1    4    4    0    0 -0.12420965146E+02  0.12365077957E+02  0.52435535151E+03  0.52464817753E+03  0.00000000000E+00 0. -1.
        1    1    3    3  502    0 -0.23107087885E+02 -0.22080901793E+02  0.14555694600E+02  0.35119396063E+02  0.00000000000E+00 0. -1.
       -2    1    3    3    0  502  0.17588254472E+02  0.46460791519E+02  0.26302049008E+02  0.56211650269E+02  0.00000000000E+00 0.  1.
</event>
<event>
 8   1  0.2279600E-02  0.9881705E+02  0.7546771E-02  0.1297316E+00
        2   -1    0    0  501    0  0.00000000000E+00  0.00000000000E+00  0.21327614203E+03  0.21327614203E+03  0.00000000000E+00 0. -1.
       -2   -1    0    0    0  501 -0.00000000000E+00 -0.00000000000E+00 -0.36239216737E+02  0.36239216737E+02  0.00000000000E+00 0.  1.
      -24    2    1    2    0    0  0.42676948663E+02  0.24263135717E+01  0.59579862150E+02  0.96019522456E+02  0.61990158688E+02 0.  0.
       24    2    1    2    0    0 -0.42676948663E+02 -0.24263135717E+01  0.11745706314E+03  0.15349583631E+03  0.89093216001E+02 0.  0.
      -13    1    4    4    0    0 -0.63595335862E+01 -0.42930812541E+02  0.41348569806E+02  0.59943327884E+02  0.00000000000E+00 0.  1.
       14    1    4    4    0    0 -0.36317415077E+02  0.40504498969E+02  0.76108493334E+02  0.93552508422E+02  0.00000000000E+00 0. -1.
        1    1    3    3  502    0 -0.14201781501E+02  0.10750869831E+02  0.13761051590E+02  0.22508628141E+02  0.00000000000E+00 0. -1.
       -2    1    3    3    0  502  0.56878730164E+02 -0.83245562592E+01  0.45818810560E+02  0.73510894316E+02  0.00000000000E+00 0.  1.
</event>
<event>
 8   1  0.2279600E-02  0.1034492E+03  0.7546771E-02  0.1276776E+00
       -2   -1    0    0    0  501 -0.00000000000E+00  0.00000000000E+00  0.93224167916E+02  0.93224167916E+02  0.00000000000E+00 0.  1.
        2   -1    0    0  501    0  0.00000000000E+00 -0.00000000000E+00 -0.16622549151E+04  0.16622549151E+04  0.00000000000E+00 0. -1.
       24    2    1    2    0    0  0.36402230195E+02 -0.38859482176E+02 -0.16351487040E+04  0.16384178400E+04  0.88693587531E+02 0.  0.
      -24    2    1    2    0    0 -0.36402230195E+02  0.38859482176E+02  0.66117956796E+02  0.11706124305E+03  0.80601294628E+02 0.  0.
      -13    1    3    3    0    0  0.27868358575E+01  0.70584991036E+01 -0.11375981770E+04  0.11376234883E+04  0.00000000000E+00 0.  1.
       14    1    3    3    0    0  0.33615394337E+02 -0.45917981279E+02 -0.49755052700E+03  0.50079435166E+03  0.00000000000E+00 0. -1.
        3    1    4    4  502    0  0.11777386588E+02 -0.65683019567E+01  0.45876886703E+02  0.47817759870E+02  0.00000000000E+00 0. -1.
       -4    1    4    4    0  502 -0.48179616782E+02  0.45427784132E+02  0.20241070092E+02  0.69243483180E+02  0.00000000000E+00 0.  1.
</event>
<event>
 8   1  0.2279600E-02  0.8710465E+02  0.7546771E-02  0.1314281E+00
       -2   -1    0    0    0  501 -0.00000000000E+00  0.00000000000E+00  0.18179979779E+02  0.18179979779E+02  0.00000000000E+00 0.  1.
        2   -1    0    0  501    0  0.00000000000E+00 -0.00000000000E+00 -0.46413249685E+03  0.46413249685E+03  0.00000000000E+00 0. -1.
      -24    2    1    2    0    0  0.64662477366E-01  0.14354783211E+02 -0.11752988454E+03  0.14253512913E+03  0.79353168129E+02 0.  0.
       24    2    1    2    0    0 -0.64662477366E-01 -0.14354783211E+02 -0.32842263253E+03  0.33977734750E+03  0.85913656291E+02 0.  0.
      -13    1    4    4    0    0  0.20052221721E+02  0.18467800935E+01 -0.14549794305E+02  0.24843484196E+02  0.00000000000E+00 0.  1.
       14    1    4    4    0    0 -0.20116884199E+02 -0.16201563305E+02 -0.31387283822E+03  0.31493386331E+03  0.00000000000E+00 0. -1.
        1    1    3    3  502    0 -0.36740627217E+02 -0.72355036371E+01 -0.46886030573E+02  0.60004383707E+02  0.00000000000E+00 0. -1.
       -2    1    3    3    0  502  0.36805289695E+02  0.21590286849E+02 -0.70643853970E+02  0.82530745419E+02  0.00000000000E+00 0.  1.
</event>
<event>
 8   1  0.2279600E-02  0.9213988E+02  0.7546771E-02  0.1299291E+00
        2   -1    0    0  501    0  0.00000000000E+00  0.00000000000E+00  0.50335569548E+03  0.50335569548E+03  0.00000000000E+00 0. -1.
       -2   -1    0    0    0  501 -0.00000000000E+00 -0.00000000000E+00 -0.19729704216E+02  0.19729704216E+02  0.00000000000E+00 0.  1.
       24    2    1    2    0    0 -0.42343516251E+02  0.34135473351E+01  0.35216833618E+03  0.36402238230E+03  0.81762657340E+02 0.  0.
      -24    2    1    2    0    0  0.42343516251E+02 -0.34135473351E+01  0.13145765509E+03  0.15906301740E+03  0.78837191404E+02 0.  0.
      -13    1    3    3    0    0 -0.10830281948E+02  0.30762603241E+02  0.26904105296E+03  0.27101055504E+03  0.00000000000E+00 0.  1.
       14    1    3    3    0    0 -0.31513234302E+02 -0.27349055906E+02  0.83127283221E+02  0.93011827263E+02  0.00000000000E+00 0. -1.
        1    1    4    4  502    0 -0.22487152033E+02  0.28625321361E+01  0.21389306410E+02  0.31166785614E+02  0.00000000000E+00 0. -1.
       -2    1    4    4    0  502  0.64830668284E+02 -0.62760794712E+01  0.11006834868E+03  0.12789623179E+03  0.00000000000E+00 0.  1.
</event>
<event>
 8   1  0.2279600E-02  0.1053593E+03  0.7546771E-02  0.1269720E+00
       -1   -1    0    0    0  501 -0.00000000000E+00  0.00000000000E+00  0.83348164658E+01  0.83348164658E+01  0.00000000000E+00 0.  1.
        1   -1    0    0  501    0  0.00000000000E+00 -0.00000000000E+00 -0.13463550611E+04  0.13463550611E+04  0.00000000000E+00 0. -1.
       24    2    1    2    0    0  0.47792293036E+02  0.47147882574E+02 -0.58363065550E+03  0.59306435034E+03  0.81200711209E+02 0.  0.
      -24    2    1    2    0    0 -0.47792293036E+02 -0.47147882574E+02 -0.75438958917E+03  0.76162552726E+03  0.80391326787E+02 0.  0.
      -13    1    3    3    0    0  0.49994924753E+02  0.31434385981E+02 -0.18671844703E+03  0.19583511326E+03  0.00000000000E+00 0.  1.
       14    1    3    3    0    0 -0.22026317175E+01  0.15713496593E+02 -0.39691220847E+03  0.39722923708E+03  0.00000000000E+00 0. -1.
        3    1    4    4  502    0 -0.43460791554E+02 -0.41545528183E+02 -0.75162121318E+03  0.75402209479E+03  0.00000000000E+00 0. -1.
       -4    1    4    4    0  502 -0.43315014815E+01 -0.56023543910E+01 -0.27683759837E+01  0.76034324745E+01  0.00000000000E+00 0.  1.
</event>
<event>
 8   1  0.2279600E-02  0.1168451E+03  0.7546771E-02  0.1252605E+00
       -2   -1    0    0    0  501 -0.00000000000E+00  0.00000000000E+00  0.37829290715E+02  0.37829290715E+02  0.00000000000E+00 0.  1.
        2   -1    0    0  501    0  0.00000000000E+00 -0.00000000000E+00 -0.78268204156E+03  0.78268204156E+03  0.00000000000E+00 0. -1.
      -24    2    1    2    0    0  0.94415594665E+01  0.74465134086E+02 -0.68010220427E+02  0.13519673516E+03  0.89546456522E+02 0.  0.
       24    2    1    2    0    0 -0.94415594665E+01 -0.74465134086E+02 -0.67684253041E+03  0.68531459711E+03  0.76851068947E+02 0.  0.
      -13    1    4    4    0    0  0.72537779623E+00  0.13269667067E+02 -0.35259637575E+02  0.37680927257E+02  0.00000000000E+00 0.  1.
       14    1    4    4    0    0 -0.10166937263E+02 -0.87734801153E+02 -0.64158289284E+03  0.64763366985E+03  0.00000000000E+00 0. -1.
        1    1    3    3  502    0 -0.23066964551E+02  0.51042725103E+02 -0.75929209245E+02  0.94354064333E+02  0.00000000000E+00 0. -1.
       -2    1    3    3    0  502  0.32508524018E+02  0.23422408983E+02  0.79189888178E+01  0.40842670827E+02  0.00000000000E+00 0.  1.
</event>
<event>
 8   1  0.2279600E-02  0.8542538E+02  0.7546771E-02  0.1315497E+00
        4   -1    0    0  501    0  0.00000000000E+00  0.00000000000E+00  0.12137166103E+02  0.12137166103E+02  0.00000000000E+00 0. -1.
       -4   -1    0    0    0  501 -0.00000000000E+00 -0.00000000000E+00 -0.60197129874E+03  0.60197129874E+03  0.00000000000E+00 0.  1.
      -24    2    1    2    0    0  0.31584582825E+01 -0.25859521425E+02 -0.24635913647E+03  0.26016981335E+03  0.79478405531E+02 0.  0.
       24    2    1    2    0    0 -0.31584582825E+01  0.25859521425E+02 -0.34347499616E+03  0.35393865149E+03  0.81356040501E+02 0.  0.
      -13    1    4    4    0    0 -0.19731330543E+02  0.42310347387E+01 -0.31053256720E+03  0.31118756780E+03  0.00000000000E+00 0.  1.
       14    1    4    4    0    0  0.16572872261E+02  0.21628486687E+02 -0.32942428962E+02  0.42751083696E+02  0.00000000000E+00 0. -1.
        1    1    3    3  502    0 -0.29192760297E+02 -0.39001203551E+02 -0.14474823529E+03  0.15272643109E+03  0.00000000000E+00 0. -1.
       -2    1    3    3    0  502  0.32351218579E+02  0.13141682126E+02 -0.10161090118E+03  0.10744338226E+03  0.00000000000E+00 0.  1.
</event>
<event>
 8   1  0.2279600E-02  0.8379702E+02  0.7546771E-02  0.1318678E+00
        1   -1    0    0  501    0  0.00000000000E+00  0.00000000000E+00  0.91628855418E+03  0.91628855418E+03  0.00000000000E+00 0. -1.
       -1   -1    0    0    0  501 -0.00000000000E+00 -0.00000000000E+00 -0.78814509663E+01  0.78814509663E+01  0.00000000000E+00 0.  1.
       24    2    1    2    0    0  0.19039758535E+01 -0.23933766241E+02  0.37597140591E+03  0.38519662233E+03  0.80283805958E+02 0.  0.
      -24    2    1    2    0    0 -0.19039758535E+01  0.23933766241E+02  0.53243569730E+03  0.53897338281E+03  0.80175341187E+02 0.  0.
      -13    1    3    3    0    0 -0.38007939467E+02 -0.24848299924E+01  0.15319083018E+03  0.15785502302E+03  0.00000000000E+00 0.  1.
       14    1    3    3    0    0  0.39911915321E+02 -0.21448936249E+02  0.22278057573E+03  0.22734159930E+03  0.00000000000E+00 0. -1.
        3    1    4    4  502    0  0.24991945836E+02  0.34812300351E+02  0.44023109279E+03  0.44231200376E+03  0.00000000000E+00 0. -1.
       -4    1    4    4    0  502 -0.26895921690E+02 -0.10878534110E+02  0.92204604509E+02  0.96661379054E+02  0.00000000000E+00 0.  1.
</event>
<event>
 8   1  0.2279600E-02  0.8374289E+02  0.7546771E-02  0.1321297E+00
       -2   -1    0    0    0  501 -0.00000000000E+00  0.00000000000E+00  0.57573285982E+02  0.57573285982E+02  0.00000000000E+00 0.  1.
        2   -1    0    0  501    0  0.00000000000E+00 -0.00000000000E+00 -0.12041327293E+03  0.12041327293E+03  0.00000000000E+00 0. -1.
      -24    2    1    2    0    0 -0.28155623411E+02 -0.78651360932E+00 -0.15979700630E+02  0.85253873393E+02  0.78863897716E+02 0.  0.
       24    2    1    2    0    0  0.28155623411E+02  0.78651360932E+00 -0.46860286318E+02  0.92732685518E+02  0.74900646168E+02 0.  0.
      -13    1    4    4    0    0  0.51741537946E+02  0.89744731475E+01 -0.20357124372E+02  0.56321758052E+02  0.00000000000E+00 0.  1.
       14    1    4    4    0    0 -0.23585914536E+02 -0.81879595382E+01 -0.26503161945E+02  0.36410927467E+02  0.00000000000E+00 0. -1.
        1    1    3    3  502    0 -0.47666974336E+02  0.21272654766E+02 -0.19223931454E+02  0.55625765826E+02  0.00000000000E+00 0. -1.
       -2    1    3    3    0  502  0.19511350926E+02 -0.22059168375E+02  0.32442308242E+01  0.29628107567E+02  0.00000000000E+00 0.  1.
</event>
<event>
 8   1  0.2279600E-02  0.1414404E+03  0.7546771E-02  0.1215053E+00
        2   -1    0    0  501    0  0.00000000000E+00  0.00000000000E+00  0.32382025632E+03  0.32382025632E+03  0.00000000000E+00 0. -1.
       -2   -1    0    0    0  501 -0.00000000000E+00 -0.00000000000E+00 -0.10357080569E+03  0.10357080569E+03  0.00000000000E+00 0.  1.
      -24    2    1    2    0    0 -0.65187100134E+01  0.10290930758E+03 -0.30356369050E+02  0.14466127888E+03  0.96811968769E+02 0.  0.
       24    2    1    2    0    0  0.65187100134E+01 -0.10290930758E+03  0.25060581968E+03  0.28272978313E+03  0.80622789880E+02 0.  0.
      -13    1    4    4    0    0 -0.17941110188E+02 -0.13323393150E+02  0.93614063998E+01  0.24228746761E+02  0.00000000000E+00 0.  1.
       14    1    4    4    0    0  0.24459820201E+02 -0.89585914433E+02  0.24124441328E+03  0.25850103637E+03  0.00000000000E+00 0. -1.
        1    1    3    3  502    0  0.26767670168E+02 -0.47624359533E+01  0.24112386573E+01  0.27294743712E+02  0.00000000000E+00 0. -1.
       -2    1    3    3    0  502 -0.33286380181E+02  0.10767174354E+03 -0.32767607707E+02  0.11736653516E+03  0.00000000000E+00 0.  1.
</event>
<event>
 8   1  0.2279600E-02  0.8375891E+02  0.7546771E-02  0.1319043E+00
        2   -1    0    0  501    0  0.00000000000E+00  0.00000000000E+00  0.86047812303E+03  0.86047812303E+03  0.00000000000E+00 0. -1.
       -2   -1    0    0    0  501 -0.00000000000E+00 -0.00000000000E+00 -0.91704278529E+01  0.91704278529E+01  0.00000000000E+00 0.  1.
      -24    2    1    2    0    0 -0.44547535597E+01 -0.20457205937E+02  0.27854705099E+03  0.29086769259E+03  0.81100017732E+02 0.  0.
       24    2    1    2    0    0  0.44547535597E+01  0.20457205937E+02  0.57276064419E+03  0.57878085829E+03  0.80586501891E+02 0.  0.
      -13    1    4    4    0    0  0.13648547266E+02  0.68588790331E+01  0.17303075329E+02  0.23080803277E+02  0.00000000000E+00 0.  1.
       14    1    4    4    0    0 -0.91937937067E+01  0.13598326904E+02  0.55545756886E+03  0.55570005501E+03  0.00000000000E+00 0. -1.
        3    1    3    3  502    0 -0.36224884961E+02 -0.11310661210E+01  0.67935328103E+02  0.76998249366E+02  0.00000000000E+00 0. -1.
       -4    1    3    3    0  502  0.31770131401E+02 -0.19326139816E+02  0.21061172288E+03  0.21386944322E+03  0.00000000000E+00 0.  1.
</event>
<event>
 8   1  0.2279600E-02  0.9189409E+02  0.7546771E-02  0.1303543E+00
       -1   -1    0    0    0  501 -0.00000000000E+00  0.00000000000E+00  0.14625313021E+02  0.14625313021E+02  0.00000000000E+00 0.  1.
        1   -1    0    0  501    0  0.00000000000E+00 -0.00000000000E+00 -0.18443834007E+04  0.18443834007E+04  0.00000000000E+00 0. -1.
       24    2    1    2    0    0  0.30835124451E+02 -0.30269165932E+02 -0.14170741498E+03  0.16889498207E+03  0.81101764473E+02 0.  0.
      -24    2    1    2    0    0 -0.30835124451E+02  0.30269165932E+02 -0.16880506727E+04  0.16901137317E+04  0.71430560825E+02 0.  0.
      -13    1    3    3    0    0  0.15829188761E+01 -0.46840603689E+02 -0.39475875094E+02  0.61277177648E+02  0.00000000000E+00 0.  1.
       14    1    3    3    0    0  0.29252205575E+02  0.16571437757E+02 -0.10223153989E+03  0.10761780442E+03  0.00000000000E+00 0. -1.
        3    1    4    4  502    0 -0.51748763565E+02  0.10325463207E+02 -0.91216519420E+03  0.91369026000E+03  0.00000000000E+00 0. -1.
       -4    1    4    4    0  502  0.20913639114E+02  0.19943702725E+02 -0.77588547853E+03  0.77642347168E+03  0.00000000000E+00 0.  1.
</event>
<event>
 8   1  0.2279600E-02  0.8860273E+02  0.7546771E-02  0.1322503E+00
       -2   -1    0    0    0  501 -0.00000000000E+00  0.00000000000E+00  0.36667846823E+02  0.36667846823E+02  0.00000000000E+00 0.  1.
        2   -1    0    0  501    0  0.00000000000E+00 -0.00000000000E+00 -0.19811742577E+03  0.19811742577E+03  0.00000000000E+00 0. -1.
       24    2    1    2    0    0  0.30972277651E+02 -0.17052870300E+02 -0.11989490376E+03  0.13692192145E+03  0.55881501935E+02 0.  0.
      -24    2    1    2    0    0 -0.30972277651E+02  0.17052870300E+02 -0.41554675190E+02  0.97863351143E+02  0.81242612577E+02 0.  0.
      -13    1    3    3    0    0  0.39884014468E+02 -0.25816995528E+02 -0.64353127393E+02  0.79991104964E+02  0.00000000000E+00 0.  1.
       14    1    3    3    0    0 -0.89117368167E+01  0.87641252283E+01 -0.55541776367E+02  0.56930816489E+02  0.00000000000E+00 0. -1.
        3    1    4    4  502    0 -0.44332415357E+02  0.97239142937E+01  0.79403521520E+01  0.46075663347E+02  0.00000000000E+00 0. -1.
       -4    1    4    4    0  502  0.13360137706E+02  0.73289560062E+01 -0.49495027342E+02  0.51787687796E+02  0.00000000000E+00 0.  1.
</event>
<event>
 8   1  0.2279600E-02  0.8814312E+02  0.7546771E-02  0.1308822E+00
        3   -1    0    0  501    0  0.00000000000E+00  0.00000000000E+00  0.20597948043E+03  0.20597948043E+03  0.00000000000E+00 0. -1.
       -3   -1    0    0    0  501 -0.00000000000E+00 -0.00000000000E+00 -0.56222816854E+02  0.56222816854E+02  0.00000000000E+00 0.  1.
       24    2    1    2    0    0  0.24250535296E+02 -0.20815187898E+02 -0.28650492937E+01  0.85956455886E+02  0.79742982711E+02 0.  0.
      -24    2    1    2    0    0 -0.24250535296E+02  0.20815187898E+02  0.15262171287E+03  0.17624584140E+03  0.82145291172E+02 0.  0.
      -13    1    3    3    0    0  0.21390328415E+02  0.25691282033E+02  0.14219350246E+02  0.36328749547E+02  0.00000000000E+00 0.  1.
       14    1    3    3    0    0  0.28602068810E+01 -0.46506469931E+02 -0.17084399540E+02  0.49627706339E+02  0.00000000000E+00 0. -1.
        3    1    4    4  502    0  0.14560261977E+02 -0.10017449242E+02  0.10836258907E+03  0.10979435881E+03  0.00000000000E+00 0. -1.
       -4    1    4    4    0  502 -0.38810797274E+02  0.30832637140E+02  0.44259123808E+02  0.66451482589E+02  0.00000000000E+00 0.  1.
</event>
<event>
 8   1  0.2279600E-02  0.8505427E+02  0.7546771E-02  0.1316009E+00
       -2   -1    0    0    0  501 -0.00000000000E+00  0.00000000000E+00  0.22264509299E+02  0.22264509299E+02  0.00000000000E+00 0.  1.
        2   -1    0    0  501    0  0.00000000000E+00 -0.00000000000E+00 -0.59549232870E+03  0.59549232870E+03  0.00000000000E+00 0. -1.
      -24    2    1    2    0    0  0.25913793659E+02 -0.45399975700E+01 -0.75821417267E+02  0.11313087941E+03  0.79734385813E+02 0.  0.
       24    2    1    2    0    0 -0.25913793659E+02  0.45399975700E+01 -0.49740640213E+03  0.50462595858E+03  0.80883205392E+02 0.  0.
      -13    1    4    4    0    0  0.15040371724E+02 -0.31864993644E+01 -0.19153660165E+02  0.24560725916E+02  0.00000000000E+00 0.  1.
       14    1    4    4    0    0 -0.40954165383E+02  0.77264969344E+01 -0.47825274197E+03  0.48006523267E+03  0.00000000000E+00 0. -1.
        1    1    3    3  502    0 -0.19630182764E+02 -0.23605118281E+02 -0.13281985473E+02  0.33450811986E+02  0.00000000000E+00 0. -1.
       -2    1    3    3    0  502  0.45543976423E+02  0.19065120711E+02 -0.62539431795E+02  0.79680067428E+02  0.00000000000E+00 0.  1.
</event>
<event>
 8   1  0.2279600E-02  0.1285506E+03  0.7546771E-02  0.1229668E+00
       -1   -1    0    0    0  501 -0.00000000000E+00  0.00000000000E+00  0.19873054673E+02  0.19873054673E+02  0.00000000000E+00 0.  1.
        1   -1    0    0  501    0  0.00000000000E+00 -0.00000000000E+00 -0.99349993487E+03  0.99349993487E+03  0.00000000000E+00 0. -1.
       24    2    1    2    0    0  0.26854500869E+02 -0.95776986422E+02 -0.28193082075E+03  0.30985520355E+03  0.81430118104E+02 0.  0.
      -24    2    1    2    0    0 -0.26854500869E+02  0.95776986422E+02 -0.69169605944E+03  0.70351778599E+03  0.81236944833E+02 0.  0.
      -13    1    3    3    0    0  0.26934417857E+02 -0.74625953537E+02 -0.10468774239E+03  0.13135455536E+03  0.00000000000E+00 0.  1.
       14    1    3    3    0    0 -0.79916988724E-01 -0.21151032885E+02 -0.17724307836E+03  0.17850064820E+03  0.00000000000E+00 0. -1.
        1    1    4    4  502    0 -0.21439387256E+02  0.90368927861E+02 -0.36173779587E+03  0.37347077986E+03  0.00000000000E+00 0. -1.
       -2    1    4    4    0  502 -0.54151136127E+01  0.54080585604E+01 -0.32995826357E+03  0.33004700613E+03  0.00000000000E+00 0.  1.
</event>
<event>
 8   1  0.2279600E-02  0.1008587E+03  0.7546771E-02  0.1278896E+00
       -1   -1    0    0    0  501 -0.00000000000E+00  0.00000000000E+00  0.34666025869E+02  0.34666025869E+02  0.00000000000E+00 0.  1.
        1   -1    0    0  501    0  0.00000000000E+00 -0.00000000000E+00 -0.30150694736E+03  0.30150694736E+03  0.00000000000E+00 0. -1.
       24    2    1    2    0    0  0.52638746214E+02  0.27196208978E+02 -0.10191698973E+03  0.14285357621E+03  0.80682092533E+02 0.  0.
      -24    2    1    2    0    0 -0.52638746214E+02 -0.27196208978E+02 -0.16492393176E+03  0.19331939702E+03  0.81621165206E+02 0.  0.
      -13    1    3    3    0    0  0.50802464810E+02 -0.10593617848E+02 -0.26028780651E+02  0.58056977118E+02  0.00000000000E+00 0.  1.
       14    1    3    3    0    0  0.18362814042E+01  0.37789826825E+02 -0.75888209079E+02  0.84796599096E+02  0.00000000000E+00 0. -1.
        1    1    4    4  502    0 -0.39328102157E+02  0.21695340824E+02 -0.10879465777E+03  0.11770159299E+03  0.00000000000E+00 0. -1.
       -2    1    4    4    0  502 -0.13310644057E+02 -0.48891549802E+02 -0.56129273988E+02  0.75617804026E+02  0.00000000000E+00 0.  1.
</event>
<event>
 8   1  0.2279600E-02  0.8124866E+02  0.7546771E-02  0.1325556E+00
        2   -1    0    0  501    0  0.00000000000E+00  0.00000000000E+00  0.12687145883E+03  0.12687145883E+03  0.00000000000E+00 0. -1.
       -2   -1    0    0    0  501 -0.00000000000E+00 -0.00000000000E+00 -0.52066930520E+02  0.52066930520E+02  0.00000000000E+00 0.  1.
      -24    2    1    2    0    0  0.14584502758E+01 -0.14811500256E+02  0.34752704643E+02  0.88354212523E+02  0.79857427792E+02 0.  0.
       24    2    1    2    0    0 -0.14584502758E+01  0.14811500256E+02  0.40051823662E+02  0.90584176822E+02  0.79873881181E+02 0.  0.
      -13    1    4    4    0    0 -0.33664011083E+02 -0.15323935140E+02  0.21059765586E+02  0.42562922326E+02  0.00000000000E+00 0.  1.
       14    1    4    4    0    0  0.32205560808E+02  0.30135435396E+02  0.18992058076E+02  0.48021254496E+02  0.00000000000E+00 0. -1.
        1    1    3    3  502    0  0.34674468281E+02  0.13006619980E+02  0.22483685222E+02  0.43324439004E+02  0.00000000000E+00 0. -1.
       -2    1    3    3    0  502 -0.33216018005E+02 -0.27818120236E+02  0.12269019422E+02  0.45029773519E+02  0.00000000000E+00 0.  1.
</event>
<event>
 8   1  0.2279600E-02  0.8528669E+02  0.7546771E-02  0.1315984E+00
       -1   -1    0    0    0  501 -0.00000000000E+00  0.00000000000E+00  0.14776018796E+02  0.14776018796E+02  0.00000000000E+00 0.  1.
        1   -1    0    0  501    0  0.00000000000E+00 -0.00000000000E+00 -0.51841466529E+03  0.51841466529E+03  0.00000000000E+00 0. -1.
       24    2    1    2    0    0 -0.24453251325E+02  0.13165679943E+02 -0.17742689539E+03  0.19601428213E+03  0.78549340951E+02 0.  0.
      -24    2    1    2    0    0  0.24453251325E+02 -0.13165679943E+02 -0.32621175110E+03  0.33717640195E+03  0.80638221992E+02 0.  0.
      -13    1    3    3    0    0 -0.24930928838E+02 -0.11142656814E+02 -0.13810474997E+02  0.30601294633E+02  0.00000000000E+00 0.  1.
       14    1    3    3    0    0  0.47767751266E+00  0.24308336756E+02 -0.16361642039E+03  0.16541298750E+03  0.00000000000E+00 0. -1.
        3    1    4    4  502    0  0.45602308690E+02 -0.27842264197E+02 -0.27154694852E+03  0.27675351395E+03  0.00000000000E+00 0. -1.
       -4    1    4    4    0  502 -0.21149057365E+02  0.14676584255E+02 -0.54664802580E+02  0.60422887997E+02  0.00000000000E+00 0.  1.
</event>
<event>
 8   1  0.2279600E-02  0.1155036E+03  0.7546771E-02  0.1250734E+00
        2   -1    0    0  501    0  0.00000000000E+00  0.00000000000E+00  0.18388237123E+04  0.18388237123E+04  0.00000000000E+00 0. -1.
       -2   -1    0    0    0  501 -0.00000000000E+00 -0.00000000000E+00 -0.92103601411E+01  0.92103601411E+01  0.00000000000E+00 0.  1.
      -24    2    1    2    0    0 -0.79996566854E+02 -0.24666495583E+02  0.48841654738E+03  0.50187287845E+03  0.79484436587E+02 0.  0.
       24    2    1    2    0    0  0.79996566854E+02  0.24666495583E+02  0.13411968048E+04  0.13461611940E+04  0.79581432115E+02 0.  0.
      -13    1    4    4    0    0  0.82848651291E+01 -0.26364156091E+01  0.12364468295E+02  0.15115215965E+02  0.00000000000E+00 0.  1.
       14    1    4    4    0    0  0.71711701725E+02  0.27302911192E+02  0.13288323365E+04  0.13310459781E+04  0.00000000000E+00 0. -1.
        1    1    3    3  502    0  0.75798266885E+01 -0.77357701016E+01  0.19251707035E+03  0.19282146739E+03  0.00000000000E+00 0. -1.
       -2    1    3    3    0  502 -0.87576393542E+02 -0.16930725481E+02  0.29589947703E+03  0.30905141106E+03  0.00000000000E+00 0.  1.
</event>
<event>
 8   1  0.2279600E-02  0.8373982E+02  0.7546771E-02  0.1318956E+00
        2   -1    0    0  501    0  0.00000000000E+00  0.00000000000E+00  0.56640944993E+02  0.56640944993E+02  0.00000000000E+00 0. -1.
       -2   -1    0    0    0  501 -0.00000000000E+00 -0.00000000000E+00 -0.20574379732E+03  0.20574379732E+03  0.00000000000E+00 0.  1.
       24    2    1    2    0    0 -0.40028916355E+00  0.21982368712E+02  0.85359106616E+01  0.83884499385E+02  0.80500700001E+02 0.  0.
      -24    2    1    2    0    0  0.40028916355E+00 -0.21982368712E+02 -0.15763876299E+03  0.17850024293E+03  0.80802056674E+02 0.  0.
      -13    1    3    3    0    0 -0.14211479008E+02  0.10580382373E+01 -0.32674394266E+02  0.35646901985E+02  0.00000000000E+00 0.  1.
       14    1    3    3    0    0  0.13811189844E+02  0.20924330475E+02  0.41210304927E+02  0.48237597400E+02  0.00000000000E+00 0. -1.
        3    1    4    4  502    0  0.15175932677E+02  0.24580552773E+02 -0.93596473026E+02  0.97953112611E+02  0.00000000000E+00 0. -1.
       -4    1    4    4    0  502 -0.14775643513E+02 -0.46562921485E+02 -0.64042289964E+02  0.80547130317E+02  0.00000000000E+00 0.  1.
</event>
<event>
 8   1  0.2279600E-02  0.1878586E+03  0.7546771E-02  0.1160459E+00
       -2   -1    0    0    0  501 -0.00000000000E+00  0.00000000000E+00  0.38397537651E+02  0.38397537651E+02  0.00000000000E+00 0.  1.
        2   -1    0    0  501    0  0.00000000000E+00 -0.00000000000E+00 -0.94488106082E+03  0.94488106082E+03  0.00000000000E+00 0. -1.
      -24    2    1    2    0    0 -0.66650102765E+02 -0.15591001231E+03 -0.37054714942E+03  0.41544679075E+03  0.80874457446E+02 0.  0.
       24    2    1    2    0    0  0.66650102765E+02  0.15591001231E+03 -0.53593637375E+03  0.56783180772E+03  0.80342996020E+02 0.  0.
      -13    1    4    4    0    0 -0.66400956829E+01  0.10750362266E+02 -0.12886139571E+03  0.12947942100E+03  0.00000000000E+00 0.  1.
       14    1    4    4    0    0  0.73290198448E+02  0.14515965005E+03 -0.40707497804E+03  0.43835238672E+03  0.00000000000E+00 0. -1.
        3    1    3    3  502    0 -0.10494825443E+02 -0.39860119273E+02 -0.18481197601E+03  0.18935267874E+03  0.00000000000E+00 0. -1.
       -4    1    3    3    0  502 -0.56155277322E+02 -0.11604989304E+03 -0.18573517341E+03  0.22609411201E+03  0.00000000000E+00 0.  1.
</event>
<event>
 8   1  0.2279600E-02  0.1303657E+03  0.7546771E-02  0.1228666E+00
        4   -1    0    0  501    0  0.00000000000E+00  0.00000000000E+00  0.66028656722E+03  0.66028656722E+03  0.00000000000E+00 0. -1.
       -4   -1    0    0    0  501 -0.00000000000E+00 -0.00000000000E+00 -0.39521543467E+02  0.39521543467E+02  0.00000000000E+00 0.  1.
      -24    2    1    2    0    0 -0.88019572982E+02 -0.52890309122E+02  0.93525325989E+02  0.15669034807E+03  0.72526192162E+02 0.  0.
       24    2    1    2    0    0  0.88019572982E+02  0.52890309122E+02  0.52723969776E+03  0.54311776261E+03  0.80314227541E+02 0.  0.
      -13    1    4    4    0    0 -0.76731739180E+01  0.25586835199E+02  0.64755483983E+02  0.70048814689E+02  0.00000000000E+00 0.  1.
       14    1    4    4    0    0  0.95692746900E+02  0.27303473923E+02  0.46248421378E+03  0.47306894793E+03  0.00000000000E+00 0. -1.
        3    1    3    3  502    0  0.50848548921E+01 -0.23452162141E+01  0.35424312100E+02  0.35864155868E+02  0.00000000000E+00 0. -1.
       -4    1    3    3    0  502 -0.93104427874E+02 -0.50545092908E+02  0.58101013890E+02  0.12082619220E+03  0.00000000000E+00 0.  1.
</event>
<event>
 8   1  0.2279600E-02  0.8012388E+02  0.7546771E-02  0.1329868E+00
        2   -1    0    0  501    0  0.00000000000E+00  0.00000000000E+00  0.15434026189E+03  0.15434026189E+03  0.00000000000E+00 0. -1.
       -2   -1    0    0    0  501 -0.00000000000E+00 -0.00000000000E+00 -0.40789773416E+02  0.40789773416E+02  0.00000000000E+00 0.  1.
      -24    2    1    2    0    0 -0.10172318495E+02 -0.58207105318E+01  0.59131190474E+02  0.98272943906E+02  0.77612609043E+02 0.  0.
       24    2    1    2    0    0  0.10172318495E+02  0.58207105318E+01  0.54419298004E+02  0.96857091403E+02  0.79262093243E+02 0.  0.
      -13    1    4    4    0    0  0.35909272434E+01 -0.18322052526E+01 -0.20686714594E+02  0.21075860487E+02  0.00000000000E+00 0.  1.
       14    1    4    4    0    0  0.65813912513E+01  0.76529157844E+01  0.75106012598E+02  0.75781230916E+02  0.00000000000E+00 0. -1.
        1    1    3    3  502    0 -0.45292179538E+01 -0.41781929713E+02  0.29696020018E+02  0.51459664503E+02  0.00000000000E+00 0. -1.
       -2    1    3    3    0  502 -0.56431005410E+01  0.35961219181E+02  0.29435170456E+02  0.46813279404E+02  0.00000000000E+00 0.  1.
</event>
<event>
 8   1  0.2279600E-02  0.8764671E+02  0.7546771E-02  0.1308752E+00
        2   -1    0    0  501    0  0.00000000000E+00  0.00000000000E+00  0.18082204075E+03  0.18082204075E+03  0.00000000000E+00 0. -1.
       -2   -1    0    0    0  501 -0.00000000000E+00 -0.00000000000E+00 -0.53199426258E+02  0.53199426258E+02  0.00000000000E+00 0.  1.
      -24    2    1    2    0    0 -0.34804380619E+02  0.37723222574E+01  0.11061450801E+02  0.88184398178E+02  0.80178282986E+02 0.  0.
       24    2    1    2    0    0  0.34804380619E+02 -0.37723222574E+01  0.11656116370E+03  0.14583706883E+03  0.80351542850E+02 0.  0.
      -13    1    4    4    0    0 -0.57193549140E+01  0.25706952682E+02  0.10162853319E+02  0.28228390397E+02  0.00000000000E+00 0.  1.
       14    1    4    4    0    0  0.40523735533E+02 -0.29479274940E+02  0.10639831038E+03  0.11760867844E+03  0.00000000000E+00 0. -1.
        3    1    3    3  502    0  0.86060686295E+01  0.13472678449E+02  0.34413916460E+02  0.37945950086E+02  0.00000000000E+00 0. -1.
       -4    1    3    3    0  502 -0.43410449249E+02 -0.97003561915E+01 -0.23352465660E+02  0.50238448091E+02  0.00000000000E+00 0.  1.
</event>
<event>
 8   1  0.2279600E-02  0.1217191E+03  0.7546771E-02  0.1240508E+00
       -1   -1    0    0    0  501 -0.00000000000E+00  0.00000000000E+00  0.28073267631E+02  0.28073267631E+02  0.00000000000E+00 0.  1.
        1   -1    0    0  501    0  0.00000000000E+00 -0.00000000000E+00 -0.14938996715E+04  0.14938996715E+04  0.00000000000E+00 0. -1.
       24    2    1    2    0    0  0.16075734347E+02 -0.90086871451E+02 -0.11960744554E+03  0.17026253496E+03  0.79431203820E+02 0.  0.
      -24    2    1    2    0    0 -0.16075734347E+02  0.90086871451E+02 -0.13462189583E+04  0.13517104042E+04  0.80258702540E+02 0.  0.
      -13    1    3    3    0    0 -0.28828563304E+02 -0.46986356638E+02 -0.35264700219E+02  0.65440070705E+02  0.00000000000E+00 0.  1.
       14    1    3    3    0    0  0.44904297651E+02 -0.43100514812E+02 -0.84342745316E+02  0.10482246425E+03  0.00000000000E+00 0. -1.
        3    1    4    4  502    0 -0.19084702229E+02  0.51125640846E+02 -0.11672477187E+04  0.11685226972E+04  0.00000000000E+00 0. -1.
       -4    1    4    4    0  502  0.30089678815E+01  0.38961230604E+02 -0.17897123958E+03  0.18318770694E+03  0.00000000000E+00 0.  1.
</event>
<event>
 8   1  0.2279600E-02  0.8696969E+02  0.7546771E-02  0.1311791E+00
        1   -1    0    0  501    0  0.00000000000E+00  0.00000000000E+00  0.10641422704E+02  0.10641422704E+02  0.00000000000E+00 0. -1.
       -1   -1    0    0    0  501 -0.00000000000E+00 -0.00000000000E+00 -0.78731647289E+03  0.78731647289E+03  0.00000000000E+00 0.  1.
       24    2    1    2    0    0  0.25394343539E+02 -0.13279072626E+02 -0.25447109264E+03  0.26892241212E+03  0.82112850982E+02 0.  0.
      -24    2    1    2    0    0 -0.25394343539E+02  0.13279072626E+02 -0.52220395754E+03  0.52903548347E+03  0.79751884288E+02 0.  0.
      -13    1    3    3    0    0  0.33708696423E+02 -0.21095291936E+02 -0.25442197437E+03  0.25751083200E+03  0.00000000000E+00 0.  1.
       14    1    3    3    0    0 -0.83143528837E+01  0.78162193100E+01 -0.49118272578E-01  0.11411580118E+02  0.00000000000E+00 0. -1.
        3    1    4    4  502    0 -0.26383093526E+02  0.44881845479E+02 -0.36384921252E+03  0.36755502599E+03  0.00000000000E+00 0. -1.
       -4    1    4    4    0  502  0.98874998747E+00 -0.31602772853E+02 -0.15835474502E+03  0.16148045748E+03  0.00000000000E+00 0.  1.
</event>
<event>
 8   1  0.2279600E-02  0.8860277E+02  0.7546771E-02  0.1309220E+00
        2   -1    0    0  501    0  0.00000000000E+00  0.00000000000E+00  0.24886234921E+04  0.24886234921E+04  0.00000000000E+00 0. -1.
       -2   -1    0    0    0  501 -0.00000000000E+00 -0.00000000000E+00 -0.38159137368E+01  0.38159137368E+01  0.00000000000E+00 0.  1.
      -24    2    1    2    0    0 -0.26173269486E+02  0.41146719081E+01  0.68954787740E+03  0.69521703497E+03  0.84548683756E+02 0.  0.
       24    2    1    2    0    0  0.26173269486E+02 -0.41146719081E+01  0.17952597009E+04  0.17972223708E+04  0.79679896346E+02 0.  0.
      -13    1    4    4    0    0  0.10699449853E+02 -0.72853822038E+01  0.43346645337E+02  0.45238110957E+02  0.00000000000E+00 0.  1.
       14    1    4    4    0    0  0.15473819633E+02  0.31707102956E+01  0.17519130556E+04  0.17519842599E+04  0.00000000000E+00 0. -1.
        1    1    3    3  502    0  0.16657190800E+02  0.11693239644E+02  0.51252279179E+03  0.51292670623E+03  0.00000000000E+00 0. -1.
       -2    1    3    3    0  502 -0.42830460286E+02 -0.75785677357E+01  0.17702508561E+03  0.18229032874E+03  0.00000000000E+00 0.  1.
</event>
<event>
 8   1  0.2279600E-02  0.1326613E+03  0.7546771E-02  0.1223578E+00
        2   -1    0    0  501    0  0.00000000000E+00  0.00000000000E+00  0.11208874269E+03  0.11208874269E+03  0.00000000000E+00 0. -1.
       -2   -1    0    0    0  501 -0.00000000000E+00 -0.00000000000E+00 -0.18316611995E+03  0.18316611995E+03  0.00000000000E+00 0.  1.
       24    2    1    2    0    0  0.68536744620E+02 -0.79023127993E+02  0.20317427331E+02  0.13415848676E+03  0.81509273063E+02 0.  0.
      -24    2    1    2    0    0 -0.68536744620E+02  0.79023127993E+02 -0.91394804585E+02  0.16109637588E+03  0.81591003774E+02 0.  0.
      -13    1    3    3    0    0 -0.13875973117E+02 -0.37785926671E+02  0.27672519906E+01  0.40348191631E+02  0.00000000000E+00 0.  1.
       14    1    3    3    0    0  0.82412717736E+02 -0.41237201322E+02  0.17550175340E+02  0.93810295128E+02  0.00000000000E+00 0. -1.
        3    1    4    4  502    0 -0.24792869129E+01  0.45569654754E+02 -0.29273876940E+01  0.45730841854E+02  0.00000000000E+00 0. -1.
       -4    1    4    4    0  502 -0.66057457707E+02  0.33453473239E+02 -0.88467416891E+02  0.11536553403E+03  0.00000000000E+00 0.  1.
</event>
<event>
 8   1  0.2279600E-02  0.1155917E+03  0.7546771E-02  0.1250595E+00
        2   -1    0    0  501    0  0.00000000000E+00  0.00000000000E+00  0.14431036744E+03  0.14431036744E+03  0.00000000000E+00 0. -1.
       -2   -1    0    0    0  501 -0.00000000000E+00 -0.00000000000E+00 -0.11492916944E+03  0.11492916944E+03  0.00000000000E+00 0.  1.
      -24    2    1    2    0    0  0.71452159310E+02  0.41686596535E+02 -0.42555746611E+02  0.12317641088E+03  0.80735699835E+02 0.  0.
       24    2    1    2    0    0 -0.71452159310E+02 -0.41686596535E+02  0.71936944608E+02  0.13606312600E+03  0.80591977614E+02 0.  0.
      -13    1    4    4    0    0 -0.18282165766E+02  0.17977083088E+02 -0.38466938660E+01  0.25927015933E+02  0.00000000000E+00 0.  1.
       14    1    4    4    0    0 -0.53169993543E+02 -0.59663679624E+02  0.75783638474E+02  0.11013611006E+03  0.00000000000E+00 0. -1.
        3    1    3    3  502    0 -0.10137581187E+02 -0.77992335732E+01  0.81009533224E+01  0.15140146676E+02  0.00000000000E+00 0. -1.
       -4    1    3    3    0  502  0.81589740496E+02  0.49485830108E+02 -0.50656699934E+02  0.10803626421E+03  0.00000000000E+00 0.  1.
</event>
<event>
 8   1  0.2279600E-02  0.8506079E+02  0.7546771E-02  0.1316044E+00
        2   -1    0    0  501    0  0.00000000000E+00  0.00000000000E+00  0.65312976600E+02  0.65312976600E+02  0.00000000000E+00 0. -1.
       -2   -1    0    0    0  501 -0.00000000000E+00 -0.00000000000E+00 -0.30291704112E+03  0.30291704112E+03  0.00000000000E+00 0.  1.
      -24    2    1    2    0    0  0.24606845893E+01  0.20659594819E+02 -0.26630948916E+03  0.27956409323E+03  0.82477053660E+02 0.  0.
       24    2    1    2    0    0 -0.24606845893E+01 -0.20659594819E+02  0.28705424635E+02  0.88665924494E+02  0.81269741824E+02 0.  0.
      -13    1    4    4    0    0 -0.15565299540E+02  0.19432838021E+02 -0.14064573514E+02  0.28595908299E+02  0.00000000000E+00 0.  1.
       14    1    4    4    0    0  0.13104614951E+02 -0.40092432840E+02  0.42769998149E+02  0.60070016195E+02  0.00000000000E+00 0. -1.
        3    1    3    3  502    0  0.41822109407E+02  0.13973783170E+02 -0.11782906808E+03  0.12580955741E+03  0.00000000000E+00 0. -1.
       -4    1    3    3    0  502 -0.39361424817E+02  0.66858116489E+01 -0.14848042108E+03  0.15375453582E+03  0.00000000000E+00 0.  1.
</event>
<event>
 8   1  0.2279600E-02  0.8855342E+02  0.7546771E-02  0.1307869E+00
        2   -1    0    0  501    0  0.00000000000E+00  0.00000000000E+00  0.16234387869E+04  0.16234387869E+04  0.00000000000E+00 0. -1.
       -2   -1    0    0    0  501 -0.00000000000E+00 -0.00000000000E+00 -0.67124621356E+01  0.67124621356E+01  0.00000000000E+00 0.  1.
      -24    2    1    2    0    0 -0.31408731362E+01 -0.34080870865E+02  0.37004272996E+03  0.38049090750E+03  0.81672136344E+02 0.  0.
       24    2    1    2    0    0  0.31408731362E+01  0.34080870865E+02  0.12466835948E+04  0.12496603416E+04  0.79117714805E+02 0.  0.
      -13    1    4    4    0    0  0.15442835648E+01 -0.23534821336E+02  0.58360562499E+03  0.58408201320E+03  0.00000000000E+00 0.  1.
       14    1    4    4    0    0  0.15965895715E+01  0.57615692201E+02  0.66307796984E+03  0.66557832835E+03  0.00000000000E+00 0. -1.
        3    1    3    3  502    0  0.14887938544E+02  0.20475999788E+02  0.18523380208E+03  0.18695582022E+03  0.00000000000E+00 0. -1.
       -4    1    3    3    0  502 -0.18028811680E+02 -0.54556870653E+02  0.18480892788E+03  0.19353508728E+03  0.00000000000E+00 0.  1.
</event>
<event>
 8   1  0.2279600E-02  0.9543912E+02  0.7546771E-02  0.1294237E+00
       -2   -1    0    0    0  501 -0.00000000000E+00  0.00000000000E+00  0.44432193923E+01  0.44432193923E+01  0.00000000000E+00 0.  1.
        2   -1    0    0  501    0  0.00000000000E+00 -0.00000000000E+00 -0.19611661725E+04  0.19611661725E+04  0.00000000000E+00 0. -1.
      -24    2    1    2    0    0 -0.16322926785E+02  0.30036668801E+02 -0.77421823952E+03  0.77925951817E+03  0.81626434665E+02 0.  0.
       24    2    1    2    0    0  0.16322926785E+02 -0.30036668801E+02 -0.11825047136E+04  0.11863498737E+04  0.89106598076E+02 0.  0.
      -13    1    4    4    0    0  0.23639869049E+02  0.26129060208E+02 -0.30712908567E+03  0.30914373107E+03  0.00000000000E+00 0.  1.
       14    1    4    4    0    0 -0.73169422642E+01 -0.56165729009E+02 -0.87537562789E+03  0.87720614263E+03  0.00000000000E+00 0. -1.
        1    1    3    3  502    0  0.19868901886E+02 -0.79914798469E+01 -0.47416625396E+03  0.47464963226E+03  0.00000000000E+00 0. -1.
       -2    1    3    3    0  502 -0.36191828670E+02  0.38028148648E+02 -0.30005198557E+03  0.30460988591E+03  0.00000000000E+00 0.  1.
</event>
<event>
 8   1  0.2279600E-02  0.9454977E+02  0.7546771E-02  0.1292766E+00
        2   -1    0    0  501    0  0.00000000000E+00  0.00000000000E+00  0.57670423930E+03  0.57670423930E+03  0.00000000000E+00 0. -1.
       -2   -1    0    0    0  501 -0.00000000000E+00 -0.00000000000E+00 -0.42770553791E+02  0.42770553791E+02  0.00000000000E+00 0.  1.
      -24    2    1    2    0    0 -0.26350861923E+02 -0.40659653652E+02  0.18393784164E+02  0.95336405331E+02  0.80019519659E+02 0.  0.
       24    2    1    2    0    0  0.26350861923E+02  0.40659653652E+02  0.51553990134E+03  0.52413838776E+03  0.81191651571E+02 0.  0.
      -13    1    4    4    0    0  0.35707611475E+02 -0.11092848152E+02  0.13891002475E+03  0.14385437002E+03  0.00000000000E+00 0.  1.
       14    1    4    4    0    0 -0.93567495519E+01  0.51752501804E+02  0.37662987659E+03  0.38028401774E+03  0.00000000000E+00 0. -1.
        3    1    3    3  502    0  0.21051102729E+02  0.10587230202E+02  0.71808386457E+01  0.24633367880E+02  0.00000000000E+00 0. -1.
       -4    1    3    3    0  502 -0.47401964652E+02 -0.51246883854E+02  0.11212945518E+02  0.70703037451E+02  0.00000000000E+00 0.  1.
</event>
<event>
 8   1  0.2279600E-02  0.9871427E+02  0.7546771E-02  0.1283045E+00
        2   -1    0    0  501    0  0.00000000000E+00  0.00000000000E+00  0.41413696504E+02  0.41413696504E+02  0.00000000000E+00 0. -1.
       -2   -1    0    0    0  501 -0.00000000000E+00 -0.00000000000E+00 -0.24033105372E+03  0.24033105372E+03  0.00000000000E+00 0.  1.
       24    2    1    2    0    0 -0.50619304935E+02  0.26158984008E+02 -0.78891909339E+02  0.12636629662E+03  0.80609559519E+02 0.  0.
      -24    2    1    2    0    0  0.50619304935E+02 -0.26158984008E+02 -0.12002544787E+03  0.15537845360E+03  0.80558979820E+02 0.  0.
      -13    1    3    3    0    0 -0.89214547768E+01  0.49383400268E+02 -0.32382229232E+02  0.59723708419E+02  0.00000000000E+00 0.  1.
       14    1    3    3    0    0 -0.41697850158E+02 -0.23224416259E+02 -0.46509680107E+02  0.66642588200E+02  0.00000000000E+00 0. -1.
        1    1    4    4  502    0  0.67305179957E+02 -0.23554487484E+02 -0.60535697948E+02  0.93538077036E+02  0.00000000000E+00 0. -1.
       -2    1    4    4    0  502 -0.16685875022E+02 -0.26044965245E+01 -0.59489749925E+02  0.61840376563E+02  0.00000000000E+00 0.  1.
</event>
<event>
 8   1  0.2279600E-02  0.2790296E+03  0.7546771E-02  0.1096366E+00
       -2   -1    0    0    0  501 -0.00000000000E+00  0.00000000000E+00  0.37793988127E+02  0.37793988127E+02  0.00000000000E+00 0.  1.
        2   -1    0    0  501    0  0.00000000000E+00 -0.00000000000E+00 -0.21770539660E+04  0.21770539660E+04  0.00000000000E+00 0. -1.
       24    2    1    2    0    0 -0.23730478729E+03  0.12017791442E+03 -0.80252422100E+03  0.84930044238E+03  0.80683473871E+02 0.  0.
      -24    2    1    2    0    0  0.23730478729E+03 -0.12017791442E+03 -0.13367357569E+04  0.13655475117E+04  0.84268795749E+02 0.  0.
      -13    1    3    3    0    0 -0.17469886743E+03  0.46307456430E+02 -0.54402694498E+03  0.57326206195E+03  0.00000000000E+00 0.  1.
       14    1    3    3    0    0 -0.62605919867E+02  0.73870457987E+02 -0.25849727601E+03  0.27603838043E+03  0.00000000000E+00 0. -1.
        1    1    4    4  502    0  0.17379122001E+03 -0.44221525803E+02 -0.90619027144E+03  0.92376389816E+03  0.00000000000E+00 0. -1.
       -2    1    4    4    0  502  0.63513567284E+02 -0.75956388615E+02 -0.43054548543E+03  0.44178361358E+03  0.00000000000E+00 0.  1.
</event>
<event>
 8   1  0.2279600E-02  0.8261154E+02  0.7546771E-02  0.1322439E+00
        1   -1    0    0  501    0  0.00000000000E+00  0.00000000000E+00  0.27976484098E+03  0.27976484098E+03  0.00000000000E+00 0. -1.
       -1   -1    0    0    0  501 -0.00000000000E+00 -0.00000000000E+00 -0.10163280857E+03  0.10163280857E+03  0.00000000000E+00 0.  1.
       24    2    1    2    0    0  0.64575118832E+01  0.17915655124E+02 -0.77594429629E+02  0.11265857463E+03  0.79425366033E+02 0.  0.
      -24    2    1    2    0    0 -0.64575118832E+01 -0.17915655124E+02  0.25572646204E+03  0.26873907492E+03  0.80386546426E+02 0.  0.
      -13    1    3    3    0    0 -0.21265538700E+02  0.28594731417E+02 -0.74755292411E+02  0.82814464585E+02  0.00000000000E+00 0.  1.
       14    1    3    3    0    0  0.27723050583E+02 -0.10679076293E+02 -0.28391372176E+01  0.29844110043E+02  0.00000000000E+00 0. -1.
        1    1    4    4  502    0  0.35593118378E+02 -0.15337847578E+01  0.14162354716E+03  0.14603578904E+03  0.00000000000E+00 0. -1.
       -2    1    4    4    0  502 -0.42050630262E+02 -0.16381870366E+02  0.11410291488E+03  0.12270328588E+03  0.00000000000E+00 0.  1.
</event>
<event>
 8   1  0.2279600E-02  0.9669317E+02  0.7546771E-02  0.1288003E+00
       -1   -1    0    0    0  501 -0.00000000000E+00  0.00000000000E+00  0.60727772639E+02  0.60727772639E+02  0.00000000000E+00 0.  1.
        1   -1    0    0  501    0  0.00000000000E+00 -0.00000000000E+00 -0.43769059332E+03  0.43769059332E+03  0.00000000000E+00 0. -1.
       24    2    1    2    0    0 -0.30473942212E+02  0.37494278486E+02  0.12401699861E+02  0.97485234852E+02  0.83756114890E+02 0.  0.
      -24    2    1    2    0    0  0.30473942212E+02 -0.37494278486E+02 -0.38936452055E+03  0.40093313111E+03  0.82511597307E+02 0.  0.
      -13    1    3    3    0    0 -0.52148025339E+02  0.21478453025E+02 -0.15707190536E+02  0.58544481599E+02  0.00000000000E+00 0.  1.
       14    1    3    3    0    0  0.21674083127E+02  0.16015825461E+02  0.28108890396E+02  0.38940753253E+02  0.00000000000E+00 0. -1.
        3    1    4    4  502    0  0.12313956603E+02  0.10284746226E+02 -0.27728256598E+03  0.27774634279E+03  0.00000000000E+00 0. -1.
       -4    1    4    4    0  502  0.18159985609E+02 -0.47779024712E+02 -0.11208195456E+03  0.12318678833E+03  0.00000000000E+00 0.  1.
</event>
<event>
 8   1  0.2279600E-02  0.9644681E+02  0.7546771E-02  0.1291060E+00
        2   -1    0    0  501    0  0.00000000000E+00  0.00000000000E+00  0.15125334057E+04  0.15125334057E+04  0.00000000000E+00 0. -1.
       -2   -1    0    0    0  501 -0.00000000000E+00 -0.00000000000E+00 -0.10070866070E+02  0.10070866070E+02  0.00000000000E+00 0.  1.
      -24    2    1    2    0    0  0.48548087397E+02  0.68963607423E+01  0.26858648119E+03  0.28537814507E+03  0.83051256604E+02 0.  0.
       24    2    1    2    0    0 -0.48548087397E+02 -0.68963607423E+01  0.12338760585E+04  0.12372261267E+04  0.76641271005E+02 0.  0.
      -13    1    4    4    0    0 -0.10177698708E+02 -0.34372870410E+02  0.79754629850E+03  0.79835153787E+03  0.00000000000E+00 0.  1.
       14    1    4    4    0    0 -0.38370388689E+02  0.27476509668E+02  0.43632975997E+03  0.43887458886E+03  0.00000000000E+00 0. -1.
        3    1    3    3  502    0  0.41086401578E+02  0.41403348357E+02  0.13219840821E+03  0.14449480538E+03  0.00000000000E+00 0. -1.
       -4    1    3    3    0  502  0.74616858191E+01 -0.34506987614E+02  0.13638807298E+03  0.14088333969E+03  0.00000000000E+00 0.  1.
</event>
<event>
 8   1  0.2279600E-02  0.8552555E+02  0.7546771E-02  0.1316049E+00
       -2   -1    0    0    0  501 -0.00000000000E+00  0.00000000000E+00  0.63837566013E+03  0.63837566013E+03  0.00000000000E+00 0.  1.
        2   -1    0    0  501    0  0.00000000000E+00 -0.00000000000E+00 -0.11406068125E+02  0.11406068125E+02  0.00000000000E+00 0. -1.
       24    2    1    2    0    0  0.77067940924E+01 -0.24599901894E+01  0.37555540644E+03  0.38517071886E+03  0.85142076147E+02 0.  0.
      -24    2    1    2    0    0 -0.77067940924E+01  0.24599901894E+01  0.25141418557E+03  0.26461100940E+03  0.82124584413E+02 0.  0.
      -13    1    3    3    0    0 -0.17099236788E+02  0.12805843600E+02  0.33251716633E+03  0.33320270022E+03  0.00000000000E+00 0.  1.
       14    1    3    3    0    0  0.24806030881E+02 -0.15265833789E+02  0.43038240112E+02  0.51968018639E+02  0.00000000000E+00 0. -1.
        1    1    4    4  502    0 -0.30350232552E+02 -0.11975816263E+02  0.22352991044E+03  0.22589860037E+03  0.00000000000E+00 0. -1.
       -2    1    4    4    0  502  0.22643438459E+02  0.14435806453E+02  0.27884275134E+02  0.38712409030E+02  0.00000000000E+00 0.  1.
</event>
<event>
 8   1  0.2279600E-02  0.1495887E+03  0.7546771E-02  0.1201487E+00
       -1   -1    0    0    0  501 -0.00000000000E+00  0.00000000000E+00  0.15196515917E+03  0.15196515917E+03  0.00000000000E+00 0.  1.
        1   -1    0    0  501    0  0.00000000000E+00 -0.00000000000E+00 -0.31012845455E+03  0.31012845455E+03  0.00000000000E+00 0. -1.
       24    2    1    2    0    0 -0.19864266928E+02 -0.12277962221E+03  0.89386103708E+02  0.17285760384E+03  0.80127716411E+02 0.  0.
      -24    2    1    2    0    0  0.19864266928E+02  0.12277962221E+03 -0.24754939909E+03  0.28923600988E+03  0.83110406630E+02 0.  0.
      -13    1    3    3    0    0  0.11238730345E+02 -0.80499802420E+02  0.88777754984E+02  0.12036617893E+03  0.00000000000E+00 0.  1.
       14    1    3    3    0    0 -0.31102997273E+02 -0.42279819793E+02  0.60834872389E+00  0.52491424911E+02  0.00000000000E+00 0. -1.
        1    1    4    4  502    0 -0.25417641423E+02  0.83167367286E+02 -0.17128814703E+03  0.19210022589E+03  0.00000000000E+00 0. -1.
       -2    1    4    4    0  502  0.45281908351E+02  0.39612254927E+02 -0.76261252063E+02  0.97135783986E+02  0.00000000000E+00 0.  1.
</event>
<event>
 8   1  0.2279600E-02  0.1632613E+03  0.7546771E-02  0.1185175E+00
        2   -1    0    0  501    0  0.00000000000E+00  0.00000000000E+00  0.43989527630E+03  0.43989527630E+03  0.00000000000E+00 0. -1.
       -2   -1    0    0    0  501 -0.00000000000E+00 -0.00000000000E+00 -0.60443023636E+02  0.60443023636E+02  0.00000000000E+00 0.  1.
      -24    2    1    2    0    0  0.70391063023E+02 -0.12332993646E+03  0.19065309161E+03  0.25073986698E+03  0.79728944374E+02 0.  0.
       24    2    1    2    0    0 -0.70391063023E+02  0.12332993646E+03  0.18879916105E+03  0.24959843296E+03  0.80554823203E+02 0.  0.
      -13    1    4    4    0    0 -0.79248586243E+01  0.60514562184E+02  0.30572640749E+02  0.68260544848E+02  0.00000000000E+00 0.  1.
       14    1    4    4    0    0 -0.62466204399E+02  0.62815374271E+02  0.15822652030E+03  0.18133788811E+03  0.00000000000E+00 0. -1.
        1    1    3    3  502    0  0.49073701455E+02 -0.14198880937E+02  0.70052168340E+02  0.86701457217E+02  0.00000000000E+00 0. -1.
       -2    1    3    3    0  502  0.21317361569E+02 -0.10913105552E+03  0.12060092327E+03  0.16403840976E+03  0.00000000000E+00 0.  1.
</event>
<event>
 8   1  0.2279600E-02  0.8744094E+02  0.7546771E-02  0.1311076E+00
        2   -1    0    0  501    0  0.00000000000E+00  0.00000000000E+00  0.84693264486E+03  0.84693264486E+03  0.00000000000E+00 0. -1.
       -2   -1    0    0    0  501 -0.00000000000E+00 -0.00000000000E+00 -0.10155606672E+02  0.10155606672E+02  0.00000000000E+00 0.  1.
      -24    2    1    2    0    0 -0.25625863236E+02  0.27257963363E+02  0.57308288261E+03  0.57927441913E+03  0.75730977054E+02 0.  0.
       24    2    1    2    0    0  0.25625863236E+02 -0.27257963363E+02  0.26369415558E+03  0.27781383240E+03  0.79033134531E+02 0.  0.
      -13    1    4    4    0    0  0.36435365437E+02 -0.32650389690E+02  0.80355008939E+02  0.94077155904E+02  0.00000000000E+00 0.  1.
       14    1    4    4    0    0 -0.10809502201E+02  0.53924263270E+01  0.18333914664E+03  0.18373667650E+03  0.00000000000E+00 0. -1.
        1    1    3    3  502    0 -0.21281195169E+02  0.51229634470E+02  0.29835042027E+03  0.30346389899E+03  0.00000000000E+00 0. -1.
       -2    1    3    3    0  502 -0.43446680664E+01 -0.23971671107E+02  0.27473246234E+03  0.27581052014E+03  0.00000000000E+00 0.  1.
</event>
<event>
 8   1  0.2279600E-02  0.8323870E+02  0.7546771E-02  0.1321026E+00
       -1   -1    0    0    0  501 -0.00000000000E+00  0.00000000000E+00  0.80699976071E+02  0.80699976071E+02  0.00000000000E+00 0.  1.
        1   -1    0    0  501    0  0.00000000000E+00 -0.00000000000E+00 -0.40233074723E+03  0.40233074723E+03  0.00000000000E+00 0. -1.
       24    2    1    2    0    0  0.97695459311E+01 -0.13222737847E+02  0.54133744531E+02  0.98157169687E+02  0.80212734900E+02 0.  0.
      -24    2    1    2    0    0 -0.97695459311E+01  0.13222737847E+02 -0.37576451569E+03  0.38487355362E+03  0.81598996292E+02 0.  0.
      -13    1    3    3    0    0  0.44950190277E+02 -0.72827991144E+01  0.24100831084E+02  0.51520955230E+02  0.00000000000E+00 0.  1.
       14    1    3    3    0    0 -0.35180644346E+02 -0.59399387322E+01  0.30032913447E+02  0.46636214457E+02  0.00000000000E+00 0. -1.
        3    1    4    4  502    0 -0.23637320425E+02  0.33771698574E+02 -0.33221205951E+03  0.33475976913E+03  0.00000000000E+00 0. -1.
       -4    1    4    4    0  502  0.13867774494E+02 -0.20548960727E+02 -0.43552456178E+02  0.50113784486E+02  0.00000000000E+00 0.  1.
</event>
<event>
 8   1  0.2279600E-02  0.8715262E+02  0.7546771E-02  0.1311228E+00
        2   -1    0    0  501    0  0.00000000000E+00  0.00000000000E+00  0.16074155416E+04  0.16074155416E+04  0.00000000000E+00 0. -1.
       -2   -1    0    0    0  501 -0.00000000000E+00 -0.00000000000E+00 -0.93617546429E+01  0.93617546429E+01  0.00000000000E+00 0.  1.
      -24    2    1    2    0    0  0.29851672894E+02 -0.10481206212E+02  0.21857456385E+03  0.23454775434E+03  0.78973609810E+02 0.  0.
       24    2    1    2    0    0 -0.29851672894E+02  0.10481206212E+02  0.13794792231E+04  0.13822295419E+04  0.81207151540E+02 0.  0.
      -13    1    4    4    0    0  0.14791170201E+02  0.30904395707E+02  0.37861673933E+03  0.38016377482E+03  0.00000000000E+00 0.  1.
       14    1    4    4    0    0 -0.44642843095E+02 -0.20423189495E+02  0.10008624837E+04  0.10020657670E+04  0.00000000000E+00 0. -1.
        3    1    3    3  502    0  0.27440352264E+02  0.31337219255E+02  0.13116214803E+03  0.13761723482E+03  0.00000000000E+00 0. -1.
       -4    1    3    3    0  502  0.24113206306E+01 -0.41818425468E+02  0.87412415822E+02  0.96930519526E+02  0.00000000000E+00 0.  1.
</event>
<event>
 8   1  0.2279600E-02  0.7994683E+02  0.7546771E-02  0.1333560E+00
        3   -1    0    0  501    0  0.00000000000E+00  0.00000000000E+00  0.99358069707E+01  0.99358069707E+01  0.00000000000E+00 0. -1.
       -3   -1    0    0    0  501 -0.00000000000E+00 -0.00000000000E+00 -0.61974286325E+03  0.61974286325E+03  0.00000000000E+00 0.  1.
       24    2    1    2    0    0 -0.72872587559E+01  0.33760675235E+01 -0.37668922124E+03  0.38507955748E+03  0.79542405168E+02 0.  0.
      -24    2    1    2    0    0  0.72872587559E+01 -0.33760675235E+01 -0.23311783504E+03  0.24459911274E+03  0.73622679707E+02 0.  0.
      -13    1    3    3    0    0  0.15490397147E+02 -0.32128468122E+02 -0.12974300042E+03  0.13455644550E+03  0.00000000000E+00 0.  1.
       14    1    3    3    0    0 -0.22777655903E+02  0.35504535645E+02 -0.24694622081E+03  0.25052311198E+03  0.00000000000E+00 0. -1.
        1    1    4    4  502    0  0.17831523127E+02  0.29226963175E+01 -0.90758165039E+01  0.20220677932E+02  0.00000000000E+00 0. -1.
       -2    1    4    4    0  502 -0.10544264372E+02 -0.62987638410E+01 -0.22404201854E+03  0.22437843481E+03  0.00000000000E+00 0.  1.
</event>
<event>
 8   1  0.2279600E-02  0.1318794E+03  0.7546771E-02  0.1224695E+00
       -2   -1    0    0    0  501 -0.00000000000E+00  0.00000000000E+00  0.68263248724E+02  0.68263248724E+02  0.00000000000E+00 0.  1.
        2   -1    0    0  501    0  0.00000000000E+00 -0.00000000000E+00 -0.97882883278E+03  0.97882883278E+03  0.00000000000E+00 0. -1.
      -24    2    1    2    0    0  0.24194758004E+02 -0.10147298423E+03 -0.49997087087E+01  0.13197411960E+03  0.80684684509E+02 0.  0.
       24    2    1    2    0    0 -0.24194758004E+02  0.10147298423E+03 -0.90556587535E+03  0.91511796191E+03  0.80679469301E+02 0.  0.
      -13    1    4    4    0    0 -0.40179969529E+02  0.23887270385E+02 -0.21495641653E+03  0.21998020967E+03  0.00000000000E+00 0.  1.
       14    1    4    4    0    0  0.15985211525E+02  0.77585713841E+02 -0.69060945882E+03  0.69513775224E+03  0.00000000000E+00 0. -1.
        1    1    3    3  502    0 -0.39560448999E+01 -0.30015455986E+02 -0.37826503469E+02  0.48450203859E+02  0.00000000000E+00 0. -1.
       -2    1    3    3    0  502  0.28150802904E+02 -0.71457528240E+02  0.32826794761E+02  0.83523915740E+02  0.00000000000E+00 0.  1.
</event>
<event>
 8   1  0.2279600E-02  0.1055220E+03  0.7546771E-02  0.1269244E+00
       -1   -1    0    0    0  501 -0.00000000000E+00  0.00000000000E+00  0.35589267475E+02  0.35589267475E+02  0.00000000000E+00 0.  1.
        1   -1    0    0  501    0  0.00000000000E+00 -0.00000000000E+00 -0.41965924666E+03  0.41965924666E+03  0.00000000000E+00 0. -1.
       24    2    1    2    0    0 -0.61143460450E+02 -0.29645866526E+02 -0.76518775615E+02  0.13009834111E+03  0.80330910495E+02 0.  0.
      -24    2    1    2    0    0  0.61143460450E+02  0.29645866526E+02 -0.30755120357E+03  0.32515017302E+03  0.80730985627E+02 0.  0.
      -13    1    3    3    0    0 -0.49732895449E+02 -0.42977410909E+02 -0.16783335755E+02  0.67838772817E+02  0.00000000000E+00 0.  1.
       14    1    3    3    0    0 -0.11410565001E+02  0.13331544383E+02 -0.59735439860E+02  0.62259568297E+02  0.00000000000E+00 0. -1.
        1    1    4    4  502    0  0.53392488568E+02  0.47434831798E+02 -0.29103027871E+03  0.29966555396E+03  0.00000000000E+00 0. -1.
       -2    1    4    4    0  502  0.77509718819E+01 -0.17788965272E+02 -0.16520924862E+02  0.25484619064E+02  0.00000000000E+00 0.  1.
</event>
<event>
 8   1  0.2279600E-02  0.1526886E+03  0.7546771E-02  0.1198638E+00
       -1   -1    0    0    0  501 -0.00000000000E+00  0.00000000000E+00  0.13320118491E+03  0.13320118491E+03  0.00000000000E+00 0.  1.
        1   -1    0    0  501    0  0.00000000000E+00 -0.00000000000E+00 -0.26537485861E+03  0.26537485861E+03  0.00000000000E+00 0. -1.
       24    2    1    2    0    0 -0.88893610178E+02  0.86190520056E+02  0.52908301331E+02  0.16159550571E+03  0.89347296766E+02 0.  0.
      -24    2    1    2    0    0  0.88893610178E+02 -0.86190520056E+02 -0.18508197503E+03  0.23698053781E+03  0.81077482322E+02 0.  0.
      -13    1    3    3    0    0 -0.64359022573E+02  0.99266476935E+02  0.60359712262E+02  0.13281269553E+03  0.00000000000E+00 0.  1.
       14    1    3    3    0    0 -0.24534587605E+02 -0.13075956879E+02 -0.74514109308E+01  0.28782810184E+02  0.00000000000E+00 0. -1.
        1    1    4    4  502    0  0.56825594062E+02 -0.49683147850E+02 -0.17015820727E+03  0.18614880828E+03  0.00000000000E+00 0. -1.
       -2    1    4    4    0  502  0.32068016116E+02 -0.36507372206E+02 -0.14923767762E+02  0.50831729532E+02  0.00000000000E+00 0.  1.
</event>
<event>
 8   1  0.2279600E-02  0.1144092E+03  0.7546771E-02  0.1259223E+00
       -2   -1    0    0    0  501 -0.00000000000E+00  0.00000000000E+00  0.17667688963E+03  0.17667688963E+03  0.00000000000E+00 0.  1.
        2   -1    0    0  501    0  0.00000000000E+00 -0.00000000000E+00 -0.65527213954E+02  0.65527213954E+02  0.00000000000E+00 0. -1.
      -24    2    1    2    0    0  0.28463470469E+02  0.52625203811E+02  0.44638471981E+02  0.10986663643E+03  0.80613295387E+02 0.  0.
       24    2    1    2    0    0 -0.28463470469E+02 -0.52625203811E+02  0.66511203698E+02  0.13233746715E+03  0.97518632928E+02 0.  0.
      -13    1    4    4    0    0 -0.32980637159E+02  0.11036100592E+01  0.70937965403E+02  0.78237684770E+02  0.00000000000E+00 0.  1.
       14    1    4    4    0    0  0.45171666902E+01 -0.53728813871E+02 -0.44267617052E+01  0.54099782385E+02  0.00000000000E+00 0. -1.
        1    1    3    3  502    0 -0.10594637370E+02 -0.16207444544E+02  0.17789282792E+02  0.26294223356E+02  0.00000000000E+00 0. -1.
       -2    1    3    3    0  502  0.39058107839E+02  0.68832648355E+02  0.26849189189E+02  0.83572413078E+02  0.00000000000E+00 0.  1.
</event>
<event>
 8   1  0.2279600E-02  0.1107958E+03  0.7546771E-02  0.1273120E+00
       -4   -1    0    0    0  501 -0.00000000000E+00  0.00000000000E+00  0.56492002807E+02  0.56492002807E+02  0.00000000000E+00 0.  1.
        4   -1    0    0  501    0  0.00000000000E+00 -0.00000000000E+00 -0.18285013392E+03  0.18285013392E+03  0.00000000000E+00 0. -1.
      -24    2    1    2    0    0  0.32565376838E+02  0.14236519001E+02 -0.88507736222E+02  0.12225938838E+03  0.76488930142E+02 0.  0.
       24    2    1    2    0    0 -0.32565376838E+02 -0.14236519001E+02 -0.37850394889E+02  0.11708274834E+03  0.10494062762E+03 0.  0.
      -13    1    4    4    0    0  0.11026495294E+02 -0.42261390205E+02  0.11874991702E+02  0.45261729181E+02  0.00000000000E+00 0.  1.
       14    1    4    4    0    0 -0.43591872132E+02  0.28024871204E+02 -0.49725386591E+02  0.71821019163E+02  0.00000000000E+00 0. -1.
        1    1    3    3  502    0 -0.16037906436E+02  0.11304751414E+02  0.17559176902E+01  0.19700129297E+02  0.00000000000E+00 0. -1.
       -2    1    3    3    0  502  0.48603283274E+02  0.29317675872E+01 -0.90263653912E+02  0.10255925908E+03  0.00000000000E+00 0.  1.
</event>
<event>
 8   1  0.2279600E-02  0.8361448E+02  0.7546771E-02  0.1319196E+00
       -2   -1    0    0    0  501 -0.00000000000E+00  0.00000000000E+00  0.72268658062E+02  0.72268658062E+02  0.00000000000E+00 0.  1.
        2   -1    0    0  501    0  0.00000000000E+00 -0.00000000000E+00 -0.97261211118E+02  0.97261211118E+02  0.00000000000E+00 0. -1.
      -24    2    1    2    0    0  0.11135484659E+02 -0.23098312013E+02 -0.19634052148E+02  0.85743860867E+02  0.79429104465E+02 0.  0.
       24    2    1    2    0    0 -0.11135484659E+02  0.23098312013E+02 -0.53585009073E+01  0.83786008313E+02  0.79585492526E+02 0.  0.
      -13    1    4    4    0    0 -0.37607827994E+02 -0.11782191048E+02 -0.67061372175E+01  0.39976756105E+02  0.00000000000E+00 0.  1.
       14    1    4    4    0    0  0.26472343335E+02  0.34880503061E+02  0.13476363102E+01  0.43809252208E+02  0.00000000000E+00 0. -1.
        3    1    3    3  502    0  0.38028918127E+02 -0.25473148217E+01 -0.31941724884E+02  0.49728877077E+02  0.00000000000E+00 0. -1.
       -4    1    3    3    0  502 -0.26893433468E+02 -0.20550997192E+02  0.12307672736E+02  0.36014983791E+02  0.00000000000E+00 0.  1.
</event>
<event>
 8   1  0.2279600E-02  0.9932276E+02  0.7546771E-02  0.1281881E+00
        2   -1    0    0  501    0  0.00000000000E+00  0.00000000000E+00  0.24887479551E+03  0.24887479551E+03  0.00000000000E+00 0. -1.
       -2   -1    0    0    0  501 -0.00000000000E+00 -0.00000000000E+00 -0.12656647701E+03  0.12656647701E+03  0.00000000000E+00 0.  1.
      -24    2    1    2    0    0 -0.24997327085E+02  0.52108894244E+02 -0.94549515585E+02  0.13692014107E+03  0.80419592842E+02 0.  0.
       24    2    1    2    0    0  0.24997327085E+02 -0.52108894244E+02  0.21685783409E+03  0.23852113145E+03  0.80776275738E+02 0.  0.
      -13    1    4    4    0    0 -0.46301667346E+01  0.16265545228E+02  0.12583836842E+02  0.21079832903E+02  0.00000000000E+00 0.  1.
       14    1    4    4    0    0  0.29627493820E+02 -0.68374439471E+02  0.20427399725E+03  0.21744129855E+03  0.00000000000E+00 0. -1.
        1    1    3    3  502    0 -0.25979260573E+02 -0.12820771529E+02 -0.51248223856E+02  0.58869980558E+02  0.00000000000E+00 0. -1.
       -2    1    3    3    0  502  0.98193348833E+00  0.64929665773E+02 -0.43301291730E+02  0.78050160513E+02  0.00000000000E+00 0.  1.
</event>
<event>
 8   1  0.2279600E-02  0.8220495E+02  0.7546771E-02  0.1326718E+00
        1   -1    0    0  501    0  0.00000000000E+00  0.00000000000E+00  0.30265822977E+03  0.30265822977E+03  0.00000000000E+00 0. -1.
       -1   -1    0    0    0  501 -0.00000000000E+00 -0.00000000000E+00 -0.21820967922E+02  0.21820967922E+02  0.00000000000E+00 0.  1.
       24    2    1    2    0    0 -0.52589772912E+01  0.13508861465E+02  0.11151451979E+03  0.13853931668E+03  0.80916672960E+02 0.  0.
      -24    2    1    2    0    0  0.52589772912E+01 -0.13508861465E+02  0.16932274206E+03  0.18593988101E+03  0.75453973989E+02 0.  0.
      -13    1    3    3    0    0  0.33341954924E+02  0.65110948815E+01  0.84035999801E+02  0.90642868320E+02  0.00000000000E+00 0.  1.
       14    1    3    3    0    0 -0.38600932216E+02  0.69977665839E+01  0.27478519989E+02  0.47896448364E+02  0.00000000000E+00 0. -1.
        1    1    4    4  502    0 -0.10673950822E+02  0.27049778315E+02  0.99254897375E+02  0.10342706796E+03  0.00000000000E+00 0. -1.
       -2    1    4    4    0  502  0.15932928113E+02 -0.40558639781E+02  0.70067844683E+02  0.82512813051E+02  0.00000000000E+00 0.  1.
</event>
<event>
 8   1  0.2279600E-02  0.9836270E+02  0.7546771E-02  0.1284300E+00
       -2   -1    0    0    0  501 -0.00000000000E+00  0.00000000000E+00  0.12990669368E+03  0.12990669368E+03  0.00000000000E+00 0.  1.
        2   -1    0    0  501    0  0.00000000000E+00 -0.00000000000E+00 -0.19058976064E+03  0.19058976064E+03  0.00000000000E+00 0. -1.
      -24    2    1    2    0    0  0.54966138953E+02 -0.55010419654E+01  0.95071272505E+02  0.13679827635E+03  0.81386016384E+02 0.  0.
       24    2    1    2    0    0 -0.54966138953E+02  0.55010419654E+01 -0.15575433947E+03  0.18369817797E+03  0.80212645092E+02 0.  0.
      -13    1    4    4    0    0 -0.32677515710E+01 -0.28424348312E+02 -0.85228982551E+02  0.89903288282E+02  0.00000000000E+00 0.  1.
       14    1    4    4    0    0 -0.51698387382E+02  0.33925390278E+02 -0.70525356915E+02  0.93794889687E+02  0.00000000000E+00 0. -1.
        1    1    3    3  502    0  0.14002085420E+02 -0.41425856900E+02  0.46087924892E+02  0.63531542063E+02  0.00000000000E+00 0. -1.
       -2    1    3    3    0  502  0.40964053533E+02  0.35924814935E+02  0.48983347613E+02  0.73266734289E+02  0.00000000000E+00 0.  1.
</event>
<event>
 8   1  0.2279600E-02  0.1303719E+03  0.7546771E-02  0.1227409E+00
       -1   -1    0    0    0  501 -0.00000000000E+00  0.00000000000E+00  0.87514869902E+02  0.87514869902E+02  0.00000000000E+00 0.  1.
        1   -1    0    0  501    0  0.00000000000E+00 -0.00000000000E+00 -0.34638739084E+03  0.34638739084E+03  0.00000000000E+00 0. -1.
       24    2    1    2    0    0 -0.10107243594E+03  0.93825858418E+01  0.14932270717E+02  0.13122422195E+03  0.81811695335E+02 0.  0.
      -24    2    1    2    0    0  0.10107243594E+03 -0.93825858418E+01 -0.27380479166E+03  0.30267803879E+03  0.79632035060E+02 0.  0.
      -13    1    3    3    0    0 -0.10628524580E+03 -0.11121080273E+02  0.29403711724E+01  0.10690592914E+03  0.00000000000E+00 0.  1.
       14    1    3    3    0    0  0.52128098601E+01  0.20503666115E+02  0.11991899545E+02  0.24318292816E+02  0.00000000000E+00 0. -1.
        3    1    4    4  502    0  0.97085071750E+02 -0.56028029431E+01 -0.15008469212E+03  0.17883600691E+03  0.00000000000E+00 0. -1.
       -4    1    4    4    0  502  0.39873641927E+01 -0.37797828987E+01 -0.12372009954E+03  0.12384203188E+03  0.00000000000E+00 0.  1.
</event>
<event>
 8   1  0.2279600E-02  0.9462180E+02  0.7546771E-02  0.1293068E+00
       -1   -1    0    0    0  501 -0.00000000000E+00  0.00000000000E+00  0.57817045717E+02  0.57817045717E+02  0.00000000000E+00 0.  1.
        1   -1    0    0  501    0  0.00000000000E+00 -0.00000000000E+00 -0.19208793448E+03  0.19208793448E+03  0.00000000000E+00 0. -1.
       24    2    1    2    0    0 -0.21479162833E+02 -0.40121234368E+02 -0.10497728325E+02  0.95202346735E+02  0.82959126324E+02 0.  0.
      -24    2    1    2    0    0  0.21479162833E+02  0.40121234368E+02 -0.12377316044E+03  0.15470263346E+03  0.80882888624E+02 0.  0.
      -13    1    3    3    0    0 -0.17393852767E+02 -0.64059862592E+02  0.47144170350E+01  0.66546508830E+02  0.00000000000E+00 0.  1.
       14    1    3    3    0    0 -0.40853100659E+01  0.23938628224E+02 -0.15212145360E+02  0.28655837905E+02  0.00000000000E+00 0. -1.
        3    1    4    4  502    0  0.12320678289E+02  0.64049390965E+02 -0.10204561633E+03  0.12110917145E+03  0.00000000000E+00 0. -1.
       -4    1    4    4    0  502  0.91584845446E+01 -0.23928156596E+02 -0.21727544112E+02  0.33593462018E+02  0.00000000000E+00 0.  1.
</event>
<event>
 8   1  0.2279600E-02  0.1061855E+03  0.7546771E-02  0.1269600E+00
       -2   -1    0    0    0  501 -0.00000000000E+00  0.00000000000E+00  0.19724497314E+02  0.19724497314E+02  0.00000000000E+00 0.  1.
        2   -1    0    0  501    0  0.00000000000E+00 -0.00000000000E+00 -0.59226145714E+03  0.59226145714E+03  0.00000000000E+00 0. -1.
      -24    2    1    2    0    0  0.51325216563E+02  0.40921246055E+02 -0.20207178899E+03  0.22660329050E+03  0.78785894182E+02 0.  0.
       24    2    1    2    0    0 -0.51325216563E+02 -0.40921246055E+02 -0.37046517083E+03  0.38538266396E+03  0.83465733371E+02 0.  0.
      -13    1    4    4    0    0  0.18225080950E+02  0.83533709415E+01 -0.92253324462E+02  0.94406611294E+02  0.00000000000E+00 0.  1.
       14    1    4    4    0    0 -0.69550297513E+02 -0.49274616996E+02 -0.27821184637E+03  0.29097605266E+03  0.00000000000E+00 0. -1.
        1    1    3    3  502    0  0.32554022267E+02  0.17764111507E+02 -0.19137103407E+03  0.19493127175E+03  0.00000000000E+00 0. -1.
       -2    1    3    3    0  502  0.18771194296E+02  0.23157134548E+02 -0.10700754925E+02  0.31672018750E+02  0.00000000000E+00 0.  1.
</event>
<event>
 8   1  0.2279600E-02  0.8198314E+02  0.7546771E-02  0.1323845E+00
       -2   -1    0    0    0  501 -0.00000000000E+00  0.00000000000E+00  0.27945273294E+02  0.27945273294E+02  0.00000000000E+00 0.  1.
        2   -1    0    0  501    0  0.00000000000E+00 -0.00000000000E+00 -0.15303401439E+04  0.15303401439E+04  0.00000000000E+00 0. -1.
      -24    2    1    2    0    0 -0.15080180046E+02 -0.44300813942E+01 -0.35165211411E+02  0.88767091961E+02  0.79974790217E+02 0.  0.
       24    2    1    2    0    0  0.15080180046E+02  0.44300813942E+01 -0.14672296592E+04  0.14695183252E+04  0.80462400681E+02 0.  0.
      -13    1    4    4    0    0 -0.26506408255E+02 -0.86623989577E+00 -0.22128076390E+03  0.22286434556E+03  0.00000000000E+00 0.  1.
       14    1    4    4    0    0  0.41586588302E+02  0.52963212900E+01 -0.12459488953E+04  0.12466539797E+04  0.00000000000E+00 0. -1.
        1    1    3    3  502    0  0.94940605296E+01  0.97542237151E+01 -0.53354467649E+02  0.55063429640E+02  0.00000000000E+00 0. -1.
       -2    1    3    3    0  502 -0.24574240576E+02 -0.14184305109E+02  0.18189256238E+02  0.33703662321E+02  0.00000000000E+00 0.  1.
</event>
<event>
 8   1  0.2279600E-02  0.8578515E+02  0.7546771E-02  0.1314036E+00
        2   -1    0    0  501    0  0.00000000000E+00  0.00000000000E+00  0.86397808402E+02  0.86397808402E+02  0.00000000000E+00 0. -1.
       -2   -1    0    0    0  501 -0.00000000000E+00 -0.00000000000E+00 -0.87531682153E+02  0.87531682153E+02  0.00000000000E+00 0.  1.
      -24    2    1    2    0    0  0.56622507864E+01 -0.25008008692E+02  0.16412278874E+02  0.86368314900E+02  0.80824880687E+02 0.  0.
       24    2    1    2    0    0 -0.56622507864E+01  0.25008008692E+02 -0.17546152625E+02  0.87561175656E+02  0.81863486535E+02 0.  0.
      -13    1    4    4    0    0 -0.32650075429E+02 -0.21871363585E+01 -0.32791553849E+02  0.46325986172E+02  0.00000000000E+00 0.  1.
       14    1    4    4    0    0  0.26987824643E+02  0.27195145051E+02  0.15245401224E+02  0.41235189484E+02  0.00000000000E+00 0. -1.
        3    1    3    3  502    0 -0.37102040371E+02 -0.18749863233E+02  0.84746987768E+01  0.42425691394E+02  0.00000000000E+00 0. -1.
       -4    1    3    3    0  502  0.42764291157E+02 -0.62581454594E+01  0.79375800975E+01  0.43942623506E+02  0.00000000000E+00 0.  1.
</event>
<event>
 8   1  0.2279600E-02  0.8944258E+02  0.7546771E-02  0.1304959E+00
        2   -1    0    0  501    0  0.00000000000E+00  0.00000000000E+00  0.22521839910E+04  0.22521839910E+04  0.00000000000E+00 0. -1.
       -2   -1    0    0    0  501 -0.00000000000E+00 -0.00000000000E+00 -0.35377344718E+01  0.35377344718E+01  0.00000000000E+00 0.  1.
      -24    2    1    2    0    0 -0.28375972365E+02 -0.26507357527E+02  0.12425983239E+04  0.12458132159E+04  0.80573808459E+02 0.  0.
       24    2    1    2    0    0  0.28375972365E+02  0.26507357527E+02  0.10060479326E+04  0.10099085095E+04  0.79214386912E+02 0.  0.
      -13    1    4    4    0    0  0.56049054980E+02  0.21297350317E+02  0.66152086814E+03  0.66423258930E+03  0.00000000000E+00 0.  1.
       14    1    4    4    0    0 -0.27673082614E+02  0.52100072098E+01  0.34452706447E+03  0.34567592023E+03  0.00000000000E+00 0. -1.
        3    1    3    3  502    0 -0.51349104465E+02  0.37059416795E+01  0.70903666937E+03  0.71090327264E+03  0.00000000000E+00 0. -1.
       -4    1    3    3    0  502  0.22973132099E+02 -0.30213299207E+02  0.53356165453E+03  0.53490994330E+03  0.00000000000E+00 0.  1.
</event>
<event>
 8   1  0.2279600E-02  0.9962028E+02  0.7546771E-02  0.1281998E+00
        2   -1    0    0  501    0  0.00000000000E+00  0.00000000000E+00  0.27731170738E+02  0.27731170738E+02  0.00000000000E+00 0. -1.
       -2   -1    0    0    0  501 -0.00000000000E+00 -0.00000000000E+00 -0.10422048832E+04  0.10422048832E+04  0.00000000000E+00 0.  1.
      -24    2    1    2    0    0  0.55938694179E+02  0.73628734663E+01 -0.94117341459E+03  0.94625446895E+03  0.80042327939E+02 0.  0.
       24    2    1    2    0    0 -0.55938694179E+02 -0.73628734663E+01 -0.73300297876E+02  0.12368158499E+03  0.82102688054E+02 0.  0.
      -13    1    4    4    0    0  0.19733773069E+02  0.95500824556E+01 -0.13336327057E+02  0.25660933222E+02  0.00000000000E+00 0.  1.
       14    1    4    4    0    0 -0.75672467248E+02 -0.16912955922E+02 -0.59963970819E+02  0.98020651772E+02  0.00000000000E+00 0. -1.
        3    1    3    3  502    0  0.33169523930E+02  0.36202329535E+02 -0.29677381790E+03  0.30080811986E+03  0.00000000000E+00 0. -1.
       -4    1    3    3    0  502  0.22769170249E+02 -0.28839456068E+02 -0.64439959670E+03  0.64544634910E+03  0.00000000000E+00 0.  1.
</event>
<event>
 8   1  0.2279600E-02  0.8795939E+02  0.7546771E-02  0.1320933E+00
       -1   -1    0    0    0  501 -0.00000000000E+00  0.00000000000E+00  0.25960943401E+03  0.25960943401E+03  0.00000000000E+00 0.  1.
        1   -1    0    0  501    0  0.00000000000E+00 -0.00000000000E+00 -0.61442168605E+02  0.61442168605E+02  0.00000000000E+00 0. -1.
       24    2    1    2    0    0  0.70583833274E+01 -0.32046104618E+02  0.22877706990E+03  0.24510365709E+03  0.81609321839E+02 0.  0.
      -24    2    1    2    0    0 -0.70583833274E+01  0.32046104618E+02 -0.30609804491E+02  0.75947945527E+02  0.61272805570E+02 0.  0.
      -13    1    3    3    0    0  0.41757959365E+02 -0.26441787160E+02  0.16546217873E+03  0.17268650170E+03  0.00000000000E+00 0.  1.
       14    1    3    3    0    0 -0.34699576038E+02 -0.56043174582E+01  0.63314891167E+02  0.72417155391E+02  0.00000000000E+00 0. -1.
        1    1    4    4  502    0 -0.74952857375E+01  0.38235251821E+02 -0.45448776849E+02  0.59864055218E+02  0.00000000000E+00 0. -1.
       -2    1    4    4    0  502  0.43690241016E+00 -0.61891472026E+01  0.14838972358E+02  0.16083890308E+02  0.00000000000E+00 0.  1.
</event>
<event>
 8   1  0.2279600E-02  0.9095638E+02  0.7546771E-02  0.1300575E+00
       -1   -1    0    0    0  501 -0.00000000000E+00  0.00000000000E+00  0.32909118053E+01  0.32909118053E+01  0.00000000000E+00 0.  1.
        1   -1    0    0  501    0  0.00000000000E+00 -0.00000000000E+00 -0.28815410646E+04  0.28815410646E+04  0.00000000000E+00 0. -1.
       24    2    1    2    0    0  0.23507918230E+02  0.33306786203E+02 -0.92290494756E+03  0.92737241504E+03  0.81265550696E+02 0.  0.
      -24    2    1    2    0    0 -0.23507918230E+02 -0.33306786203E+02 -0.19553452053E+04  0.19574595614E+04  0.81308661889E+02 0.  0.
      -13    1    3    3    0    0 -0.15214459381E+02  0.45430264664E+02 -0.39150450041E+03  0.39442510387E+03  0.00000000000E+00 0.  1.
       14    1    3    3    0    0  0.38722377611E+02 -0.12123478461E+02 -0.53140044714E+03  0.53294731117E+03  0.00000000000E+00 0. -1.
        3    1    4    4  502    0  0.71158369778E+01 -0.50589653596E+01 -0.15410631935E+04  0.15410879257E+04  0.00000000000E+00 0. -1.
       -4    1    4    4    0  502 -0.30623755208E+02 -0.28247820843E+02 -0.41428201178E+03  0.41637163574E+03  0.00000000000E+00 0.  1.
</event>
<event>
 8   1  0.2279600E-02  0.8969287E+02  0.7546771E-02  0.1303916E+00
       -2   -1    0    0    0  501 -0.00000000000E+00  0.00000000000E+00  0.29160249319E+02  0.29160249319E+02  0.00000000000E+00 0.  1.
        2   -1    0    0  501    0  0.00000000000E+00 -0.00000000000E+00 -0.26993691541E+04  0.26993691541E+04  0.00000000000E+00 0. -1.
      -24    2    1    2    0    0 -0.36293713670E+02 -0.12557881877E+02 -0.41609463431E+02  0.98400160572E+02  0.80475524878E+02 0.  0.
       24    2    1    2    0    0  0.36293713670E+02  0.12557881877E+02 -0.26285994413E+04  0.26301292428E+04  0.81054777600E+02 0.  0.
      -13    1    4    4    0    0 -0.12262331450E+02 -0.11249711982E+02 -0.14671781781E+03  0.14765852111E+03  0.00000000000E+00 0.  1.
       14    1    4    4    0    0  0.48556045120E+02  0.23807593859E+02 -0.24818816235E+04  0.24824707217E+04  0.00000000000E+00 0. -1.
        1    1    3    3  502    0 -0.41835470724E+02 -0.30594872779E+02 -0.54761721365E+02  0.75399595344E+02  0.00000000000E+00 0. -1.
       -2    1    3    3    0  502  0.55417570547E+01  0.18036990902E+02  0.13152257934E+02  0.23000565228E+02  0.00000000000E+00 0.  1.
</event>
<event>
 8   1  0.2279600E-02  0.8383440E+02  0.7546771E-02  0.1320354E+00
       -2   -1    0    0    0  501 -0.00000000000E+00  0.00000000000E+00  0.10343053988E+02  0.10343053988E+02  0.00000000000E+00 0.  1.
        2   -1    0    0  501    0  0.00000000000E+00 -0.00000000000E+00 -0.20372277781E+04  0.20372277781E+04  0.00000000000E+00 0. -1.
      -24    2    1    2    0    0 -0.11523099610E+02 -0.15108013979E+02 -0.16559428757E+03  0.18439335901E+03  0.78856888481E+02 0.  0.
       24    2    1    2    0    0  0.11523099610E+02  0.15108013979E+02 -0.18612904366E+04  0.18631774731E+04  0.81652759314E+02 0.  0.
      -13    1    4    4    0    0 -0.31977115396E+02  0.79221807159E+01 -0.45266404102E+03  0.45386124630E+03  0.00000000000E+00 0.  1.
       14    1    4    4    0    0  0.43500215005E+02  0.71858332629E+01 -0.14086263956E+04  0.14093162268E+04  0.00000000000E+00 0. -1.
        1    1    3    3  502    0 -0.27902061413E+02  0.25190552467E+02 -0.74589788027E+02  0.83526794758E+02  0.00000000000E+00 0. -1.
       -2    1    3    3    0  502  0.16378961803E+02 -0.40298566445E+02 -0.91004499542E+02  0.10086656425E+03  0.00000000000E+00 0.  1.
</event>
<event>
 8   1  0.2279600E-02  0.8396147E+02  0.7546771E-02  0.1319502E+00
       -2   -1    0    0    0  501 -0.00000000000E+00  0.00000000000E+00  0.24293678214E+02  0.24293678214E+02  0.00000000000E+00 0.  1.
        2   -1    0    0  501    0  0.00000000000E+00 -0.00000000000E+00 -0.59696593720E+03  0.59696593720E+03  0.00000000000E+00 0. -1.
      -24    2    1    2    0    0  0.12184966159E+02  0.10322481398E+01 -0.59589840623E+02  0.10135280073E+03  0.81067269437E+02 0.  0.
       24    2    1    2    0    0 -0.12184966159E+02 -0.10322481398E+01 -0.51308241836E+03  0.51990681468E+03  0.83066172326E+02 0.  0.
      -13    1    4    4    0    0  0.29391500339E+02  0.23238610724E+01 -0.88531988222E+02  0.93312236931E+02  0.00000000000E+00 0.  1.
       14    1    4    4    0    0 -0.41576466498E+02 -0.33561092122E+01 -0.42455043014E+03  0.42659457775E+03  0.00000000000E+00 0. -1.
        3    1    3    3  502    0  0.64948926201E+01 -0.22777369447E+01 -0.79800686408E+02  0.80096949173E+02  0.00000000000E+00 0. -1.
       -4    1    3    3    0  502  0.56900735392E+01  0.33099850846E+01  0.20210845784E+02  0.21255851558E+02  0.00000000000E+00 0.  1.
</event>
<event>
 8   1  0.2279600E-02  0.9076248E+02  0.7546771E-02  0.1301135E+00
        3   -1    0    0  501    0  0.00000000000E+00  0.00000000000E+00  0.14394084031E+03  0.14394084031E+03  0.00000000000E+00 0. -1.
       -3   -1    0    0    0  501 -0.00000000000E+00 -0.00000000000E+00 -0.57356021062E+02  0.57356021062E+02  0.00000000000E+00 0.  1.
       24    2    1    2    0    0  0.33325712327E+02  0.27004504151E+02  0.36682769943E+02  0.97895111872E+02  0.79987380074E+02 0.  0.
      -24    2    1    2    0    0 -0.33325712327E+02 -0.27004504151E+02  0.49902049310E+02  0.10340174950E+03  0.79761274617E+02 0.  0.
      -13    1    3    3    0    0  0.36273959333E+01  0.43353573881E+02 -0.54187742495E+01  0.43841230410E+02  0.00000000000E+00 0.  1.
       14    1    3    3    0    0  0.29698316394E+02 -0.16349069730E+02  0.42101544192E+02  0.54053881461E+02  0.00000000000E+00 0. -1.
        3    1    4    4  502    0  0.17352836085E+02 -0.15855936727E+02  0.45638962620E+02  0.51336600576E+02  0.00000000000E+00 0. -1.
       -4    1    4    4    0  502 -0.50678548412E+02 -0.11148567424E+02  0.42630866901E+01  0.52065148928E+02  0.00000000000E+00 0.  1.
</event>
<event>
 8   1  0.2279600E-02  0.8465915E+02  0.7546771E-02  0.1317053E+00
       -1   -1    0    0    0  501 -0.00000000000E+00  0.00000000000E+00  0.93139332597E+01  0.93139332597E+01  0.00000000000E+00 0.  1.
        1   -1    0    0  501    0  0.00000000000E+00 -0.00000000000E+00 -0.10189054965E+04  0.10189054965E+04  0.00000000000E+00 0. -1.
       24    2    1    2    0    0 -0.86865287825E+01 -0.11315508186E+02 -0.24296903624E+03  0.25693655695E+03  0.82334350167E+02 0.  0.
      -24    2    1    2    0    0  0.86865287825E+01  0.11315508186E+02 -0.76662252697E+03  0.77128287278E+03  0.83448633775E+02 0.  0.
      -13    1    3    3    0    0  0.28632933778E+02 -0.20587676104E+02 -0.56954697941E+02  0.66989065687E+02  0.00000000000E+00 0.  1.
       14    1    3    3    0    0 -0.37319462560E+02  0.92721679179E+01 -0.18601433830E+03  0.18994749126E+03  0.00000000000E+00 0. -1.
        3    1    4    4  502    0 -0.24555098102E+02  0.35584105138E+02 -0.42329019465E+03  0.42549238568E+03  0.00000000000E+00 0. -1.
       -4    1    4    4    0  502  0.33241626884E+02 -0.24268596951E+02 -0.34333233232E+03  0.34579048710E+03  0.00000000000E+00 0.  1.
</event>
<event>
 8   1  0.2279600E-02  0.8481650E+02  0.7546771E-02  0.1323727E+00
        1   -1    0    0  501    0  0.00000000000E+00  0.00000000000E+00  0.23694213187E+03  0.23694213187E+03  0.00000000000E+00 0. -1.
       -1   -1    0    0    0  501 -0.00000000000E+00 -0.00000000000E+00 -0.41629900591E+02  0.41629900591E+02  0.00000000000E+00 0.  1.
       24    2    1    2    0    0 -0.27449937723E+00 -0.26535857375E+02  0.18246548953E+02  0.86756987035E+02  0.80558122956E+02 0.  0.
      -24    2    1    2    0    0  0.27449937723E+00  0.26535857375E+02  0.17706568232E+03  0.19181504542E+03  0.68822443415E+02 0.  0.
      -13    1    3    3    0    0  0.36046017348E+02 -0.12117555140E+02 -0.90492476035E+01  0.39090144428E+02  0.00000000000E+00 0.  1.
       14    1    3    3    0    0 -0.36320516725E+02 -0.14418302235E+02  0.27295796556E+02  0.47666842607E+02  0.00000000000E+00 0. -1.
        3    1    4    4  502    0  0.66695561764E+01  0.47919518529E+02  0.92939158951E+02  0.10477810125E+03  0.00000000000E+00 0. -1.
       -4    1    4    4    0  502 -0.63950567992E+01 -0.21383661154E+02  0.84126523374E+02  0.87036944172E+02  0.00000000000E+00 0.  1.
</event>
<event>
 8   1  0.2279600E-02  0.2258489E+03  0.7546771E-02  0.1130968E+00
        1   -1    0    0  501    0  0.00000000000E+00  0.00000000000E+00  0.49994539654E+03  0.49994539654E+03  0.00000000000E+00 0. -1.
       -1   -1    0    0    0  501 -0.00000000000E+00 -0.00000000000E+00 -0.43830461893E+03  0.43830461893E+03  0.00000000000E+00 0.  1.
       24    2    1    2    0    0 -0.17991989753E+03  0.96620786361E+02 -0.38223791055E+03  0.44021785828E+03  0.77325264966E+02 0.  0.
      -24    2    1    2    0    0  0.17991989753E+03 -0.96620786361E+02  0.44387868816E+03  0.49803215719E+03  0.96441660683E+02 0.  0.
      -13    1    3    3    0    0 -0.18714616240E+03  0.87116360775E+02 -0.36181555938E+03  0.41656145456E+03  0.00000000000E+00 0.  1.
       14    1    3    3    0    0  0.72262648680E+01  0.95044255855E+01 -0.20422351169E+02  0.23656403719E+02  0.00000000000E+00 0. -1.
        1    1    4    4  502    0  0.15862813295E+03 -0.10785156980E+03  0.42847744111E+03  0.46945475097E+03  0.00000000000E+00 0. -1.
       -2    1    4    4    0  502  0.21291764581E+02  0.11230783443E+02  0.15401247050E+02  0.28577406222E+02  0.00000000000E+00 0.  1.
</event>
<event>
 8   1  0.2279600E-02  0.1112872E+03  0.7546771E-02  0.1259441E+00
        2   -1    0    0  501    0  0.00000000000E+00  0.00000000000E+00  0.22899221330E+04  0.22899221330E+04  0.00000000000E+00 0. -1.
       -2   -1    0    0    0  501 -0.00000000000E+00 -0.00000000000E+00 -0.12791369549E+02  0.12791369549E+02  0.00000000000E+00 0.  1.
      -24    2    1    2    0    0 -0.10296885112E+02  0.71383859677E+02  0.26197066554E+03  0.28462865784E+03  0.84753536782E+02 0.  0.
       24    2    1    2    0    0  0.10296885112E+02 -0.71383859677E+02  0.20151600979E+04  0.20180848447E+04  0.81206766648E+02 0.  0.
      -13    1    4    4    0    0 -0.25411110432E+02 -0.53775349075E+02  0.77215236899E+03  0.77443966430E+03  0.00000000000E+00 0.  1.
       14    1    4    4    0    0  0.35707995544E+02 -0.17608510602E+02  0.12430077289E+04  0.12436451804E+04  0.00000000000E+00 0. -1.
        1    1    3    3  502    0  0.10283061618E+01  0.85019202380E+02  0.24765612439E+03  0.26184514152E+03  0.00000000000E+00 0. -1.
       -2    1    3    3    0  502 -0.11325191274E+02 -0.13635342702E+02  0.14314541150E+02  0.22783516329E+02  0.00000000000E+00 0.  1.
</event>
<event>
 8   1  0.2279600E-02  0.1086063E+03  0.7546771E-02  0.1267949E+00
        2   -1    0    0  501    0  0.00000000000E+00  0.00000000000E+00  0.25258087836E+04  0.25258087836E+04  0.00000000000E+00 0. -1.
       -2   -1    0    0    0  501 -0.00000000000E+00 -0.00000000000E+00 -0.24721412728E+02  0.24721412728E+02  0.00000000000E+00 0.  1.
       24    2    1    2    0    0 -0.57685819288E+02 -0.14133377836E+02  0.24003763028E+04  0.24024152496E+04  0.79153209869E+02 0.  0.
      -24    2    1    2    0    0  0.57685819288E+02  0.14133377836E+02  0.10071106814E+03  0.14811494674E+03  0.90928059942E+02 0.  0.
      -13    1    3    3    0    0  0.15202824235E+02 -0.65652308875E+01  0.98832613187E+03  0.98846485575E+03  0.00000000000E+00 0.  1.
       14    1    3    3    0    0 -0.72888643523E+02 -0.75681469487E+01  0.14120501709E+04  0.14139503939E+04  0.00000000000E+00 0. -1.
        3    1    4    4  502    0  0.39414870034E+02  0.77514711062E+01  0.11644106528E+03  0.12317523683E+03  0.00000000000E+00 0. -1.
       -4    1    4    4    0  502  0.18270949254E+02  0.63819067299E+01 -0.15729997142E+02  0.24939709907E+02  0.00000000000E+00 0.  1.
</event>
<event>
 8   1  0.2279600E-02  0.9107416E+02  0.7546771E-02  0.1302881E+00
        2   -1    0    0  501    0  0.00000000000E+00  0.00000000000E+00  0.10455441890E+04  0.10455441890E+04  0.00000000000E+00 0. -1.
       -2   -1    0    0    0  501 -0.00000000000E+00 -0.00000000000E+00 -0.26241917000E+02  0.26241917000E+02  0.00000000000E+00 0.  1.
      -24    2    1    2    0    0  0.26522145929E+02 -0.13505956502E+02  0.61125216461E+02  0.10968498264E+03  0.86073621070E+02 0.  0.
       24    2    1    2    0    0 -0.26522145929E+02  0.13505956502E+02  0.95817705554E+03  0.96210112336E+03  0.81544262344E+02 0.  0.
      -13    1    4    4    0    0  0.84037282014E+01 -0.82780861288E+01  0.21527777690E+02  0.24547801733E+02  0.00000000000E+00 0.  1.
       14    1    4    4    0    0 -0.34925874130E+02  0.21784042631E+02  0.93664927785E+03  0.93755332163E+03  0.00000000000E+00 0. -1.
        3    1    3    3  502    0 -0.25237687998E+02  0.14297017461E+02  0.70878163288E+01  0.29859382849E+02  0.00000000000E+00 0. -1.
       -4    1    3    3    0  502  0.51759833927E+02 -0.27802973964E+02  0.54037400133E+02  0.79825599794E+02  0.00000000000E+00 0.  1.
</event>
<event>
 8   1  0.2279600E-02  0.8426182E+02  0.7546771E-02  0.1317502E+00
       -3   -1    0    0    0  501 -0.00000000000E+00  0.00000000000E+00  0.57990992217E+01  0.57990992217E+01  0.00000000000E+00 0.  1.
        3   -1    0    0  501    0  0.00000000000E+00 -0.00000000000E+00 -0.16698778768E+04  0.16698778768E+04  0.00000000000E+00 0. -1.
       24    2    1    2    0    0 -0.15878351499E+02  0.96990078678E+01 -0.39860456438E+03  0.40741336783E+03  0.82181876011E+02 0.  0.
      -24    2    1    2    0    0  0.15878351499E+02 -0.96990078678E+01 -0.12654742132E+04  0.12682636082E+04  0.81984161795E+02 0.  0.
      -13    1    3    3    0    0 -0.52590270063E+01  0.36227050459E+02 -0.85492242169E+02  0.92999892586E+02  0.00000000000E+00 0.  1.
       14    1    3    3    0    0 -0.10619324492E+02 -0.26528042591E+02 -0.31311232221E+03  0.31441347524E+03  0.00000000000E+00 0. -1.
        3    1    4    4  502    0 -0.65692813111E+01 -0.22404138219E+02 -0.11362720769E+04  0.11365119153E+04  0.00000000000E+00 0. -1.
       -4    1    4    4    0  502  0.22447632810E+02  0.12705130351E+02 -0.12920213628E+03  0.13175169288E+03  0.00000000000E+00 0.  1.
</event>
<event>
 8   1  0.2279600E-02  0.1037132E+03  0.7546771E-02  0.1272879E+00
       -1   -1    0    0    0  501 -0.00000000000E+00  0.00000000000E+00  0.71661003164E+02  0.71661003164E+02  0.00000000000E+00 0.  1.
        1   -1    0    0  501    0  0.00000000000E+00 -0.00000000000E+00 -0.19259902223E+03  0.19259902223E+03  0.00000000000E+00 0. -1.
       24    2    1    2    0    0  0.57643496767E+02 -0.33996856337E+02  0.19315792819E+01  0.10373122374E+03  0.79233053830E+02 0.  0.
      -24    2    1    2    0    0 -0.57643496767E+02  0.33996856337E+02 -0.12286959835E+03  0.16052880166E+03  0.78701963146E+02 0.  0.
      -13    1    3    3    0    0  0.68837148406E+02 -0.42654952063E+02  0.17332931079E+02  0.82815629177E+02  0.00000000000E+00 0.  1.
       14    1    3    3    0    0 -0.11193651639E+02  0.86580957264E+01 -0.15401351798E+02  0.20915594560E+02  0.00000000000E+00 0. -1.
        3    1    4    4  502    0 -0.49376796967E+02  0.14380993696E+02 -0.12858503123E+03  0.13848823529E+03  0.00000000000E+00 0. -1.
       -4    1    4    4    0  502 -0.82666998002E+01  0.19615862640E+02  0.57154328794E+01  0.22040566366E+02  0.00000000000E+00 0.  1.
</event>
<event>
 8   1  0.2279600E-02  0.8369705E+02  0.7546771E-02  0.1319610E+00
       -3   -1    0    0    0  501 -0.00000000000E+00  0.00000000000E+00  0.17691247119E+02  0.17691247119E+02  0.00000000000E+00 0.  1.
        3   -1    0    0  501    0  0.00000000000E+00 -0.00000000000E+00 -0.58097519229E+03  0.58097519229E+03  0.00000000000E+00 0. -1.
       24    2    1    2    0    0 -0.11919423269E+02 -0.10360034866E+02 -0.10915108408E+03  0.13688526718E+03  0.81081528364E+02 0.  0.
      -24    2    1    2    0    0  0.11919423269E+02  0.10360034866E+02 -0.45413286109E+03  0.46178117223E+03  0.82193628274E+02 0.  0.
      -13    1    3    3    0    0 -0.18788339672E+02  0.32216768613E+02 -0.66415020799E+02  0.76170052351E+02  0.00000000000E+00 0.  1.
       14    1    3    3    0    0  0.68689164034E+01 -0.42576803479E+02 -0.42736063282E+02  0.60715214830E+02  0.00000000000E+00 0. -1.
        1    1    4    4  502    0  0.11241642265E+02  0.23795918205E+01 -0.45360939349E+03  0.45375491054E+03  0.00000000000E+00 0. -1.
       -2    1    4    4    0  502  0.67778100345E+00  0.79804430458E+01 -0.52346759773E+00  0.80262616841E+01  0.00000000000E+00 0.  1.
</event>
<event>
 8   1  0.2279600E-02  0.9391747E+02  0.7546771E-02  0.1296296E+00
        2   -1    0    0  501    0  0.00000000000E+00  0.00000000000E+00  0.19793858774E+02  0.19793858774E+02  0.00000000000E+00 0. -1.
       -2   -1    0    0    0  501 -0.00000000000E+00 -0.00000000000E+00 -0.42779851118E+03  0.42779851118E+03  0.00000000000E+00 0.  1.
       24    2    1    2    0    0  0.42553437930E+02  0.17773087306E+01 -0.17893925677E+03  0.20002127447E+03  0.78583068921E+02 0.  0.
      -24    2    1    2    0    0 -0.42553437930E+02 -0.17773087306E+01 -0.22906539564E+03  0.24757109548E+03  0.83705065172E+02 0.  0.
      -13    1    3    3    0    0  0.35841465208E+02 -0.23537965411E+02 -0.40015986725E+02  0.58650879256E+02  0.00000000000E+00 0.  1.
       14    1    3    3    0    0  0.67119727220E+01  0.25315274142E+02 -0.13892327005E+03  0.14137039521E+03  0.00000000000E+00 0. -1.
        1    1    4    4  502    0 -0.25468345188E+02 -0.42091685403E+02 -0.10367037273E+03  0.11475143907E+03  0.00000000000E+00 0. -1.
       -2    1    4    4    0  502 -0.17085092743E+02  0.40314376672E+02 -0.12539502291E+03  0.13281965641E+03  0.00000000000E+00 0.  1.
</event>
<event>
 8   1  0.2279600E-02  0.1769360E+03  0.7546771E-02  0.1170873E+00
       -2   -1    0    0    0  501 -0.00000000000E+00  0.00000000000E+00  0.10468533203E+03  0.10468533203E+03  0.00000000000E+00 0.  1.
        2   -1    0    0  501    0  0.00000000000E+00 -0.00000000000E+00 -0.85986990160E+03  0.85986990160E+03  0.00000000000E+00 0. -1.
       24    2    1    2    0    0 -0.14219126584E+03 -0.67726521722E+02 -0.76714043767E+03  0.78721572550E+03  0.79993184374E+02 0.  0.
      -24    2    1    2    0    0  0.14219126584E+03  0.67726521722E+02  0.11955868102E+02  0.17733950813E+03  0.80629526444E+02 0.  0.
      -13    1    3    3    0    0 -0.70140295761E+01 -0.27973130229E+02 -0.65505294664E+02  0.71572594299E+02  0.00000000000E+00 0.  1.
       14    1    3    3    0    0 -0.13517723626E+03 -0.39753391492E+02 -0.70163514300E+03  0.71564313120E+03  0.00000000000E+00 0. -1.
        3    1    4    4  502    0  0.95455054748E+01  0.23190622463E+02  0.26713731013E+02  0.36640756947E+02  0.00000000000E+00 0. -1.
       -4    1    4    4    0  502  0.13264576037E+03  0.44535899258E+02 -0.14757862911E+02  0.14069875118E+03  0.00000000000E+00 0.  1.
</event>
<event>
 8   1  0.2279600E-02  0.8766307E+02  0.7546771E-02  0.1311544E+00
       -2   -1    0    0    0  501 -0.00000000000E+00  0.00000000000E+00  0.21800677666E+01  0.21800677666E+01  0.00000000000E+00 0.  1.
        2   -1    0    0  501    0  0.00000000000E+00 -0.00000000000E+00 -0.45015576986E+04  0.45015576986E+04  0.00000000000E+00 0. -1.
      -24    2    1    2    0    0  0.46423024046E+01  0.32136108441E+01 -0.11528944686E+04  0.11562224999E+04  0.87481056122E+02 0.  0.
       24    2    1    2    0    0 -0.46423024046E+01 -0.32136108441E+01 -0.33464831622E+04  0.33475152665E+04  0.82927836944E+02 0.  0.
      -13    1    4    4    0    0  0.37949187421E+02 -0.10487096369E+02 -0.14062070735E+04  0.14067581361E+04  0.00000000000E+00 0.  1.
       14    1    4    4    0    0 -0.42591489826E+02  0.72734855246E+01 -0.19402760887E+04  0.19407571304E+04  0.00000000000E+00 0. -1.
        3    1    3    3  502    0 -0.12417969211E+02  0.22724737542E+01 -0.11096948190E+04  0.11097666247E+04  0.00000000000E+00 0. -1.
       -4    1    3    3    0  502  0.17060271616E+02  0.94113708983E+00 -0.43199649658E+02  0.46455875164E+02  0.00000000000E+00 0.  1.
</event>
<event>
 8   1  0.2279600E-02  0.8209948E+02  0.7546771E-02  0.1323420E+00
        1   -1    0    0  501    0  0.00000000000E+00  0.00000000000E+00  0.34199170491E+03  0.34199170491E+03  0.00000000000E+00 0. -1.
       -1   -1    0    0    0  501 -0.00000000000E+00 -0.00000000000E+00 -0.23955998593E+02  0.23955998593E+02  0.00000000000E+00 0.  1.
       24    2    1    2    0    0  0.12081505700E+02 -0.14178210822E+02  0.81013235363E+02  0.11510915689E+03  0.79624049464E+02 0.  0.
      -24    2    1    2    0    0 -0.12081505700E+02  0.14178210822E+02  0.23702247095E+03  0.25083854662E+03  0.79958365978E+02 0.  0.
      -13    1    3    3    0    0  0.32564503314E+02 -0.21783592370E+02  0.94742987463E+01  0.40307990639E+02  0.00000000000E+00 0.  1.
       14    1    3    3    0    0 -0.20482997614E+02  0.76053815475E+01  0.71538936617E+02  0.74801166248E+02  0.00000000000E+00 0. -1.
        3    1    4    4  502    0 -0.11106647557E+02  0.44317613593E+02  0.92071356079E+02  0.10278396327E+03  0.00000000000E+00 0. -1.
       -4    1    4    4    0  502 -0.97485814323E+00 -0.30139402770E+02  0.14495111487E+03  0.14805458335E+03  0.00000000000E+00 0.  1.
</event>
<event>
 8   1  0.2279600E-02  0.1081953E+03  0.7546771E-02  0.1263975E+00
       -2   -1    0    0    0  501 -0.00000000000E+00  0.00000000000E+00  0.92314723626E+01  0.92314723626E+01  0.00000000000E+00 0.  1.
        2   -1    0    0  501    0  0.00000000000E+00 -0.00000000000E+00 -0.13522521987E+04  0.13522521987E+04  0.00000000000E+00 0. -1.
      -24    2    1    2    0    0 -0.55464786034E+02 -0.47159404708E+02 -0.84183750070E+03  0.84875483549E+03  0.79962749114E+02 0.  0.
       24    2    1    2    0    0  0.55464786034E+02  0.47159404708E+02 -0.50118322559E+03  0.51272883552E+03  0.80036749190E+02 0.  0.
      -13    1    4    4    0    0 -0.16857218176E+02  0.24207426826E+02 -0.93437612180E+02  0.97983430681E+02  0.00000000000E+00 0.  1.
       14    1    4    4    0    0  0.72322004209E+02  0.22951977881E+02 -0.40774561341E+03  0.41474540484E+03  0.00000000000E+00 0. -1.
        1    1    3    3  502    0  0.11266531927E+02 -0.17396327811E+02 -0.42905027748E+03  0.42955058790E+03  0.00000000000E+00 0. -1.
       -2    1    3    3    0  502 -0.66731317960E+02 -0.29763076897E+02 -0.41278722322E+03  0.41920424759E+03  0.00000000000E+00 0.  1.
</event>
<event>
 8   1  0.2279600E-02  0.9949957E+02  0.7546771E-02  0.1282607E+00
       -1   -1    0    0    0  501 -0.00000000000E+00  0.00000000000E+00  0.25573347750E+03  0.25573347750E+03  0.00000000000E+00 0.  1.
        1   -1    0    0  501    0  0.00000000000E+00 -0.00000000000E+00 -0.41595310313E+02  0.41595310313E+02  0.00000000000E+00 0. -1.
       24    2    1    2    0    0 -0.56310180391E+02 -0.10486036740E+02  0.15077050811E+03  0.17936427991E+03  0.78479331086E+02 0.  0.
      -24    2    1    2    0    0  0.56310180391E+02  0.10486036740E+02  0.63367659076E+02  0.11796450791E+03  0.81359520199E+02 0.  0.
      -13    1    3    3    0    0 -0.40340475377E+02  0.21419370546E+02  0.13064873766E+03  0.13840244232E+03  0.00000000000E+00 0.  1.
       14    1    3    3    0    0 -0.15969705014E+02 -0.31905407286E+02  0.20121770454E+02  0.40961837588E+02  0.00000000000E+00 0. -1.
        1    1    4    4  502    0  0.58403971687E+02  0.31834495586E+02  0.19797769189E+02  0.69400365150E+02  0.00000000000E+00 0. -1.
       -2    1    4    4    0  502 -0.20937912963E+01 -0.21348458846E+02  0.43569889887E+02  0.48564142758E+02  0.00000000000E+00 0.  1.
</event>
<event>
 8   1  0.2279600E-02  0.8693392E+02  0.7546771E-02  0.1313374E+00
        1   -1    0    0  501    0  0.00000000000E+00  0.00000000000E+00  0.46834593230E+03  0.46834593230E+03  0.00000000000E+00 0. -1.
       -1   -1    0    0    0  501 -0.00000000000E+00 -0.00000000000E+00 -0.15922273452E+02  0.15922273452E+02  0.00000000000E+00 0.  1.
       24    2    1    2    0    0 -0.16392760528E+02 -0.75297160184E+01  0.26769219639E+03  0.28010351868E+03  0.80457752549E+02 0.  0.
      -24    2    1    2    0    0  0.16392760528E+02  0.75297160184E+01  0.18473146246E+03  0.20416468707E+03  0.85041678053E+02 0.  0.
      -13    1    3    3    0    0 -0.35178464915E+02  0.19005265977E+02  0.78060402442E+02  0.87704908403E+02  0.00000000000E+00 0.  1.
       14    1    3    3    0    0  0.18785704387E+02 -0.26534981995E+02  0.18963179395E+03  0.19239861027E+03  0.00000000000E+00 0. -1.
        1    1    4    4  502    0  0.94017679125E+01 -0.10242514476E+02  0.18454296028E+03  0.18506595184E+03  0.00000000000E+00 0. -1.
       -2    1    4    4    0  502  0.69909926152E+01  0.17772230495E+02  0.18850217966E+00  0.19098735235E+02  0.00000000000E+00 0.  1.
</event>
<event>
 8   1  0.2279600E-02  0.9046429E+02  0.7546771E-02  0.1309041E+00
        2   -1    0    0  501    0  0.00000000000E+00  0.00000000000E+00  0.15547344632E+04  0.15547344632E+04  0.00000000000E+00 0. -1.
       -2   -1    0    0    0  501 -0.00000000000E+00 -0.00000000000E+00 -0.46611346956E+01  0.46611346956E+01  0.00000000000E+00 0.  1.
      -24    2    1    2    0    0  0.28327790019E+02  0.28481137769E+02  0.89396238596E+03  0.89852798272E+03  0.81056457700E+02 0.  0.
       24    2    1    2    0    0 -0.28327790019E+02 -0.28481137769E+02  0.65611094251E+03  0.66086761513E+03  0.68196751806E+02 0.  0.
      -13    1    4    4    0    0 -0.42899239836E+02 -0.37838505262E+02  0.38753177200E+03  0.39173073860E+03  0.00000000000E+00 0.  1.
       14    1    4    4    0    0  0.14571449817E+02  0.93573674932E+01  0.26857917051E+03  0.26913687653E+03  0.00000000000E+00 0. -1.
        3    1    3    3  502    0  0.50133008437E+02  0.90404494936E+01  0.74429345747E+03  0.74603471708E+03  0.00000000000E+00 0. -1.
       -4    1    3    3    0  502 -0.21805218418E+02  0.19440688275E+02  0.14966892849E+03  0.15249326564E+03  0.00000000000E+00 0.  1.
</event>
<event>
 8   1  0.2279600E-02  0.8726681E+02  0.7546771E-02  0.1310686E+00
        2   -1    0    0  501    0  0.00000000000E+00  0.00000000000E+00  0.21612684574E+03  0.21612684574E+03  0.00000000000E+00 0. -1.
       -2   -1    0    0    0  501 -0.00000000000E+00 -0.00000000000E+00 -0.49776223087E+02  0.49776223087E+02  0.00000000000E+00 0.  1.
      -24    2    1    2    0    0  0.87886384210E+01 -0.31629108098E+02  0.10227631688E+02  0.87864104065E+02  0.80857007667E+02 0.  0.
       24    2    1    2    0    0 -0.87886384210E+01  0.31629108098E+02  0.15612299097E+03  0.17803896477E+03  0.79030652415E+02 0.  0.
      -13    1    4    4    0    0  0.12358437543E+02 -0.78250797150E+01 -0.10020606274E+01  0.14661752165E+02  0.00000000000E+00 0.  1.
       14    1    4    4    0    0 -0.21147075964E+02  0.39454187813E+02  0.15712505160E+03  0.16337721260E+03  0.00000000000E+00 0. -1.
        3    1    3    3  502    0 -0.23783828576E+02  0.41711815020E+01 -0.19522288878E+02  0.31051393204E+02  0.00000000000E+00 0. -1.
       -4    1    3    3    0  502  0.32572466997E+02 -0.35800289600E+02  0.29749920566E+02  0.56812710861E+02  0.00000000000E+00 0.  1.
</event>
<event>
 8   1  0.2279600E-02  0.8478193E+02  0.7546771E-02  0.1334303E+00
        1   -1    0    0  501    0  0.00000000000E+00  0.00000000000E+00  0.27876820885E+03  0.27876820885E+03  0.00000000000E+00 0. -1.
       -1   -1    0    0    0  501 -0.00000000000E+00 -0.00000000000E+00 -0.92287447690E+02  0.92287447690E+02  0.00000000000E+00 0.  1.
       24    2    1    2    0    0 -0.13099522275E+02  0.18541311691E+02 -0.68384043138E+02  0.10892360879E+03  0.81685968642E+02 0.  0.
      -24    2    1    2    0    0  0.13099522275E+02 -0.18541311691E+02  0.25486480430E+03  0.26213204775E+03  0.56936493258E+02 0.  0.
      -13    1    3    3    0    0 -0.47899296554E+01 -0.27619310943E+02 -0.52302395665E+02  0.59340629887E+02  0.00000000000E+00 0.  1.
       14    1    3    3    0    0 -0.83095926196E+01  0.46160622634E+02 -0.16081647473E+02  0.49582978903E+02  0.00000000000E+00 0. -1.
        3    1    4    4  502    0  0.14127902293E+02 -0.78469524459E+00  0.23516698429E+03  0.23559228313E+03  0.00000000000E+00 0. -1.
       -4    1    4    4    0  502 -0.10283800183E+01 -0.17756616447E+02  0.19697820011E+02  0.26539764624E+02  0.00000000000E+00 0.  1.
</event>
<event>
 8   1  0.2279600E-02  0.8185072E+02  0.7546771E-02  0.1324048E+00
        2   -1    0    0  501    0  0.00000000000E+00  0.00000000000E+00  0.14168469491E+04  0.14168469491E+04  0.00000000000E+00 0. -1.
       -2   -1    0    0    0  501 -0.00000000000E+00 -0.00000000000E+00 -0.59819455793E+01  0.59819455793E+01  0.00000000000E+00 0.  1.
      -24    2    1    2    0    0  0.37852577520E+01  0.99553967126E+00  0.37878486190E+03  0.38752743438E+03  0.81757088462E+02 0.  0.
       24    2    1    2    0    0 -0.37852577520E+01 -0.99553967126E+00  0.10320801416E+04  0.10353014603E+04  0.81513040084E+02 0.  0.
      -13    1    4    4    0    0  0.91342781272E+01 -0.27258656751E+00  0.11731108362E+02  0.14870381426E+02  0.00000000000E+00 0.  1.
       14    1    4    4    0    0 -0.12919535879E+02 -0.72295310375E+00  0.10203490332E+04  0.10204310789E+04  0.00000000000E+00 0. -1.
        3    1    3    3  502    0 -0.46187301873E+01 -0.29207188194E+02  0.31570372637E+03  0.31708553318E+03  0.00000000000E+00 0. -1.
       -4    1    3    3    0  502  0.84039879393E+01  0.30202727865E+02  0.63081135535E+02  0.70441901197E+02  0.00000000000E+00 0.  1.
</event>
<event>
 8   1  0.2279600E-02  0.9962708E+02  0.7546771E-02  0.1281374E+00
       -4   -1    0    0    0  501 -0.00000000000E+00  0.00000000000E+00  0.10106811143E+02  0.10106811143E+02  0.00000000000E+00 0.  1.
        4   -1    0    0  501    0  0.00000000000E+00 -0.00000000000E+00 -0.10432682232E+04  0.10432682232E+04  0.00000000000E+00 0. -1.
       24    2    1    2    0    0 -0.46770200257E+02 -0.33270847776E+02 -0.65102372275E+03  0.65860264366E+03  0.81431896139E+02 0.  0.
      -24    2    1    2    0    0  0.46770200257E+02  0.33270847776E+02 -0.38213768932E+03  0.39477239070E+03  0.80756584331E+02 0.  0.
      -13    1    3    3    0    0 -0.74898177738E+01 -0.18451497105E+02 -0.29087683513E+02  0.35251219098E+02  0.00000000000E+00 0.  1.
       14    1    3    3    0    0 -0.39280382484E+02 -0.14819350671E+02 -0.62193603924E+03  0.62335142456E+03  0.00000000000E+00 0. -1.
        3    1    4    4  502    0  0.65357460274E+02  0.16418390700E+02 -0.20316119304E+03  0.21404586313E+03  0.00000000000E+00 0. -1.
       -4    1    4    4    0  502 -0.18587260016E+02  0.16852457076E+02 -0.17897649628E+03  0.18072652757E+03  0.00000000000E+00 0.  1.
</event>
<event>
 8   1  0.2279600E-02  0.8447862E+02  0.7546771E-02  0.1317725E+00
       -2   -1    0    0    0  501 -0.00000000000E+00  0.00000000000E+00  0.29104462722E+03  0.29104462722E+03  0.00000000000E+00 0.  1.
        2   -1    0    0  501    0  0.00000000000E+00 -0.00000000000E+00 -0.30330471923E+02  0.30330471923E+02  0.00000000000E+00 0. -1.
       24    2    1    2    0    0 -0.71438070575E+01  0.20782228718E+02  0.58502772886E+02  0.10275802252E+03  0.81570225865E+02 0.  0.
      -24    2    1    2    0    0  0.71438070575E+01 -0.20782228718E+02  0.20221138241E+03  0.21861707662E+03  0.80131442041E+02 0.  0.
      -13    1    3    3    0    0 -0.27116946761E+02 -0.23214266895E+02  0.19585799635E+02  0.40716514297E+02  0.00000000000E+00 0.  1.
       14    1    3    3    0    0  0.19973139704E+02  0.43996495614E+02  0.38916973251E+02  0.62041508226E+02  0.00000000000E+00 0. -1.
        3    1    4    4  502    0  0.24320932918E+02  0.54981182840E+01  0.15664811843E+02  0.29446959313E+02  0.00000000000E+00 0. -1.
       -4    1    4    4    0  502 -0.17177125861E+02 -0.26280347002E+02  0.18654657057E+03  0.18917011731E+03  0.00000000000E+00 0.  1.
</event>
<event>
 8   1  0.2279600E-02  0.8754957E+02  0.7546771E-02  0.1309798E+00
       -1   -1    0    0    0  501 -0.00000000000E+00  0.00000000000E+00  0.21155945983E+02  0.21155945983E+02  0.00000000000E+00 0.  1.
        1   -1    0    0  501    0  0.00000000000E+00 -0.00000000000E+00 -0.35644708440E+03  0.35644708440E+03  0.00000000000E+00 0. -1.
       24    2    1    2    0    0 -0.26441749069E+02  0.27197886610E+02 -0.16903250136E+03  0.19035995846E+03  0.78905235190E+02 0.  0.
      -24    2    1    2    0    0  0.26441749069E+02 -0.27197886610E+02 -0.16625863706E+03  0.18724307192E+03  0.77324914845E+02 0.  0.
      -13    1    3    3    0    0 -0.14284044301E+02 -0.19752333141E+02 -0.14425529387E+02  0.28324626815E+02  0.00000000000E+00 0.  1.
       14    1    3    3    0    0 -0.12157704768E+02  0.46950219750E+02 -0.15460697197E+03  0.16203533165E+03  0.00000000000E+00 0. -1.
        1    1    4    4  502    0  0.42696991028E+02  0.10006264979E+02 -0.67853589872E+02  0.80791509703E+02  0.00000000000E+00 0. -1.
       -2    1    4    4    0  502 -0.16255241959E+02 -0.37204151588E+02 -0.98405047189E+02  0.10645156222E+03  0.00000000000E+00 0.  1.
</event>
<event>
 8   1  0.2279600E-02  0.8247127E+02  0.7546771E-02  0.1322553E+00
        1   -1    0    0  501    0  0.00000000000E+00  0.00000000000E+00  0.69690024098E+03  0.69690024098E+03  0.00000000000E+00 0. -1.
       -1   -1    0    0    0  501 -0.00000000000E+00 -0.00000000000E+00 -0.10791594326E+02  0.10791594326E+02  0.00000000000E+00 0.  1.
       24    2    1    2    0    0  0.67030903822E+01 -0.11657152444E+02  0.45685466073E+03  0.46423883019E+03  0.81367621372E+02 0.  0.
      -24    2    1    2    0    0 -0.67030903822E+01  0.11657152444E+02  0.22925398593E+03  0.24345300512E+03  0.80815561688E+02 0.  0.
      -13    1    3    3    0    0  0.31457165929E+02  0.17605970168E+02  0.32297538660E+03  0.32498095917E+03  0.00000000000E+00 0.  1.
       14    1    3    3    0    0 -0.24754075547E+02 -0.29263122612E+02  0.13387927413E+03  0.13925787102E+03  0.00000000000E+00 0. -1.
        1    1    4    4  502    0 -0.28618611551E+02  0.36702974042E+02  0.15975651647E+03  0.16639795007E+03  0.00000000000E+00 0. -1.
       -2    1    4    4    0  502  0.21915521169E+02 -0.25045821598E+02  0.69497469456E+02  0.77055055047E+02  0.00000000000E+00 0.  1.
</event>
<event>
 8   1  0.2279600E-02  0.9511447E+02  0.7546771E-02  0.1291171E+00
        2   -1    0    0  501    0  0.00000000000E+00  0.00000000000E+00  0.13021532160E+03  0.13021532160E+03  0.00000000000E+00 0. -1.
       -2   -1    0    0    0  501 -0.00000000000E+00 -0.00000000000E+00 -0.12826169265E+03  0.12826169265E+03  0.00000000000E+00 0.  1.
      -24    2    1    2    0    0 -0.21590492700E+02  0.43866083990E+02 -0.86761601148E+02  0.12841105385E+03  0.81064422639E+02 0.  0.
       24    2    1    2    0    0  0.21590492700E+02 -0.43866083990E+02  0.88715230105E+02  0.13006596040E+03  0.81586636787E+02 0.  0.
      -13    1    4    4    0    0  0.16512487426E+01 -0.10749724395E+02 -0.15487230427E+02  0.18924521217E+02  0.00000000000E+00 0.  1.
       14    1    4    4    0    0  0.19939243957E+02 -0.33116359594E+02  0.10420246053E+03  0.11114143918E+03  0.00000000000E+00 0. -1.
        3    1    3    3  502    0 -0.25862243151E+02 -0.18424403582E+02 -0.23306865223E+02  0.39389392413E+02  0.00000000000E+00 0. -1.
       -4    1    3    3    0  502  0.42717504513E+01  0.62290487572E+02 -0.63454735926E+02  0.89021661438E+02  0.00000000000E+00 0.  1.
</event>
<event>
 8   1  0.2279600E-02  0.8643051E+02  0.7546771E-02  0.1312722E+00
       -3   -1    0    0    0  501 -0.00000000000E+00  0.00000000000E+00  0.91023520717E+01  0.91023520717E+01  0.00000000000E+00 0.  1.
        3   -1    0    0  501    0  0.00000000000E+00 -0.00000000000E+00 -0.12448268520E+04  0.12448268520E+04  0.00000000000E+00 0. -1.
       24    2    1    2    0    0 -0.26341280338E+02  0.12917198414E+02 -0.24213571678E+03  0.25658828786E+03  0.79668858798E+02 0.  0.
      -24    2    1    2    0    0  0.26341280338E+02 -0.12917198414E+02 -0.99358878315E+03  0.99734091621E+03  0.81298930408E+02 0.  0.
      -13    1    3    3    0    0  0.46821149503E+01 -0.63379901319E+01  0.32332774599E+01  0.85174175930E+01  0.00000000000E+00 0.  1.
       14    1    3    3    0    0 -0.31023395288E+02  0.19255188546E+02 -0.24536899424E+03  0.24807087027E+03  0.00000000000E+00 0. -1.
        1    1    4    4  502    0  0.55796342897E+02 -0.10266426988E+02 -0.62738673581E+03  0.62994662288E+03  0.00000000000E+00 0. -1.
       -2    1    4    4    0  502 -0.29455062559E+02 -0.26507714262E+01 -0.36620204734E+03  0.36739429333E+03  0.00000000000E+00 0.  1.
</event>
<event>
 8   1  0.2279600E-02  0.9038064E+02  0.7546771E-02  0.1302689E+00
        3   -1    0    0  501    0  0.00000000000E+00  0.00000000000E+00  0.11986414698E+03  0.11986414698E+03  0.00000000000E+00 0. -1.
       -3   -1    0    0    0  501 -0.00000000000E+00 -0.00000000000E+00 -0.11130492412E+03  0.11130492412E+03  0.00000000000E+00 0.  1.
       24    2    1    2    0    0 -0.40898926323E+02  0.26451187797E+01 -0.68485997742E+02  0.11240617292E+03  0.79152365694E+02 0.  0.
      -24    2    1    2    0    0  0.40898926323E+02 -0.26451187797E+01  0.77045220599E+02  0.11876289818E+03  0.80553964147E+02 0.  0.
      -13    1    3    3    0    0 -0.42063962332E+02 -0.27796237951E+02 -0.18181290679E+02  0.53596334782E+02  0.00000000000E+00 0.  1.
       14    1    3    3    0    0  0.11650360091E+01  0.30441356731E+02 -0.50304707063E+02  0.58809838133E+02  0.00000000000E+00 0. -1.
        3    1    4    4  502    0  0.52508945305E+02 -0.28174445396E+02  0.65170225961E+02  0.88307117846E+02  0.00000000000E+00 0. -1.
       -4    1    4    4    0  502 -0.11610018982E+02  0.25529326617E+02  0.11874994637E+02  0.30455780336E+02  0.00000000000E+00 0.  1.
</event>
<event>
 8   1  0.2279600E-02  0.8150840E+02  0.7546771E-02  0.1325462E+00
       -2   -1    0    0    0  501 -0.00000000000E+00  0.00000000000E+00  0.38221369119E+02  0.38221369119E+02  0.00000000000E+00 0.  1.
        2   -1    0    0  501    0  0.00000000000E+00 -0.00000000000E+00 -0.20429317493E+03  0.20429317493E+03  0.00000000000E+00 0. -1.
      -24    2    1    2    0    0  0.10222336660E+02  0.28265243500E+00 -0.34337372489E+02  0.87603022213E+02  0.79941593006E+02 0.  0.
       24    2    1    2    0    0 -0.10222336660E+02 -0.28265243500E+00 -0.13173443333E+03  0.15491152184E+03  0.80864346999E+02 0.  0.
      -13    1    4    4    0    0 -0.83124097981E+01 -0.39616367808E+02 -0.82238683236E+02  0.91661081029E+02  0.00000000000E+00 0.  1.
       14    1    4    4    0    0 -0.19099268621E+01  0.39333715373E+02 -0.49495750091E+02  0.63250440811E+02  0.00000000000E+00 0. -1.
        1    1    3    3  502    0 -0.20531183186E+01  0.38392869425E+02 -0.26786595354E+02  0.46858824230E+02  0.00000000000E+00 0. -1.
       -2    1    3    3    0  502  0.12275454979E+02 -0.38110216990E+02 -0.75507771350E+01  0.40744197984E+02  0.00000000000E+00 0.  1.
</event>
<event>
 8   1  0.2279600E-02  0.2380766E+03  0.7546771E-02  0.1121411E+00
       -1   -1    0    0    0  501 -0.00000000000E+00  0.00000000000E+00  0.16651770585E+03  0.16651770585E+03  0.00000000000E+00 0.  1.
        1   -1    0    0  501    0  0.00000000000E+00 -0.00000000000E+00 -0.77318920989E+03  0.77318920989E+03  0.00000000000E+00 0. -1.
       24    2    1    2    0    0 -0.22191545938E+03  0.32334425017E+02  0.49868952597E+02  0.24133321548E+03  0.73910907901E+02 0.  0.
      -24    2    1    2    0    0  0.22191545938E+03 -0.32334425017E+02 -0.65654045664E+03  0.69837370026E+03  0.79927891603E+02 0.  0.
      -13    1    3    3    0    0 -0.22039010793E+03  0.21006068991E+02  0.56000685807E+02  0.22836184318E+03  0.00000000000E+00 0.  1.
       14    1    3    3    0    0 -0.15253514532E+01  0.11328356026E+02 -0.61317332107E+01  0.12971372305E+02  0.00000000000E+00 0. -1.
        3    1    4    4  502    0  0.18272219968E+03 -0.51212142831E+02 -0.58097324702E+03  0.61117918778E+03  0.00000000000E+00 0. -1.
       -4    1    4    4    0  502  0.39193259705E+02  0.18877717814E+02 -0.75567209622E+02  0.87194512477E+02  0.00000000000E+00 0.  1.
</event>
<event>
 8   1  0.2279600E-02  0.1512239E+03  0.7546771E-02  0.1199514E+00
        2   -1    0    0  501    0  0.00000000000E+00  0.00000000000E+00  0.11858842233E+03  0.11858842233E+03  0.00000000000E+00 0. -1.
       -2   -1    0    0    0  501 -0.00000000000E+00 -0.00000000000E+00 -0.19285005467E+03  0.19285005467E+03  0.00000000000E+00 0.  1.
      -24    2    1    2    0    0 -0.16411541324E+02  0.12578991097E+03 -0.54131403721E+02  0.16062031830E+03  0.82317904444E+02 0.  0.
       24    2    1    2    0    0  0.16411541324E+02 -0.12578991097E+03 -0.20130228617E+02  0.15081815870E+03  0.79047140990E+02 0.  0.
      -13    1    4    4    0    0  0.46008043631E+02 -0.55237542207E+02 -0.74666603015E+00  0.71892166875E+02  0.00000000000E+00 0.  1.
       14    1    4    4    0    0 -0.29596502307E+02 -0.70552368763E+02 -0.19383562587E+02  0.78925991824E+02  0.00000000000E+00 0. -1.
        1    1    3    3  502    0 -0.22370709575E+02 -0.27439674846E+01 -0.73040965786E+01  0.23692358078E+02  0.00000000000E+00 0. -1.
       -2    1    3    3    0  502  0.59591682517E+01  0.12853387845E+03 -0.46827307142E+02  0.13692796022E+03  0.00000000000E+00 0.  1.
</event>
<event>
 8   1  0.2279600E-02  0.9255484E+02  0.7546771E-02  0.1297479E+00
       -4   -1    0    0    0  501 -0.00000000000E+00  0.00000000000E+00  0.31355878913E+03  0.31355878913E+03  0.00000000000E+00 0.  1.
        4   -1    0    0  501    0  0.00000000000E+00 -0.00000000000E+00 -0.27041593324E+02  0.27041593324E+02  0.00000000000E+00 0. -1.
      -24    2    1    2    0    0 -0.29312112431E+02 -0.28350246590E+02  0.13539644247E+03  0.16400791114E+03  0.83087073997E+02 0.  0.
       24    2    1    2    0    0  0.29312112431E+02  0.28350246590E+02  0.15112075333E+03  0.17659247131E+03  0.81758684065E+02 0.  0.
      -13    1    4    4    0    0 -0.57366643962E+00 -0.86364804439E+01  0.11875726972E+03  0.11907227636E+03  0.00000000000E+00 0.  1.
       14    1    4    4    0    0  0.29885778870E+02  0.36986727034E+02  0.32363483615E+02  0.57520194950E+02  0.00000000000E+00 0. -1.
        1    1    3    3  502    0 -0.47781739214E+02  0.85835047385E+01  0.53195630492E+02  0.72017680186E+02  0.00000000000E+00 0. -1.
       -2    1    3    3    0  502  0.18469626783E+02 -0.36933751329E+02  0.82200811982E+02  0.91990230956E+02  0.00000000000E+00 0.  1.
</event>
<event>
 8   1  0.2279600E-02  0.1070772E+03  0.7546771E-02  0.1266253E+00
       -2   -1    0    0    0  501 -0.00000000000E+00  0.00000000000E+00  0.45651033582E+02  0.45651033582E+02  0.00000000000E+00 0.  1.
        2   -1    0    0  501    0  0.00000000000E+00 -0.00000000000E+00 -0.25047473949E+03  0.25047473949E+03  0.00000000000E+00 0. -1.
      -24    2    1    2    0    0  0.90967931889E+01 -0.69656105040E+02 -0.98816115874E+02  0.14570567064E+03  0.80813322445E+02 0.  0.
       24    2    1    2    0    0 -0.90967931889E+01  0.69656105040E+02 -0.10600759003E+03  0.15042010243E+03  0.80336003478E+02 0.  0.
      -13    1    4    4    0    0  0.26584246409E+02  0.30036923295E+02 -0.83326485064E+02  0.92478332767E+02  0.00000000000E+00 0.  1.
       14    1    4    4    0    0 -0.35681039598E+02  0.39619181745E+02 -0.22681104966E+02  0.57941769661E+02  0.00000000000E+00 0. -1.
        3    1    3    3  502    0 -0.15634801087E+02 -0.19697035953E+02 -0.84483792984E+02  0.88147214972E+02  0.00000000000E+00 0. -1.
       -4    1    3    3    0  502  0.24731594276E+02 -0.49959069086E+02 -0.14332322890E+02  0.57558455668E+02  0.00000000000E+00 0.  1.
</event>
<event>
 8   1  0.2279600E-02  0.8966874E+02  0.7546771E-02  0.1304897E+00
        1   -1    0    0  501    0  0.00000000000E+00  0.00000000000E+00  0.31920684517E+04  0.31920684517E+04  0.00000000000E+00 0. -1.
       -1   -1    0    0    0  501 -0.00000000000E+00 -0.00000000000E+00 -0.35760430649E+01  0.35760430649E+01  0.00000000000E+00 0.  1.
       24    2    1    2    0    0  0.21242552221E+02 -0.26710284532E+02  0.69022599744E+03  0.69576938901E+03  0.80736793435E+02 0.  0.
      -24    2    1    2    0    0 -0.21242552221E+02  0.26710284532E+02  0.24982664112E+04  0.24998751057E+04  0.82920430241E+02 0.  0.
      -13    1    3    3    0    0 -0.27816600933E+02 -0.25636808263E+02  0.34638021283E+03  0.34843975242E+03  0.00000000000E+00 0.  1.
       14    1    3    3    0    0  0.49059153154E+02 -0.10734762693E+01  0.34384578461E+03  0.34732963659E+03  0.00000000000E+00 0. -1.
        1    1    4    4  502    0 -0.49306198612E+02  0.23450905710E+02  0.20452068827E+04  0.20459355413E+04  0.00000000000E+00 0. -1.
       -2    1    4    4    0  502  0.28063646391E+02  0.32593788224E+01  0.45305952847E+03  0.45393956441E+03  0.00000000000E+00 0.  1.
</event>
<event>
 8   1  0.2279600E-02  0.9131290E+02  0.7546771E-02  0.1300601E+00
        1   -1    0    0  501    0  0.00000000000E+00  0.00000000000E+00  0.18914422173E+02  0.18914422173E+02  0.00000000000E+00 0. -1.
       -1   -1    0    0    0  501 -0.00000000000E+00 -0.00000000000E+00 -0.51097156634E+03  0.51097156634E+03  0.00000000000E+00 0.  1.
       24    2    1    2    0    0 -0.21732734145E+02  0.36875067069E+02 -0.34737861312E+03  0.35880143801E+03  0.78958778871E+02 0.  0.
      -24    2    1    2    0    0  0.21732734145E+02 -0.36875067069E+02 -0.14467853105E+03  0.17108455050E+03  0.80659554732E+02 0.  0.
      -13    1    3    3    0    0  0.11334189532E+02  0.36754360814E+00 -0.41798034269E+01  0.12085929726E+02  0.00000000000E+00 0.  1.
       14    1    3    3    0    0 -0.33066923677E+02  0.36507523461E+02 -0.34319880970E+03  0.34671550829E+03  0.00000000000E+00 0. -1.
        1    1    4    4  502    0 -0.26572874543E+02 -0.10619161562E+02 -0.20267335984E+02  0.35066353698E+02  0.00000000000E+00 0. -1.
       -2    1    4    4    0  502  0.48305608688E+02 -0.26255905507E+02 -0.12441119506E+03  0.13601819680E+03  0.00000000000E+00 0.  1.
</event>
<event>
 8   1  0.2279600E-02  0.8450220E+02  0.7546771E-02  0.1317351E+00
        2   -1    0    0  501    0  0.00000000000E+00  0.00000000000E+00  0.25963298190E+04  0.25963298190E+04  0.00000000000E+00 0. -1.
       -2   -1    0    0    0  501 -0.00000000000E+00 -0.00000000000E+00 -0.50749195386E+01  0.50749195386E+01  0.00000000000E+00 0.  1.
      -24    2    1    2    0    0 -0.70786096276E+01  0.25947250706E+02  0.41347355085E+03  0.42202014095E+03  0.80107774781E+02 0.  0.
       24    2    1    2    0    0  0.70786096276E+01 -0.25947250706E+02  0.21777813486E+04  0.21793845976E+04  0.79134412988E+02 0.  0.
      -13    1    4    4    0    0  0.58547523642E+01  0.18818822623E+01  0.12566678439E+02  0.13990747410E+02  0.00000000000E+00 0.  1.
       14    1    4    4    0    0  0.12238572634E+01 -0.27829132969E+02  0.21652146702E+04  0.21653938502E+04  0.00000000000E+00 0. -1.
        3    1    3    3  502    0 -0.32409110661E+02 -0.15348103604E+02  0.19026857046E+03  0.19361829367E+03  0.00000000000E+00 0. -1.
       -4    1    3    3    0  502  0.25330501034E+02  0.41295354311E+02  0.22320498040E+03  0.22840184729E+03  0.00000000000E+00 0.  1.
</event>
<event>
 8   1  0.2279600E-02  0.3103928E+03  0.7546771E-02  0.1080182E+00
        2   -1    0    0  501    0  0.00000000000E+00  0.00000000000E+00  0.97803588233E+03  0.97803588233E+03  0.00000000000E+00 0. -1.
       -2   -1    0    0    0  501 -0.00000000000E+00 -0.00000000000E+00 -0.13644743163E+03  0.13644743163E+03  0.00000000000E+00 0.  1.
       24    2    1    2    0    0  0.29442263871E+03  0.56082118637E+02  0.71478644565E+03  0.77918874954E+03  0.79909638374E+02 0.  0.
      -24    2    1    2    0    0 -0.29442263871E+03 -0.56082118637E+02  0.12680200506E+03  0.33529456443E+03  0.80708129914E+02 0.  0.
      -13    1    3    3    0    0  0.69553822856E+02 -0.93057389625E+01  0.23578534168E+03  0.24600621619E+03  0.00000000000E+00 0.  1.
       14    1    3    3    0    0  0.22486881586E+03  0.65387857599E+02  0.47900110396E+03  0.53318253334E+03  0.00000000000E+00 0. -1.
        1    1    4    4  502    0 -0.36776095605E+02 -0.80705098689E+01 -0.10956573431E+02  0.39213018741E+02  0.00000000000E+00 0. -1.
       -2    1    4    4    0  502 -0.25764654311E+03 -0.48011608768E+02  0.13775857849E+03  0.29608154569E+03  0.00000000000E+00 0.  1.
</event>
<event>
 8   1  0.2279600E-02  0.8483788E+02  0.7546771E-02  0.1316375E+00
        2   -1    0    0  501    0  0.00000000000E+00  0.00000000000E+00  0.81491433773E+02  0.81491433773E+02  0.00000000000E+00 0. -1.
       -2   -1    0    0    0  501 -0.00000000000E+00 -0.00000000000E+00 -0.17737720913E+03  0.17737720913E+03  0.00000000000E+00 0.  1.
      -24    2    1    2    0    0 -0.78989422299E+01 -0.27345383679E+02 -0.14018469257E+03  0.16385729705E+03  0.79920601032E+02 0.  0.
       24    2    1    2    0    0  0.78989422299E+01  0.27345383679E+02  0.44298917209E+02  0.95011345854E+02  0.79086019486E+02 0.  0.
      -13    1    4    4    0    0 -0.38242164026E-01 -0.27942334837E+02  0.11326997134E+02  0.30150893896E+02  0.00000000000E+00 0.  1.
       14    1    4    4    0    0  0.79371843940E+01  0.55287718516E+02  0.32971920075E+02  0.64860451959E+02  0.00000000000E+00 0. -1.
        1    1    3    3  502    0 -0.19929760690E+02 -0.36314729309E+02 -0.26475213331E+02  0.49161894256E+02  0.00000000000E+00 0. -1.
       -2    1    3    3    0  502  0.12030818460E+02  0.89693456301E+01 -0.11370947924E+03  0.11469540279E+03  0.00000000000E+00 0.  1.
</event>
<event>
 8   1  0.2279600E-02  0.1213625E+03  0.7546771E-02  0.1245133E+00
       -2   -1    0    0    0  501 -0.00000000000E+00  0.00000000000E+00  0.15222489503E+02  0.15222489503E+02  0.00000000000E+00 0.  1.
        2   -1    0    0  501    0  0.00000000000E+00 -0.00000000000E+00 -0.90306168930E+03  0.90306168930E+03  0.00000000000E+00 0. -1.
      -24    2    1    2    0    0  0.65290477316E+02 -0.41596522659E+02 -0.40610253621E+03  0.42384919273E+03  0.93465240258E+02 0.  0.
       24    2    1    2    0    0 -0.65290477316E+02  0.41596522659E+02 -0.48173666358E+03  0.49443498607E+03  0.80016406334E+02 0.  0.
      -13    1    4    4    0    0  0.24920374003E+01 -0.12204974008E+01  0.24219624192E+01  0.36831733966E+01  0.00000000000E+00 0.  1.
       14    1    4    4    0    0 -0.67782514716E+02  0.42817020060E+02 -0.48415862600E+03  0.49075181267E+03  0.00000000000E+00 0. -1.
        3    1    3    3  502    0 -0.21472440515E+02 -0.32290460905E+01 -0.13247464316E+03  0.13424240582E+03  0.00000000000E+00 0. -1.
       -4    1    3    3    0  502  0.86762917831E+02 -0.38367476568E+02 -0.27362789305E+03  0.28960678691E+03  0.00000000000E+00 0.  1.
</event>
<event>
 8   1  0.2279600E-02  0.9252757E+02  0.7546771E-02  0.1297395E+00
        1   -1    0    0  501    0  0.00000000000E+00  0.00000000000E+00  0.56178377105E+03  0.56178377105E+03  0.00000000000E+00 0. -1.
       -1   -1    0    0    0  501 -0.00000000000E+00 -0.00000000000E+00 -0.41197801322E+02  0.41197801322E+02  0.00000000000E+00 0.  1.
       24    2    1    2    0    0  0.15127769028E+02 -0.41297244079E+02  0.19779673894E+02  0.93699433813E+02  0.80337019072E+02 0.  0.
      -24    2    1    2    0    0 -0.15127769028E+02  0.41297244079E+02  0.50080629583E+03  0.50928213855E+03  0.81406627150E+02 0.  0.
      -13    1    3    3    0    0  0.32962165824E+01 -0.27645203058E+01 -0.29626026718E+02  0.29936751250E+02  0.00000000000E+00 0.  1.
       14    1    3    3    0    0  0.11831552445E+02 -0.38532723773E+02  0.49405700613E+02  0.63762682563E+02  0.00000000000E+00 0. -1.
        1    1    4    4  502    0 -0.18784460380E+02  0.28868078399E+02  0.49290527065E+03  0.49410710149E+03  0.00000000000E+00 0. -1.
       -2    1    4    4    0  502  0.36566913522E+01  0.12429165680E+02  0.79010251758E+01  0.15175037067E+02  0.00000000000E+00 0.  1.
</event>
<event>
 8   1  0.2279600E-02  0.8932176E+02  0.7546771E-02  0.1304600E+00
       -2   -1    0    0    0  501 -0.00000000000E+00  0.00000000000E+00  0.34176480372E+02  0.34176480372E+02  0.00000000000E+00 0.  1.
        2   -1    0    0  501    0  0.00000000000E+00 -0.00000000000E+00 -0.24976515280E+03  0.24976515280E+03  0.00000000000E+00 0. -1.
      -24    2    1    2    0    0 -0.10835110968E+01  0.34848507475E+02 -0.71134819897E+02  0.11418642666E+03  0.82236153624E+02 0.  0.
       24    2    1    2    0    0  0.10835110968E+01 -0.34848507475E+02 -0.14445385253E+03  0.16975520650E+03  0.82062915839E+02 0.  0.
      -13    1    4    4    0    0 -0.94951963235E+01 -0.14260297023E+02  0.55246490157E+01  0.18001015836E+02  0.00000000000E+00 0.  1.
       14    1    4    4    0    0  0.10578707420E+02 -0.20588210452E+02 -0.14997850154E+03  0.15175419067E+03  0.00000000000E+00 0. -1.
        3    1    3    3  502    0  0.21520489562E+02 -0.11724538849E+02 -0.54589393943E+02  0.59838100014E+02  0.00000000000E+00 0. -1.
       -4    1    3    3    0  502 -0.22604000659E+02  0.46573046323E+02 -0.16545425954E+02  0.54348326650E+02  0.00000000000E+00 0.  1.
</event>
<event>
 8   1  0.2279600E-02  0.8894768E+02  0.7546771E-02  0.1305919E+00
       -1   -1    0    0    0  501 -0.00000000000E+00  0.00000000000E+00  0.10181853853E+04  0.10181853853E+04  0.00000000000E+00 0.  1.
        1   -1    0    0  501    0  0.00000000000E+00 -0.00000000000E+00 -0.57818369907E+02  0.57818369907E+02  0.00000000000E+00 0. -1.
       24    2    1    2    0    0 -0.37282477304E+02 -0.31491195231E+01  0.98078924763E+03  0.98474173381E+03  0.79804974685E+02 0.  0.
      -24    2    1    2    0    0  0.37282477304E+02  0.31491195231E+01 -0.20422232229E+02  0.91262021400E+02  0.80695656098E+02 0.  0.
      -13    1    3    3    0    0 -0.38581849196E+02 -0.37222572117E+02  0.64589258151E+03  0.64811365193E+03  0.00000000000E+00 0.  1.
       14    1    3    3    0    0  0.12993718923E+01  0.34073452594E+02  0.33489666612E+03  0.33662808189E+03  0.00000000000E+00 0. -1.
        3    1    4    4  502    0  0.33458320469E+02 -0.21246794278E+02 -0.42517663704E+02  0.58126045818E+02  0.00000000000E+00 0. -1.
       -4    1    4    4    0  502  0.38241568353E+01  0.24395913801E+02  0.22095431475E+02  0.33135975582E+02  0.00000000000E+00 0.  1.
</event>
<event>
 8   1  0.2279600E-02  0.1206558E+03  0.7546771E-02  0.1244343E+00
       -2   -1    0    0    0  501 -0.00000000000E+00  0.00000000000E+00  0.17071564090E+03  0.17071564090E+03  0.00000000000E+00 0.  1.
        2   -1    0    0  501    0  0.00000000000E+00 -0.00000000000E+00 -0.94094872126E+02  0.94094872126E+02  0.00000000000E+00 0. -1.
      -24    2    1    2    0    0  0.62018380001E+02  0.59447081450E+02 -0.11071197781E+02  0.11565383825E+03  0.76635526561E+02 0.  0.
       24    2    1    2    0    0 -0.62018380001E+02 -0.59447081450E+02  0.87691966561E+02  0.14915667478E+03  0.84720703968E+02 0.  0.
      -13    1    4    4    0    0 -0.27256058999E+02 -0.73103676553E+02  0.78536137829E+02  0.11070214642E+03  0.00000000000E+00 0.  1.
       14    1    4    4    0    0 -0.34762321002E+02  0.13656595103E+02  0.91558287321E+01  0.38454528355E+02  0.00000000000E+00 0. -1.
        1    1    3    3  502    0  0.17521220599E+02  0.55262028887E+02  0.19882695088E+02  0.61287899066E+02  0.00000000000E+00 0. -1.
       -2    1    3    3    0  502  0.44497159402E+02  0.41850525632E+01 -0.30953892869E+02  0.54365939186E+02  0.00000000000E+00 0.  1.
</event>
<event>
 8   1  0.2279600E-02  0.1360335E+03  0.7546771E-02  0.1218853E+00
        2   -1    0    0  501    0  0.00000000000E+00  0.00000000000E+00  0.20542094948E+03  0.20542094948E+03  0.00000000000E+00 0. -1.
       -2   -1    0    0    0  501 -0.00000000000E+00 -0.00000000000E+00 -0.16819062706E+03  0.16819062706E+03  0.00000000000E+00 0.  1.
      -24    2    1    2    0    0  0.50126370040E+02 -0.96910089240E+02 -0.10880871378E+03  0.17419657209E+03  0.81245868583E+02 0.  0.
       24    2    1    2    0    0 -0.50126370040E+02  0.96910089240E+02  0.14603903620E+03  0.19941500445E+03  0.80837649255E+02 0.  0.
      -13    1    4    4    0    0  0.21543836317E+01  0.24721803745E+02 -0.37656396717E+01  0.25099581498E+02  0.00000000000E+00 0.  1.
       14    1    4    4    0    0 -0.52280753672E+02  0.72188285496E+02  0.14980467587E+03  0.17431542296E+03  0.00000000000E+00 0. -1.
        1    1    3    3  502    0  0.33938608498E+02 -0.71834384855E+02 -0.22055681227E+02  0.82452780842E+02  0.00000000000E+00 0. -1.
       -2    1    3    3    0  502  0.16187761542E+02 -0.25075704385E+02 -0.86753032558E+02  0.91743791246E+02  0.00000000000E+00 0.  1.
</event>
<event>
 8   1  0.2279600E-02  0.1231037E+03  0.7546771E-02  0.1240347E+00
       -2   -1    0    0    0  501 -0.00000000000E+00  0.00000000000E+00  0.14209251159E+02  0.14209251159E+02  0.00000000000E+00 0.  1.
        2   -1    0    0  501    0  0.00000000000E+00 -0.00000000000E+00 -0.13800974241E+04  0.13800974241E+04  0.00000000000E+00 0. -1.
       24    2    1    2    0    0 -0.43376912623E+02  0.73506812588E+02 -0.31455084833E+03  0.33578663186E+03  0.80781296758E+02 0.  0.
      -24    2    1    2    0    0  0.43376912623E+02 -0.73506812588E+02 -0.10513373246E+04  0.10585200434E+04  0.88711352761E+02 0.  0.
      -13    1    3    3    0    0  0.77511657706E+01  0.42851435403E+02 -0.58738964663E+02  0.73120394259E+02  0.00000000000E+00 0.  1.
       14    1    3    3    0    0 -0.51128078394E+02  0.30655377185E+02 -0.25581188367E+03  0.26266623760E+03  0.00000000000E+00 0. -1.
        1    1    4    4  502    0  0.56886906630E+02 -0.75118453212E+02 -0.63429504104E+03  0.64125587813E+03  0.00000000000E+00 0. -1.
       -2    1    4    4    0  502 -0.13509994007E+02  0.16116406243E+01 -0.41704228355E+03  0.41726416523E+03  0.00000000000E+00 0.  1.
</event>
<event>
 8   1  0.2279600E-02  0.8765751E+02  0.7546771E-02  0.1311085E+00
        2   -1    0    0  501    0  0.00000000000E+00  0.00000000000E+00  0.15163349059E+04  0.15163349059E+04  0.00000000000E+00 0. -1.
       -2   -1    0    0    0  501 -0.00000000000E+00 -0.00000000000E+00 -0.34611396669E+02  0.34611396669E+02  0.00000000000E+00 0.  1.
       24    2    1    2    0    0  0.84471909737E+01 -0.28443388630E+02  0.14576290758E+04  0.14600376665E+04  0.78403338161E+02 0.  0.
      -24    2    1    2    0    0 -0.84471909737E+01  0.28443388630E+02  0.24094433431E+02  0.90908636122E+02  0.82483071033E+02 0.  0.
      -13    1    3    3    0    0 -0.17935884496E+02 -0.19651983816E+02  0.12772846630E+04  0.12775617429E+04  0.00000000000E+00 0.  1.
       14    1    3    3    0    0  0.26383075470E+02 -0.87914048136E+01  0.18034441278E+03  0.18247592359E+03  0.00000000000E+00 0. -1.
        3    1    4    4  502    0  0.34956117958E+02  0.27888387701E+01  0.89198659350E-01  0.35067303301E+02  0.00000000000E+00 0. -1.
       -4    1    4    4    0  502 -0.43403308932E+02  0.25654549860E+02  0.24005234772E+02  0.55841332821E+02  0.00000000000E+00 0.  1.
</event>
<event>
 8   1  0.2279600E-02  0.8378576E+02  0.7546771E-02  0.1319673E+00
        1   -1    0    0  501    0  0.00000000000E+00  0.00000000000E+00  0.17644038461E+04  0.17644038461E+04  0.00000000000E+00 0. -1.
       -1   -1    0    0    0  501 -0.00000000000E+00 -0.00000000000E+00 -0.52621274865E+01  0.52621274865E+01  0.00000000000E+00 0.  1.
       24    2    1    2    0    0 -0.13539622358E+02 -0.16588049674E+02  0.43645188569E+03  0.44442131210E+03  0.81003514462E+02 0.  0.
      -24    2    1    2    0    0  0.13539622358E+02  0.16588049674E+02  0.13226898330E+04  0.13252446615E+04  0.79413688560E+02 0.  0.
      -13    1    3    3    0    0 -0.26287658468E+02 -0.18028655480E+02  0.61678952773E+02  0.69428860147E+02  0.00000000000E+00 0.  1.
       14    1    3    3    0    0  0.12748036109E+02  0.14406058064E+01  0.37477293292E+03  0.37499245195E+03  0.00000000000E+00 0. -1.
        1    1    4    4  502    0 -0.11090628499E+02  0.23463187595E+02  0.11797526921E+04  0.11800381086E+04  0.00000000000E+00 0. -1.
       -2    1    4    4    0  502  0.24630250857E+02 -0.68751379210E+01  0.14293714087E+03  0.14520655294E+03  0.00000000000E+00 0.  1.
</event>
<event>
 8   1  0.2279600E-02  0.9156215E+02  0.7546771E-02  0.1301806E+00
       -2   -1    0    0    0  501 -0.00000000000E+00  0.00000000000E+00  0.16718156478E+03  0.16718156478E+03  0.00000000000E+00 0.  1.
        2   -1    0    0  501    0  0.00000000000E+00 -0.00000000000E+00 -0.54777110155E+02  0.54777110155E+02  0.00000000000E+00 0. -1.
      -24    2    1    2    0    0  0.21451675158E+01 -0.37279026713E+02  0.97160651902E+02  0.13350587949E+03  0.83602033500E+02 0.  0.
       24    2    1    2    0    0 -0.21451675158E+01  0.37279026713E+02  0.15243802721E+02  0.88452795438E+02  0.78722270820E+02 0.  0.
      -13    1    4    4    0    0 -0.21985843554E+02 -0.14912358257E+02 -0.83350534320E+01  0.27842931981E+02  0.00000000000E+00 0.  1.
       14    1    4    4    0    0  0.19840676039E+02  0.52191384970E+02  0.23578856153E+02  0.60609863457E+02  0.00000000000E+00 0. -1.
        1    1    3    3  502    0 -0.26482384653E+01  0.22012195258E+02  0.58503496189E+02  0.62563639387E+02  0.00000000000E+00 0. -1.
       -2    1    3    3    0  502  0.47934059812E+01 -0.59291221971E+02  0.38657155713E+02  0.70942240108E+02  0.00000000000E+00 0.  1.
</event>
<event>
 8   1  0.2279600E-02  0.9321679E+02  0.7546771E-02  0.1297329E+00
       -2   -1    0    0    0  501 -0.00000000000E+00  0.00000000000E+00  0.18727031306E+02  0.18727031306E+02  0.00000000000E+00 0.  1.
        2   -1    0    0  501    0  0.00000000000E+00 -0.00000000000E+00 -0.46312066049E+03  0.46312066049E+03  0.00000000000E+00 0. -1.
      -24    2    1    2    0    0 -0.46619759133E+02 -0.18811383344E+00 -0.26360015367E+03  0.27843763692E+03  0.76609655462E+02 0.  0.
       24    2    1    2    0    0  0.46619759133E+02  0.18811383344E+00 -0.18079347551E+03  0.20341005487E+03  0.80721324988E+02 0.  0.
      -13    1    4    4    0    0  0.15720173500E+02 -0.14672356126E+02 -0.22691266456E+01  0.21622923597E+02  0.00000000000E+00 0.  1.
       14    1    4    4    0    0  0.30899585634E+02  0.14860469960E+02 -0.17852434887E+03  0.18178713128E+03  0.00000000000E+00 0. -1.
        1    1    3    3  502    0 -0.33332362790E+02  0.99767255560E+01 -0.25866605674E+03  0.26099561371E+03  0.00000000000E+00 0. -1.
       -2    1    3    3    0  502 -0.13287396343E+02 -0.10164839389E+02 -0.49340969290E+01  0.17442023217E+02  0.00000000000E+00 0.  1.
</event>
<event>
 8   1  0.2279600E-02  0.8065404E+02  0.7546771E-02  0.1334058E+00
        4   -1    0    0  501    0  0.00000000000E+00  0.00000000000E+00  0.17184606620E+02  0.17184606620E+02  0.00000000000E+00 0. -1.
       -4   -1    0    0    0  501 -0.00000000000E+00 -0.00000000000E+00 -0.33755946945E+03  0.33755946945E+03  0.00000000000E+00 0.  1.
       24    2    1    2    0    0 -0.18652114702E+00 -0.46858189862E+01 -0.16143774179E+03  0.18046390044E+03  0.80517595568E+02 0.  0.
      -24    2    1    2    0    0  0.18652114702E+00  0.46858189862E+01 -0.15893712104E+03  0.17428017563E+03  0.71348297004E+02 0.  0.
      -13    1    3    3    0    0 -0.32943180869E+02 -0.11066883471E+02 -0.13018061121E+03  0.13473945454E+03  0.00000000000E+00 0.  1.
       14    1    3    3    0    0  0.32756659722E+02  0.63810644845E+01 -0.31257130585E+02  0.45724445896E+02  0.00000000000E+00 0. -1.
        1    1    4    4  502    0  0.56466890864E+01  0.33918079428E+02 -0.45626715806E+02  0.57132463670E+02  0.00000000000E+00 0. -1.
       -2    1    4    4    0  502 -0.54601679394E+01 -0.29232260442E+02 -0.11331040523E+03  0.11714771196E+03  0.00000000000E+00 0.  1.
</event>
<event>
 8   1  0.2279600E-02  0.8829716E+02  0.7546771E-02  0.1307971E+00
        2   -1    0    0  501    0  0.00000000000E+00  0.00000000000E+00  0.95075948023E+02  0.95075948023E+02  0.00000000000E+00 0. -1.
       -2   -1    0    0    0  501 -0.00000000000E+00 -0.00000000000E+00 -0.15628039035E+03  0.15628039035E+03  0.00000000000E+00 0.  1.
      -24    2    1    2    0    0  0.31361458148E+02 -0.55572503118E+01 -0.11818700529E+03  0.14752815679E+03  0.82352685071E+02 0.  0.
       24    2    1    2    0    0 -0.31361458148E+02  0.55572503118E+01  0.56982562959E+02  0.10382818159E+03  0.80739424830E+02 0.  0.
      -13    1    4    4    0    0 -0.13031961479E+02 -0.36828655048E+02  0.16467658587E+02  0.42395349178E+02  0.00000000000E+00 0.  1.
       14    1    4    4    0    0 -0.18329496669E+02  0.42385905360E+02  0.40514904372E+02  0.61432832407E+02  0.00000000000E+00 0. -1.
        3    1    3    3  502    0  0.10539697778E+02  0.14515599527E+02  0.68410059501E+01  0.19198625505E+02  0.00000000000E+00 0. -1.
       -4    1    3    3    0  502  0.20821760370E+02 -0.20072849839E+02 -0.12502801124E+03  0.12832953128E+03  0.00000000000E+00 0.  1.
</event>
<event>
 8   1  0.2279600E-02  0.8376107E+02  0.7546771E-02  0.1322878E+00
        3   -1    0    0  501    0  0.00000000000E+00  0.00000000000E+00  0.11233522650E+02  0.11233522650E+02  0.00000000000E+00 0. -1.
       -3   -1    0    0    0  501 -0.00000000000E+00 -0.00000000000E+00 -0.87930929635E+03  0.87930929635E+03  0.00000000000E+00 0.  1.
       24    2    1    2    0    0 -0.21369301809E+02  0.67258671152E+01 -0.68280658754E+03  0.68721896701E+03  0.74452590806E+02 0.  0.
      -24    2    1    2    0    0  0.21369301809E+02 -0.67258671152E+01 -0.18526918616E+03  0.20332385200E+03  0.80709560157E+02 0.  0.
      -13    1    3    3    0    0 -0.41923048895E+02 -0.14586935527E+02 -0.29962689530E+03  0.30289700742E+03  0.00000000000E+00 0.  1.
       14    1    3    3    0    0  0.20553747086E+02  0.21312802642E+02 -0.38317969223E+03  0.38432195958E+03  0.00000000000E+00 0. -1.
        1    1    4    4  502    0  0.19973070710E+02  0.94945786206E+01 -0.54598055533E+01  0.22778938813E+02  0.00000000000E+00 0. -1.
       -2    1    4    4    0  502  0.13962310998E+01 -0.16220445736E+02 -0.17980938061E+03  0.18054491319E+03  0.00000000000E+00 0.  1.
</event>
<event>
 8   1  0.2279600E-02  0.8649310E+02  0.7546771E-02  0.1311586E+00
       -4   -1    0    0    0  501 -0.00000000000E+00  0.00000000000E+00  0.16341693168E+02  0.16341693168E+02  0.00000000000E+00 0.  1.
        4   -1    0    0  501    0  0.00000000000E+00 -0.00000000000E+00 -0.56842817827E+03  0.56842817827E+03  0.00000000000E+00 0. -1.
      -24    2    1    2    0    0 -0.11992663952E+02  0.31754599457E+02 -0.14701264309E+03  0.17056897178E+03  0.79554247711E+02 0.  0.
       24    2    1    2    0    0  0.11992663952E+02 -0.31754599457E+02 -0.40507384201E+03  0.41420089966E+03  0.79532315594E+02 0.  0.
      -13    1    4    4    0    0  0.33063958045E+02 -0.42753158604E+02 -0.18175013556E+03  0.18961584762E+03  0.00000000000E+00 0.  1.
       14    1    4    4    0    0 -0.21071294093E+02  0.10998559147E+02 -0.22332370645E+03  0.22458505204E+03  0.00000000000E+00 0. -1.
        1    1    3    3  502    0 -0.40988606659E+02  0.37834382588E+02 -0.10829474652E+03  0.12181649521E+03  0.00000000000E+00 0. -1.
       -2    1    3    3    0  502  0.28995942706E+02 -0.60797831314E+01 -0.38717896572E+02  0.48752476566E+02  0.00000000000E+00 0.  1.
</event>
<event>
 8   1  0.2279600E-02  0.8723034E+02  0.7546771E-02  0.1321938E+00
       -3   -1    0    0    0  501 -0.00000000000E+00  0.00000000000E+00  0.15639903301E+02  0.15639903301E+02  0.00000000000E+00 0.  1.
        3   -1    0    0  501    0  0.00000000000E+00 -0.00000000000E+00 -0.60618087768E+03  0.60618087768E+03  0.00000000000E+00 0. -1.
       24    2    1    2    0    0  0.12772921053E+02  0.18650902848E+02 -0.91450862339E+02  0.11516500896E+03  0.66247380151E+02 0.  0.
      -24    2    1    2    0    0 -0.12772921053E+02 -0.18650902848E+02 -0.49909011204E+03  0.50665577203E+03  0.84250386924E+02 0.  0.
      -13    1    3    3    0    0 -0.20933392274E+02  0.22655495235E+02 -0.65627970367E+02  0.72515576747E+02  0.00000000000E+00 0.  1.
       14    1    3    3    0    0  0.33706313327E+02 -0.40045923865E+01 -0.25822891972E+02  0.42649432213E+02  0.00000000000E+00 0. -1.
        3    1    4    4  502    0 -0.13751317180E+02  0.13934412332E+02 -0.42799776916E+03  0.42844527886E+03  0.00000000000E+00 0. -1.
       -4    1    4    4    0  502  0.97839612693E+00 -0.32585315180E+02 -0.71092342881E+02  0.78210493163E+02  0.00000000000E+00 0.  1.
</event>
<event>
 8   1  0.2279600E-02  0.9408407E+02  0.7546771E-02  0.1294628E+00
       -1   -1    0    0    0  501 -0.00000000000E+00  0.00000000000E+00  0.16823496406E+03  0.16823496406E+03  0.00000000000E+00 0.  1.
        1   -1    0    0  501    0  0.00000000000E+00 -0.00000000000E+00 -0.69907264311E+02  0.69907264311E+02  0.00000000000E+00 0. -1.
       24    2    1    2    0    0 -0.44742431563E+02 -0.81375188453E+01  0.11013910576E+03  0.14331964743E+03  0.79635383630E+02 0.  0.
      -24    2    1    2    0    0  0.44742431563E+02  0.81375188453E+01 -0.11811406015E+02  0.94822580940E+02  0.82363269416E+02 0.  0.
      -13    1    3    3    0    0 -0.63322315775E+02 -0.23365485120E+02  0.77095698660E+02  0.10246662053E+03  0.00000000000E+00 0.  1.
       14    1    3    3    0    0  0.18579884213E+02  0.15227966275E+02  0.33043407103E+02  0.40853026904E+02  0.00000000000E+00 0. -1.
        3    1    4    4  502    0  0.29570077510E+02  0.36631177695E+01 -0.47337308720E+02  0.55934146213E+02  0.00000000000E+00 0. -1.
       -4    1    4    4    0  502  0.15172354053E+02  0.44744010758E+01  0.35525902705E+02  0.38888434726E+02  0.00000000000E+00 0.  1.
</event>
<event>
 8   1  0.2279600E-02  0.8431624E+02  0.7546771E-02  0.1318426E+00
       -4   -1    0    0    0  501 -0.00000000000E+00  0.00000000000E+00  0.16713976626E+03  0.16713976626E+03  0.00000000000E+00 0.  1.
        4   -1    0    0  501    0  0.00000000000E+00 -0.00000000000E+00 -0.67371405064E+02  0.67371405064E+02  0.00000000000E+00 0. -1.
      -24    2    1    2    0    0 -0.22014403588E+02  0.36380302772E+01  0.12201997298E+03  0.14730817712E+03  0.79454112619E+02 0.  0.
       24    2    1    2    0    0  0.22014403588E+02 -0.36380302772E+01 -0.22251611777E+02  0.87202994206E+02  0.81310262219E+02 0.  0.
      -13    1    4    4    0    0 -0.17879725683E+02  0.72114543948E+01  0.20215522926E+02  0.27934871257E+02  0.00000000000E+00 0.  1.
       14    1    4    4    0    0  0.39894129271E+02 -0.10849484672E+02 -0.42467134704E+02  0.59268122949E+02  0.00000000000E+00 0. -1.
        3    1    3    3  502    0  0.15351346479E+02 -0.28274441360E+02  0.36324615240E+02  0.48524071812E+02  0.00000000000E+00 0. -1.
       -4    1    3    3    0  502 -0.37365750068E+02  0.31912471637E+02  0.85695357737E+02  0.98784105309E+02  0.00000000000E+00 0.  1.
</event>
<event>
 8   1  0.2279600E-02  0.9704625E+02  0.7546771E-02  0.1288783E+00
       -2   -1    0    0    0  501 -0.00000000000E+00  0.00000000000E+00  0.13486144799E+03  0.13486144799E+03  0.00000000000E+00 0.  1.
        2   -1    0    0  501    0  0.00000000000E+00 -0.00000000000E+00 -0.12902953805E+03  0.12902953805E+03  0.00000000000E+00 0. -1.
      -24    2    1    2    0    0 -0.57782860718E+00  0.51243609448E+02  0.94350933467E+02  0.13535166468E+03  0.82411971773E+02 0.  0.
       24    2    1    2    0    0  0.57782860718E+00 -0.51243609448E+02 -0.88519023534E+02  0.12853932136E+03  0.77849201748E+02 0.  0.
      -13    1    4    4    0    0 -0.30780574677E+00 -0.75899263440E+01  0.14655008367E+02  0.16506695506E+02  0.00000000000E+00 0.  1.
       14    1    4    4    0    0  0.88563435396E+00 -0.43653683104E+02 -0.10317403190E+03  0.11203262585E+03  0.00000000000E+00 0. -1.
        1    1    3    3  502    0  0.24706699058E+02 -0.86730510663E+01  0.50593178038E+02  0.56967643949E+02  0.00000000000E+00 0. -1.
       -2    1    3    3    0  502 -0.25284527665E+02  0.59916660514E+02  0.43757755428E+02  0.78384020735E+02  0.00000000000E+00 0.  1.
</event>
<event>
 8   1  0.2279600E-02  0.8355794E+02  0.7546771E-02  0.1319597E+00
       -2   -1    0    0    0  501 -0.00000000000E+00  0.00000000000E+00  0.14286003679E+03  0.14286003679E+03  0.00000000000E+00 0.  1.
        2   -1    0    0  501    0  0.00000000000E+00 -0.00000000000E+00 -0.81524753857E+02  0.81524753857E+02  0.00000000000E+00 0. -1.
      -24    2    1    2    0    0  0.22938591900E+02  0.33467764089E+01 -0.40607604480E+02  0.92902670139E+02  0.80277946329E+02 0.  0.
       24    2    1    2    0    0 -0.22938591900E+02 -0.33467764089E+01  0.10194288741E+03  0.13148212051E+03  0.79735912917E+02 0.  0.
      -13    1    4    4    0    0 -0.22882430753E+02 -0.14939646971E+02  0.11251881981E+03  0.11578982469E+03  0.00000000000E+00 0.  1.
       14    1    4    4    0    0 -0.56161146820E-01  0.11592870562E+02 -0.10575932402E+02  0.15692295820E+02  0.00000000000E+00 0. -1.
        1    1    3    3  502    0  0.47721653896E+02  0.17854622707E+01 -0.47268471575E+02  0.67192652360E+02  0.00000000000E+00 0. -1.
       -2    1    3    3    0  502 -0.24783061996E+02  0.15613141382E+01  0.66608670954E+01  0.25710017779E+02  0.00000000000E+00 0.  1.
</event>
<event>
 8   1  0.2279600E-02  0.1962813E+03  0.7546771E-02  0.1153432E+00
       -1   -1    0    0    0  501 -0.00000000000E+00  0.00000000000E+00  0.20469886018E+03  0.20469886018E+03  0.00000000000E+00 0.  1.
        1   -1    0    0  501    0  0.00000000000E+00 -0.00000000000E+00 -0.71871697381E+03  0.71871697381E+03  0.00000000000E+00 0. -1.
       24    2    1    2    0    0  0.17114425458E+03 -0.52030856164E+02  0.14010673715E+03  0.24115602569E+03  0.80800773912E+02 0.  0.
      -24    2    1    2    0    0 -0.17114425458E+03  0.52030856164E+02 -0.65412485077E+03  0.68225980830E+03  0.74843568620E+02 0.  0.
      -13    1    3    3    0    0  0.16714738612E+03 -0.31184485027E+02  0.13947896319E+03  0.21992067198E+03  0.00000000000E+00 0.  1.
       14    1    3    3    0    0  0.39968684586E+01 -0.20846371137E+02  0.62777396020E+00  0.21235353710E+02  0.00000000000E+00 0. -1.
        3    1    4    4  502    0 -0.24822253767E+02  0.33421491326E+02 -0.21590915005E+03  0.21988611015E+03  0.00000000000E+00 0. -1.
       -4    1    4    4    0  502 -0.14632200081E+03  0.18609364838E+02 -0.43821570072E+03  0.46237369815E+03  0.00000000000E+00 0.  1.
</event>
<event>
 8   1  0.2279600E-02  0.9358182E+02  0.7546771E-02  0.1294884E+00
        1   -1    0    0  501    0  0.00000000000E+00  0.00000000000E+00  0.12993377158E+04  0.12993377158E+04  0.00000000000E+00 0. -1.
       -1   -1    0    0    0  501 -0.00000000000E+00 -0.00000000000E+00 -0.67599289467E+01  0.67599289467E+01  0.00000000000E+00 0.  1.
       24    2    1    2    0    0 -0.46882863039E+02 -0.17302821330E+01  0.72010968773E+03  0.72616493962E+03  0.80972590700E+02 0.  0.
      -24    2    1    2    0    0  0.46882863039E+02  0.17302821330E+01  0.57246809917E+03  0.57993270517E+03  0.80007632397E+02 0.  0.
      -13    1    3    3    0    0 -0.63713465351E+02 -0.20093495609E+02  0.45353764302E+03  0.45843161744E+03  0.00000000000E+00 0.  1.
       14    1    3    3    0    0  0.16830602312E+02  0.18363213476E+02  0.26657204471E+03  0.26773332218E+03  0.00000000000E+00 0. -1.
        3    1    4    4  502    0  0.60908043135E+02  0.23411536021E+02  0.45535871664E+03  0.46001027223E+03  0.00000000000E+00 0. -1.
       -4    1    4    4    0  502 -0.14025180096E+02 -0.21681253888E+02  0.11710938253E+03  0.11992243294E+03  0.00000000000E+00 0.  1.
</event>
<event>
 8   1  0.2279600E-02  0.1181601E+03  0.7546771E-02  0.1246383E+00
       -2   -1    0    0    0  501 -0.00000000000E+00  0.00000000000E+00  0.34726109863E+03  0.34726109863E+03  0.00000000000E+00 0.  1.
        2   -1    0    0  501    0  0.00000000000E+00 -0.00000000000E+00 -0.43794939907E+02  0.43794939907E+02  0.00000000000E+00 0. -1.
      -24    2    1    2    0    0 -0.86340778178E+02  0.11772434220E+02  0.20876720627E+03  0.23963046032E+03  0.79029683764E+02 0.  0.
       24    2    1    2    0    0  0.86340778178E+02 -0.11772434220E+02  0.94698952459E+02  0.15142557822E+03  0.79802844307E+02 0.  0.
      -13    1    4    4    0    0  0.31106642072E+02  0.20224286635E+02  0.76542266813E+02  0.85060940271E+02  0.00000000000E+00 0.  1.
       14    1    4    4    0    0  0.55234136106E+02 -0.31996720855E+02  0.18156685646E+02  0.66364637952E+02  0.00000000000E+00 0. -1.
        3    1    3    3  502    0 -0.10525645104E+02 -0.29139347645E+02  0.65466795785E+02  0.72427840892E+02  0.00000000000E+00 0. -1.
       -4    1    3    3    0  502 -0.75815133074E+02  0.40911781864E+02  0.14330041048E+03  0.16720261943E+03  0.00000000000E+00 0.  1.
</event>
<event>
 8   1  0.2279600E-02  0.8774751E+02  0.7546771E-02  0.1308442E+00
       -1   -1    0    0    0  501 -0.00000000000E+00  0.00000000000E+00  0.63512031907E+01  0.63512031907E+01  0.00000000000E+00 0.  1.
        1   -1    0    0  501    0  0.00000000000E+00 -0.00000000000E+00 -0.13498068902E+04  0.13498068902E+04  0.00000000000E+00 0. -1.
       24    2    1    2    0    0 -0.35814224638E+02 -0.10081818425E+01 -0.45480733291E+03  0.46319470596E+03  0.80099628229E+02 0.  0.
      -24    2    1    2    0    0  0.35814224638E+02  0.10081818425E+01 -0.88864835410E+03  0.89296338743E+03  0.80025239352E+02 0.  0.
      -13    1    3    3    0    0 -0.53432837202E+02  0.20099972686E+02 -0.35935406636E+03  0.36386044303E+03  0.00000000000E+00 0.  1.
       14    1    3    3    0    0  0.17618612564E+02 -0.21108154528E+02 -0.95453266548E+02  0.99334262926E+02  0.00000000000E+00 0. -1.
        1    1    4    4  502    0  0.11333509742E+02 -0.10055950507E+02 -0.80424544934E+03  0.80438816088E+03  0.00000000000E+00 0. -1.
       -2    1    4    4    0  502  0.24480714896E+02  0.11064132350E+02 -0.84402904760E+02  0.88575226550E+02  0.00000000000E+00 0.  1.
</event>
<event>
 8   1  0.2279600E-02  0.1021203E+03  0.7546771E-02  0.1276911E+00
        2   -1    0    0  501    0  0.00000000000E+00  0.00000000000E+00  0.17043506942E+04  0.17043506942E+04  0.00000000000E+00 0. -1.
       -2   -1    0    0    0  501 -0.00000000000E+00 -0.00000000000E+00 -0.10032622956E+02  0.10032622956E+02  0.00000000000E+00 0.  1.
      -24    2    1    2    0    0 -0.19055679033E+02  0.58459817094E+02  0.30876034611E+03  0.32520993916E+03  0.81534557598E+02 0.  0.
       24    2    1    2    0    0  0.19055679033E+02 -0.58459817094E+02  0.13855577252E+04  0.13891733780E+04  0.79068295347E+02 0.  0.
      -13    1    4    4    0    0  0.35126992153E+02  0.42890083730E+01  0.48867192957E+03  0.48995158528E+03  0.00000000000E+00 0.  1.
       14    1    4    4    0    0 -0.16071313120E+02 -0.62748825467E+02  0.89688579561E+03  0.89922179276E+03  0.00000000000E+00 0. -1.
        3    1    3    3  502    0 -0.15018628999E+02 -0.14256838129E+02  0.13832477146E+03  0.13986621840E+03  0.00000000000E+00 0. -1.
       -4    1    3    3    0  502 -0.40370500345E+01  0.72716655223E+02  0.17043557465E+03  0.18534372076E+03  0.00000000000E+00 0.  1.
</event>
<event>
 8   1  0.2279600E-02  0.8654813E+02  0.7546771E-02  0.1314279E+00
        2   -1    0    0  501    0  0.00000000000E+00  0.00000000000E+00  0.28951525456E+04  0.28951525456E+04  0.00000000000E+00 0. -1.
       -2   -1    0    0    0  501 -0.00000000000E+00 -0.00000000000E+00 -0.15510548322E+02  0.15510548322E+02  0.00000000000E+00 0.  1.
      -24    2    1    2    0    0  0.13719432297E+02  0.60435782895E+01  0.11077659486E+03  0.14057749544E+03  0.85239841582E+02 0.  0.
       24    2    1    2    0    0 -0.13719432297E+02 -0.60435782895E+01  0.27688654025E+04  0.27700855985E+04  0.80832286752E+02 0.  0.
      -13    1    4    4    0    0  0.16040127989E+02  0.25031508656E+02  0.54989027256E+03  0.55069335750E+03  0.00000000000E+00 0.  1.
       14    1    4    4    0    0 -0.29759560286E+02 -0.31075086946E+02  0.22189751299E+04  0.22193922410E+04  0.00000000000E+00 0. -1.
        3    1    3    3  502    0  0.11229707318E+02  0.10350817077E+02  0.12478281171E+03  0.12571394449E+03  0.00000000000E+00 0. -1.
       -4    1    3    3    0  502  0.24897249792E+01 -0.43072387871E+01 -0.14006216847E+02  0.14863550949E+02  0.00000000000E+00 0.  1.
</event>
<event>
 8   1  0.2279600E-02  0.1006741E+03  0.7546771E-02  0.1280244E+00
       -1   -1    0    0    0  501 -0.00000000000E+00  0.00000000000E+00  0.76256643030E+02  0.76256643030E+02  0.00000000000E+00 0.  1.
        1   -1    0    0  501    0  0.00000000000E+00 -0.00000000000E+00 -0.27323946004E+03  0.27323946004E+03  0.00000000000E+00 0. -1.
       24    2    1    2    0    0  0.56898571522E+02  0.17552808540E+02  0.28836528166E+02  0.10225200885E+03  0.77963962373E+02 0.  0.
      -24    2    1    2    0    0 -0.56898571522E+02 -0.17552808540E+02 -0.22581934517E+03  0.24724409422E+03  0.81177071519E+02 0.  0.
      -13    1    3    3    0    0  0.22162229818E+02 -0.10796532953E+02  0.47633653533E+02  0.53634825470E+02  0.00000000000E+00 0.  1.
       14    1    3    3    0    0  0.34736341704E+02  0.28349341493E+02 -0.18797125367E+02  0.48617183383E+02  0.00000000000E+00 0. -1.
        3    1    4    4  502    0 -0.77137878509E+02 -0.20095950497E+02 -0.16851167415E+03  0.18641428017E+03  0.00000000000E+00 0. -1.
       -4    1    4    4    0  502  0.20239306986E+02  0.25431419573E+01 -0.57307671025E+02  0.60829814044E+02  0.00000000000E+00 0.  1.
</event>
<event>
 8   1  0.2279600E-02  0.8471783E+02  0.7546771E-02  0.1319433E+00
       -2   -1    0    0    0  501 -0.00000000000E+00  0.00000000000E+00  0.52708330226E+01  0.52708330226E+01  0.00000000000E+00 0.  1.
        2   -1    0    0  501    0  0.00000000000E+00 -0.00000000000E+00 -0.35250024443E+04  0.35250024443E+04  0.00000000000E+00 0. -1.
      -24    2    1    2    0    0  0.11648291445E+02  0.13942356788E+02 -0.33437776161E+03  0.34379304701E+03  0.77814521157E+02 0.  0.
       24    2    1    2    0    0 -0.11648291445E+02 -0.13942356788E+02 -0.31853538497E+04  0.31864802303E+04  0.82746834453E+02 0.  0.
      -13    1    4    4    0    0 -0.38425196037E+02  0.18309577825E+02 -0.17232360554E+04  0.17237616538E+04  0.00000000000E+00 0.  1.
       14    1    4    4    0    0  0.26776904592E+02 -0.32251934612E+02 -0.14621177943E+04  0.14627185766E+04  0.00000000000E+00 0. -1.
        3    1    3    3  502    0 -0.20362707442E+02 -0.17538264264E+02 -0.20694250220E+03  0.20868020938E+03  0.00000000000E+00 0. -1.
       -4    1    3    3    0  502  0.32010998887E+02  0.31480621052E+02 -0.12743525941E+03  0.13511283763E+03  0.00000000000E+00 0.  1.
</event>
<event>
 8   1  0.2279600E-02  0.8188299E+02  0.7546771E-02  0.1334486E+00
        2   -1    0    0  501    0  0.00000000000E+00  0.00000000000E+00  0.38587474637E+03  0.38587474637E+03  0.00000000000E+00 0. -1.
       -2   -1    0    0    0  501 -0.00000000000E+00 -0.00000000000E+00 -0.17530294972E+03  0.17530294972E+03  0.00000000000E+00 0.  1.
      -24    2    1    2    0    0 -0.14301160588E+02  0.10146032428E+02 -0.16415237397E+03  0.17761149819E+03  0.65516236480E+02 0.  0.
       24    2    1    2    0    0  0.14301160588E+02 -0.10146032428E+02  0.37472417063E+03  0.38356619790E+03  0.79983491734E+02 0.  0.
      -13    1    4    4    0    0 -0.26601624466E+02  0.15812676878E+02  0.19440858229E+03  0.19685625223E+03  0.00000000000E+00 0.  1.
       14    1    4    4    0    0  0.40902785054E+02 -0.25958709306E+02  0.18031558833E+03  0.18670994566E+03  0.00000000000E+00 0. -1.
        1    1    3    3  502    0 -0.37739327978E+02 -0.67740422958E+01 -0.10479823007E+03  0.11159217514E+03  0.00000000000E+00 0. -1.
       -2    1    3    3    0  502  0.23438167390E+02  0.16920074723E+02 -0.59354143896E+02  0.66019323057E+02  0.00000000000E+00 0.  1.
</event>
<event>
 8   1  0.2279600E-02  0.8360463E+02  0.7546771E-02  0.1319975E+00
        1   -1    0    0  501    0  0.00000000000E+00  0.00000000000E+00  0.20170411659E+03  0.20170411659E+03  0.00000000000E+00 0. -1.
       -1   -1    0    0    0  501 -0.00000000000E+00 -0.00000000000E+00 -0.61633037199E+02  0.61633037199E+02  0.00000000000E+00 0.  1.
       24    2    1    2    0    0  0.69546200068E+01 -0.26392180662E+02 -0.17621606301E+02  0.85441530526E+02  0.79024174722E+02 0.  0.
      -24    2    1    2    0    0 -0.69546200068E+01  0.26392180662E+02  0.15769268569E+03  0.17789562326E+03  0.77684977415E+02 0.  0.
      -13    1    3    3    0    0  0.19700886176E+02 -0.80289520177E+01 -0.45191290729E+02  0.49948390809E+02  0.00000000000E+00 0.  1.
       14    1    3    3    0    0 -0.12746266169E+02 -0.18363228644E+02  0.27569684428E+02  0.35493139717E+02  0.00000000000E+00 0. -1.
        3    1    4    4  502    0  0.34924131514E+02  0.13507218637E+02  0.87133063326E+02  0.94838339514E+02  0.00000000000E+00 0. -1.
       -4    1    4    4    0  502 -0.41878751521E+02  0.12884962025E+02  0.70559622364E+02  0.83057283747E+02  0.00000000000E+00 0.  1.
</event>
<event>
 8   1  0.2279600E-02  0.1109689E+03  0.7546771E-02  0.1261426E+00
       -1   -1    0    0    0  501 -0.00000000000E+00  0.00000000000E+00  0.53139790821E+02  0.53139790821E+02  0.00000000000E+00 0.  1.
        1   -1    0    0  501    0  0.00000000000E+00 -0.00000000000E+00 -0.36324181606E+03  0.36324181606E+03  0.00000000000E+00 0. -1.
       24    2    1    2    0    0  0.27896403128E+02  0.62316009716E+02 -0.26852137701E+02  0.11417154581E+03  0.87479198667E+02 0.  0.
      -24    2    1    2    0    0 -0.27896403128E+02 -0.62316009716E+02 -0.28324988754E+03  0.30221006107E+03  0.80242930205E+02 0.  0.
      -13    1    3    3    0    0  0.17016496464E+02  0.51400219571E+01  0.28670417537E+02  0.33733867542E+02  0.00000000000E+00 0.  1.
       14    1    3    3    0    0  0.10879906664E+02  0.57175987759E+02 -0.55522555237E+02  0.80437678269E+02  0.00000000000E+00 0. -1.
        3    1    4    4  502    0 -0.38748880488E+02 -0.61062690301E+01 -0.59608738742E+02  0.71357998816E+02  0.00000000000E+00 0. -1.
       -4    1    4    4    0  502  0.10852477360E+02 -0.56209740686E+02 -0.22364114880E+03  0.23085206226E+03  0.00000000000E+00 0.  1.
</event>
<event>
 8   1  0.2279600E-02  0.8247203E+02  0.7546771E-02  0.1322314E+00
       -2   -1    0    0    0  501 -0.00000000000E+00  0.00000000000E+00  0.65074753651E+02  0.65074753651E+02  0.00000000000E+00 0.  1.
        2   -1    0    0  501    0  0.00000000000E+00 -0.00000000000E+00 -0.10972285129E+03  0.10972285129E+03  0.00000000000E+00 0. -1.
      -24    2    1    2    0    0 -0.16777832103E+02  0.57734781441E+00 -0.28658418181E+01  0.82521807272E+02  0.80745319651E+02 0.  0.
       24    2    1    2    0    0  0.16777832103E+02 -0.57734781441E+00 -0.41782255824E+02  0.92275797673E+02  0.80543385538E+02 0.  0.
      -13    1    4    4    0    0 -0.28965304331E+02 -0.55266239512E+01  0.92127768317E+00  0.29502223304E+02  0.00000000000E+00 0.  1.
       14    1    4    4    0    0  0.45743136434E+02  0.49492761368E+01 -0.42703533507E+02  0.62773574369E+02  0.00000000000E+00 0. -1.
        1    1    3    3  502    0  0.20484799586E+02  0.20034198963E+02 -0.22205103420E+02  0.36250003587E+02  0.00000000000E+00 0. -1.
       -2    1    3    3    0  502 -0.37262631689E+02 -0.19456851148E+02  0.19339261602E+02  0.46271803685E+02  0.00000000000E+00 0.  1.
</event>
<event>
 8   1  0.2279600E-02  0.1200360E+03  0.7546771E-02  0.1243197E+00
       -1   -1    0    0    0  501 -0.00000000000E+00  0.00000000000E+00  0.38276827441E+02  0.38276827441E+02  0.00000000000E+00 0.  1.
        1   -1    0    0  501    0  0.00000000000E+00 -0.00000000000E+00 -0.99843451895E+03  0.99843451895E+03  0.00000000000E+00 0. -1.
       24    2    1    2    0    0 -0.78717740703E+02  0.41400150901E+02 -0.70258949087E+02  0.13875343629E+03  0.80035872954E+02 0.  0.
      -24    2    1    2    0    0  0.78717740703E+02 -0.41400150901E+02 -0.88989874242E+03  0.89795791010E+03  0.80611297917E+02 0.  0.
      -13    1    3    3    0    0 -0.89413941891E+02  0.40181832055E+02 -0.38668015544E+02  0.10537859393E+03  0.00000000000E+00 0.  1.
       14    1    3    3    0    0  0.10696201188E+02  0.12183188457E+01 -0.31590933543E+02  0.33374842364E+02  0.00000000000E+00 0. -1.
        3    1    4    4  502    0  0.46745140596E+02 -0.49352257281E+02 -0.78661360621E+03  0.78954526086E+03  0.00000000000E+00 0. -1.
       -4    1    4    4    0  502  0.31972600107E+02  0.79521063799E+01 -0.10328513621E+03  0.10841264924E+03  0.00000000000E+00 0.  1.
</event>
<event>
 8   1  0.2279600E-02  0.1198518E+03  0.7546771E-02  0.1243372E+00
        4   -1    0    0  501    0  0.00000000000E+00  0.00000000000E+00  0.19061065703E+02  0.19061065703E+02  0.00000000000E+00 0. -1.
       -4   -1    0    0    0  501 -0.00000000000E+00 -0.00000000000E+00 -0.10066579800E+04  0.10066579800E+04  0.00000000000E+00 0.  1.
      -24    2    1    2    0    0 -0.39169956974E+02 -0.77915288147E+02 -0.75128061797E+03  0.76078053541E+03  0.82215439336E+02 0.  0.
       24    2    1    2    0    0  0.39169956974E+02  0.77915288147E+02 -0.23631629635E+03  0.26493851032E+03  0.82109345824E+02 0.  0.
      -13    1    4    4    0    0  0.29178051582E+02 -0.51668108803E+01 -0.10603568857E+03  0.11009823741E+03  0.00000000000E+00 0.  1.
       14    1    4    4    0    0  0.99919053914E+01  0.83082099028E+02 -0.13028060778E+03  0.15484027291E+03  0.00000000000E+00 0. -1.
        3    1    3    3  502    0 -0.35880050917E+02 -0.47731065132E+02 -0.20148595636E+03  0.21014809835E+03  0.00000000000E+00 0. -1.
       -4    1    3    3    0  502 -0.32899060562E+01 -0.30184223015E+02 -0.54979466162E+03  0.55063243706E+03  0.00000000000E+00 0.  1.
</event>
<event>
 8   1  0.2279600E-02  0.8289320E+02  0.7546771E-02  0.1322614E+00
       -2   -1    0    0    0  501 -0.00000000000E+00  0.00000000000E+00  0.76763478966E+02  0.76763478966E+02  0.00000000000E+00 0.  1.
        2   -1    0    0  501    0  0.00000000000E+00 -0.00000000000E+00 -0.21673461618E+03  0.21673461618E+03  0.00000000000E+00 0. -1.
      -24    2    1    2    0    0 -0.14408519140E+02  0.13607782586E+01  0.43131210629E+02  0.93442944215E+02  0.81620005832E+02 0.  0.
       24    2    1    2    0    0  0.14408519140E+02 -0.13607782586E+01 -0.18310234784E+03  0.20005515093E+03  0.79285159314E+02 0.  0.
      -13    1    4    4    0    0  0.38620176203E+02  0.23226472438E+02 -0.87653991224E+02  0.98560687951E+02  0.00000000000E+00 0.  1.
       14    1    4    4    0    0 -0.24211657062E+02 -0.24587250696E+02 -0.95448356621E+02  0.10149446298E+03  0.00000000000E+00 0. -1.
        3    1    3    3  502    0  0.38152364882E+01 -0.21805752897E+02  0.56793448517E+02  0.60955251482E+02  0.00000000000E+00 0. -1.
       -4    1    3    3    0  502 -0.18223755629E+02  0.23166531155E+02 -0.13662237888E+02  0.32487692733E+02  0.00000000000E+00 0.  1.
</event>
<event>
 8   1  0.2279600E-02  0.8143131E+02  0.7546771E-02  0.1328539E+00
       -2   -1    0    0    0  501 -0.00000000000E+00  0.00000000000E+00  0.82470974929E+01  0.82470974929E+01  0.00000000000E+00 0.  1.
        2   -1    0    0  501    0  0.00000000000E+00 -0.00000000000E+00 -0.11867901039E+04  0.11867901039E+04  0.00000000000E+00 0. -1.
       24    2    1    2    0    0  0.88658219734E+01  0.14342413943E+02 -0.93732331082E+03  0.94044340914E+03  0.74662635532E+02 0.  0.
      -24    2    1    2    0    0 -0.88658219734E+01 -0.14342413943E+02 -0.24121969558E+03  0.25459379225E+03  0.79666491571E+02 0.  0.
      -13    1    3    3    0    0  0.10782445605E+02 -0.29554095874E+02 -0.47334294853E+03  0.47438723912E+03  0.00000000000E+00 0.  1.
       14    1    3    3    0    0 -0.19166236314E+01  0.43896509817E+02 -0.46398036229E+03  0.46605617001E+03  0.00000000000E+00 0. -1.
        3    1    4    4  502    0 -0.42239642569E+02 -0.20898652297E+02 -0.12932182479E+03  0.13764111101E+03  0.00000000000E+00 0. -1.
       -4    1    4    4    0  502  0.33373820596E+02  0.65562383542E+01 -0.11189787079E+03  0.11695268124E+03  0.00000000000E+00 0.  1.
</event>
<event>
 8   1  0.2279600E-02  0.1369613E+03  0.7546771E-02  0.1219600E+00
       -2   -1    0    0    0  501 -0.00000000000E+00  0.00000000000E+00  0.41950635715E+03  0.41950635715E+03  0.00000000000E+00 0.  1.
        2   -1    0    0  501    0  0.00000000000E+00 -0.00000000000E+00 -0.55138843337E+02  0.55138843337E+02  0.00000000000E+00 0. -1.
      -24    2    1    2    0    0  0.67539755885E+02 -0.81002224286E+02  0.29134914617E+03  0.31943541195E+03  0.77663881359E+02 0.  0.
       24    2    1    2    0    0 -0.67539755885E+02  0.81002224286E+02  0.73018367644E+02  0.15520978854E+03  0.87380875945E+02 0.  0.
      -13    1    4    4    0    0 -0.47700138211E+02  0.14237323535E+02  0.69476865142E+02  0.85469522970E+02  0.00000000000E+00 0.  1.
       14    1    4    4    0    0 -0.19839617674E+02  0.66764900751E+02  0.35415025018E+01  0.69740265570E+02  0.00000000000E+00 0. -1.
        3    1    3    3  502    0  0.38871818395E+01  0.15132567161E+02  0.31877886032E+02  0.35500766039E+02  0.00000000000E+00 0. -1.
       -4    1    3    3    0  502  0.63652574045E+02 -0.96134791447E+02  0.25947126014E+03  0.28393464591E+03  0.00000000000E+00 0.  1.
</event>
<event>
 8   1  0.2279600E-02  0.8727609E+02  0.7546771E-02  0.1310797E+00
        2   -1    0    0  501    0  0.00000000000E+00  0.00000000000E+00  0.36515668751E+04  0.36515668751E+04  0.00000000000E+00 0. -1.
       -2   -1    0    0    0  501 -0.00000000000E+00 -0.00000000000E+00 -0.20422175152E+01  0.20422175152E+01  0.00000000000E+00 0.  1.
      -24    2    1    2    0    0 -0.75083069255E+01 -0.31439729077E+02  0.17576129420E+04  0.17596853733E+04  0.79022324284E+02 0.  0.
       24    2    1    2    0    0  0.75083069255E+01  0.31439729077E+02  0.18919117156E+04  0.18939237194E+04  0.81069624024E+02 0.  0.
      -13    1    4    4    0    0  0.42490978190E+02  0.40496879650E+01  0.86925901278E+03  0.87030633371E+03  0.00000000000E+00 0.  1.
       14    1    4    4    0    0 -0.34982671264E+02  0.27390041112E+02  0.10226527029E+04  0.10236173857E+04  0.00000000000E+00 0. -1.
        3    1    3    3  502    0  0.30028529457E+02 -0.30131670870E+01  0.10882377564E+04  0.10886561469E+04  0.00000000000E+00 0. -1.
       -4    1    3    3    0  502 -0.37536836382E+02 -0.28426561990E+02  0.66937518563E+03  0.67102922637E+03  0.00000000000E+00 0.  1.
</event>
<event>
 8   1  0.2279600E-02  0.8165941E+02  0.7546771E-02  0.1325038E+00
       -2   -1    0    0    0  501 -0.00000000000E+00  0.00000000000E+00  0.51996284573E+01  0.51996284573E+01  0.00000000000E+00 0.  1.
        2   -1    0    0  501    0  0.00000000000E+00 -0.00000000000E+00 -0.13725148186E+04  0.13725148186E+04  0.00000000000E+00 0. -1.
      -24    2    1    2    0    0 -0.11705727516E+02  0.45294489346E+01 -0.87708951081E+03  0.88088266444E+03  0.80689023958E+02 0.  0.
       24    2    1    2    0    0  0.11705727516E+02 -0.45294489346E+01 -0.49022567932E+03  0.49683178259E+03  0.79768813262E+02 0.  0.
      -13    1    4    4    0    0  0.43089244297E+02  0.55540973828E+01 -0.19554843161E+03  0.20031654969E+03  0.00000000000E+00 0.  1.
       14    1    4    4    0    0 -0.31383516781E+02 -0.10083546317E+02 -0.29467724770E+03  0.29651523291E+03  0.00000000000E+00 0. -1.
        3    1    3    3  502    0  0.89718954873E+01  0.37693338576E+02 -0.30350658347E+03  0.30596981696E+03  0.00000000000E+00 0. -1.
       -4    1    3    3    0  502 -0.20677623003E+02 -0.33163889641E+02 -0.57358292734E+03  0.57491284749E+03  0.00000000000E+00 0.  1.
</event>
<event>
 8   1  0.2279600E-02  0.8882656E+02  0.7546771E-02  0.1306233E+00
        1   -1    0    0  501    0  0.00000000000E+00  0.00000000000E+00  0.10111738977E+03  0.10111738977E+03  0.00000000000E+00 0. -1.
       -1   -1    0    0    0  501 -0.00000000000E+00 -0.00000000000E+00 -0.42101244370E+03  0.42101244370E+03  0.00000000000E+00 0.  1.
       24    2    1    2    0    0 -0.23190949281E+02 -0.27465062349E+02 -0.39569269588E+03  0.40535894302E+03  0.80318200548E+02 0.  0.
      -24    2    1    2    0    0  0.23190949281E+02  0.27465062349E+02  0.75797641949E+02  0.11677089045E+03  0.81228126606E+02 0.  0.
      -13    1    3    3    0    0 -0.46288023862E+02 -0.36835697809E+02 -0.32645060094E+03  0.33176715426E+03  0.00000000000E+00 0.  1.
       14    1    3    3    0    0  0.23097074581E+02  0.93706354603E+01 -0.69242094931E+02  0.73591788764E+02  0.00000000000E+00 0. -1.
        1    1    4    4  502    0  0.49776988600E+02  0.11999474996E+02  0.67852544268E+02  0.85004139652E+02  0.00000000000E+00 0. -1.
       -2    1    4    4    0  502 -0.26586039319E+02  0.15465587353E+02  0.79450976804E+01  0.31766750794E+02  0.00000000000E+00 0.  1.
</event>
<event>
 8   1  0.2279600E-02  0.1085478E+03  0.7546771E-02  0.1278507E+00
        1   -1    0    0  501    0  0.00000000000E+00  0.00000000000E+00  0.28875305439E+04  0.28875305439E+04  0.00000000000E+00 0. -1.
       -1   -1    0    0    0  501 -0.00000000000E+00 -0.00000000000E+00 -0.43019283649E+01  0.43019283649E+01  0.00000000000E+00 0.  1.
       24    2    1    2    0    0 -0.16852855329E+02  0.11266937358E+02  0.53357313176E+03  0.53967101549E+03  0.78317018612E+02 0.  0.
      -24    2    1    2    0    0  0.16852855329E+02 -0.11266937358E+02  0.23496554838E+04  0.23521614568E+04  0.10663800324E+03 0.  0.
      -13    1    3    3    0    0 -0.33810217700E+02  0.31426122986E+02  0.20930304153E+03  0.21433267418E+03  0.00000000000E+00 0.  1.
       14    1    3    3    0    0  0.16957362372E+02 -0.20159185627E+02  0.32427009024E+03  0.32533834131E+03  0.00000000000E+00 0. -1.
        1    1    4    4  502    0 -0.37368160226E+02 -0.29945808457E+02  0.78830399213E+03  0.78975712396E+03  0.00000000000E+00 0. -1.
       -2    1    4    4    0  502  0.54221015555E+02  0.18678871099E+02  0.15613514917E+04  0.15624043329E+04  0.00000000000E+00 0.  1.
</event>
<event>
 8   1  0.2279600E-02  0.1037855E+03  0.7546771E-02  0.1272610E+00
        2   -1    0    0  501    0  0.00000000000E+00  0.00000000000E+00  0.24398504977E+04  0.24398504977E+04  0.00000000000E+00 0. -1.
       -2   -1    0    0    0  501 -0.00000000000E+00 -0.00000000000E+00 -0.54359890369E+01  0.54359890369E+01  0.00000000000E+00 0.  1.
      -24    2    1    2    0    0 -0.62386968033E+02  0.16267397129E+02  0.68478089153E+03  0.69257737707E+03  0.81128243150E+02 0.  0.
       24    2    1    2    0    0  0.62386968033E+02 -0.16267397129E+02  0.17496336172E+04  0.17527091097E+04  0.81330602562E+02 0.  0.
      -13    1    4    4    0    0  0.62827085829E+02 -0.42437258803E+02  0.11434988219E+04  0.11460094761E+04  0.00000000000E+00 0.  1.
       14    1    4    4    0    0 -0.44011779596E+00  0.26169861674E+02  0.60613479524E+03  0.60669963356E+03  0.00000000000E+00 0. -1.
        1    1    3    3  502    0 -0.53618620020E+02  0.17987226435E+02  0.68017970886E+03  0.68252687352E+03  0.00000000000E+00 0. -1.
       -2    1    3    3    0  502 -0.87683480131E+01 -0.17198293063E+01  0.46011826687E+01  0.10050503553E+02  0.00000000000E+00 0.  1.
</event>
<event>
 8   1  0.2279600E-02  0.8805318E+02  0.7546771E-02  0.1308828E+00
        3   -1    0    0  501    0  0.00000000000E+00  0.00000000000E+00  0.62845895896E+03  0.62845895896E+03  0.00000000000E+00 0. -1.
       -3   -1    0    0    0  501 -0.00000000000E+00 -0.00000000000E+00 -0.12226243048E+02  0.12226243048E+02  0.00000000000E+00 0.  1.
       24    2    1    2    0    0  0.13097623367E+02  0.29300883429E+02  0.34718232235E+03  0.35817443789E+03  0.81995569993E+02 0.  0.
      -24    2    1    2    0    0 -0.13097623367E+02 -0.29300883429E+02  0.26905039356E+03  0.28251076411E+03  0.79963291941E+02 0.  0.
      -13    1    3    3    0    0 -0.33567234068E+02  0.21184243072E+02  0.18537709581E+03  0.18957900466E+03  0.00000000000E+00 0.  1.
       14    1    3    3    0    0  0.46664857435E+02  0.81166403568E+01  0.16180522654E+03  0.16859543323E+03  0.00000000000E+00 0. -1.
        3    1    4    4  502    0  0.17826363598E+02  0.80561788887E+01  0.18044305789E+03  0.18150035372E+03  0.00000000000E+00 0. -1.
       -4    1    4    4    0  502 -0.30923986965E+02 -0.37357062317E+02  0.88607335667E+02  0.10101041040E+03  0.00000000000E+00 0.  1.
</event>
<event>
 8   1  0.2279600E-02  0.9009657E+02  0.7546771E-02  0.1303222E+00
       -2   -1    0    0    0  501 -0.00000000000E+00  0.00000000000E+00  0.51323696350E+02  0.51323696350E+02  0.00000000000E+00 0.  1.
        2   -1    0    0  501    0  0.00000000000E+00 -0.00000000000E+00 -0.19966594707E+03  0.19966594707E+03  0.00000000000E+00 0. -1.
      -24    2    1    2    0    0  0.19885138867E+02  0.34141978535E+02 -0.15445884203E+02  0.90431751823E+02  0.79863840084E+02 0.  0.
       24    2    1    2    0    0 -0.19885138867E+02 -0.34141978535E+02 -0.13289636652E+03  0.16055789160E+03  0.80970975510E+02 0.  0.
      -13    1    4    4    0    0  0.80376719982E+01  0.23913577477E+02 -0.44875904199E+02  0.51481162929E+02  0.00000000000E+00 0.  1.
       14    1    4    4    0    0 -0.27922810865E+02 -0.58055556012E+02 -0.88020462320E+02  0.10907672867E+03  0.00000000000E+00 0. -1.
        3    1    3    3  502    0 -0.16448888295E+02  0.46944002856E+02 -0.14820362092E+02  0.51903260619E+02  0.00000000000E+00 0. -1.
       -4    1    3    3    0  502  0.36334027162E+02 -0.12802024321E+02 -0.62552211092E+00  0.38528491204E+02  0.00000000000E+00 0.  1.
</event>
<event>
 8   1  0.2279600E-02  0.8331252E+02  0.7546771E-02  0.1320245E+00
        1   -1    0    0  501    0  0.00000000000E+00  0.00000000000E+00  0.74224234460E+03  0.74224234460E+03  0.00000000000E+00 0. -1.
       -1   -1    0    0    0  501 -0.00000000000E+00 -0.00000000000E+00 -0.13217228304E+02  0.13217228304E+02  0.00000000000E+00 0.  1.
       24    2    1    2    0    0  0.10438611581E+02  0.23247139134E+02  0.15951980787E+03  0.17996540099E+03  0.79319495476E+02 0.  0.
      -24    2    1    2    0    0 -0.10438611581E+02 -0.23247139134E+02  0.56950530843E+03  0.57549417192E+03  0.78789919960E+02 0.  0.
      -13    1    3    3    0    0 -0.31573257807E+02  0.20532810539E+02  0.10164521791E+03  0.10839841900E+03  0.00000000000E+00 0.  1.
       14    1    3    3    0    0  0.42011869387E+02  0.27143285950E+01  0.57874589958E+02  0.71566981995E+02  0.00000000000E+00 0. -1.
        3    1    4    4  502    0 -0.15019055266E+01  0.24460826380E+02  0.34157943357E+03  0.34245743850E+03  0.00000000000E+00 0. -1.
       -4    1    4    4    0  502 -0.89367060541E+01 -0.47707965514E+02  0.22792587486E+03  0.23303673341E+03  0.00000000000E+00 0.  1.
</event>
<event>
 8   1  0.2279600E-02  0.1014599E+03  0.7546771E-02  0.1277864E+00
       -1   -1    0    0    0  501 -0.00000000000E+00  0.00000000000E+00  0.39100945433E+02  0.39100945433E+02  0.00000000000E+00 0.  1.
        1   -1    0    0  501    0  0.00000000000E+00 -0.00000000000E+00 -0.27316471884E+03  0.27316471884E+03  0.00000000000E+00 0. -1.
       24    2    1    2    0    0  0.67991532688E+00  0.61615033034E+02 -0.82421005000E+02  0.12981118128E+03  0.79125508772E+02 0.  0.
      -24    2    1    2    0    0 -0.67991532688E+00 -0.61615033034E+02 -0.15164276840E+03  0.18245448299E+03  0.80605425220E+02 0.  0.
      -13    1    3    3    0    0  0.13023885358E+02  0.56532336593E+02 -0.13439087331E+02  0.59549439450E+02  0.00000000000E+00 0.  1.
       14    1    3    3    0    0 -0.12343970031E+02  0.50826964414E+01 -0.68981917669E+02  0.70261741827E+02  0.00000000000E+00 0. -1.
        3    1    4    4  502    0 -0.23324379294E+01  0.14510810630E+02 -0.67040582750E+02  0.68632671719E+02  0.00000000000E+00 0. -1.
       -4    1    4    4    0  502  0.16525226025E+01 -0.76125843664E+02 -0.84602185653E+02  0.11382181127E+03  0.00000000000E+00 0.  1.
</event>
<event>
 8   1  0.2279600E-02  0.8605198E+02  0.7546771E-02  0.1313880E+00
       -3   -1    0    0    0  501 -0.00000000000E+00  0.00000000000E+00  0.57469606426E+03  0.57469606426E+03  0.00000000000E+00 0.  1.
        3   -1    0    0  501    0  0.00000000000E+00 -0.00000000000E+00 -0.29331035863E+02  0.29331035863E+02  0.00000000000E+00 0. -1.
       24    2    1    2    0    0 -0.36414959510E+01 -0.28498279540E+02  0.49942432917E+03  0.50647971726E+03  0.79193629760E+02 0.  0.
      -24    2    1    2    0    0  0.36414959510E+01  0.28498279540E+02  0.45940699224E+02  0.97547382864E+02  0.81114312110E+02 0.  0.
      -13    1    3    3    0    0  0.41821779491E+01 -0.55680482470E+02  0.34407907816E+03  0.34858029027E+03  0.00000000000E+00 0.  1.
       14    1    3    3    0    0 -0.78236739002E+01  0.27182202930E+02  0.15534525101E+03  0.15789942698E+03  0.00000000000E+00 0. -1.
        1    1    4    4  502    0  0.41728569111E+02  0.14201230967E+02  0.15453127559E+02  0.46709181029E+02  0.00000000000E+00 0. -1.
       -2    1    4    4    0  502 -0.38087073160E+02  0.14297048572E+02  0.30487571665E+02  0.50838201835E+02  0.00000000000E+00 0.  1.
</event>
<event>
 8   1  0.2279600E-02  0.8047903E+02  0.7546771E-02  0.1330263E+00
       -2   -1    0    0    0  501 -0.00000000000E+00  0.00000000000E+00  0.88897866539E+03  0.88897866539E+03  0.00000000000E+00 0.  1.
        2   -1    0    0  501    0  0.00000000000E+00 -0.00000000000E+00 -0.10110475166E+02  0.10110475166E+02  0.00000000000E+00 0. -1.
      -24    2    1    2    0    0  0.99515133186E+01 -0.59864181650E+01  0.68319841401E+03  0.68751519245E+03  0.76040759568E+02 0.  0.
       24    2    1    2    0    0 -0.99515133186E+01  0.59864181650E+01  0.19566977621E+03  0.21157394811E+03  0.79636702443E+02 0.  0.
      -13    1    4    4    0    0 -0.21710108716E+02  0.37240809224E+02  0.76448316648E+02  0.87764182958E+02  0.00000000000E+00 0.  1.
       14    1    4    4    0    0  0.11758595397E+02 -0.31254391059E+02  0.11922145956E+03  0.12380976515E+03  0.00000000000E+00 0. -1.
        1    1    3    3  502    0  0.27780186325E+02 -0.27282124694E+02  0.21524745223E+03  0.21874075700E+03  0.00000000000E+00 0. -1.
       -2    1    3    3    0  502 -0.17828673007E+02  0.21295706529E+02  0.46795096178E+03  0.46877443545E+03  0.00000000000E+00 0.  1.
</event>
<event>
 8   1  0.2279600E-02  0.9413460E+02  0.7546771E-02  0.1300069E+00
       -1   -1    0    0    0  501 -0.00000000000E+00  0.00000000000E+00  0.48019799352E+02  0.48019799352E+02  0.00000000000E+00 0.  1.
        1   -1    0    0  501    0  0.00000000000E+00 -0.00000000000E+00 -0.53643026542E+03  0.53643026542E+03  0.00000000000E+00 0. -1.
       24    2    1    2    0    0 -0.22315674754E+02 -0.22292574436E+02  0.42334978049E+01  0.82893091118E+02  0.76540145262E+02 0.  0.
      -24    2    1    2    0    0  0.22315674754E+02  0.22292574436E+02 -0.49264396387E+03  0.50155697365E+03  0.88692584054E+02 0.  0.
      -13    1    3    3    0    0 -0.12599776022E+02 -0.49367111643E+02  0.13436649467E+02  0.52691646555E+02  0.00000000000E+00 0.  1.
       14    1    3    3    0    0 -0.97158987316E+01  0.27074537208E+02 -0.92031516619E+01  0.30201444563E+02  0.00000000000E+00 0. -1.
        3    1    4    4  502    0  0.16459611139E+02  0.29602160765E+02 -0.49085423152E+03  0.49202142567E+03  0.00000000000E+00 0. -1.
       -4    1    4    4    0  502  0.58560636147E+01 -0.73095863296E+01 -0.17897323510E+01  0.95355479788E+01  0.00000000000E+00 0.  1.
</event>
<event>
 8   1  0.2279600E-02  0.1012224E+03  0.7546771E-02  0.1278230E+00
       -2   -1    0    0    0  501 -0.00000000000E+00  0.00000000000E+00  0.91046656963E+01  0.91046656963E+01  0.00000000000E+00 0.  1.
        2   -1    0    0  501    0  0.00000000000E+00 -0.00000000000E+00 -0.21333487851E+04  0.21333487851E+04  0.00000000000E+00 0. -1.
      -24    2    1    2    0    0  0.37023174163E+01  0.60599105306E+02 -0.17996559415E+04  0.18024483504E+04  0.79828499363E+02 0.  0.
       24    2    1    2    0    0 -0.37023174163E+01 -0.60599105306E+02 -0.32458817792E+03  0.34000510043E+03  0.80993977267E+02 0.  0.
      -13    1    4    4    0    0 -0.36801122135E+02 -0.63935865892E+01 -0.13430166524E+03  0.13939920311E+03  0.00000000000E+00 0.  1.
       14    1    4    4    0    0  0.33098804718E+02 -0.54205518716E+02 -0.19028651268E+03  0.20060589732E+03  0.00000000000E+00 0. -1.
        3    1    3    3  502    0  0.88223821150E+01  0.79241226571E+02 -0.13227950256E+04  0.13251957161E+04  0.00000000000E+00 0. -1.
       -4    1    3    3    0  502 -0.51200646987E+01 -0.18642121266E+02 -0.47686091592E+03  0.47725263423E+03  0.00000000000E+00 0.  1.
</event>
<event>
 8   1  0.2279600E-02  0.9117619E+02  0.7546771E-02  0.1300909E+00
        2   -1    0    0  501    0  0.00000000000E+00  0.00000000000E+00  0.20004970371E+04  0.20004970371E+04  0.00000000000E+00 0. -1.
       -2   -1    0    0    0  501 -0.00000000000E+00 -0.00000000000E+00 -0.92464384901E+01  0.92464384901E+01  0.00000000000E+00 0.  1.
       24    2    1    2    0    0 -0.12041396824E+02 -0.41928367980E+02  0.17496726908E+04  0.17520466953E+04  0.80063189222E+02 0.  0.
      -24    2    1    2    0    0  0.12041396824E+02  0.41928367980E+02  0.24157790780E+03  0.25769678028E+03  0.78388530765E+02 0.  0.
      -13    1    3    3    0    0  0.80826584920E+01  0.88503807403E+01  0.47200612797E+02  0.48698628892E+02  0.00000000000E+00 0.  1.
       14    1    3    3    0    0 -0.20124055316E+02 -0.50778748720E+02  0.17024720780E+04  0.17033480664E+04  0.00000000000E+00 0. -1.
        3    1    4    4  502    0 -0.47229188788E+01 -0.20934979283E+02  0.93923041797E+02  0.96343744482E+02  0.00000000000E+00 0. -1.
       -4    1    4    4    0  502  0.16764315703E+02  0.62863347262E+02  0.14765486600E+03  0.16135303580E+03  0.00000000000E+00 0.  1.
</event>
<event>
 8   1  0.2279600E-02  0.9087061E+02  0.7546771E-02  0.1303133E+00
        2   -1    0    0  501    0  0.00000000000E+00  0.00000000000E+00  0.99894161324E+03  0.99894161324E+03  0.00000000000E+00 0. -1.
       -2   -1    0    0    0  501 -0.00000000000E+00 -0.00000000000E+00 -0.79406509063E+01  0.79406509063E+01  0.00000000000E+00 0.  1.
      -24    2    1    2    0    0  0.35170642577E+02  0.20138053071E+02  0.53384660909E+03  0.54152531845E+03  0.81332362571E+02 0.  0.
       24    2    1    2    0    0 -0.35170642577E+02 -0.20138053071E+02  0.45715435325E+03  0.46535694570E+03  0.76970571911E+02 0.  0.
      -13    1    4    4    0    0 -0.40476820689E+02 -0.39796676097E+02  0.21564887381E+03  0.22299458562E+03  0.00000000000E+00 0.  1.
       14    1    4    4    0    0  0.53061781126E+01  0.19658623026E+02  0.24150547944E+03  0.24236236009E+03  0.00000000000E+00 0. -1.
        1    1    3    3  502    0  0.12028351424E+02 -0.31072088928E+02  0.15563946292E+03  0.15916594601E+03  0.00000000000E+00 0. -1.
       -2    1    3    3    0  502  0.23142291152E+02  0.51210141999E+02  0.37820714617E+03  0.38235937244E+03  0.00000000000E+00 0.  1.
</event>
<event>
 8   1  0.2279600E-02  0.8357149E+02  0.7546771E-02  0.1319421E+00
        2   -1    0    0  501    0  0.00000000000E+00  0.00000000000E+00  0.17055905739E+04  0.17055905739E+04  0.00000000000E+00 0. -1.
       -2   -1    0    0    0  501 -0.00000000000E+00 -0.00000000000E+00 -0.43156051317E+01  0.43156051317E+01  0.00000000000E+00 0.  1.
      -24    2    1    2    0    0 -0.18668343070E+02 -0.74808023264E+01  0.64917775405E+03  0.65449500646E+03  0.80792869034E+02 0.  0.
       24    2    1    2    0    0  0.18668343070E+02  0.74808023264E+01  0.10520972147E+04  0.10554111725E+04  0.81115501242E+02 0.  0.
      -13    1    4    4    0    0  0.24051837563E+02 -0.14257636888E+02  0.12693501075E+03  0.12997795219E+03  0.00000000000E+00 0.  1.
       14    1    4    4    0    0 -0.53834944934E+01  0.21738439215E+02  0.92516220393E+03  0.92543322035E+03  0.00000000000E+00 0. -1.
        3    1    3    3  502    0  0.30871405044E+02  0.62344761734E+01  0.27684609186E+03  0.27863178376E+03  0.00000000000E+00 0. -1.
       -4    1    3    3    0  502 -0.49539748114E+02 -0.13715278500E+02  0.37233166219E+03  0.37586322270E+03  0.00000000000E+00 0.  1.
</event>
<event>
 8   1  0.2279600E-02  0.1322026E+03  0.7546771E-02  0.1227861E+00
        3   -1    0    0  501    0  0.00000000000E+00  0.00000000000E+00  0.98303088216E+03  0.98303088216E+03  0.00000000000E+00 0. -1.
       -3   -1    0    0    0  501 -0.00000000000E+00 -0.00000000000E+00 -0.28883599299E+02  0.28883599299E+02  0.00000000000E+00 0.  1.
       24    2    1    2    0    0 -0.60345510082E+02  0.69599983662E+02  0.15632780747E+03  0.20473375848E+03  0.94825050286E+02 0.  0.
      -24    2    1    2    0    0  0.60345510082E+02 -0.69599983662E+02  0.79781947539E+03  0.80718072297E+03  0.80864491073E+02 0.  0.
      -13    1    3    3    0    0 -0.77893321910E+02  0.21285976563E+02  0.98285987510E+02  0.12720297849E+03  0.00000000000E+00 0.  1.
       14    1    3    3    0    0  0.17547811828E+02  0.48314007099E+02  0.58041819957E+02  0.77530779990E+02  0.00000000000E+00 0. -1.
        1    1    4    4  502    0  0.72033747892E+02 -0.30902637131E+02  0.61307495248E+03  0.61806531303E+03  0.00000000000E+00 0. -1.
       -2    1    4    4    0  502 -0.11688237810E+02 -0.38697346532E+02  0.18474452291E+03  0.18911540994E+03  0.00000000000E+00 0.  1.
</event>
<event>
 8   1  0.2279600E-02  0.9620087E+02  0.7546771E-02  0.1288944E+00
       -2   -1    0    0    0  501 -0.00000000000E+00  0.00000000000E+00  0.28172510561E+02  0.28172510561E+02  0.00000000000E+00 0.  1.
        2   -1    0    0  501    0  0.00000000000E+00 -0.00000000000E+00 -0.32781713118E+03  0.32781713118E+03  0.00000000000E+00 0. -1.
      -24    2    1    2    0    0  0.47469827183E+02  0.21801135796E+02 -0.16460389465E+03  0.19065426896E+03  0.80783253978E+02 0.  0.
       24    2    1    2    0    0 -0.47469827183E+02 -0.21801135796E+02 -0.13504072597E+03  0.16533537278E+03  0.79819257126E+02 0.  0.
      -13    1    4    4    0    0 -0.32655467527E+01 -0.39690443235E+02 -0.29624319703E+02  0.49634618943E+02  0.00000000000E+00 0.  1.
       14    1    4    4    0    0 -0.44204280430E+02  0.17889307439E+02 -0.10541640626E+03  0.11570075384E+03  0.00000000000E+00 0. -1.
        3    1    3    3  502    0  0.16477317115E+02  0.43562525030E+02 -0.13431816313E+03  0.14216386501E+03  0.00000000000E+00 0. -1.
       -4    1    3    3    0  502  0.30992510068E+02 -0.21761389234E+02 -0.30285731514E+02  0.48490403948E+02  0.00000000000E+00 0.  1.
</event>
<event>
 8   1  0.2279600E-02  0.8190836E+02  0.7546771E-02  0.1325678E+00
        2   -1    0    0  501    0  0.00000000000E+00  0.00000000000E+00  0.32865314526E+03  0.32865314526E+03  0.00000000000E+00 0. -1.
       -2   -1    0    0    0  501 -0.00000000000E+00 -0.00000000000E+00 -0.19779169034E+02  0.19779169034E+02  0.00000000000E+00 0.  1.
      -24    2    1    2    0    0  0.58657426942E+01 -0.10096833995E+02  0.16103234536E+03  0.17941714649E+03  0.78247959757E+02 0.  0.
       24    2    1    2    0    0 -0.58657426942E+01  0.10096833995E+02  0.14784163086E+03  0.16901516781E+03  0.81071734522E+02 0.  0.
      -13    1    4    4    0    0  0.16371971348E+02  0.34330827710E+02  0.35754067782E+02  0.52201537718E+02  0.00000000000E+00 0.  1.
       14    1    4    4    0    0 -0.22237714043E+02 -0.24233993715E+02  0.11208756308E+03  0.11681363009E+03  0.00000000000E+00 0. -1.
        1    1    3    3  502    0 -0.11381793597E+02 -0.68129640817E+01  0.16131304529E+03  0.16185753083E+03  0.00000000000E+00 0. -1.
       -2    1    3    3    0  502  0.17247536292E+02 -0.32838699133E+01 -0.28069992359E+00  0.17559615662E+02  0.00000000000E+00 0.  1.
</event>
<event>
 8   1  0.2279600E-02  0.1040107E+03  0.7546771E-02  0.1273093E+00
       -2   -1    0    0    0  501 -0.00000000000E+00  0.00000000000E+00  0.40215472547E+03  0.40215472547E+03  0.00000000000E+00 0.  1.
        2   -1    0    0  501    0  0.00000000000E+00 -0.00000000000E+00 -0.34474404665E+02  0.34474404665E+02  0.00000000000E+00 0. -1.
       24    2    1    2    0    0  0.40537751596E+02  0.46720913842E+02  0.79455998063E+02  0.13088730994E+03  0.83618653308E+02 0.  0.
      -24    2    1    2    0    0 -0.40537751596E+02 -0.46720913842E+02  0.28822432275E+03  0.30574182020E+03  0.81108860801E+02 0.  0.
      -13    1    3    3    0    0  0.23033309774E+02 -0.20547381083E+02  0.95595104311E+01  0.32312729198E+02  0.00000000000E+00 0.  1.
       14    1    3    3    0    0  0.17504441822E+02  0.67268294925E+02  0.69896487632E+02  0.98574580745E+02  0.00000000000E+00 0. -1.
        1    1    4    4  502    0 -0.28600275248E+02 -0.17371951117E+02  0.28103800956E+02  0.43698787833E+02  0.00000000000E+00 0. -1.
       -2    1    4    4    0  502 -0.11937476348E+02 -0.29348962725E+02  0.26012052179E+03  0.26204303236E+03  0.00000000000E+00 0.  1.
</event>
<event>
 8   1  0.2279600E-02  0.8620340E+02  0.7546771E-02  0.1313098E+00
        3   -1    0    0  501    0  0.00000000000E+00  0.00000000000E+00  0.74907504775E+02  0.74907504775E+02  0.00000000000E+00 0. -1.
       -3   -1    0    0    0  501 -0.00000000000E+00 -0.00000000000E+00 -0.17057283715E+03  0.17057283715E+03  0.00000000000E+00 0.  1.
       24    2    1    2    0    0 -0.21851910474E+02 -0.15715588327E+02 -0.12818873124E+03  0.15447775648E+03  0.81893471788E+02 0.  0.
      -24    2    1    2    0    0  0.21851910474E+02  0.15715588327E+02  0.32523398862E+02  0.91002585451E+02  0.80617698909E+02 0.  0.
      -13    1    3    3    0    0 -0.47971786831E+02 -0.29752606828E+02 -0.87555596757E+02  0.10417529682E+03  0.00000000000E+00 0.  1.
       14    1    3    3    0    0  0.26119876357E+02  0.14037018501E+02 -0.40633134481E+02  0.50302459652E+02  0.00000000000E+00 0. -1.
        3    1    4    4  502    0  0.45232597077E+02  0.30718000171E+02  0.10790828478E+02  0.55731726620E+02  0.00000000000E+00 0. -1.
       -4    1    4    4    0  502 -0.23380686603E+02 -0.15002411844E+02  0.21732570384E+02  0.35270858831E+02  0.00000000000E+00 0.  1.
</event>
<event>
 8   1  0.2279600E-02  0.9970466E+02  0.7546771E-02  0.1281293E+00
        2   -1    0    0  501    0  0.00000000000E+00  0.00000000000E+00  0.10791400125E+04  0.10791400125E+04  0.00000000000E+00 0. -1.
       -2   -1    0    0    0  501 -0.00000000000E+00 -0.00000000000E+00 -0.19938076831E+02  0.19938076831E+02  0.00000000000E+00 0.  1.
      -24    2    1    2    0    0  0.73683792755E+01 -0.59131090959E+02  0.12444794670E+03  0.15902168774E+03  0.79055846111E+02 0.  0.
       24    2    1    2    0    0 -0.73683792755E+01  0.59131090959E+02  0.93475398898E+03  0.94005640160E+03  0.79938972573E+02 0.  0.
      -13    1    4    4    0    0 -0.40399893722E+02  0.19092902475E+02  0.31831711873E+03  0.32143814089E+03  0.00000000000E+00 0.  1.
       14    1    4    4    0    0  0.33031514447E+02  0.40038188484E+02  0.61643687025E+03  0.61861826071E+03  0.00000000000E+00 0. -1.
        1    1    3    3  502    0  0.27193437194E+02  0.53168551922E+01  0.58374678107E+02  0.64616987083E+02  0.00000000000E+00 0. -1.
       -2    1    3    3    0  502 -0.19825057918E+02 -0.64447946151E+02  0.66073268592E+02  0.94404700662E+02  0.00000000000E+00 0.  1.
</event>
<event>
 8   1  0.2279600E-02  0.9599699E+02  0.7546771E-02  0.1288966E+00
        1   -1    0    0  501    0  0.00000000000E+00  0.00000000000E+00  0.39232817509E+02  0.39232817509E+02  0.00000000000E+00 0. -1.
       -1   -1    0    0    0  501 -0.00000000000E+00 -0.00000000000E+00 -0.29005711169E+03  0.29005711169E+03  0.00000000000E+00 0.  1.
       24    2    1    2    0    0 -0.30199824733E+02  0.43635878296E+02 -0.19725293835E+03  0.21935671565E+03  0.79953284642E+02 0.  0.
      -24    2    1    2    0    0  0.30199824733E+02 -0.43635878296E+02 -0.53571355833E+02  0.10993321355E+03  0.79995637300E+02 0.  0.
      -13    1    3    3    0    0  0.45707033764E+01  0.35675747047E+02 -0.25879106664E+02  0.44310026161E+02  0.00000000000E+00 0.  1.
       14    1    3    3    0    0 -0.34770528110E+02  0.79601312493E+01 -0.17137383168E+03  0.17504668949E+03  0.00000000000E+00 0. -1.
        1    1    4    4  502    0 -0.45526407988E+01 -0.42555095474E+01  0.19201071902E+02  0.20187051839E+02  0.00000000000E+00 0. -1.
       -2    1    4    4    0  502  0.34752465532E+02 -0.39380368749E+02 -0.72772427735E+02  0.89746161711E+02  0.00000000000E+00 0.  1.
</event>
<event>
 8   1  0.2279600E-02  0.1016709E+03  0.7546771E-02  0.1277648E+00
       -2   -1    0    0    0  501 -0.00000000000E+00  0.00000000000E+00  0.47841864006E+02  0.47841864006E+02  0.00000000000E+00 0.  1.
        2   -1    0    0  501    0  0.00000000000E+00 -0.00000000000E+00 -0.28540891816E+03  0.28540891816E+03  0.00000000000E+00 0. -1.
      -24    2    1    2    0    0  0.18704205424E+02 -0.59600101984E+02 -0.35377721899E+02  0.10765010819E+03  0.80218097269E+02 0.  0.
       24    2    1    2    0    0 -0.18704205424E+02  0.59600101984E+02 -0.20218933225E+03  0.22560067397E+03  0.78186434652E+02 0.  0.
      -13    1    4    4    0    0  0.80165194001E+01 -0.17047764429E+02 -0.34984464869E+02  0.39734162096E+02  0.00000000000E+00 0.  1.
       14    1    4    4    0    0 -0.26720724824E+02  0.76647866413E+02 -0.16720486738E+03  0.18586651188E+03  0.00000000000E+00 0. -1.
        1    1    3    3  502    0 -0.77058602478E+01  0.27934570523E+01 -0.38950061237E+02  0.39803152574E+02  0.00000000000E+00 0. -1.
       -2    1    3    3    0  502  0.26410065672E+02 -0.62393559036E+02  0.35723393382E+01  0.67846955616E+02  0.00000000000E+00 0.  1.
</event>
<event>
 8   1  0.2279600E-02  0.9179795E+02  0.7546771E-02  0.1300009E+00
       -1   -1    0    0    0  501 -0.00000000000E+00  0.00000000000E+00  0.10279483984E+03  0.10279483984E+03  0.00000000000E+00 0.  1.
        1   -1    0    0  501    0  0.00000000000E+00 -0.00000000000E+00 -0.16813035602E+03  0.16813035602E+03  0.00000000000E+00 0. -1.
       24    2    1    2    0    0  0.33879078399E+02 -0.11474282506E+02  0.65710921607E+02  0.11092509541E+03  0.81896278676E+02 0.  0.
      -24    2    1    2    0    0 -0.33879078399E+02  0.11474282506E+02 -0.13104643779E+03  0.16000010045E+03  0.84542369107E+02 0.  0.
      -13    1    3    3    0    0  0.50886240821E+02 -0.33692305439E+02  0.40352437452E+02  0.73163516584E+02  0.00000000000E+00 0.  1.
       14    1    3    3    0    0 -0.17007162422E+02  0.22218022933E+02  0.25358484155E+02  0.37761578825E+02  0.00000000000E+00 0. -1.
        3    1    4    4  502    0 -0.64192223399E+01  0.36266148603E+02 -0.11297475474E+03  0.11882649182E+03  0.00000000000E+00 0. -1.
       -4    1    4    4    0  502 -0.27459856059E+02 -0.24791866097E+02 -0.18071683053E+02  0.41173608631E+02  0.00000000000E+00 0.  1.
</event>
<event>
 8   1  0.2279600E-02  0.8620733E+02  0.7546771E-02  0.1313549E+00
        2   -1    0    0  501    0  0.00000000000E+00  0.00000000000E+00  0.23910700460E+02  0.23910700460E+02  0.00000000000E+00 0. -1.
       -2   -1    0    0    0  501 -0.00000000000E+00 -0.00000000000E+00 -0.39952369257E+03  0.39952369257E+03  0.00000000000E+00 0.  1.
       24    2    1    2    0    0  0.23712025015E+02 -0.10500995191E+02 -0.85861138791E+02  0.12167102982E+03  0.82214191671E+02 0.  0.
      -24    2    1    2    0    0 -0.23712025015E+02  0.10500995191E+02 -0.28975185331E+03  0.30176336321E+03  0.80202617440E+02 0.  0.
      -13    1    3    3    0    0  0.38817277804E+02  0.12755220708E+02 -0.84554309185E+02  0.93909040636E+02  0.00000000000E+00 0.  1.
       14    1    3    3    0    0 -0.15105252789E+02 -0.23256215899E+02 -0.13068296064E+01  0.27761989182E+02  0.00000000000E+00 0. -1.
        1    1    4    4  502    0  0.51218978981E+01 -0.31712210853E+02 -0.13572627194E+03  0.13947587264E+03  0.00000000000E+00 0. -1.
       -2    1    4    4    0  502 -0.28833922913E+02  0.42213206044E+02 -0.15402558138E+03  0.16228749056E+03  0.00000000000E+00 0.  1.
</event>
<event>
 8   1  0.2279600E-02  0.1215207E+03  0.7546771E-02  0.1240773E+00
        2   -1    0    0  501    0  0.00000000000E+00  0.00000000000E+00  0.18748424382E+04  0.18748424382E+04  0.00000000000E+00 0. -1.
       -2   -1    0    0    0  501 -0.00000000000E+00 -0.00000000000E+00 -0.23566809153E+02  0.23566809153E+02  0.00000000000E+00 0.  1.
      -24    2    1    2    0    0 -0.86818692836E+02  0.24889327319E+02  0.15100064789E+03  0.19382591998E+03  0.81303920888E+02 0.  0.
       24    2    1    2    0    0  0.86818692836E+02 -0.24889327319E+02  0.17002749811E+04  0.17045833274E+04  0.80699097731E+02 0.  0.
      -13    1    4    4    0    0 -0.62704095769E+01  0.15654475460E+02  0.39754015702E+03  0.39789767162E+03  0.00000000000E+00 0.  1.
       14    1    4    4    0    0  0.93089102413E+02 -0.40543802779E+02  0.13027348241E+04  0.13066856557E+04  0.00000000000E+00 0. -1.
        3    1    3    3  502    0 -0.67963676922E+02  0.26445713437E+02  0.15770765467E+03  0.17375310496E+03  0.00000000000E+00 0. -1.
       -4    1    3    3    0  502 -0.18855015914E+02 -0.15563861186E+01 -0.67070067827E+01  0.20072815020E+02  0.00000000000E+00 0.  1.
</event>
<event>
 8   1  0.2279600E-02  0.8436479E+02  0.7546771E-02  0.1318053E+00
       -1   -1    0    0    0  501 -0.00000000000E+00  0.00000000000E+00  0.70680844721E+02  0.70680844721E+02  0.00000000000E+00 0.  1.
        1   -1    0    0  501    0  0.00000000000E+00 -0.00000000000E+00 -0.23181857646E+03  0.23181857646E+03  0.00000000000E+00 0. -1.
       24    2    1    2    0    0  0.24469089617E+02  0.21827447646E+01  0.34207007117E+02  0.89715530751E+02  0.79216515959E+02 0.  0.
      -24    2    1    2    0    0 -0.24469089617E+02 -0.21827447646E+01 -0.19534473886E+03  0.21278389043E+03  0.80708836606E+02 0.  0.
      -13    1    3    3    0    0  0.50361136475E+02  0.66435685646E+01  0.59720823594E+01  0.51147305286E+02  0.00000000000E+00 0.  1.
       14    1    3    3    0    0 -0.25892046858E+02 -0.44608238000E+01  0.28234924758E+02  0.38568225465E+02  0.00000000000E+00 0. -1.
        1    1    4    4  502    0 -0.52141574176E+02  0.71058034146E+01 -0.99036415963E+02  0.11214922152E+03  0.00000000000E+00 0. -1.
       -2    1    4    4    0  502  0.27672484559E+02 -0.92885481792E+01 -0.96308322896E+02  0.10063466892E+03  0.00000000000E+00 0.  1.
</event>
<event>
 8   1  0.2279600E-02  0.8243818E+02  0.7546771E-02  0.1324172E+00
        1   -1    0    0  501    0  0.00000000000E+00  0.00000000000E+00  0.80674991368E+03  0.80674991368E+03  0.00000000000E+00 0. -1.
       -1   -1    0    0    0  501 -0.00000000000E+00 -0.00000000000E+00 -0.83668486244E+01  0.83668486244E+01  0.00000000000E+00 0.  1.
       24    2    1    2    0    0  0.14453752467E+01  0.14493844873E+02  0.32647401326E+03  0.33606122559E+03  0.78356271995E+02 0.  0.
      -24    2    1    2    0    0 -0.14453752467E+01 -0.14493844873E+02  0.47190905179E+03  0.47905553671E+03  0.81141194488E+02 0.  0.
      -13    1    3    3    0    0  0.28177559263E+02  0.37083113581E+01  0.45735341893E+02  0.53846521867E+02  0.00000000000E+00 0.  1.
       14    1    3    3    0    0 -0.26732184016E+02  0.10785533515E+02  0.28073867137E+03  0.28221470372E+03  0.00000000000E+00 0. -1.
        1    1    4    4  502    0 -0.24566022026E+02  0.25904484969E+02  0.22113526151E+03  0.22399851709E+03  0.00000000000E+00 0. -1.
       -2    1    4    4    0  502  0.23120646779E+02 -0.40398329842E+02  0.25077379029E+03  0.25505701962E+03  0.00000000000E+00 0.  1.
</event>
<event>
 8   1  0.2279600E-02  0.8884979E+02  0.7546771E-02  0.1307333E+00
       -2   -1    0    0    0  501 -0.00000000000E+00  0.00000000000E+00  0.12883155029E+03  0.12883155029E+03  0.00000000000E+00 0.  1.
        2   -1    0    0  501    0  0.00000000000E+00 -0.00000000000E+00 -0.63338935788E+02  0.63338935788E+02  0.00000000000E+00 0. -1.
       24    2    1    2    0    0 -0.21082656770E+02 -0.21969150865E+02  0.57024985401E+02  0.10557525581E+03  0.83469537398E+02 0.  0.
      -24    2    1    2    0    0  0.21082656770E+02  0.21969150865E+02  0.84676291012E+01  0.86595230267E+02  0.80622026496E+02 0.  0.
      -13    1    3    3    0    0 -0.25203733779E+02  0.90504967235E+01  0.67466499001E+02  0.72586969731E+02  0.00000000000E+00 0.  1.
       14    1    3    3    0    0  0.41210770081E+01 -0.31019647589E+02 -0.10441513600E+02  0.32988286080E+02  0.00000000000E+00 0. -1.
        3    1    4    4  502    0 -0.14266644635E+02  0.42767702580E+02  0.63159575611E+01  0.45524771861E+02  0.00000000000E+00 0. -1.
       -4    1    4    4    0  502  0.35349301406E+02 -0.20798551714E+02  0.21516715401E+01  0.41070458406E+02  0.00000000000E+00 0.  1.
</event>
<event>
 8   1  0.2279600E-02  0.1247666E+03  0.7546771E-02  0.1235717E+00
        2   -1    0    0  501    0  0.00000000000E+00  0.00000000000E+00  0.31300478291E+03  0.31300478291E+03  0.00000000000E+00 0. -1.
       -2   -1    0    0    0  501 -0.00000000000E+00 -0.00000000000E+00 -0.63894688341E+02  0.63894688341E+02  0.00000000000E+00 0.  1.
      -24    2    1    2    0    0 -0.65760723663E+02 -0.68455953553E+02  0.35221584790E+02  0.12964282208E+03  0.80969197406E+02 0.  0.
       24    2    1    2    0    0  0.65760723663E+02  0.68455953553E+02  0.21388850978E+03  0.24725664917E+03  0.79855279030E+02 0.  0.
      -13    1    4    4    0    0  0.58937109188E+02  0.19900009624E+02  0.62728398446E+02  0.88342771035E+02  0.00000000000E+00 0.  1.
       14    1    4    4    0    0  0.68236144748E+01  0.48555943930E+02  0.15116011133E+03  0.15891387813E+03  0.00000000000E+00 0. -1.
        3    1    3    3  502    0 -0.15535899664E+02 -0.72648649709E+02  0.18763493724E+02  0.76624142276E+02  0.00000000000E+00 0. -1.
       -4    1    3    3    0  502 -0.50224823999E+02  0.41926961551E+01  0.16458091066E+02  0.53018679806E+02  0.00000000000E+00 0.  1.
</event>
<event>
 8   1  0.2279600E-02  0.8467029E+02  0.7546771E-02  0.1317567E+00
        2   -1    0    0  501    0  0.00000000000E+00  0.00000000000E+00  0.55507160141E+03  0.55507160141E+03  0.00000000000E+00 0. -1.
       -2   -1    0    0    0  501 -0.00000000000E+00 -0.00000000000E+00 -0.15642632753E+02  0.15642632753E+02  0.00000000000E+00 0.  1.
      -24    2    1    2    0    0  0.18315044975E+02 -0.11606080258E+02  0.14193078847E+03  0.16429836124E+03  0.79871526974E+02 0.  0.
       24    2    1    2    0    0 -0.18315044975E+02  0.11606080258E+02  0.39749818020E+03  0.40641587292E+03  0.81846909132E+02 0.  0.
      -13    1    4    4    0    0 -0.35363972271E+02  0.10950250811E+02  0.76726923267E+02  0.85191192512E+02  0.00000000000E+00 0.  1.
       14    1    4    4    0    0  0.17048927296E+02  0.65582944703E+00  0.32077125693E+03  0.32122468041E+03  0.00000000000E+00 0. -1.
        3    1    3    3  502    0 -0.15769763558E+01 -0.41929843212E+02  0.10234139623E+03  0.11060904117E+03  0.00000000000E+00 0. -1.
       -4    1    3    3    0  502  0.19892021331E+02  0.30323762954E+02  0.39589392237E+02  0.53689320074E+02  0.00000000000E+00 0.  1.
</event>
<event>
 8   1  0.2279600E-02  0.9550870E+02  0.7546771E-02  0.1291345E+00
        1   -1    0    0  501    0  0.00000000000E+00  0.00000000000E+00  0.85435311093E+01  0.85435311093E+01  0.00000000000E+00 0. -1.
       -1   -1    0    0    0  501 -0.00000000000E+00 -0.00000000000E+00 -0.10588640109E+04  0.10588640109E+04  0.00000000000E+00 0.  1.
       24    2    1    2    0    0 -0.44417829836E+02  0.19856465927E+02 -0.58617542433E+03  0.59353778756E+03  0.79487447596E+02 0.  0.
      -24    2    1    2    0    0  0.44417829836E+02 -0.19856465927E+02 -0.46414505545E+03  0.47386975444E+03  0.82186913968E+02 0.  0.
      -13    1    3    3    0    0  0.20069380019E+02  0.20439184435E+02 -0.17052576920E+03  0.17291494509E+03  0.00000000000E+00 0.  1.
       14    1    3    3    0    0 -0.64487209854E+02 -0.58271850865E+00 -0.41564965513E+03  0.42062284247E+03  0.00000000000E+00 0. -1.
        3    1    4    4  502    0  0.22679628527E+02 -0.10319954313E+02 -0.29662724709E+02  0.38739440423E+02  0.00000000000E+00 0. -1.
       -4    1    4    4    0  502  0.21738201308E+02 -0.95365116141E+01 -0.43448233074E+03  0.43513031401E+03  0.00000000000E+00 0.  1.
</event>
<event>
 8   1  0.2279600E-02  0.8844281E+02  0.7546771E-02  0.1306684E+00
        2   -1    0    0  501    0  0.00000000000E+00  0.00000000000E+00  0.10560281751E+03  0.10560281751E+03  0.00000000000E+00 0. -1.
       -2   -1    0    0    0  501 -0.00000000000E+00 -0.00000000000E+00 -0.98420280039E+02  0.98420280039E+02  0.00000000000E+00 0.  1.
      -24    2    1    2    0    0 -0.33587188398E+02 -0.15593494177E+02 -0.47172327675E+02  0.10023651411E+03  0.80317332984E+02 0.  0.
       24    2    1    2    0    0  0.33587188398E+02  0.15593494177E+02  0.54354865142E+02  0.10378658343E+03  0.80286656744E+02 0.  0.
      -13    1    4    4    0    0  0.25777400962E+02 -0.27850361716E+02  0.61820144255E+01  0.38449113780E+02  0.00000000000E+00 0.  1.
       14    1    4    4    0    0  0.78097874353E+01  0.43443855893E+02  0.48172850716E+02  0.65337469653E+02  0.00000000000E+00 0. -1.
        1    1    3    3  502    0 -0.41018885695E+02 -0.25674500180E+02  0.30390406352E+01  0.48486747789E+02  0.00000000000E+00 0. -1.
       -2    1    3    3    0  502  0.74316972968E+01  0.10081006004E+02 -0.50211368310E+02  0.51749766322E+02  0.00000000000E+00 0.  1.
</event>
<event>
 8   1  0.2279600E-02  0.8270802E+02  0.7546771E-02  0.1321868E+00
        2   -1    0    0  501    0  0.00000000000E+00  0.00000000000E+00  0.92480398557E+03  0.92480398557E+03  0.00000000000E+00 0. -1.
       -2   -1    0    0    0  501 -0.00000000000E+00 -0.00000000000E+00 -0.14199471519E+02  0.14199471519E+02  0.00000000000E+00 0.  1.
      -24    2    1    2    0    0  0.96142842525E+01 -0.13328655793E+02  0.12999519252E+03  0.15407584553E+03  0.81058796999E+02 0.  0.
       24    2    1    2    0    0 -0.96142842525E+01  0.13328655793E+02  0.78060932153E+03  0.78492761156E+03  0.80562739516E+02 0.  0.
      -13    1    4    4    0    0 -0.10341891287E+02  0.56909817903E+01  0.14138734767E+02  0.18418626711E+02  0.00000000000E+00 0.  1.
       14    1    4    4    0    0  0.72760703434E+00  0.76376740029E+01  0.76647058677E+03  0.76650898485E+03  0.00000000000E+00 0. -1.
        3    1    3    3  502    0  0.25234795223E+02 -0.18483433514E+02  0.13361974329E+03  0.13723216824E+03  0.00000000000E+00 0. -1.
       -4    1    3    3    0  502 -0.15620510971E+02  0.51547777206E+01 -0.36245507675E+01  0.16843677289E+02  0.00000000000E+00 0.  1.
</event>
<event>
 8   1  0.2279600E-02  0.9252175E+02  0.7546771E-02  0.1297619E+00
       -3   -1    0    0    0  501 -0.00000000000E+00  0.00000000000E+00  0.49305476755E+02  0.49305476755E+02  0.00000000000E+00 0.  1.
        3   -1    0    0  501    0  0.00000000000E+00 -0.00000000000E+00 -0.22890474719E+03  0.22890474719E+03  0.00000000000E+00 0. -1.
       24    2    1    2    0    0 -0.31698731469E+02  0.33369662032E+02 -0.19481428776E+02  0.93283215959E+02  0.78764766182E+02 0.  0.
      -24    2    1    2    0    0  0.31698731469E+02 -0.33369662032E+02 -0.16011784166E+03  0.18492700798E+03  0.80261641798E+02 0.  0.
      -13    1    3    3    0    0 -0.38206252786E+02 -0.15941487428E+02 -0.68008197942E+01  0.41953544824E+02  0.00000000000E+00 0.  1.
       14    1    3    3    0    0  0.65075213169E+01  0.49311149460E+02 -0.12680608982E+02  0.51329671136E+02  0.00000000000E+00 0. -1.
        1    1    4    4  502    0 -0.17602045491E+02 -0.12754059770E+02 -0.10841069566E+03  0.11056842669E+03  0.00000000000E+00 0. -1.
       -2    1    4    4    0  502  0.49300776961E+02 -0.20615602262E+02 -0.51707145993E+02  0.74358581296E+02  0.00000000000E+00 0.  1.
</event>
<event>
 8   1  0.2279600E-02  0.1217821E+03  0.7546771E-02  0.1241277E+00
        2   -1    0    0  501    0  0.00000000000E+00  0.00000000000E+00  0.78325917358E+03  0.78325917358E+03  0.00000000000E+00 0. -1.
       -2   -1    0    0    0  501 -0.00000000000E+00 -0.00000000000E+00 -0.23026583554E+02  0.23026583554E+02  0.00000000000E+00 0.  1.
      -24    2    1    2    0    0 -0.35907738581E+02  0.81387472976E+02  0.19844831719E+03  0.23145321596E+03  0.79218496181E+02 0.  0.
       24    2    1    2    0    0  0.35907738581E+02 -0.81387472976E+02  0.56178427284E+03  0.57483254117E+03  0.83172079054E+02 0.  0.
      -13    1    4    4    0    0  0.76511794671E+01 -0.64122859793E+02  0.17332405143E+03  0.18496353289E+03  0.00000000000E+00 0.  1.
       14    1    4    4    0    0  0.28256559114E+02 -0.17264613183E+02  0.38846022141E+03  0.38986900829E+03  0.00000000000E+00 0. -1.
        1    1    3    3  502    0  0.93281999367E+00 -0.10884282272E+02  0.17188235941E+01  0.11058576231E+02  0.00000000000E+00 0. -1.
       -2    1    3    3    0  502 -0.36840558574E+02  0.92271755248E+02  0.19672949360E+03  0.22039463973E+03  0.00000000000E+00 0.  1.
</event>
<event>
 8   1  0.2279600E-02  0.8182237E+02  0.7546771E-02  0.1325321E+00
       -3   -1    0    0    0  501 -0.00000000000E+00  0.00000000000E+00  0.36713657016E+03  0.36713657016E+03  0.00000000000E+00 0.  1.
        3   -1    0    0  501    0  0.00000000000E+00 -0.00000000000E+00 -0.33699600030E+02  0.33699600030E+02  0.00000000000E+00 0. -1.
       24    2    1    2    0    0 -0.38411227103E+01 -0.62256294126E+01  0.30543076100E+03  0.31620064822E+03  0.81494708355E+02 0.  0.
      -24    2    1    2    0    0  0.38411227103E+01  0.62256294126E+01  0.28006209130E+02  0.84635521962E+02  0.79531824716E+02 0.  0.
      -13    1    3    3    0    0  0.31933407347E+02 -0.63891826845E+00  0.23346316179E+03  0.23563785484E+03  0.00000000000E+00 0.  1.
       14    1    3    3    0    0 -0.35774530057E+02 -0.55867111442E+01  0.71967599208E+02  0.80562793385E+02  0.00000000000E+00 0. -1.
        3    1    4    4  502    0 -0.36827267764E+02  0.10688361442E+02  0.18765987950E+02  0.42692517201E+02  0.00000000000E+00 0. -1.
       -4    1    4    4    0  502  0.40668390474E+02 -0.44627320291E+01  0.92402211802E+01  0.41943004761E+02  0.00000000000E+00 0.  1.
</event>
<event>
 8   1  0.2279600E-02  0.8769476E+02  0.7546771E-02  0.1309079E+00
       -2   -1    0    0    0  501 -0.00000000000E+00  0.00000000000E+00  0.31447574545E+03  0.31447574545E+03  0.00000000000E+00 0.  1.
        2   -1    0    0  501    0  0.00000000000E+00 -0.00000000000E+00 -0.48782604281E+02  0.48782604281E+02  0.00000000000E+00 0. -1.
      -24    2    1    2    0    0  0.17763654212E+02 -0.27376652269E+02  0.26141691821E+03  0.27545939173E+03  0.80461437118E+02 0.  0.
       24    2    1    2    0    0 -0.17763654212E+02  0.27376652269E+02  0.42762229547E+01  0.87798958001E+02  0.81396206563E+02 0.  0.
      -13    1    4    4    0    0  0.60562877808E+01  0.34044499245E+02  0.34430565544E+02  0.48797237567E+02  0.00000000000E+00 0.  1.
       14    1    4    4    0    0 -0.23819941993E+02 -0.66678469761E+01 -0.30154342589E+02  0.39001720434E+02  0.00000000000E+00 0. -1.
        3    1    3    3  502    0 -0.15807191638E+02  0.60091680936E+01  0.10048561257E+02  0.19671069925E+02  0.00000000000E+00 0. -1.
       -4    1    3    3    0  502  0.33570845850E+02 -0.33385820362E+02  0.25136835696E+03  0.25578832180E+03  0.00000000000E+00 0.  1.
</event>
<event>
 8   1  0.2279600E-02  0.8756136E+02  0.7546771E-02  0.1309264E+00
        2   -1    0    0  501    0  0.00000000000E+00  0.00000000000E+00  0.96524472978E+03  0.96524472978E+03  0.00000000000E+00 0. -1.
       -2   -1    0    0    0  501 -0.00000000000E+00 -0.00000000000E+00 -0.18207391454E+02  0.18207391454E+02  0.00000000000E+00 0.  1.
      -24    2    1    2    0    0  0.71263596567E+01 -0.32120486654E+02  0.10255498140E+03  0.13444243796E+03  0.80465733388E+02 0.  0.
       24    2    1    2    0    0 -0.71263596567E+01  0.32120486654E+02  0.84448235693E+03  0.84900968327E+03  0.81144811723E+02 0.  0.
      -13    1    4    4    0    0  0.30686330900E+02  0.96498990747E+01  0.16507882712E+03  0.16818380011E+03  0.00000000000E+00 0.  1.
       14    1    4    4    0    0 -0.37812690556E+02  0.22470587579E+02  0.67940352981E+03  0.68082588317E+03  0.00000000000E+00 0. -1.
        3    1    3    3  502    0 -0.10381870325E+02 -0.73742323677E+01  0.10333706379E+03  0.10411873648E+03  0.00000000000E+00 0. -1.
       -4    1    3    3    0  502  0.17508229982E+02 -0.24746254286E+02 -0.78208238951E+00  0.30323701475E+02  0.00000000000E+00 0.  1.
</event>
<event>
 8   1  0.2279600E-02  0.8620284E+02  0.7546771E-02  0.1313495E+00
       -2   -1    0    0    0  501 -0.00000000000E+00  0.00000000000E+00  0.45194316286E+01  0.45194316286E+01  0.00000000000E+00 0.  1.
        2   -1    0    0  501    0  0.00000000000E+00 -0.00000000000E+00 -0.19160027502E+04  0.19160027502E+04  0.00000000000E+00 0. -1.
      -24    2    1    2    0    0 -0.49926708005E+01  0.26783760032E+02 -0.58040594290E+03  0.58677251815E+03  0.81784062837E+02 0.  0.
       24    2    1    2    0    0  0.49926708005E+01 -0.26783760032E+02 -0.13310773757E+04  0.13337496637E+04  0.79867945932E+02 0.  0.
      -13    1    4    4    0    0 -0.16815037218E+02 -0.18421178275E+02 -0.12594171373E+03  0.12838769623E+03  0.00000000000E+00 0.  1.
       14    1    4    4    0    0  0.21807708018E+02 -0.83625817570E+01 -0.12051356620E+04  0.12053619675E+04  0.00000000000E+00 0. -1.
        3    1    3    3  502    0  0.29599038836E+02  0.39484876264E+02 -0.32891921385E+03  0.33260037251E+03  0.00000000000E+00 0. -1.
       -4    1    3    3    0  502 -0.34591709636E+02 -0.12701116233E+02 -0.25148672905E+03  0.25417214564E+03  0.00000000000E+00 0.  1.
</event>
<event>
 8   1  0.2279600E-02  0.8990759E+02  0.7546771E-02  0.1303660E+00
        1   -1    0    0  501    0  0.00000000000E+00  0.00000000000E+00  0.28098793722E+03  0.28098793722E+03  0.00000000000E+00 0. -1.
       -1   -1    0    0    0  501 -0.00000000000E+00 -0.00000000000E+00 -0.84016562791E+02  0.84016562791E+02  0.00000000000E+00 0.  1.
       24    2    1    2    0    0 -0.11836602045E+02 -0.35686964373E+02 -0.49739073714E+02  0.10274896548E+03  0.81668291765E+02 0.  0.
      -24    2    1    2    0    0  0.11836602045E+02  0.35686964373E+02  0.24671044814E+03  0.26225553453E+03  0.80611758404E+02 0.  0.
      -13    1    3    3    0    0  0.27223934289E+02 -0.11459253069E+02 -0.48477704215E+02  0.56767463260E+02  0.00000000000E+00 0.  1.
       14    1    3    3    0    0 -0.39060536334E+02 -0.24227711305E+02 -0.12613694997E+01  0.45981502224E+02  0.00000000000E+00 0. -1.
        3    1    4    4  502    0  0.18981560932E+02  0.25847388077E+02  0.24796577557E+03  0.25003082405E+03  0.00000000000E+00 0. -1.
       -4    1    4    4    0  502 -0.71449588864E+01  0.98395762961E+01 -0.12553274231E+01  0.12224710472E+02  0.00000000000E+00 0.  1.
</event>
<event>
 8   1  0.2279600E-02  0.8237803E+02  0.7546771E-02  0.1323061E+00
       -2   -1    0    0    0  501 -0.00000000000E+00  0.00000000000E+00  0.94216947601E+01  0.94216947601E+01  0.00000000000E+00 0.  1.
        2   -1    0    0  501    0  0.00000000000E+00 -0.00000000000E+00 -0.72125823307E+03  0.72125823307E+03  0.00000000000E+00 0. -1.
      -24    2    1    2    0    0 -0.14320216300E+02 -0.12876290381E+02 -0.31719928566E+03  0.32772172099E+03  0.80095393950E+02 0.  0.
       24    2    1    2    0    0  0.14320216300E+02  0.12876290381E+02 -0.39463725265E+03  0.40295820684E+03  0.79157361234E+02 0.  0.
      -13    1    4    4    0    0 -0.12852453121E+02  0.29022259214E+02 -0.70888486010E+02  0.77670164992E+02  0.00000000000E+00 0.  1.
       14    1    4    4    0    0  0.27172669421E+02 -0.16145968833E+02 -0.32374876664E+03  0.32528804185E+03  0.00000000000E+00 0. -1.
        1    1    3    3  502    0  0.17821017449E+02  0.21825645175E+02 -0.61008374782E+02  0.67200961628E+02  0.00000000000E+00 0. -1.
       -2    1    3    3    0  502 -0.32141233749E+02 -0.34701935556E+02 -0.25619091088E+03  0.26052075936E+03  0.00000000000E+00 0.  1.
</event>
<event>
 8   1  0.2279600E-02  0.9365514E+02  0.7546771E-02  0.1294397E+00
        2   -1    0    0  501    0  0.00000000000E+00  0.00000000000E+00  0.69353463693E+02  0.69353463693E+02  0.00000000000E+00 0. -1.
       -2   -1    0    0    0  501 -0.00000000000E+00 -0.00000000000E+00 -0.13672722944E+03  0.13672722944E+03  0.00000000000E+00 0.  1.
      -24    2    1    2    0    0 -0.45002484534E+01  0.45894610623E+02 -0.62380116837E+02  0.11229251804E+03  0.81189673674E+02 0.  0.
       24    2    1    2    0    0  0.45002484534E+01 -0.45894610623E+02 -0.49936489087E+01  0.93788175089E+02  0.81515138083E+02 0.  0.
      -13    1    4    4    0    0 -0.27807699787E+02  0.31347516263E+01 -0.18489265489E+02  0.33540241108E+02  0.00000000000E+00 0.  1.
       14    1    4    4    0    0  0.32307948241E+02 -0.49029362250E+02  0.13495616580E+02  0.60247933981E+02  0.00000000000E+00 0. -1.
        1    1    3    3  502    0  0.22364480107E+02  0.10625200764E+02  0.10573637481E+02  0.26923348071E+02  0.00000000000E+00 0. -1.
       -2    1    3    3    0  502 -0.26864728561E+02  0.35269409859E+02 -0.72953754318E+02  0.85369169971E+02  0.00000000000E+00 0.  1.
</event>
<event>
 8   1  0.2279600E-02  0.8203947E+02  0.7546771E-02  0.1323414E+00
        2   -1    0    0  501    0  0.00000000000E+00  0.00000000000E+00  0.61886995983E+03  0.61886995983E+03  0.00000000000E+00 0. -1.
       -2   -1    0    0    0  501 -0.00000000000E+00 -0.00000000000E+00 -0.24020697683E+02  0.24020697683E+02  0.00000000000E+00 0.  1.
      -24    2    1    2    0    0  0.33009071300E+01 -0.25513035547E+02  0.59477408051E+02  0.10126948276E+03  0.77821173847E+02 0.  0.
       24    2    1    2    0    0 -0.33009071300E+01  0.25513035547E+02  0.53537185410E+03  0.54162117476E+03  0.77901629083E+02 0.  0.
      -13    1    4    4    0    0  0.68535674644E+01  0.30772371577E+02  0.78331167589E+02  0.84437444628E+02  0.00000000000E+00 0.  1.
       14    1    4    4    0    0 -0.10154474594E+02 -0.52593360303E+01  0.45704068651E+03  0.45718373013E+03  0.00000000000E+00 0. -1.
        3    1    3    3  502    0  0.36326446270E+01  0.88233359596E+01  0.65685407379E+02  0.66374845439E+02  0.00000000000E+00 0. -1.
       -4    1    3    3    0  502 -0.33173749698E+00 -0.34336371506E+02 -0.62079993282E+01  0.34894637319E+02  0.00000000000E+00 0.  1.
</event>
<event>
 8   1  0.2279600E-02  0.8615166E+02  0.7546771E-02  0.1312805E+00
        1   -1    0    0  501    0  0.00000000000E+00  0.00000000000E+00  0.53937666542E+03  0.53937666542E+03  0.00000000000E+00 0. -1.
       -1   -1    0    0    0  501 -0.00000000000E+00 -0.00000000000E+00 -0.13716785367E+02  0.13716785367E+02  0.00000000000E+00 0.  1.
       24    2    1    2    0    0 -0.14765335603E+02  0.28866858564E+02  0.27943684735E+03  0.29241590267E+03  0.79817277688E+02 0.  0.
      -24    2    1    2    0    0  0.14765335603E+02 -0.28866858564E+02  0.24622303270E+03  0.26067754811E+03  0.79219262812E+02 0.  0.
      -13    1    3    3    0    0 -0.75647135529E+01 -0.15730038200E+00 -0.31900771500E+01  0.82113474394E+01  0.00000000000E+00 0.  1.
       14    1    3    3    0    0 -0.72006220500E+01  0.29024158946E+02  0.28262692450E+03  0.28420455523E+03  0.00000000000E+00 0. -1.
        1    1    4    4  502    0  0.32365418312E+02  0.12368029928E+02  0.15754724418E+03  0.16131218992E+03  0.00000000000E+00 0. -1.
       -2    1    4    4    0  502 -0.17600082709E+02 -0.41234888492E+02  0.88675788517E+02  0.99365358196E+02  0.00000000000E+00 0.  1.
</event>
<event>
 8   1  0.2279600E-02  0.8510039E+02  0.7546771E-02  0.1317217E+00
        3   -1    0    0  501    0  0.00000000000E+00  0.00000000000E+00  0.12155661941E+02  0.12155661941E+02  0.00000000000E+00 0. -1.
       -3   -1    0    0    0  501 -0.00000000000E+00 -0.00000000000E+00 -0.59521652050E+03  0.59521652050E+03  0.00000000000E+00 0.  1.
       24    2    1    2    0    0  0.13433690389E+02  0.79952162189E+00 -0.34306423184E+03  0.35273428870E+03  0.80915437251E+02 0.  0.
      -24    2    1    2    0    0 -0.13433690389E+02 -0.79952162189E+00 -0.23999662672E+03  0.25463789374E+03  0.84029594901E+02 0.  0.
      -13    1    3    3    0    0 -0.27807359691E+01 -0.33743598984E+01 -0.33334712398E+03  0.33337579976E+03  0.00000000000E+00 0.  1.
       14    1    3    3    0    0  0.16214426358E+02  0.41738815203E+01 -0.97171078580E+01  0.19358488944E+02  0.00000000000E+00 0. -1.
        1    1    4    4  502    0  0.12111006847E+02 -0.36207927462E+02 -0.77737561746E+02  0.86607268772E+02  0.00000000000E+00 0. -1.
       -2    1    4    4    0  502 -0.25544697235E+02  0.35408405840E+02 -0.16225906497E+03  0.16803062497E+03  0.00000000000E+00 0.  1.
</event>
<event>
 8   1  0.2279600E-02  0.9893209E+02  0.7546771E-02  0.1282680E+00
        4   -1    0    0  501    0  0.00000000000E+00  0.00000000000E+00  0.29390165746E+02  0.29390165746E+02  0.00000000000E+00 0. -1.
       -4   -1    0    0    0  501 -0.00000000000E+00 -0.00000000000E+00 -0.52940950790E+03  0.52940950790E+03  0.00000000000E+00 0.  1.
      -24    2    1    2    0    0  0.40108987257E+02  0.41255093561E+02 -0.42069627843E+03  0.43217232333E+03  0.80478846685E+02 0.  0.
       24    2    1    2    0    0 -0.40108987257E+02 -0.41255093561E+02 -0.79323063721E+02  0.12662735031E+03  0.80197405232E+02 0.  0.
      -13    1    4    4    0    0  0.62961680108E+01 -0.43682232783E+02 -0.63913178201E+02  0.77670287371E+02  0.00000000000E+00 0.  1.
       14    1    4    4    0    0 -0.46405155268E+02  0.24271392224E+01 -0.15409885520E+02  0.48957062942E+02  0.00000000000E+00 0. -1.
        3    1    3    3  502    0  0.21571741907E+02  0.25592975703E+02 -0.47063029611E+02  0.57751789673E+02  0.00000000000E+00 0. -1.
       -4    1    3    3    0  502  0.18537245349E+02  0.15662117858E+02 -0.37363324882E+03  0.37442053366E+03  0.00000000000E+00 0.  1.
</event>
<event>
 8   1  0.2279600E-02  0.9230318E+02  0.7546771E-02  0.1298663E+00
        1   -1    0    0  501    0  0.00000000000E+00  0.00000000000E+00  0.42248654767E+03  0.42248654767E+03  0.00000000000E+00 0. -1.
       -1   -1    0    0    0  501 -0.00000000000E+00 -0.00000000000E+00 -0.31827219923E+02  0.31827219923E+02  0.00000000000E+00 0.  1.
       24    2    1    2    0    0  0.11487687158E+02 -0.44641737420E+02  0.56516119625E+02  0.10823099394E+03  0.79968897681E+02 0.  0.
      -24    2    1    2    0    0 -0.11487687158E+02  0.44641737420E+02  0.33414320812E+03  0.34608277365E+03  0.77438691926E+02 0.  0.
      -13    1    3    3    0    0 -0.24959539254E+02 -0.31669353327E+02  0.71301526843E+00  0.40329082939E+02  0.00000000000E+00 0.  1.
       14    1    3    3    0    0  0.36447226412E+02 -0.12972384093E+02  0.55803104356E+02  0.67901911004E+02  0.00000000000E+00 0. -1.
        1    1    4    4  502    0  0.23361153620E+02  0.20615879327E+02  0.24958085067E+03  0.25151810870E+03  0.00000000000E+00 0. -1.
       -2    1    4    4    0  502 -0.34848840778E+02  0.24025858092E+02  0.84562357444E+02  0.94564664950E+02  0.00000000000E+00 0.  1.
</event>
<event>
 8   1  0.2279600E-02  0.8555583E+02  0.7546771E-02  0.1314965E+00
        2   -1    0    0  501    0  0.00000000000E+00  0.00000000000E+00  0.12662960858E+03  0.12662960858E+03  0.00000000000E+00 0. -1.
       -2   -1    0    0    0  501 -0.00000000000E+00 -0.00000000000E+00 -0.56942497772E+02  0.56942497772E+02  0.00000000000E+00 0.  1.
      -24    2    1    2    0    0 -0.13408428558E+02  0.28266219067E+02  0.30527060347E+02  0.90838872876E+02  0.79630611672E+02 0.  0.
       24    2    1    2    0    0  0.13408428558E+02 -0.28266219067E+02  0.39160050465E+02  0.92733233481E+02  0.78020368767E+02 0.  0.
      -13    1    4    4    0    0 -0.12256705221E+02 -0.48125488263E+02  0.13786938719E+02  0.51539975967E+02  0.00000000000E+00 0.  1.
       14    1    4    4    0    0  0.25665133779E+02  0.19859269196E+02  0.25373111746E+02  0.41193257514E+02  0.00000000000E+00 0. -1.
        1    1    3    3  502    0 -0.24919105777E+02  0.21567311777E+02  0.54341143191E+02  0.63553682925E+02  0.00000000000E+00 0. -1.
       -2    1    3    3    0  502  0.11510677219E+02  0.66989072895E+01 -0.23814082845E+02  0.27285189951E+02  0.00000000000E+00 0.  1.
</event>
<event>
 8   1  0.2279600E-02  0.8903555E+02  0.7546771E-02  0.1306032E+00
       -2   -1    0    0    0  501 -0.00000000000E+00  0.00000000000E+00  0.52486054238E+01  0.52486054238E+01  0.00000000000E+00 0.  1.
        2   -1    0    0  501    0  0.00000000000E+00 -0.00000000000E+00 -0.16503022354E+04  0.16503022354E+04  0.00000000000E+00 0. -1.
      -24    2    1    2    0    0 -0.38212377457E+01 -0.44535119408E+02 -0.55716834742E+03  0.56402818081E+03  0.75453579527E+02 0.  0.
       24    2    1    2    0    0  0.38212377457E+01  0.44535119408E+02 -0.10878852826E+04  0.10915226600E+04  0.77002276595E+02 0.  0.
      -13    1    4    4    0    0  0.34872797890E+02  0.33306328053E+02 -0.84871056537E+03  0.85007943587E+03  0.00000000000E+00 0.  1.
       14    1    4    4    0    0 -0.31051560144E+02  0.11228791355E+02 -0.23917471719E+03  0.24144322415E+03  0.00000000000E+00 0. -1.
        3    1    3    3  502    0 -0.28232186667E+01 -0.34464056210E+02 -0.55119057081E+03  0.55227419556E+03  0.00000000000E+00 0. -1.
       -4    1    3    3    0  502 -0.99801907898E+00 -0.10071063199E+02 -0.59777766104E+01  0.11753985249E+02  0.00000000000E+00 0.  1.
</event>
<event>
 8   1  0.2279600E-02  0.1121592E+03  0.7546771E-02  0.1257485E+00
       -3   -1    0    0    0  501 -0.00000000000E+00  0.00000000000E+00  0.38782726899E+02  0.38782726899E+02  0.00000000000E+00 0.  1.
        3   -1    0    0  501    0  0.00000000000E+00 -0.00000000000E+00 -0.34909746555E+03  0.34909746555E+03  0.00000000000E+00 0. -1.
       24    2    1    2    0    0  0.59878427701E+02 -0.44750098861E+02 -0.96920969856E+02  0.14680639090E+03  0.81058278790E+02 0.  0.
      -24    2    1    2    0    0 -0.59878427701E+02  0.44750098861E+02 -0.21339376880E+03  0.24107380155E+03  0.83616265037E+02 0.  0.
      -13    1    3    3    0    0  0.77390291674E+02 -0.33324964774E+02 -0.93068692887E+02  0.12554517959E+03  0.00000000000E+00 0.  1.
       14    1    3    3    0    0 -0.17511863973E+02 -0.11425134087E+02 -0.38522769687E+01  0.21261211314E+02  0.00000000000E+00 0. -1.
        3    1    4    4  502    0 -0.49699814815E+02 -0.14230165699E+02 -0.86458500526E+02  0.10073550279E+03  0.00000000000E+00 0. -1.
       -4    1    4    4    0  502 -0.10178612886E+02  0.58980264560E+02 -0.12693526827E+03  0.14033829876E+03  0.00000000000E+00 0.  1.
</event>
<event>
 8   1  0.2279600E-02  0.1074527E+03  0.7546771E-02  0.1265801E+00
       -1   -1    0    0    0  501 -0.00000000000E+00  0.00000000000E+00  0.40775681246E+02  0.40775681246E+02  0.00000000000E+00 0.  1.
        1   -1    0    0  501    0  0.00000000000E+00 -0.00000000000E+00 -0.28076739692E+03  0.28076739692E+03  0.00000000000E+00 0. -1.
       24    2    1    2    0    0  0.13736177464E+02  0.69921509363E+02 -0.12182065524E+03  0.16243878818E+03  0.80426288105E+02 0.  0.
      -24    2    1    2    0    0 -0.13736177464E+02 -0.69921509363E+02 -0.11817106043E+03  0.15910428999E+03  0.79196436324E+02 0.  0.
      -13    1    3    3    0    0  0.21679014354E+02  0.86423715316E+02 -0.10263032313E+03  0.13591181501E+03  0.00000000000E+00 0.  1.
       14    1    3    3    0    0 -0.79428368902E+01 -0.16502205952E+02 -0.19190332111E+02  0.26526973173E+02  0.00000000000E+00 0. -1.
        3    1    4    4  502    0 -0.43019932437E+02 -0.40669164707E+02 -0.42580345941E+02  0.72923119827E+02  0.00000000000E+00 0. -1.
       -4    1    4    4    0  502  0.29283754974E+02 -0.29252344657E+02 -0.75590714492E+02  0.86181170163E+02  0.00000000000E+00 0.  1.
</event>
<event>
 8   1  0.2279600E-02  0.8372500E+02  0.7546771E-02  0.1319235E+00
       -1   -1    0    0    0  501 -0.00000000000E+00  0.00000000000E+00  0.36478512794E+01  0.36478512794E+01  0.00000000000E+00 0.  1.
        1   -1    0    0  501    0  0.00000000000E+00 -0.00000000000E+00 -0.22254567508E+04  0.22254567508E+04  0.00000000000E+00 0. -1.
       24    2    1    2    0    0  0.20200720356E+02  0.10208607753E+02 -0.68547793973E+03  0.69049396467E+03  0.79935127601E+02 0.  0.
      -24    2    1    2    0    0 -0.20200720356E+02 -0.10208607753E+02 -0.15363309598E+04  0.15386106374E+04  0.80607634498E+02 0.  0.
      -13    1    3    3    0    0 -0.88198711935E+01  0.40271121449E+02 -0.32651762129E+03  0.32910987582E+03  0.00000000000E+00 0.  1.
       14    1    3    3    0    0  0.29020591549E+02 -0.30062513695E+02 -0.35896031844E+03  0.36138408885E+03  0.00000000000E+00 0. -1.
        3    1    4    4  502    0  0.10895009561E+02 -0.24027753831E+02 -0.12479750906E+04  0.12482539248E+04  0.00000000000E+00 0. -1.
       -4    1    4    4    0  502 -0.31095729917E+02  0.13819146078E+02 -0.28835586919E+03  0.29035671254E+03  0.00000000000E+00 0.  1.
</event>
<event>
 8   1  0.2279600E-02  0.1011291E+03  0.7546771E-02  0.1278133E+00
       -1   -1    0    0    0  501 -0.00000000000E+00  0.00000000000E+00  0.48018070467E+01  0.48018070467E+01  0.00000000000E+00 0.  1.
        1   -1    0    0  501    0  0.00000000000E+00 -0.00000000000E+00 -0.21234015970E+04  0.21234015970E+04  0.00000000000E+00 0. -1.
       24    2    1    2    0    0 -0.53877666101E+02  0.27886302496E+02 -0.10847230716E+04  0.10893924675E+04  0.80444748070E+02 0.  0.
      -24    2    1    2    0    0  0.53877666101E+02 -0.27886302496E+02 -0.10338767184E+04  0.10388109366E+04  0.80911335977E+02 0.  0.
      -13    1    3    3    0    0  0.10916179216E+02  0.12814633955E+02 -0.54896975705E+02  0.57419994372E+02  0.00000000000E+00 0.  1.
       14    1    3    3    0    0 -0.64793845317E+02  0.15071668542E+02 -0.10298260959E+04  0.10319724731E+04  0.00000000000E+00 0. -1.
        3    1    4    4  502    0  0.87530478903E+01 -0.49984372096E+02 -0.49225314688E+03  0.49486181295E+03  0.00000000000E+00 0. -1.
       -4    1    4    4    0  502  0.45124618211E+02  0.22098069599E+02 -0.54162357155E+03  0.54394912364E+03  0.00000000000E+00 0.  1.
</event>
<event>
 8   1  0.2279600E-02  0.1038242E+03  0.7546771E-02  0.1285905E+00
        2   -1    0    0  501    0  0.00000000000E+00  0.00000000000E+00  0.23996188264E+04  0.23996188264E+04  0.00000000000E+00 0. -1.
       -2   -1    0    0    0  501 -0.00000000000E+00 -0.00000000000E+00 -0.36367504749E+01  0.36367504749E+01  0.00000000000E+00 0.  1.
      -24    2    1    2    0    0 -0.13757179802E+02  0.40355167046E+02  0.11458310944E+04  0.11505252541E+04  0.94666066314E+02 0.  0.
       24    2    1    2    0    0  0.13757179802E+02 -0.40355167046E+02  0.12501509816E+04  0.12527303227E+04  0.68102755338E+02 0.  0.
      -13    1    4    4    0    0  0.17210353417E+02  0.13978139171E+02  0.21286296496E+03  0.21401454739E+03  0.00000000000E+00 0.  1.
       14    1    4    4    0    0 -0.34531736150E+01 -0.54333306217E+02  0.10372880166E+04  0.10387157753E+04  0.00000000000E+00 0. -1.
        3    1    3    3  502    0  0.69952820989E+01 -0.12213468640E+02  0.79866069584E+03  0.79878470808E+03  0.00000000000E+00 0. -1.
       -4    1    3    3    0  502 -0.20752461901E+02  0.52568635686E+02  0.34717039853E+03  0.35174054607E+03  0.00000000000E+00 0.  1.
</event>
<event>
 8   1  0.2279600E-02  0.1054038E+03  0.7546771E-02  0.1269850E+00
        1   -1    0    0  501    0  0.00000000000E+00  0.00000000000E+00  0.12306606306E+04  0.12306606306E+04  0.00000000000E+00 0. -1.
       -1   -1    0    0    0  501 -0.00000000000E+00 -0.00000000000E+00 -0.20154751281E+02  0.20154751281E+02  0.00000000000E+00 0.  1.
       24    2    1    2    0    0  0.58982197642E+02 -0.27777697741E+02  0.14003022384E+03  0.17526669734E+03  0.82821805569E+02 0.  0.
      -24    2    1    2    0    0 -0.58982197642E+02  0.27777697741E+02  0.10704756555E+04  0.10755486845E+04  0.81463757034E+02 0.  0.
      -13    1    3    3    0    0  0.75928463412E+02 -0.10109976520E+02  0.81620741407E+02  0.11193430488E+03  0.00000000000E+00 0.  1.
       14    1    3    3    0    0 -0.16946265770E+02 -0.17667721221E+02  0.58409482431E+02  0.63332392458E+02  0.00000000000E+00 0. -1.
        1    1    4    4  502    0 -0.58068974925E+02 -0.38704055619E+01  0.91680377139E+03  0.91864908487E+03  0.00000000000E+00 0. -1.
       -2    1    4    4    0  502 -0.91322271655E+00  0.31648103303E+02  0.15367188407E+03  0.15689959966E+03  0.00000000000E+00 0.  1.
</event>
<event>
 8   1  0.2279600E-02  0.9674965E+02  0.7546771E-02  0.1288112E+00
       -2   -1    0    0    0  501 -0.00000000000E+00  0.00000000000E+00  0.28475625421E+02  0.28475625421E+02  0.00000000000E+00 0.  1.
        2   -1    0    0  501    0  0.00000000000E+00 -0.00000000000E+00 -0.49937065721E+03  0.49937065721E+03  0.00000000000E+00 0. -1.
      -24    2    1    2    0    0  0.11922420139E+02  0.50844493367E+02 -0.80084598287E+02  0.12559473921E+03  0.81444392231E+02 0.  0.
       24    2    1    2    0    0 -0.11922420139E+02 -0.50844493367E+02 -0.39081043350E+03  0.40225154343E+03  0.79663056972E+02 0.  0.
      -13    1    4    4    0    0 -0.26281634131E+02  0.13105049432E+02 -0.13729649970E+03  0.14040226296E+03  0.00000000000E+00 0.  1.
       14    1    4    4    0    0  0.14359213991E+02 -0.63949542799E+02 -0.25351393380E+03  0.26184928047E+03  0.00000000000E+00 0. -1.
        1    1    3    3  502    0 -0.22651727863E+02  0.88275983321E-01  0.23778375178E+01  0.22776362288E+02  0.00000000000E+00 0. -1.
       -2    1    3    3    0  502  0.34574148002E+02  0.50756217384E+02 -0.82462435805E+02  0.10281837692E+03  0.00000000000E+00 0.  1.
</event>
<event>
 8   1  0.2279600E-02  0.1753478E+03  0.7546771E-02  0.1172414E+00
        1   -1    0    0  501    0  0.00000000000E+00  0.00000000000E+00  0.22576036479E+04  0.22576036479E+04  0.00000000000E+00 0. -1.
       -1   -1    0    0    0  501 -0.00000000000E+00 -0.00000000000E+00 -0.19173828435E+02  0.19173828435E+02  0.00000000000E+00 0.  1.
       24    2    1    2    0    0  0.15098526809E+03 -0.40106291844E+02  0.50567075120E+03  0.53516877881E+03  0.79357717700E+02 0.  0.
      -24    2    1    2    0    0 -0.15098526809E+03  0.40106291844E+02  0.17327590682E+04  0.17416086975E+04  0.79635424541E+02 0.  0.
      -13    1    3    3    0    0  0.13635710198E+03 -0.60432055425E+02  0.41039891226E+03  0.43666069181E+03  0.00000000000E+00 0.  1.
       14    1    3    3    0    0  0.14628166117E+02  0.20325763581E+02  0.95271838939E+02  0.98508086997E+02  0.00000000000E+00 0. -1.
        1    1    4    4  502    0 -0.82889954317E+02  0.59751187807E+01  0.12614185603E+04  0.12641531675E+04  0.00000000000E+00 0. -1.
       -2    1    4    4    0  502 -0.68095313776E+02  0.34131173063E+02  0.47134050794E+03  0.47745553003E+03  0.00000000000E+00 0.  1.
</event>
<event>
 8   1  0.2279600E-02  0.1055430E+03  0.7546771E-02  0.1269094E+00
       -2   -1    0    0    0  501 -0.00000000000E+00  0.00000000000E+00  0.58332009771E+01  0.58332009771E+01  0.00000000000E+00 0.  1.
        2   -1    0    0  501    0  0.00000000000E+00 -0.00000000000E+00 -0.31828218454E+04  0.31828218454E+04  0.00000000000E+00 0. -1.
      -24    2    1    2    0    0  0.45717240306E+02 -0.50741168367E+02 -0.57991182861E+03  0.58943791098E+03  0.80464835243E+02 0.  0.
       24    2    1    2    0    0 -0.45717240306E+02  0.50741168367E+02 -0.25970768158E+04  0.25992171354E+04  0.80355444610E+02 0.  0.
      -13    1    4    4    0    0  0.15105346933E+02 -0.10185814600E+02 -0.61850337201E+03  0.61877164084E+03  0.00000000000E+00 0.  1.
       14    1    4    4    0    0 -0.60822587239E+02  0.60926982968E+02 -0.19785734438E+04  0.19804454946E+04  0.00000000000E+00 0. -1.
        3    1    3    3  502    0 -0.15174278556E+02 -0.53140905560E+01 -0.26518662367E+03  0.26567356598E+03  0.00000000000E+00 0. -1.
       -4    1    3    3    0  502  0.60891518862E+02 -0.45427077811E+02 -0.31472520494E+03  0.32376434500E+03  0.00000000000E+00 0.  1.
</event>
<event>
 8   1  0.2279600E-02  0.1140790E+03  0.7546771E-02  0.1253402E+00
       -2   -1    0    0    0  501 -0.00000000000E+00  0.00000000000E+00  0.51958405261E+02  0.51958405261E+02  0.00000000000E+00 0.  1.
        2   -1    0    0  501    0  0.00000000000E+00 -0.00000000000E+00 -0.35414483555E+03  0.35414483555E+03  0.00000000000E+00 0. -1.
       24    2    1    2    0    0 -0.53656535750E+02  0.60303339944E+02 -0.26170779100E+03  0.28549077764E+03  0.80613271927E+02 0.  0.
      -24    2    1    2    0    0  0.53656535750E+02 -0.60303339944E+02 -0.40478639290E+02  0.12061246317E+03  0.79958297857E+02 0.  0.
      -13    1    3    3    0    0 -0.13790423987E+02  0.13458590514E+02 -0.29156923293E+01  0.19488733005E+02  0.00000000000E+00 0.  1.
       14    1    3    3    0    0 -0.39866111762E+02  0.46844749430E+02 -0.25879209867E+03  0.26600204463E+03  0.00000000000E+00 0. -1.
        3    1    4    4  502    0  0.42577200605E+02 -0.16795370895E+02 -0.56706326506E+02  0.72873245850E+02  0.00000000000E+00 0. -1.
       -4    1    4    4    0  502  0.11079335145E+02 -0.43507969049E+02  0.16227687217E+02  0.47739217321E+02  0.00000000000E+00 0.  1.
</event>
<event>
 8   1  0.2279600E-02  0.8206994E+02  0.7546771E-02  0.1324812E+00
       -2   -1    0    0    0  501 -0.00000000000E+00  0.00000000000E+00  0.28050558356E+01  0.28050558356E+01  0.00000000000E+00 0.  1.
        2   -1    0    0  501    0  0.00000000000E+00 -0.00000000000E+00 -0.29703771752E+04  0.29703771752E+04  0.00000000000E+00 0. -1.
      -24    2    1    2    0    0  0.15397377082E+02  0.12195402352E+02 -0.81332279611E+03  0.81745302321E+03  0.79684800412E+02 0.  0.
       24    2    1    2    0    0 -0.15397377082E+02 -0.12195402352E+02 -0.21542493233E+04  0.21557292078E+04  0.77411004960E+02 0.  0.
      -13    1    4    4    0    0 -0.35714411875E+02 -0.13128439877E+01 -0.48278239478E+03  0.48410338099E+03  0.00000000000E+00 0.  1.
       14    1    4    4    0    0  0.20317034793E+02 -0.10882558365E+02 -0.16714669285E+04  0.16716258269E+04  0.00000000000E+00 0. -1.
        1    1    3    3  502    0  0.34800095325E+01 -0.30939488286E+02 -0.49777507111E+03  0.49874781586E+03  0.00000000000E+00 0. -1.
       -2    1    3    3    0  502  0.11917367550E+02  0.43134890639E+02 -0.31554772500E+03  0.31870520735E+03  0.00000000000E+00 0.  1.
</event>
<event>
 8   1  0.2279600E-02  0.9404258E+02  0.7546771E-02  0.1293361E+00
        2   -1    0    0  501    0  0.00000000000E+00  0.00000000000E+00  0.21731236352E+04  0.21731236352E+04  0.00000000000E+00 0. -1.
       -2   -1    0    0    0  501 -0.00000000000E+00 -0.00000000000E+00 -0.65068872667E+01  0.65068872667E+01  0.00000000000E+00 0.  1.
       24    2    1    2    0    0 -0.44766307479E+02 -0.18640233892E+02  0.17503396530E+04  0.17528628733E+04  0.80547322896E+02 0.  0.
      -24    2    1    2    0    0  0.44766307479E+02  0.18640233892E+02  0.41627709494E+03  0.42676764914E+03  0.80576212245E+02 0.  0.
      -13    1    3    3    0    0 -0.30985874378E+02  0.22371056774E+02  0.39784571154E+03  0.39967711816E+03  0.00000000000E+00 0.  1.
       14    1    3    3    0    0 -0.13780433101E+02 -0.41011290666E+02  0.13524939414E+04  0.13531857551E+04  0.00000000000E+00 0. -1.
        3    1    4    4  502    0  0.25081402013E+02  0.36684071271E+02  0.37488274691E+03  0.37750744594E+03  0.00000000000E+00 0. -1.
       -4    1    4    4    0  502  0.19684905465E+02 -0.18043837379E+02  0.41394348027E+02  0.49260203198E+02  0.00000000000E+00 0.  1.
</event>
<event>
 8   1  0.2279600E-02  0.8267221E+02  0.7546771E-02  0.1322501E+00
       -4   -1    0    0    0  501 -0.00000000000E+00  0.00000000000E+00  0.77013997120E+03  0.77013997120E+03  0.00000000000E+00 0.  1.
        4   -1    0    0  501    0  0.00000000000E+00 -0.00000000000E+00 -0.66799725901E+02  0.66799725901E+02  0.00000000000E+00 0. -1.
      -24    2    1    2    0    0  0.61448818577E+01 -0.11478352452E+02  0.74145066484E+03  0.74590619354E+03  0.80358254270E+02 0.  0.
       24    2    1    2    0    0 -0.61448818577E+01  0.11478352452E+02 -0.38110419538E+02  0.91033503560E+02  0.81640569235E+02 0.  0.
      -13    1    4    4    0    0  0.20191740428E+02 -0.64736777830E+01  0.17128915828E+02  0.27258294940E+02  0.00000000000E+00 0.  1.
       14    1    4    4    0    0 -0.26336622286E+02  0.17952030235E+02 -0.55239335366E+02  0.63775208621E+02  0.00000000000E+00 0. -1.
        1    1    3    3  502    0 -0.17531617688E+02  0.27394092347E+02  0.20921654976E+03  0.21172944672E+03  0.00000000000E+00 0. -1.
       -2    1    3    3    0  502  0.23676499546E+02 -0.38872444798E+02  0.53223411508E+03  0.53417674683E+03  0.00000000000E+00 0.  1.
</event>
<event>
 8   1  0.2279600E-02  0.1340671E+03  0.7546771E-02  0.1222260E+00
        1   -1    0    0  501    0  0.00000000000E+00  0.00000000000E+00  0.49221500699E+03  0.49221500699E+03  0.00000000000E+00 0. -1.
       -1   -1    0    0    0  501 -0.00000000000E+00 -0.00000000000E+00 -0.88649793511E+02  0.88649793511E+02  0.00000000000E+00 0.  1.
       24    2    1    2    0    0  0.64987203636E+02 -0.85027707288E+02 -0.21477138835E+02  0.13577646998E+03  0.80752304395E+02 0.  0.
      -24    2    1    2    0    0 -0.64987203636E+02  0.85027707288E+02  0.42504235231E+03  0.44508833051E+03  0.77392332054E+02 0.  0.
      -13    1    3    3    0    0  0.66665625576E+02 -0.98285245934E+02 -0.11942706594E+02  0.11936047689E+03  0.00000000000E+00 0.  1.
       14    1    3    3    0    0 -0.16784219404E+01  0.13257538646E+02 -0.95344322407E+01  0.16415993095E+02  0.00000000000E+00 0. -1.
        3    1    4    4  502    0 -0.61666281479E+02  0.98249114257E+02  0.34729566746E+03  0.36615556716E+03  0.00000000000E+00 0. -1.
       -4    1    4    4    0  502 -0.33209221565E+01 -0.13221406969E+02  0.77746684849E+02  0.78932763357E+02  0.00000000000E+00 0.  1.
</event>
<event>
 8   1  0.2279600E-02  0.1173180E+03  0.7546771E-02  0.1248285E+00
        2   -1    0    0  501    0  0.00000000000E+00  0.00000000000E+00  0.10725207869E+03  0.10725207869E+03  0.00000000000E+00 0. -1.
       -2   -1    0    0    0  501 -0.00000000000E+00 -0.00000000000E+00 -0.17091323757E+03  0.17091323757E+03  0.00000000000E+00 0.  1.
       24    2    1    2    0    0 -0.82139160267E+02 -0.27413581621E+02  0.38859707592E+02  0.12358639823E+03  0.79152857480E+02 0.  0.
      -24    2    1    2    0    0  0.82139160267E+02  0.27413581621E+02 -0.10252086647E+03  0.15457891803E+03  0.76718757351E+02 0.  0.
      -13    1    3    3    0    0 -0.33468453129E+02  0.25906713182E+02  0.27580635353E+02  0.50517191026E+02  0.00000000000E+00 0.  1.
       14    1    3    3    0    0 -0.48670707138E+02 -0.53320294802E+02  0.11279072240E+02  0.73069207206E+02  0.00000000000E+00 0. -1.
        1    1    4    4  502    0  0.81930383156E+02  0.18673313991E+01 -0.49543350985E+02  0.95763344958E+02  0.00000000000E+00 0. -1.
       -2    1    4    4    0  502  0.20877711085E+00  0.25546250221E+02 -0.52977515487E+02  0.58815573069E+02  0.00000000000E+00 0.  1.
</event>
<event>
 8   1  0.2279600E-02  0.1041121E+03  0.7546771E-02  0.1274511E+00
       -2   -1    0    0    0  501 -0.00000000000E+00  0.00000000000E+00  0.38898048039E+02  0.38898048039E+02  0.00000000000E+00 0.  1.
        2   -1    0    0  501    0  0.00000000000E+00 -0.00000000000E+00 -0.58895918137E+03  0.58895918137E+03  0.00000000000E+00 0. -1.
      -24    2    1    2    0    0 -0.62194293869E+02 -0.20422028565E+02 -0.45395372648E+02  0.11357850801E+03  0.80957693792E+02 0.  0.
       24    2    1    2    0    0  0.62194293869E+02  0.20422028565E+02 -0.50466576069E+03  0.51427872140E+03  0.74228591754E+02 0.  0.
      -13    1    4    4    0    0 -0.29360828690E+01  0.22122907976E+02 -0.47354982411E+02  0.52350148033E+02  0.00000000000E+00 0.  1.
       14    1    4    4    0    0  0.65130376738E+02 -0.17008794118E+01 -0.45731077827E+03  0.46192857336E+03  0.00000000000E+00 0. -1.
        1    1    3    3  502    0 -0.64509765371E+01  0.25766396838E+02 -0.29051585867E+02  0.39363904096E+02  0.00000000000E+00 0. -1.
       -2    1    3    3    0  502 -0.55743317331E+02 -0.46188425402E+02 -0.16343786781E+02  0.74214603917E+02  0.00000000000E+00 0.  1.
</event>
<event>
 8   1  0.2279600E-02  0.8259324E+02  0.7546771E-02  0.1323761E+00
        2   -1    0    0  501    0  0.00000000000E+00  0.00000000000E+00  0.97674965176E+03  0.97674965176E+03  0.00000000000E+00 0. -1.
       -2   -1    0    0    0  501 -0.00000000000E+00 -0.00000000000E+00 -0.67635647578E+01  0.67635647578E+01  0.00000000000E+00 0.  1.
      -24    2    1    2    0    0  0.13923365866E+02 -0.43515865481E+01  0.47324900251E+03  0.48040218706E+03  0.81294812469E+02 0.  0.
       24    2    1    2    0    0 -0.13923365866E+02  0.43515865481E+01  0.49673708449E+03  0.50311102946E+03  0.78486816906E+02 0.  0.
      -13    1    4    4    0    0 -0.16466661110E+02 -0.23612576708E+02  0.73393599293E+02  0.78837333314E+02  0.00000000000E+00 0.  1.
       14    1    4    4    0    0  0.25432952442E+01  0.27964163256E+02  0.42334348520E+03  0.42427369614E+03  0.00000000000E+00 0. -1.
        1    1    3    3  502    0 -0.12737967154E+02 -0.23719111059E+01  0.42534988705E+03  0.42554718678E+03  0.00000000000E+00 0. -1.
       -2    1    3    3    0  502  0.26661333020E+02 -0.19796754422E+01  0.47899115465E+02  0.54855000279E+02  0.00000000000E+00 0.  1.
</event>
<event>
 8   1  0.2279600E-02  0.8364866E+02  0.7546771E-02  0.1320860E+00
        2   -1    0    0  501    0  0.00000000000E+00  0.00000000000E+00  0.66887864110E+03  0.66887864110E+03  0.00000000000E+00 0. -1.
       -2   -1    0    0    0  501 -0.00000000000E+00 -0.00000000000E+00 -0.41537187322E+03  0.41537187322E+03  0.00000000000E+00 0.  1.
       24    2    1    2    0    0  0.16012557557E+02 -0.17192659316E+02  0.66217912241E+03  0.66710522506E+03  0.77435144542E+02 0.  0.
      -24    2    1    2    0    0 -0.16012557557E+02  0.17192659316E+02 -0.40867235454E+03  0.41714528926E+03  0.80281439044E+02 0.  0.
      -13    1    3    3    0    0 -0.31411371085E+02 -0.50516088809E+01  0.24109397596E+03  0.24318408301E+03  0.00000000000E+00 0.  1.
       14    1    3    3    0    0  0.47423928643E+02 -0.12141050435E+02  0.42108514645E+03  0.42392114205E+03  0.00000000000E+00 0. -1.
        1    1    4    4  502    0 -0.22287109917E+02 -0.22372759153E+02 -0.29371790206E+03  0.29541066604E+03  0.00000000000E+00 0. -1.
       -2    1    4    4    0  502  0.62745523596E+01  0.39565418468E+02 -0.11495445248E+03  0.12173462322E+03  0.00000000000E+00 0.  1.
</event>
<event>
 8   1  0.2279600E-02  0.8085203E+02  0.7546771E-02  0.1327520E+00
        4   -1    0    0  501    0  0.00000000000E+00  0.00000000000E+00  0.82799900325E+02  0.82799900325E+02  0.00000000000E+00 0. -1.
       -4   -1    0    0    0  501 -0.00000000000E+00 -0.00000000000E+00 -0.63863750304E+03  0.63863750304E+03  0.00000000000E+00 0.  1.
      -24    2    1    2    0    0 -0.82792389581E+01 -0.37098136243E+00 -0.61622615910E+03  0.62150762708E+03  0.80426164469E+02 0.  0.
       24    2    1    2    0    0  0.82792389581E+01  0.37098136243E+00  0.60388556383E+02  0.99929776291E+02  0.79186482575E+02 0.  0.
      -13    1    4    4    0    0 -0.18632212410E+02  0.14013564312E+02 -0.84271586560E+01  0.24790246611E+02  0.00000000000E+00 0.  1.
       14    1    4    4    0    0  0.26911451368E+02 -0.13642582949E+02  0.68815715039E+02  0.75139529680E+02  0.00000000000E+00 0. -1.
        1    1    3    3  502    0 -0.41913594311E+02 -0.41266315734E+01 -0.23183325574E+03  0.23562775080E+03  0.00000000000E+00 0. -1.
       -2    1    3    3    0  502  0.33634355353E+02  0.37556502110E+01 -0.38439290336E+03  0.38587987628E+03  0.00000000000E+00 0.  1.
</event>
<event>
 8   1  0.2279600E-02  0.9208770E+02  0.7546771E-02  0.1301259E+00
        2   -1    0    0  501    0  0.00000000000E+00  0.00000000000E+00  0.25943458795E+04  0.25943458795E+04  0.00000000000E+00 0. -1.
       -2   -1    0    0    0  501 -0.00000000000E+00 -0.00000000000E+00 -0.32822070810E+01  0.32822070810E+01  0.00000000000E+00 0.  1.
      -24    2    1    2    0    0  0.39926774502E+02  0.16098982107E+01  0.93052679099E+03  0.93453973056E+03  0.76731089870E+02 0.  0.
       24    2    1    2    0    0 -0.39926774502E+02 -0.16098982107E+01  0.16605368815E+04  0.16630883560E+04  0.82966295860E+02 0.  0.
      -13    1    4    4    0    0  0.23096837617E+02 -0.14493565179E+01  0.22938105346E+03  0.23054551010E+03  0.00000000000E+00 0.  1.
       14    1    4    4    0    0 -0.63023612119E+02 -0.16054169276E+00  0.14311558280E+04  0.14325428459E+04  0.00000000000E+00 0. -1.
        1    1    3    3  502    0 -0.20171246762E+02 -0.97557096237E+01  0.37194798698E+03  0.37262227266E+03  0.00000000000E+00 0. -1.
       -2    1    3    3    0  502  0.60098021264E+02  0.11365607834E+02  0.55857880401E+03  0.56191745790E+03  0.00000000000E+00 0.  1.
</event>
<event>
 8   1  0.2279600E-02  0.8500529E+02  0.7546771E-02  0.1316513E+00
        2   -1    0    0  501    0  0.00000000000E+00  0.00000000000E+00  0.13419703273E+04  0.13419703273E+04  0.00000000000E+00 0. -1.
       -2   -1    0    0    0  501 -0.00000000000E+00 -0.00000000000E+00 -0.98422878466E+01  0.98422878466E+01  0.00000000000E+00 0.  1.
       24    2    1    2    0    0  0.19629461897E+02  0.75225750853E+00  0.11297440559E+04  0.11329375675E+04  0.82704402603E+02 0.  0.
      -24    2    1    2    0    0 -0.19629461897E+02 -0.75225750853E+00  0.20238398348E+03  0.21887504763E+03  0.81000790376E+02 0.  0.
      -13    1    3    3    0    0  0.45157607175E+02 -0.20908926515E+02  0.55821647165E+03  0.56043021146E+03  0.00000000000E+00 0.  1.
       14    1    3    3    0    0 -0.25528145278E+02  0.21661184024E+02  0.57152758429E+03  0.57250735603E+03  0.00000000000E+00 0. -1.
        1    1    4    4  502    0 -0.35183034781E+02  0.23996049713E+02  0.60341969281E+02  0.73856682805E+02  0.00000000000E+00 0. -1.
       -2    1    4    4    0  502  0.15553572884E+02 -0.24748307222E+02  0.14204201420E+03  0.14501836483E+03  0.00000000000E+00 0.  1.
</event>
<event>
 8   1  0.2279600E-02  0.1128669E+03  0.7546771E-02  0.1257907E+00
       -2   -1    0    0    0  501 -0.00000000000E+00  0.00000000000E+00  0.99734714643E+03  0.99734714643E+03  0.00000000000E+00 0.  1.
        2   -1    0    0  501    0  0.00000000000E+00 -0.00000000000E+00 -0.75325849638E+02  0.75325849638E+02  0.00000000000E+00 0. -1.
      -24    2    1    2    0    0  0.64331497030E+00 -0.79980370226E+02  0.95403811293E+03  0.96069124131E+03  0.79634582438E+02 0.  0.
       24    2    1    2    0    0 -0.64331497030E+00  0.79980370226E+02 -0.32016816144E+02  0.11198175476E+03  0.71537147041E+02 0.  0.
      -13    1    4    4    0    0  0.25338646424E+02  0.27263426601E+02  0.11383464792E+02  0.38922033648E+02  0.00000000000E+00 0.  1.
       14    1    4    4    0    0 -0.25981961395E+02  0.52716943626E+02 -0.43400280937E+02  0.73059721109E+02  0.00000000000E+00 0. -1.
        1    1    3    3  502    0 -0.82571931043E+01  0.15144095665E+02  0.15922476812E+03  0.16015633505E+03  0.00000000000E+00 0. -1.
       -2    1    3    3    0  502  0.89005080746E+01 -0.95124465891E+02  0.79481334481E+03  0.80053490626E+03  0.00000000000E+00 0.  1.
</event>
<event>
 8   1  0.2279600E-02  0.1358071E+03  0.7546771E-02  0.1219834E+00
       -1   -1    0    0    0  501 -0.00000000000E+00  0.00000000000E+00  0.11257840795E+02  0.11257840795E+02  0.00000000000E+00 0.  1.
        1   -1    0    0  501    0  0.00000000000E+00 -0.00000000000E+00 -0.16272916462E+04  0.16272916462E+04  0.00000000000E+00 0. -1.
       24    2    1    2    0    0  0.64655560675E+02  0.85660919449E+02 -0.72440292520E+03  0.73663531026E+03  0.79711025842E+02 0.  0.
      -24    2    1    2    0    0 -0.64655560675E+02 -0.85660919449E+02 -0.89163088018E+03  0.90191417671E+03  0.83219114442E+02 0.  0.
      -13    1    3    3    0    0  0.67899601574E+02  0.29882923432E+02 -0.49490476300E+03  0.50043388119E+03  0.00000000000E+00 0.  1.
       14    1    3    3    0    0 -0.32440408994E+01  0.55777996018E+02 -0.22949816220E+03  0.23620142907E+03  0.00000000000E+00 0. -1.
        3    1    4    4  502    0 -0.32990613462E+01 -0.71934613023E+02 -0.52799333420E+03  0.53288125630E+03  0.00000000000E+00 0. -1.
       -4    1    4    4    0  502 -0.61356499329E+02 -0.13726306426E+02 -0.36363754598E+03  0.36903292041E+03  0.00000000000E+00 0.  1.
</event>
<event>
 8   1  0.2279600E-02  0.9640365E+02  0.7546771E-02  0.1294016E+00
        2   -1    0    0  501    0  0.00000000000E+00  0.00000000000E+00  0.71853485224E+03  0.71853485224E+03  0.00000000000E+00 0. -1.
       -2   -1    0    0    0  501 -0.00000000000E+00 -0.00000000000E+00 -0.19564151433E+02  0.19564151433E+02  0.00000000000E+00 0.  1.
       24    2    1    2    0    0 -0.52512068683E+02  0.10497036817E+02  0.57311402967E+03  0.57956331004E+03  0.67573916631E+02 0.  0.
      -24    2    1    2    0    0  0.52512068683E+02 -0.10497036817E+02  0.12585667114E+03  0.15853569363E+03  0.80162081715E+02 0.  0.
      -13    1    3    3    0    0  0.11719627906E+02  0.16419349923E+02  0.95042483660E+02  0.97159757258E+02  0.00000000000E+00 0.  1.
       14    1    3    3    0    0 -0.64231696589E+02 -0.59223131063E+01  0.47807154601E+03  0.48240355279E+03  0.00000000000E+00 0. -1.
        3    1    4    4  502    0  0.25498247828E+01 -0.35430281554E+02  0.75095885491E+02  0.83073452288E+02  0.00000000000E+00 0. -1.
       -4    1    4    4    0  502  0.49962243900E+02  0.24933244737E+02  0.50760785653E+02  0.75462241344E+02  0.00000000000E+00 0.  1.
</event>
<event>
 8   1  0.2279600E-02  0.8341624E+02  0.7546771E-02  0.1321101E+00
       -1   -1    0    0    0  501 -0.00000000000E+00  0.00000000000E+00  0.15412780338E+02  0.15412780338E+02  0.00000000000E+00 0.  1.
        1   -1    0    0  501    0  0.00000000000E+00 -0.00000000000E+00 -0.44221006657E+03  0.44221006657E+03  0.00000000000E+00 0. -1.
       24    2    1    2    0    0 -0.23203001826E+00 -0.12547168272E+02 -0.19934072409E+03  0.21609024492E+03  0.82466868502E+02 0.  0.
      -24    2    1    2    0    0  0.23203001826E+00  0.12547168272E+02 -0.22745656214E+03  0.24153260199E+03  0.80274683998E+02 0.  0.
      -13    1    3    3    0    0  0.54981309700E+01 -0.14359639237E+02  0.12338384612E+01  0.15425661754E+02  0.00000000000E+00 0.  1.
       14    1    3    3    0    0 -0.57301609883E+01  0.18124709649E+01 -0.20057456255E+03  0.20066458317E+03  0.00000000000E+00 0. -1.
        3    1    4    4  502    0 -0.38635999149E+02  0.12538117158E+02 -0.91117458511E+02  0.99761395628E+02  0.00000000000E+00 0. -1.
       -4    1    4    4    0  502  0.38868029167E+02  0.90511147272E-02 -0.13633910363E+03  0.14177120636E+03  0.00000000000E+00 0.  1.
</event>
<event>
 8   1  0.2279600E-02  0.1077796E+03  0.7546771E-02  0.1265562E+00
        2   -1    0    0  501    0  0.00000000000E+00  0.00000000000E+00  0.31650331537E+03  0.31650331537E+03  0.00000000000E+00 0. -1.
       -2   -1    0    0    0  501 -0.00000000000E+00 -0.00000000000E+00 -0.38851946212E+02  0.38851946212E+02  0.00000000000E+00 0.  1.
       24    2    1    2    0    0  0.68560215594E+02  0.10551131216E+02  0.18697799864E+03  0.21581754517E+03  0.82490067851E+02 0.  0.
      -24    2    1    2    0    0 -0.68560215594E+02 -0.10551131216E+02  0.90673370517E+02  0.13953771641E+03  0.80232690652E+02 0.  0.
      -13    1    3    3    0    0 -0.12806267674E+02  0.13676912179E+02  0.75365200909E+02  0.77659332514E+02  0.00000000000E+00 0.  1.
       14    1    3    3    0    0  0.81366483268E+02 -0.31257809630E+01  0.11161279773E+03  0.13815821265E+03  0.00000000000E+00 0. -1.
        1    1    4    4  502    0  0.62177590069E+01  0.19420717875E+02  0.32384451154E+01  0.20647332433E+02  0.00000000000E+00 0. -1.
       -2    1    4    4    0  502 -0.74777974600E+02 -0.29971849092E+02  0.87434925401E+02  0.11889038398E+03  0.00000000000E+00 0.  1.
</event>
<event>
 8   1  0.2279600E-02  0.8682995E+02  0.7546771E-02  0.1318589E+00
       -2   -1    0    0    0  501 -0.00000000000E+00  0.00000000000E+00  0.60588092163E+01  0.60588092163E+01  0.00000000000E+00 0.  1.
        2   -1    0    0  501    0  0.00000000000E+00 -0.00000000000E+00 -0.28483567920E+04  0.28483567920E+04  0.00000000000E+00 0. -1.
      -24    2    1    2    0    0  0.77888188250E+01 -0.71372497363E+01 -0.26100662205E+03  0.27166425243E+03  0.74601630424E+02 0.  0.
       24    2    1    2    0    0 -0.77888188250E+01  0.71372497363E+01 -0.25812913607E+04  0.25827513488E+04  0.86184886299E+02 0.  0.
      -13    1    4    4    0    0  0.30539122718E+02  0.26591189102E+02 -0.89977692851E+03  0.90068765421E+03  0.00000000000E+00 0.  1.
       14    1    4    4    0    0 -0.38327941543E+02 -0.19453939365E+02 -0.16815144322E+04  0.16820636946E+04  0.00000000000E+00 0. -1.
        1    1    3    3  502    0 -0.88214837658E+01  0.31630109338E+02 -0.10174572529E+03  0.10691339957E+03  0.00000000000E+00 0. -1.
       -2    1    3    3    0  502  0.16610302591E+02 -0.38767359074E+02 -0.15926089676E+03  0.16475085286E+03  0.00000000000E+00 0.  1.
</event>
<event>
 8   1  0.2279600E-02  0.1136844E+03  0.7546771E-02  0.1254065E+00
       -1   -1    0    0    0  501 -0.00000000000E+00  0.00000000000E+00  0.61435440844E+03  0.61435440844E+03  0.00000000000E+00 0.  1.
        1   -1    0    0  501    0  0.00000000000E+00 -0.00000000000E+00 -0.21981966387E+02  0.21981966387E+02  0.00000000000E+00 0. -1.
       24    2    1    2    0    0  0.33140936291E+02  0.72742744981E+02  0.36410078408E+03  0.38132248705E+03  0.80297132903E+02 0.  0.
      -24    2    1    2    0    0 -0.33140936291E+02 -0.72742744981E+02  0.22827165797E+03  0.25501388778E+03  0.80835045139E+02 0.  0.
      -13    1    3    3    0    0 -0.89119560691E+01  0.17961670100E+02  0.22628140811E+03  0.22716804399E+03  0.00000000000E+00 0.  1.
       14    1    3    3    0    0  0.42052892360E+02  0.54781074881E+02  0.13781937598E+03  0.15415444306E+03  0.00000000000E+00 0. -1.
        1    1    4    4  502    0 -0.10046258915E+01 -0.80430870825E+02  0.15469151782E+03  0.17435481049E+03  0.00000000000E+00 0. -1.
       -2    1    4    4    0  502 -0.32136310399E+02  0.76881258441E+01  0.73580140156E+02  0.80659077297E+02  0.00000000000E+00 0.  1.
</event>
<event>
 8   1  0.2279600E-02  0.8220494E+02  0.7546771E-02  0.1323936E+00
        3   -1    0    0  501    0  0.00000000000E+00  0.00000000000E+00  0.31477181800E+02  0.31477181800E+02  0.00000000000E+00 0. -1.
       -3   -1    0    0    0  501 -0.00000000000E+00 -0.00000000000E+00 -0.23648091410E+03  0.23648091410E+03  0.00000000000E+00 0.  1.
       24    2    1    2    0    0  0.11753374609E+02  0.11731944859E+02 -0.14747282467E+03  0.16883686207E+03  0.80510071622E+02 0.  0.
      -24    2    1    2    0    0 -0.11753374609E+02 -0.11731944859E+02 -0.57530907632E+02  0.99121233832E+02  0.78990083672E+02 0.  0.
      -13    1    3    3    0    0 -0.12964906145E+02  0.39324671634E+02 -0.10265033549E+03  0.11068699095E+03  0.00000000000E+00 0.  1.
       14    1    3    3    0    0  0.24718280755E+02 -0.27592726775E+02 -0.44822489179E+02  0.58149871114E+02  0.00000000000E+00 0. -1.
        3    1    4    4  502    0  0.85969969484E+01 -0.41063766098E+02 -0.17427434939E+02  0.45429689975E+02  0.00000000000E+00 0. -1.
       -4    1    4    4    0  502 -0.20350371558E+02  0.29331821239E+02 -0.40103472693E+02  0.53691543857E+02  0.00000000000E+00 0.  1.
</event>
<event>
 8   1  0.2279600E-02  0.8312560E+02  0.7546771E-02  0.1322266E+00
       -2   -1    0    0    0  501 -0.00000000000E+00  0.00000000000E+00  0.65974545857E+01  0.65974545857E+01  0.00000000000E+00 0.  1.
        2   -1    0    0  501    0  0.00000000000E+00 -0.00000000000E+00 -0.10136896103E+04  0.10136896103E+04  0.00000000000E+00 0. -1.
      -24    2    1    2    0    0  0.14522975752E+02 -0.10589078424E+02 -0.50500470915E+03  0.51180037285E+03  0.81159226059E+02 0.  0.
       24    2    1    2    0    0 -0.14522975752E+02  0.10589078424E+02 -0.50208744653E+03  0.50848669201E+03  0.78382820679E+02 0.  0.
      -13    1    4    4    0    0 -0.27711550249E+02  0.34316652246E+02 -0.41316619534E+03  0.41551398004E+03  0.00000000000E+00 0.  1.
       14    1    4    4    0    0  0.13188574498E+02 -0.23727573822E+02 -0.88921251195E+02  0.92972711969E+02  0.00000000000E+00 0. -1.
        1    1    3    3  502    0 -0.10672956441E+02 -0.28070594510E+02 -0.76256584317E+02  0.81956921166E+02  0.00000000000E+00 0. -1.
       -2    1    3    3    0  502  0.25195932193E+02  0.17481516086E+02 -0.42874812484E+03  0.42984345168E+03  0.00000000000E+00 0.  1.
</event>
<event>
 8   1  0.2279600E-02  0.7899824E+02  0.7546771E-02  0.1336271E+00
       -1   -1    0    0    0  501 -0.00000000000E+00  0.00000000000E+00  0.37605733415E+02  0.37605733415E+02  0.00000000000E+00 0.  1.
        1   -1    0    0  501    0  0.00000000000E+00 -0.00000000000E+00 -0.15666101399E+03  0.15666101399E+03  0.00000000000E+00 0. -1.
       24    2    1    2    0    0  0.40799800177E+01  0.12777965482E+02 -0.44684131225E+02  0.85768865507E+02  0.71970160958E+02 0.  0.
      -24    2    1    2    0    0 -0.40799800177E+01 -0.12777965482E+02 -0.74371149346E+02  0.10849788189E+03  0.77851139243E+02 0.  0.
      -13    1    3    3    0    0 -0.64759155653E+01 -0.27447067017E+02 -0.31186808665E+02  0.42046355431E+02  0.00000000000E+00 0.  1.
       14    1    3    3    0    0  0.10555895583E+02  0.40225032499E+02 -0.13497322559E+02  0.43722510076E+02  0.00000000000E+00 0. -1.
        3    1    4    4  502    0  0.23702706729E+02  0.21041893401E+02 -0.15899189513E+02  0.35459326154E+02  0.00000000000E+00 0. -1.
       -4    1    4    4    0  502 -0.27782686746E+02 -0.33819858883E+02 -0.58471959833E+02  0.73038555738E+02  0.00000000000E+00 0.  1.
</event>
<event>
 8   1  0.2279600E-02  0.8772365E+02  0.7546771E-02  0.1309676E+00
        2   -1    0    0  501    0  0.00000000000E+00  0.00000000000E+00  0.11454716940E+04  0.11454716940E+04  0.00000000000E+00 0. -1.
       -2   -1    0    0    0  501 -0.00000000000E+00 -0.00000000000E+00 -0.67427166130E+01  0.67427166130E+01  0.00000000000E+00 0.  1.
       24    2    1    2    0    0 -0.28696789325E+02  0.15592771029E+02  0.65486937032E+03  0.66046695632E+03  0.79347766079E+02 0.  0.
      -24    2    1    2    0    0  0.28696789325E+02 -0.15592771029E+02  0.48385960710E+03  0.49174745432E+03  0.81417438101E+02 0.  0.
      -13    1    3    3    0    0 -0.18976279691E+02  0.12258247585E+02  0.43546680439E+02  0.49057896429E+02  0.00000000000E+00 0.  1.
       14    1    3    3    0    0 -0.97205096343E+01  0.33345234433E+01  0.61132268988E+03  0.61140905989E+03  0.00000000000E+00 0. -1.
        3    1    4    4  502    0 -0.15747424922E+02 -0.10755121081E+02  0.35197921032E+03  0.35249541631E+03  0.00000000000E+00 0. -1.
       -4    1    4    4    0  502  0.44444214247E+02 -0.48376499476E+01  0.13188039678E+03  0.13925203802E+03  0.00000000000E+00 0.  1.
</event>
<event>
 8   1  0.2279600E-02  0.8815531E+02  0.7546771E-02  0.1310653E+00
       -1   -1    0    0    0  501 -0.00000000000E+00  0.00000000000E+00  0.58485895978E+02  0.58485895978E+02  0.00000000000E+00 0.  1.
        1   -1    0    0  501    0  0.00000000000E+00 -0.00000000000E+00 -0.26346366281E+03  0.26346366281E+03  0.00000000000E+00 0. -1.
       24    2    1    2    0    0  0.21995071350E+02  0.17065263212E+02  0.12603458611E+02  0.89051702119E+02  0.83644199495E+02 0.  0.
      -24    2    1    2    0    0 -0.21995071350E+02 -0.17065263212E+02 -0.21758122544E+03  0.23289785667E+03  0.78261201139E+02 0.  0.
      -13    1    3    3    0    0  0.52263812651E+02  0.14123660853E+00  0.32996026579E+00  0.52265045053E+02  0.00000000000E+00 0.  1.
       14    1    3    3    0    0 -0.30268741301E+02  0.16924026604E+02  0.12273498345E+02  0.36786657066E+02  0.00000000000E+00 0. -1.
        3    1    4    4  502    0 -0.32713560482E+02 -0.11365537893E+02 -0.21801685976E+03  0.22075031966E+03  0.00000000000E+00 0. -1.
       -4    1    4    4    0  502  0.10718489132E+02 -0.56997253195E+01  0.43563432121E+00  0.12147537004E+02  0.00000000000E+00 0.  1.
</event>
<event>
 8   1  0.2279600E-02  0.1527998E+03  0.7546771E-02  0.1197170E+00
        1   -1    0    0  501    0  0.00000000000E+00  0.00000000000E+00  0.10418586194E+03  0.10418586194E+03  0.00000000000E+00 0. -1.
       -1   -1    0    0    0  501 -0.00000000000E+00 -0.00000000000E+00 -0.25915625838E+03  0.25915625838E+03  0.00000000000E+00 0.  1.
       24    2    1    2    0    0  0.33172609230E+02 -0.12448213694E+03 -0.14481874741E+03  0.21052374330E+03  0.82167831135E+02 0.  0.
      -24    2    1    2    0    0 -0.33172609230E+02  0.12448213694E+03 -0.10151649040E+02  0.15281837702E+03  0.81573132557E+02 0.  0.
      -13    1    3    3    0    0  0.31740616867E+02 -0.10936834639E+03 -0.68899852474E+02  0.13310180924E+03  0.00000000000E+00 0.  1.
       14    1    3    3    0    0  0.14319923623E+01 -0.15113790554E+02 -0.75918894933E+02  0.77421934068E+02  0.00000000000E+00 0. -1.
        1    1    4    4  502    0 -0.24075598003E+02  0.94298669527E+02  0.29932861982E+02  0.10182263855E+03  0.00000000000E+00 0. -1.
       -2    1    4    4    0  502 -0.90970112265E+01  0.30183467416E+02 -0.40084511022E+02  0.50995738473E+02  0.00000000000E+00 0.  1.
</event>
<event>
 8   1  0.2279600E-02  0.1138680E+03  0.7546771E-02  0.1255815E+00
        1   -1    0    0  501    0  0.00000000000E+00  0.00000000000E+00  0.83936493895E+03  0.83936493895E+03  0.00000000000E+00 0. -1.
       -1   -1    0    0    0  501 -0.00000000000E+00 -0.00000000000E+00 -0.15319777606E+02  0.15319777606E+02  0.00000000000E+00 0.  1.
       24    2    1    2    0    0  0.65412743932E+01  0.77680619257E+02  0.50090634558E+03  0.51368579213E+03  0.82999151291E+02 0.  0.
      -24    2    1    2    0    0 -0.65412743932E+01 -0.77680619257E+02  0.32313881577E+03  0.34099892443E+03  0.76055935515E+02 0.  0.
      -13    1    3    3    0    0 -0.36844608750E+02  0.50934879107E+02  0.28309162488E+03  0.28998750866E+03  0.00000000000E+00 0.  1.
       14    1    3    3    0    0  0.43385883143E+02  0.26745740150E+02  0.21781472070E+03  0.22369828346E+03  0.00000000000E+00 0. -1.
        3    1    4    4  502    0  0.38348786616E+01 -0.91187903932E+02  0.25789983805E+03  0.27357314668E+03  0.00000000000E+00 0. -1.
       -4    1    4    4    0  502 -0.10376153055E+02  0.13507284675E+02  0.65238977714E+02  0.67425777746E+02  0.00000000000E+00 0.  1.
</event>
<event>
 8   1  0.2279600E-02  0.8431634E+02  0.7546771E-02  0.1318117E+00
        2   -1    0    0  501    0  0.00000000000E+00  0.00000000000E+00  0.22301586888E+04  0.22301586888E+04  0.00000000000E+00 0. -1.
       -2   -1    0    0    0  501 -0.00000000000E+00 -0.00000000000E+00 -0.34931388307E+01  0.34931388307E+01  0.00000000000E+00 0.  1.
      -24    2    1    2    0    0  0.64613919706E+01  0.19824217438E+02  0.76502538221E+03  0.76965776806E+03  0.81697584543E+02 0.  0.
       24    2    1    2    0    0 -0.64613919706E+01 -0.19824217438E+02  0.14616401678E+04  0.14639940596E+04  0.80323578603E+02 0.  0.
      -13    1    4    4    0    0 -0.66078067961E+01 -0.60646393990E+01  0.16432171851E+02  0.18720556440E+02  0.00000000000E+00 0.  1.
       14    1    4    4    0    0  0.14641482554E+00 -0.13759578039E+02  0.14452079959E+04  0.14452735032E+04  0.00000000000E+00 0. -1.
        1    1    3    3  502    0  0.65364556145E+01 -0.28475277660E+02  0.45040671016E+03  0.45135326657E+03  0.00000000000E+00 0. -1.
       -2    1    3    3    0  502 -0.75063643905E-01  0.48299495098E+02  0.31461867205E+03  0.31830450148E+03  0.00000000000E+00 0.  1.
</event>
<event>
 8   1  0.2279600E-02  0.8445599E+02  0.7546771E-02  0.1318552E+00
       -1   -1    0    0    0  501 -0.00000000000E+00  0.00000000000E+00  0.38493784115E+01  0.38493784115E+01  0.00000000000E+00 0.  1.
        1   -1    0    0  501    0  0.00000000000E+00 -0.00000000000E+00 -0.18358888904E+04  0.18358888904E+04  0.00000000000E+00 0. -1.
       24    2    1    2    0    0 -0.12618257689E+02  0.15698253530E+02 -0.79757389096E+03  0.80203299524E+03  0.82019255757E+02 0.  0.
      -24    2    1    2    0    0  0.12618257689E+02 -0.15698253530E+02 -0.10344656210E+04  0.10377052736E+04  0.79419507211E+02 0.  0.
      -13    1    3    3    0    0  0.15908224260E+01 -0.17613801825E+02 -0.41742546890E+02  0.45334500676E+02  0.00000000000E+00 0.  1.
       14    1    3    3    0    0 -0.14209080115E+02  0.33312055355E+02 -0.75583134407E+03  0.75669849456E+03  0.00000000000E+00 0. -1.
        3    1    4    4  502    0 -0.14643513514E+02 -0.40541521567E+02 -0.44351843710E+03  0.44560818160E+03  0.00000000000E+00 0. -1.
       -4    1    4    4    0  502  0.27261771203E+02  0.24843268037E+02 -0.59094718392E+03  0.59209709197E+03  0.00000000000E+00 0.  1.
</event>
<event>
 8   1  0.2279600E-02  0.9382075E+02  0.7546771E-02  0.1295234E+00
        2   -1    0    0  501    0  0.00000000000E+00  0.00000000000E+00  0.63431586727E+03  0.63431586727E+03  0.00000000000E+00 0. -1.
       -2   -1    0    0    0  501 -0.00000000000E+00 -0.00000000000E+00 -0.13640425495E+02  0.13640425495E+02  0.00000000000E+00 0.  1.
      -24    2    1    2    0    0 -0.25606559731E+02  0.39419904910E+02  0.28484077053E+03  0.29989431046E+03  0.81195492996E+02 0.  0.
       24    2    1    2    0    0  0.25606559731E+02 -0.39419904910E+02  0.33583467124E+03  0.34806198231E+03  0.78438461960E+02 0.  0.
      -13    1    4    4    0    0  0.57549273389E+01  0.12860566230E+02  0.95532632828E+01  0.17022872606E+02  0.00000000000E+00 0.  1.
       14    1    4    4    0    0  0.19851632392E+02 -0.52280471140E+02  0.32628140796E+03  0.33103910970E+03  0.00000000000E+00 0. -1.
        3    1    3    3  502    0 -0.35495519904E+02 -0.53039333111E+01  0.20263766903E+03  0.20579137142E+03  0.00000000000E+00 0. -1.
       -4    1    3    3    0  502  0.98889601726E+01  0.44723838221E+02  0.82203101504E+02  0.94102939037E+02  0.00000000000E+00 0.  1.
</event>
<event>
 8   1  0.2279600E-02  0.9235948E+02  0.7546771E-02  0.1299560E+00
       -1   -1    0    0    0  501 -0.00000000000E+00  0.00000000000E+00  0.39313760841E+01  0.39313760841E+01  0.00000000000E+00 0.  1.
        1   -1    0    0  501    0  0.00000000000E+00 -0.00000000000E+00 -0.21463904280E+04  0.21463904280E+04  0.00000000000E+00 0. -1.
       24    2    1    2    0    0 -0.84077839841E+01 -0.45055945522E+02 -0.90382326274E+03  0.90853000112E+03  0.80184434986E+02 0.  0.
      -24    2    1    2    0    0  0.84077839841E+01  0.45055945522E+02 -0.12386357892E+04  0.12417918029E+04  0.75680477090E+02 0.  0.
      -13    1    3    3    0    0 -0.41703754813E+02 -0.19141989784E+02 -0.60573644616E+03  0.60747202499E+03  0.00000000000E+00 0.  1.
       14    1    3    3    0    0  0.33295970829E+02 -0.25913955738E+02 -0.29808681658E+03  0.30105797614E+03  0.00000000000E+00 0. -1.
        3    1    4    4  502    0  0.63220592643E+01 -0.20872197975E+02 -0.38065270080E+03  0.38127692785E+03  0.00000000000E+00 0. -1.
       -4    1    4    4    0  502  0.20857247198E+01  0.65928143497E+02 -0.85798308836E+03  0.86051487510E+03  0.00000000000E+00 0.  1.
</event>
<event>
 8   1  0.2279600E-02  0.8238602E+02  0.7546771E-02  0.1322767E+00
       -2   -1    0    0    0  501 -0.00000000000E+00  0.00000000000E+00  0.12569300982E+02  0.12569300982E+02  0.00000000000E+00 0.  1.
        2   -1    0    0  501    0  0.00000000000E+00 -0.00000000000E+00 -0.13518725566E+04  0.13518725566E+04  0.00000000000E+00 0. -1.
      -24    2    1    2    0    0 -0.15843066568E+02  0.33363233806E+01 -0.14069969664E+03  0.16304557831E+03  0.80779466204E+02 0.  0.
       24    2    1    2    0    0  0.15843066568E+02 -0.33363233806E+01 -0.11986035590E+04  0.12013962793E+04  0.80252068142E+02 0.  0.
      -13    1    4    4    0    0  0.17362433865E+02 -0.10274593224E+02 -0.72075657530E+02  0.74845987094E+02  0.00000000000E+00 0.  1.
       14    1    4    4    0    0 -0.15193672972E+01  0.69382698439E+01 -0.11265279014E+04  0.11265502922E+04  0.00000000000E+00 0. -1.
        1    1    3    3  502    0 -0.51640491490E+01 -0.33386336593E+02 -0.10653693242E+03  0.11176507883E+03  0.00000000000E+00 0. -1.
       -2    1    3    3    0  502 -0.10679017419E+02  0.36722659973E+02 -0.34162764216E+02  0.51280499485E+02  0.00000000000E+00 0.  1.
</event>
<event>
 8   1  0.2279600E-02  0.8213102E+02  0.7546771E-02  0.1323289E+00
       -1   -1    0    0    0  501 -0.00000000000E+00  0.00000000000E+00  0.21792761740E+03  0.21792761740E+03  0.00000000000E+00 0.  1.
        1   -1    0    0  501    0  0.00000000000E+00 -0.00000000000E+00 -0.22328555035E+03  0.22328555035E+03  0.00000000000E+00 0. -1.
       24    2    1    2    0    0 -0.34515875823E+01 -0.18088168761E+02  0.20211934561E+03  0.21807122792E+03  0.79773023455E+02 0.  0.
      -24    2    1    2    0    0  0.34515875823E+01  0.18088168761E+02 -0.20747727856E+03  0.22314193984E+03  0.80040045530E+02 0.  0.
      -13    1    3    3    0    0 -0.87075585875E+01 -0.35153293301E+02  0.19581336642E+03  0.19913425138E+03  0.00000000000E+00 0.  1.
       14    1    3    3    0    0  0.52559710052E+01  0.17065124540E+02  0.63059791912E+01  0.18936976536E+02  0.00000000000E+00 0. -1.
        3    1    4    4  502    0 -0.29794809709E+02  0.19588885364E+02 -0.16688034436E+03  0.17064731011E+03  0.00000000000E+00 0. -1.
       -4    1    4    4    0  502  0.33246397291E+02 -0.15007166030E+01 -0.40596934206E+02  0.52494629727E+02  0.00000000000E+00 0.  1.
</event>
<event>
 8   1  0.2279600E-02  0.9657269E+02  0.7546771E-02  0.1287697E+00
        2   -1    0    0  501    0  0.00000000000E+00  0.00000000000E+00  0.17331414060E+03  0.17331414060E+03  0.00000000000E+00 0. -1.
       -2   -1    0    0    0  501 -0.00000000000E+00 -0.00000000000E+00 -0.16224396159E+03  0.16224396159E+03  0.00000000000E+00 0.  1.
      -24    2    1    2    0    0  0.33807912187E+01 -0.53593562845E+02 -0.13164261818E+03  0.16324087505E+03  0.80212870775E+02 0.  0.
       24    2    1    2    0    0 -0.33807912187E+01  0.53593562845E+02  0.14271279719E+03  0.17231722715E+03  0.80265712239E+02 0.  0.
      -13    1    4    4    0    0 -0.45797582130E+01 -0.20744607643E+02  0.42746959049E+02  0.47734845129E+02  0.00000000000E+00 0.  1.
       14    1    4    4    0    0  0.11989669944E+01  0.74338170488E+02  0.99965838142E+02  0.12458238202E+03  0.00000000000E+00 0. -1.
        1    1    3    3  502    0  0.13436260628E+02 -0.52659101907E+02 -0.31958440685E+02  0.63046459412E+02  0.00000000000E+00 0. -1.
       -2    1    3    3    0  502 -0.10055469409E+02 -0.93446093804E+00 -0.99684177492E+02  0.10019441564E+03  0.00000000000E+00 0.  1.
</event>
<event>
 8   1  0.2279600E-02  0.1114108E+03  0.7546771E-02  0.1261460E+00
        2   -1    0    0  501    0  0.00000000000E+00  0.00000000000E+00  0.32043036418E+03  0.32043036418E+03  0.00000000000E+00 0. -1.
       -2   -1    0    0    0  501 -0.00000000000E+00 -0.00000000000E+00 -0.36623063228E+02  0.36623063228E+02  0.00000000000E+00 0.  1.
      -24    2    1    2    0    0 -0.63347555402E+02 -0.40563300737E+02  0.15590182857E+03  0.18742977593E+03  0.71876606864E+02 0.  0.
       24    2    1    2    0    0  0.63347555402E+02  0.40563300737E+02  0.12790547238E+03  0.16962365147E+03  0.82183204676E+02 0.  0.
      -13    1    4    4    0    0  0.20461053791E+02  0.10371109459E+02 -0.77252451549E+01  0.24205248322E+02  0.00000000000E+00 0.  1.
       14    1    4    4    0    0  0.42886501611E+02  0.30192191278E+02  0.13563071754E+03  0.14541840315E+03  0.00000000000E+00 0. -1.
        1    1    3    3  502    0  0.74707215193E+01 -0.31819109651E+02  0.48676816264E+02  0.58631901390E+02  0.00000000000E+00 0. -1.
       -2    1    3    3    0  502 -0.70818276921E+02 -0.87441910857E+01  0.10722501230E+03  0.12879787454E+03  0.00000000000E+00 0.  1.
</event>
<event>
 8   1  0.2279600E-02  0.9602538E+02  0.7546771E-02  0.1292148E+00
        1   -1    0    0  501    0  0.00000000000E+00  0.00000000000E+00  0.18973883655E+04  0.18973883655E+04  0.00000000000E+00 0. -1.
       -1   -1    0    0    0  501 -0.00000000000E+00 -0.00000000000E+00 -0.53262999681E+01  0.53262999681E+01  0.00000000000E+00 0.  1.
       24    2    1    2    0    0 -0.42053803219E+02  0.45746609594E+01  0.61392951576E+03  0.62139385516E+03  0.86205701833E+02 0.  0.
      -24    2    1    2    0    0  0.42053803219E+02 -0.45746609594E+01  0.12781325498E+04  0.12813208103E+04  0.79817004699E+02 0.  0.
      -13    1    3    3    0    0 -0.23565857514E+02 -0.25036565899E+02  0.90655196521E+02  0.96956402206E+02  0.00000000000E+00 0.  1.
       14    1    3    3    0    0 -0.18487945705E+02  0.29611226859E+02  0.52327431923E+03  0.52443745296E+03  0.00000000000E+00 0. -1.
        1    1    4    4  502    0 -0.60392086246E+01 -0.16229696560E+02  0.67782265465E+02  0.69959349646E+02  0.00000000000E+00 0. -1.
       -2    1    4    4    0  502  0.48093011843E+02  0.11655035600E+02  0.12103502843E+04  0.12113614607E+04  0.00000000000E+00 0.  1.
</event>
<event>
 8   1  0.2279600E-02  0.8531149E+02  0.7546771E-02  0.1315292E+00
       -2   -1    0    0    0  501 -0.00000000000E+00  0.00000000000E+00  0.11769729608E+02  0.11769729608E+02  0.00000000000E+00 0.  1.
        2   -1    0    0  501    0  0.00000000000E+00 -0.00000000000E+00 -0.61442528391E+03  0.61442528391E+03  0.00000000000E+00 0. -1.
      -24    2    1    2    0    0  0.22519913732E+02 -0.96667636809E+01 -0.32666610262E+03  0.33762226326E+03  0.81715709713E+02 0.  0.
       24    2    1    2    0    0 -0.22519913732E+02  0.96667636809E+01 -0.27598945168E+03  0.28857275025E+03  0.80644044518E+02 0.  0.
      -13    1    4    4    0    0 -0.29606971327E+02 -0.30376579703E+02 -0.11655144792E+03  0.12403043723E+03  0.00000000000E+00 0.  1.
       14    1    4    4    0    0  0.70870575950E+01  0.40043343383E+02 -0.15943800376E+03  0.16454231303E+03  0.00000000000E+00 0. -1.
        1    1    3    3  502    0  0.52541553940E+02 -0.12645355743E+02 -0.23439790235E+03  0.24054707760E+03  0.00000000000E+00 0. -1.
       -2    1    3    3    0  502 -0.30021640208E+02  0.29785920617E+01 -0.92268200270E+02  0.97075185668E+02  0.00000000000E+00 0.  1.
</event>
<event>
 8   1  0.2279600E-02  0.9349445E+02  0.7546771E-02  0.1296610E+00
       -2   -1    0    0    0  501 -0.00000000000E+00  0.00000000000E+00  0.98814437004E+01  0.98814437004E+01  0.00000000000E+00 0.  1.
        2   -1    0    0  501    0  0.00000000000E+00 -0.00000000000E+00 -0.96551754272E+03  0.96551754272E+03  0.00000000000E+00 0. -1.
      -24    2    1    2    0    0  0.41831494053E+02  0.50803981469E+01 -0.30316710985E+03  0.31626546856E+03  0.79610713874E+02 0.  0.
       24    2    1    2    0    0 -0.41831494053E+02 -0.50803981469E+01 -0.65246898916E+03  0.65913351786E+03  0.83459740054E+02 0.  0.
      -13    1    4    4    0    0  0.10132326486E+02 -0.29128523789E+02 -0.34521168179E+03  0.34658655511E+03  0.00000000000E+00 0.  1.
       14    1    4    4    0    0 -0.51963820539E+02  0.24048125643E+02 -0.30725730737E+03  0.31254696275E+03  0.00000000000E+00 0. -1.
        3    1    3    3  502    0  0.46775435351E+02  0.33434900782E+02 -0.24092459781E+03  0.24769032233E+03  0.00000000000E+00 0. -1.
       -4    1    3    3    0  502 -0.49439412980E+01 -0.28354502635E+02 -0.62242512039E+02  0.68575146228E+02  0.00000000000E+00 0.  1.
</event>
<event>
 8   1  0.2279600E-02  0.8286931E+02  0.7546771E-02  0.1327697E+00
       -1   -1    0    0    0  501 -0.00000000000E+00  0.00000000000E+00  0.53387854402E+01  0.53387854402E+01  0.00000000000E+00 0.  1.
        1   -1    0    0  501    0  0.00000000000E+00 -0.00000000000E+00 -0.12754978985E+04  0.12754978985E+04  0.00000000000E+00 0. -1.
       24    2    1    2    0    0  0.18529959790E+02 -0.10434900852E+02 -0.39960012725E+03  0.40634238957E+03  0.70580658087E+02 0.  0.
      -24    2    1    2    0    0 -0.18529959790E+02  0.10434900852E+02 -0.87055898582E+03  0.87449429438E+03  0.80094173008E+02 0.  0.
      -13    1    3    3    0    0  0.26928383973E+02  0.23113819032E+02 -0.13905270331E+03  0.14350972368E+03  0.00000000000E+00 0.  1.
       14    1    3    3    0    0 -0.83984241829E+01 -0.33548719884E+02 -0.26054742395E+03  0.26283266589E+03  0.00000000000E+00 0. -1.
        1    1    4    4  502    0 -0.30107204179E+02  0.30785514593E+02 -0.77170644543E+03  0.77290686992E+03  0.00000000000E+00 0. -1.
       -2    1    4    4    0  502  0.11577244389E+02 -0.20350613741E+02 -0.98852540394E+02  0.10158742447E+03  0.00000000000E+00 0.  1.
</event>
<event>
 8   1  0.2279600E-02  0.8902738E+02  0.7546771E-02  0.1305559E+00
        2   -1    0    0  501    0  0.00000000000E+00  0.00000000000E+00  0.17470777438E+04  0.17470777438E+04  0.00000000000E+00 0. -1.
       -2   -1    0    0    0  501 -0.00000000000E+00 -0.00000000000E+00 -0.47734844361E+01  0.47734844361E+01  0.00000000000E+00 0.  1.
      -24    2    1    2    0    0 -0.29837686584E+02  0.20808979082E+02  0.66245214258E+03  0.66833543742E+03  0.80660489352E+02 0.  0.
       24    2    1    2    0    0  0.29837686584E+02 -0.20808979082E+02  0.10798521168E+04  0.10835157908E+04  0.81256222459E+02 0.  0.
      -13    1    4    4    0    0  0.18580398154E+02  0.81102342033E+01  0.62819454783E+02  0.66009779530E+02  0.00000000000E+00 0.  1.
       14    1    4    4    0    0  0.11257288430E+02 -0.28919213285E+02  0.10170326620E+04  0.10175060113E+04  0.00000000000E+00 0. -1.
        3    1    3    3  502    0 -0.34137128842E+02 -0.22746780171E+02  0.41689038263E+03  0.41890374874E+03  0.00000000000E+00 0. -1.
       -4    1    3    3    0  502  0.42994422582E+01  0.43555759253E+02  0.24556175995E+03  0.24943168868E+03  0.00000000000E+00 0.  1.
</event>
<event>
 8   1  0.2279600E-02  0.8677687E+02  0.7546771E-02  0.1311220E+00
        3   -1    0    0  501    0  0.00000000000E+00  0.00000000000E+00  0.22211326817E+02  0.22211326817E+02  0.00000000000E+00 0. -1.
       -3   -1    0    0    0  501 -0.00000000000E+00 -0.00000000000E+00 -0.34024765544E+03  0.34024765544E+03  0.00000000000E+00 0.  1.
       24    2    1    2    0    0 -0.28143541335E+02  0.17814713780E+02 -0.17787776292E+03  0.19791595084E+03  0.80129907713E+02 0.  0.
      -24    2    1    2    0    0  0.28143541335E+02 -0.17814713780E+02 -0.14015856571E+03  0.16454303142E+03  0.79501966655E+02 0.  0.
      -13    1    3    3    0    0 -0.14056444290E+02  0.32899648937E+02 -0.17306259789E+03  0.17672190955E+03  0.00000000000E+00 0.  1.
       14    1    3    3    0    0 -0.14087097045E+02 -0.15084935157E+02 -0.48151650247E+01  0.21194041287E+02  0.00000000000E+00 0. -1.
        3    1    4    4  502    0  0.22794917859E+02 -0.37547514265E+02 -0.31687388453E+02  0.54161930307E+02  0.00000000000E+00 0. -1.
       -4    1    4    4    0  502  0.53486234765E+01  0.19732800485E+02 -0.10847117725E+03  0.11038110111E+03  0.00000000000E+00 0.  1.
</event>
<event>
 8   1  0.2279600E-02  0.9866720E+02  0.7546771E-02  0.1283391E+00
       -2   -1    0    0    0  501 -0.00000000000E+00  0.00000000000E+00  0.24758636623E+01  0.24758636623E+01  0.00000000000E+00 0.  1.
        2   -1    0    0  501    0  0.00000000000E+00 -0.00000000000E+00 -0.40078898850E+04  0.40078898850E+04  0.00000000000E+00 0. -1.
       24    2    1    2    0    0 -0.22291044407E+02 -0.55035694689E+02 -0.23174033605E+04  0.23195028674E+04  0.78799735086E+02 0.  0.
      -24    2    1    2    0    0  0.22291044407E+02  0.55035694689E+02 -0.16880106609E+04  0.16908628813E+04  0.78175915683E+02 0.  0.
      -13    1    3    3    0    0 -0.33215217418E+02 -0.51186519541E+02 -0.90622436341E+03  0.90827633862E+03  0.00000000000E+00 0.  1.
       14    1    3    3    0    0  0.10924173011E+02 -0.38491751478E+01 -0.14111789971E+04  0.14112265287E+04  0.00000000000E+00 0. -1.
        1    1    4    4  502    0 -0.94698081160E+01 -0.16793916064E+02 -0.27936018994E+03  0.28002469285E+03  0.00000000000E+00 0. -1.
       -2    1    4    4    0  502  0.31760852523E+02  0.71829610753E+02 -0.14086504710E+04  0.14108381885E+04  0.00000000000E+00 0.  1.
</event>
<event>
 8   1  0.2279600E-02  0.8961474E+02  0.7546771E-02  0.1319995E+00
        2   -1    0    0  501    0  0.00000000000E+00  0.00000000000E+00  0.14315441239E+02  0.14315441239E+02  0.00000000000E+00 0. -1.
       -2   -1    0    0    0  501 -0.00000000000E+00 -0.00000000000E+00 -0.45048848310E+03  0.45048848310E+03  0.00000000000E+00 0.  1.
       24    2    1    2    0    0  0.13646216803E+01  0.40957080738E+02 -0.23998000026E+03  0.24911314669E+03  0.52797866201E+02 0.  0.
      -24    2    1    2    0    0 -0.13646216803E+01 -0.40957080738E+02 -0.19619304160E+03  0.21569077764E+03  0.79696030855E+02 0.  0.
      -13    1    3    3    0    0  0.25521207860E+02  0.32316763859E+02 -0.14718104259E+03  0.15283312657E+03  0.00000000000E+00 0.  1.
       14    1    3    3    0    0 -0.24156586180E+02  0.86403168790E+01 -0.92798957667E+02  0.96280020127E+02  0.00000000000E+00 0. -1.
        1    1    4    4  502    0 -0.73456029531E+01 -0.55291472649E+02 -0.74792721045E+02  0.93300889341E+02  0.00000000000E+00 0. -1.
       -2    1    4    4    0  502  0.59809812729E+01  0.14334391911E+02 -0.12140032055E+03  0.12238988830E+03  0.00000000000E+00 0.  1.
</event>
<event>
 8   1  0.2279600E-02  0.9454947E+02  0.7546771E-02  0.1292305E+00
       -2   -1    0    0    0  501 -0.00000000000E+00  0.00000000000E+00  0.77054658523E+01  0.77054658523E+01  0.00000000000E+00 0.  1.
        2   -1    0    0  501    0  0.00000000000E+00 -0.00000000000E+00 -0.17382899753E+04  0.17382899753E+04  0.00000000000E+00 0. -1.
       24    2    1    2    0    0  0.47545788702E+02  0.11781116093E+02 -0.13691980598E+04  0.13724452190E+04  0.80642143983E+02 0.  0.
      -24    2    1    2    0    0 -0.47545788702E+02 -0.11781116093E+02 -0.36138644961E+03  0.37355022215E+03  0.80871538783E+02 0.  0.
      -13    1    3    3    0    0 -0.14936640539E+02 -0.85052158048E+01 -0.94161998073E+02  0.95717938797E+02  0.00000000000E+00 0.  1.
       14    1    3    3    0    0  0.62482429241E+02  0.20286331898E+02 -0.12750360618E+04  0.12767272802E+04  0.00000000000E+00 0. -1.
        1    1    4    4  502    0  0.92944266738E+01  0.11018552489E+02 -0.20639732920E+03  0.20690010238E+03  0.00000000000E+00 0. -1.
       -2    1    4    4    0  502 -0.56840215376E+02 -0.22799668582E+02 -0.15498912041E+03  0.16665011977E+03  0.00000000000E+00 0.  1.
</event>
<event>
 8   1  0.2279600E-02  0.8177057E+02  0.7546771E-02  0.1327441E+00
       -2   -1    0    0    0  501 -0.00000000000E+00  0.00000000000E+00  0.12321448895E+03  0.12321448895E+03  0.00000000000E+00 0.  1.
        2   -1    0    0  501    0  0.00000000000E+00 -0.00000000000E+00 -0.34739191167E+03  0.34739191167E+03  0.00000000000E+00 0. -1.
      -24    2    1    2    0    0 -0.16070142138E+02  0.11887658902E+01  0.10468343636E+03  0.13283466325E+03  0.80167095983E+02 0.  0.
       24    2    1    2    0    0  0.16070142138E+02 -0.11887658902E+01 -0.32886085909E+03  0.33777173737E+03  0.75369883187E+02 0.  0.
      -13    1    4    4    0    0 -0.27197178469E+02 -0.85893916087E+01 -0.76962143446E+02  0.82077010720E+02  0.00000000000E+00 0.  1.
       14    1    4    4    0    0  0.43267320607E+02  0.74006257185E+01 -0.25189871564E+03  0.25569472665E+03  0.00000000000E+00 0. -1.
        1    1    3    3  502    0  0.28698679430E+02  0.64939358473E+01  0.16348820371E+02  0.33661095219E+02  0.00000000000E+00 0. -1.
       -2    1    3    3    0  502 -0.44768821568E+02 -0.53051699572E+01  0.88334615993E+02  0.99173568028E+02  0.00000000000E+00 0.  1.
</event>
<event>
 8   1  0.2279600E-02  0.8196142E+02  0.7546771E-02  0.1326137E+00
       -2   -1    0    0    0  501 -0.00000000000E+00  0.00000000000E+00  0.34043313832E+01  0.34043313832E+01  0.00000000000E+00 0.  1.
        2   -1    0    0  501    0  0.00000000000E+00 -0.00000000000E+00 -0.19945522081E+04  0.19945522081E+04  0.00000000000E+00 0. -1.
      -24    2    1    2    0    0  0.11433565503E+02 -0.94158617040E+01 -0.74184174616E+03  0.74596473381E+03  0.76907885679E+02 0.  0.
       24    2    1    2    0    0 -0.11433565503E+02  0.94158617040E+01 -0.12493061305E+04  0.12519918057E+04  0.80611963995E+02 0.  0.
      -13    1    4    4    0    0 -0.36817002511E+01  0.20886145531E+02 -0.85083784862E+02  0.87687150931E+02  0.00000000000E+00 0.  1.
       14    1    4    4    0    0 -0.77518652515E+01 -0.11470283827E+02 -0.11642223457E+04  0.11643046547E+04  0.00000000000E+00 0. -1.
        3    1    3    3  502    0 -0.21484365945E+01  0.30684512060E+02 -0.45220276116E+03  0.45324771623E+03  0.00000000000E+00 0. -1.
       -4    1    3    3    0  502  0.13582002097E+02 -0.40100373764E+02 -0.28963898499E+03  0.29271701759E+03  0.00000000000E+00 0.  1.
</event>
<event>
 8   1  0.2279600E-02  0.9280065E+02  0.7546771E-02  0.1299522E+00
        2   -1    0    0  501    0  0.00000000000E+00  0.00000000000E+00  0.17340351024E+04  0.17340351024E+04  0.00000000000E+00 0. -1.
       -2   -1    0    0    0  501 -0.00000000000E+00 -0.00000000000E+00 -0.61670293900E+01  0.61670293900E+01  0.00000000000E+00 0.  1.
       24    2    1    2    0    0  0.34726371252E+02 -0.29933481515E+01  0.12716171473E+04  0.12746091041E+04  0.80020733839E+02 0.  0.
      -24    2    1    2    0    0 -0.34726371252E+02  0.29933481515E+01  0.45625092563E+03  0.46559302765E+03  0.86006274582E+02 0.  0.
      -13    1    3    3    0    0  0.59822095718E+02 -0.67113053330E+00  0.10135852819E+04  0.10153493277E+04  0.00000000000E+00 0.  1.
       14    1    3    3    0    0 -0.25095724466E+02 -0.23222176182E+01  0.25803186546E+03  0.25925977643E+03  0.00000000000E+00 0. -1.
        3    1    4    4  502    0 -0.19184943360E+02  0.25511032062E+02  0.41417843980E+03  0.41540661382E+03  0.00000000000E+00 0. -1.
       -4    1    4    4    0  502 -0.15541427892E+02 -0.22517683911E+02  0.42072485826E+02  0.50186413831E+02  0.00000000000E+00 0.  1.
</event>
<event>
 8   1  0.2279600E-02  0.8377321E+02  0.7546771E-02  0.1319456E+00
       -1   -1    0    0    0  501 -0.00000000000E+00  0.00000000000E+00  0.13795950395E+02  0.13795950395E+02  0.00000000000E+00 0.  1.
        1   -1    0    0  501    0  0.00000000000E+00 -0.00000000000E+00 -0.55209020132E+03  0.55209020132E+03  0.00000000000E+00 0. -1.
       24    2    1    2    0    0  0.23447732993E+02  0.20090162825E+01 -0.18533035468E+03  0.20338458819E+03  0.80399738918E+02 0.  0.
      -24    2    1    2    0    0 -0.23447732993E+02 -0.20090162825E+01 -0.35296389624E+03  0.36250156352E+03  0.79183578966E+02 0.  0.
      -13    1    3    3    0    0  0.52806949480E+02  0.85414895814E+01 -0.12529296395E+03  0.13623456894E+03  0.00000000000E+00 0.  1.
       14    1    3    3    0    0 -0.29359216487E+02 -0.65324732990E+01 -0.60037390731E+02  0.67150019255E+02  0.00000000000E+00 0. -1.
        3    1    4    4  502    0 -0.28422854706E+02  0.31269099920E+02 -0.26450801917E+03  0.26786210536E+03  0.00000000000E+00 0. -1.
       -4    1    4    4    0  502  0.49751217135E+01 -0.33278116202E+02 -0.88455877069E+02  0.94639458167E+02  0.00000000000E+00 0.  1.
</event>
<event>
 8   1  0.2279600E-02  0.1190931E+03  0.7546771E-02  0.1244778E+00
        1   -1    0    0  501    0  0.00000000000E+00  0.00000000000E+00  0.29429842892E+03  0.29429842892E+03  0.00000000000E+00 0. -1.
       -1   -1    0    0    0  501 -0.00000000000E+00 -0.00000000000E+00 -0.11969863014E+03  0.11969863014E+03  0.00000000000E+00 0.  1.
       24    2    1    2    0    0 -0.29582260568E+02  0.82660489285E+02 -0.72818930223E+02  0.13959137963E+03  0.80469186884E+02 0.  0.
      -24    2    1    2    0    0  0.29582260568E+02 -0.82660489285E+02  0.24741872901E+03  0.27440567944E+03  0.79840984570E+02 0.  0.
      -13    1    3    3    0    0 -0.34991862283E+02  0.74814283692E+02 -0.18757350297E+02  0.84696196257E+02  0.00000000000E+00 0.  1.
       14    1    3    3    0    0  0.54096017146E+01  0.78462055930E+01 -0.54061579926E+02  0.54895183368E+02  0.00000000000E+00 0. -1.
        3    1    4    4  502    0  0.47276923333E+02 -0.62040322186E+02  0.22809606203E+03  0.24106414617E+03  0.00000000000E+00 0. -1.
       -4    1    4    4    0  502 -0.17694662765E+02 -0.20620167099E+02  0.19322666977E+02  0.33341533268E+02  0.00000000000E+00 0.  1.
</event>
<event>
 8   1  0.2279600E-02  0.8088200E+02  0.7546771E-02  0.1332869E+00
       -3   -1    0    0    0  501 -0.00000000000E+00  0.00000000000E+00  0.94325474025E+03  0.94325474025E+03  0.00000000000E+00 0.  1.
        3   -1    0    0  501    0  0.00000000000E+00 -0.00000000000E+00 -0.81607754213E+01  0.81607754213E+01  0.00000000000E+00 0. -1.
       24    2    1    2    0    0  0.82051139928E+00 -0.70405196131E+01  0.25597820743E+03  0.26845249333E+03  0.80570815690E+02 0.  0.
      -24    2    1    2    0    0 -0.82051139928E+00  0.70405196131E+01  0.67911575740E+03  0.68296302234E+03  0.72041902960E+02 0.  0.
      -13    1    3    3    0    0  0.91312566336E+01  0.61517092416E+01  0.25215968258E+03  0.25239993838E+03  0.00000000000E+00 0.  1.
       14    1    3    3    0    0 -0.83107452343E+01 -0.13192228855E+02  0.38185248509E+01  0.16052554954E+02  0.00000000000E+00 0. -1.
        3    1    4    4  502    0  0.25667188530E+02 -0.19672947236E+02  0.40314583171E+03  0.40444083751E+03  0.00000000000E+00 0. -1.
       -4    1    4    4    0  502 -0.26487699930E+02  0.26713466849E+02  0.27596992569E+03  0.27852218483E+03  0.00000000000E+00 0.  1.
</event>
<event>
 8   1  0.2279600E-02  0.9706858E+02  0.7546771E-02  0.1286715E+00
        2   -1    0    0  501    0  0.00000000000E+00  0.00000000000E+00  0.48846830703E+03  0.48846830703E+03  0.00000000000E+00 0. -1.
       -2   -1    0    0    0  501 -0.00000000000E+00 -0.00000000000E+00 -0.19768190826E+02  0.19768190826E+02  0.00000000000E+00 0.  1.
      -24    2    1    2    0    0 -0.50452320639E+02  0.21102063348E+02  0.19260594511E+03  0.21557577295E+03  0.79907008797E+02 0.  0.
       24    2    1    2    0    0  0.50452320639E+02 -0.21102063348E+02  0.27609417109E+03  0.29266072491E+03  0.80197100046E+02 0.  0.
      -13    1    4    4    0    0  0.14673622349E+01 -0.29212063683E+00 -0.56956567251E+01  0.58888871551E+01  0.00000000000E+00 0.  1.
       14    1    4    4    0    0  0.48984958404E+02 -0.20809942711E+02  0.28178982782E+03  0.28677183775E+03  0.00000000000E+00 0. -1.
        1    1    3    3  502    0  0.10005677379E+02 -0.17389104678E+02  0.18479471292E+02  0.27276095772E+02  0.00000000000E+00 0. -1.
       -2    1    3    3    0  502 -0.60457998018E+02  0.38491168026E+02  0.17412647382E+03  0.18829967717E+03  0.00000000000E+00 0.  1.
</event>
<event>
 8   1  0.2279600E-02  0.8386407E+02  0.7546771E-02  0.1325993E+00
       -1   -1    0    0    0  501 -0.00000000000E+00  0.00000000000E+00  0.40508498227E+01  0.40508498227E+01  0.00000000000E+00 0.  1.
        1   -1    0    0  501    0  0.00000000000E+00 -0.00000000000E+00 -0.19277757838E+04  0.19277757838E+04  0.00000000000E+00 0. -1.
       24    2    1    2    0    0  0.17250432136E+02  0.31119524912E+02 -0.57192978972E+03  0.57804573080E+03  0.75941953402E+02 0.  0.
      -24    2    1    2    0    0 -0.17250432136E+02 -0.31119524912E+02 -0.13517951443E+04  0.13537809028E+04  0.64082903900E+02 0.  0.
      -13    1    3    3    0    0 -0.10621997318E+02  0.48137765626E+02 -0.40153757810E+03  0.40455221904E+03  0.00000000000E+00 0.  1.
       14    1    3    3    0    0  0.27872429454E+02 -0.17018240714E+02 -0.17039221162E+03  0.17349351176E+03  0.00000000000E+00 0. -1.
        1    1    4    4  502    0  0.25329906592E+01 -0.84820110188E+01 -0.11211128841E+04  0.11211478312E+04  0.00000000000E+00 0. -1.
       -2    1    4    4    0  502 -0.19783422795E+02 -0.22637513894E+02 -0.23068226017E+03  0.23263307161E+03  0.00000000000E+00 0.  1.
</event>
<event>
 8   1  0.2279600E-02  0.8497109E+02  0.7546771E-02  0.1315894E+00
        2   -1    0    0  501    0  0.00000000000E+00  0.00000000000E+00  0.55318520315E+03  0.55318520315E+03  0.00000000000E+00 0. -1.
       -2   -1    0    0    0  501 -0.00000000000E+00 -0.00000000000E+00 -0.14639939099E+02  0.14639939099E+02  0.00000000000E+00 0.  1.
      -24    2    1    2    0    0  0.96314081832E+01  0.20159598682E+02  0.17397659566E+03  0.19361803032E+03  0.81981170935E+02 0.  0.
       24    2    1    2    0    0 -0.96314081832E+01 -0.20159598682E+02  0.36456866840E+03  0.37420711193E+03  0.81372447405E+02 0.  0.
      -13    1    4    4    0    0  0.26255908162E+02  0.16460091591E+02  0.99093268627E+02  0.10382573484E+03  0.00000000000E+00 0.  1.
       14    1    4    4    0    0 -0.35887316345E+02 -0.36619690273E+02  0.26547539977E+03  0.27038137708E+03  0.00000000000E+00 0. -1.
        1    1    3    3  502    0 -0.15899207305E+01 -0.22733302451E+02  0.12697888712E+03  0.12900763025E+03  0.00000000000E+00 0. -1.
       -2    1    3    3    0  502  0.11221328914E+02  0.42892901132E+02  0.46997708533E+02  0.64610400072E+02  0.00000000000E+00 0.  1.
</event>
<event>
 8   1  0.2279600E-02  0.1054243E+03  0.7546771E-02  0.1270736E+00
       -1   -1    0    0    0  501 -0.00000000000E+00  0.00000000000E+00  0.20486701180E+03  0.20486701180E+03  0.00000000000E+00 0.  1.
        1   -1    0    0  501    0  0.00000000000E+00 -0.00000000000E+00 -0.61635297381E+02  0.61635297381E+02  0.00000000000E+00 0. -1.
       24    2    1    2    0    0  0.34653111693E+02  0.57576386253E+02  0.12303084828E+03  0.16202120775E+03  0.81230559086E+02 0.  0.
      -24    2    1    2    0    0 -0.34653111693E+02 -0.57576386253E+02  0.20200866138E+02  0.10448110143E+03  0.77410252285E+02 0.  0.
      -13    1    3    3    0    0 -0.21585368494E+02  0.37633329290E+02  0.35350132676E+02  0.55962733016E+02  0.00000000000E+00 0.  1.
       14    1    3    3    0    0  0.56238480186E+02  0.19943056963E+02  0.87680715605E+02  0.10605847474E+03  0.00000000000E+00 0. -1.
        1    1    4    4  502    0 -0.21622813383E+02 -0.18320301061E+02 -0.28766957727E+02  0.40382141430E+02  0.00000000000E+00 0. -1.
       -2    1    4    4    0  502 -0.13030298310E+02 -0.39256085192E+02  0.48967823865E+02  0.64098959997E+02  0.00000000000E+00 0.  1.
</event>
<event>
 8   1  0.2279600E-02  0.1124306E+03  0.7546771E-02  0.1256187E+00
        2   -1    0    0  501    0  0.00000000000E+00  0.00000000000E+00  0.63799004881E+03  0.63799004881E+03  0.00000000000E+00 0. -1.
       -2   -1    0    0    0  501 -0.00000000000E+00 -0.00000000000E+00 -0.20174709721E+02  0.20174709721E+02  0.00000000000E+00 0.  1.
      -24    2    1    2    0    0 -0.66194978111E+02 -0.43197319140E+02  0.35405345451E+03  0.37144021467E+03  0.79788476056E+02 0.  0.
       24    2    1    2    0    0  0.66194978111E+02  0.43197319140E+02  0.26376188457E+03  0.28672454386E+03  0.79955292452E+02 0.  0.
      -13    1    4    4    0    0  0.45357447568E+02 -0.17125302067E+02  0.10714549763E+03  0.11760413124E+03  0.00000000000E+00 0.  1.
       14    1    4    4    0    0  0.20837530543E+02  0.60322621207E+02  0.15661638694E+03  0.16912041262E+03  0.00000000000E+00 0. -1.
        1    1    3    3  502    0 -0.24392006967E+02 -0.45489401784E+01  0.26221978123E+03  0.26339110944E+03  0.00000000000E+00 0. -1.
       -2    1    3    3    0  502 -0.41802971145E+02 -0.38648378962E+02  0.91833673279E+02  0.10804910523E+03  0.00000000000E+00 0.  1.
</event>
<event>
 8   1  0.2279600E-02  0.1523227E+03  0.7546771E-02  0.1197876E+00
       -2   -1    0    0    0  501 -0.00000000000E+00  0.00000000000E+00  0.81311337985E+02  0.81311337985E+02  0.00000000000E+00 0.  1.
        2   -1    0    0  501    0  0.00000000000E+00 -0.00000000000E+00 -0.80046577160E+03  0.80046577160E+03  0.00000000000E+00 0. -1.
      -24    2    1    2    0    0  0.12921032529E+03  0.12230637872E+02 -0.50960322307E+01  0.15165272748E+03  0.78279521875E+02 0.  0.
       24    2    1    2    0    0 -0.12921032529E+03 -0.12230637872E+02 -0.71405840138E+03  0.73012438210E+03  0.79732779252E+02 0.  0.
      -13    1    4    4    0    0 -0.70003232749E+02  0.33349058554E+02 -0.35320272943E+03  0.36161413189E+03  0.00000000000E+00 0.  1.
       14    1    4    4    0    0 -0.59207092540E+02 -0.45579696425E+02 -0.36085567195E+03  0.36851025021E+03  0.00000000000E+00 0. -1.
        3    1    3    3  502    0  0.84910713063E+01 -0.16589001309E+02  0.17426247354E+02  0.25514061872E+02  0.00000000000E+00 0. -1.
       -4    1    3    3    0  502  0.12071925398E+03  0.28819639181E+02 -0.22522279585E+02  0.12613866561E+03  0.00000000000E+00 0.  1.
</event>
<event>
 8   1  0.2279600E-02  0.1334545E+03  0.7546771E-02  0.1222443E+00
       -2   -1    0    0    0  501 -0.00000000000E+00  0.00000000000E+00  0.32274905008E+02  0.32274905008E+02  0.00000000000E+00 0.  1.
        2   -1    0    0  501    0  0.00000000000E+00 -0.00000000000E+00 -0.55490168845E+03  0.55490168845E+03  0.00000000000E+00 0. -1.
       24    2    1    2    0    0  0.10559701136E+03  0.15663765451E+01 -0.28410550446E+03  0.31385899436E+03  0.81476059853E+02 0.  0.
      -24    2    1    2    0    0 -0.10559701136E+03 -0.15663765451E+01 -0.23852127898E+03  0.27331759911E+03  0.81589993936E+02 0.  0.
      -13    1    3    3    0    0  0.75261900298E+02  0.38948632382E+02 -0.16783116680E+03  0.18801236702E+03  0.00000000000E+00 0.  1.
       14    1    3    3    0    0  0.30335111059E+02 -0.37382255837E+02 -0.11627433766E+03  0.12584662734E+03  0.00000000000E+00 0. -1.
        1    1    4    4  502    0 -0.17636842711E+01 -0.72374770272E+01 -0.99138483015E+02  0.99417958491E+02  0.00000000000E+00 0. -1.
       -2    1    4    4    0  502 -0.10383332709E+03  0.56711004821E+01 -0.13938279597E+03  0.17389964062E+03  0.00000000000E+00 0.  1.
</event>
<event>
 8   1  0.2279600E-02  0.8245299E+02  0.7546771E-02  0.1322518E+00
        1   -1    0    0  501    0  0.00000000000E+00  0.00000000000E+00  0.13274402909E+04  0.13274402909E+04  0.00000000000E+00 0. -1.
       -1   -1    0    0    0  501 -0.00000000000E+00 -0.00000000000E+00 -0.70293607448E+01  0.70293607448E+01  0.00000000000E+00 0.  1.
       24    2    1    2    0    0  0.17064243822E+02 -0.46530168527E+01  0.31145025546E+03  0.32217969812E+03  0.80533578507E+02 0.  0.
      -24    2    1    2    0    0 -0.17064243822E+02  0.46530168527E+01  0.10089606747E+04  0.10122899535E+04  0.80102858602E+02 0.  0.
      -13    1    3    3    0    0  0.46109673853E+02 -0.17834083299E+02  0.21424171102E+03  0.21987193384E+03  0.00000000000E+00 0.  1.
       14    1    3    3    0    0 -0.29045430031E+02  0.13181066447E+02  0.97208544443E+02  0.10230776428E+03  0.00000000000E+00 0. -1.
        1    1    4    4  502    0 -0.35318956567E+02  0.32701810268E+02  0.54311507544E+03  0.54524381909E+03  0.00000000000E+00 0. -1.
       -2    1    4    4    0  502  0.18254712745E+02 -0.28048793415E+02  0.46584559923E+03  0.46704613441E+03  0.00000000000E+00 0.  1.
</event>
<event>
 8   1  0.2279600E-02  0.9635197E+02  0.7546771E-02  0.1291660E+00
       -2   -1    0    0    0  501 -0.00000000000E+00  0.00000000000E+00  0.66664441452E+02  0.66664441452E+02  0.00000000000E+00 0.  1.
        2   -1    0    0  501    0  0.00000000000E+00 -0.00000000000E+00 -0.18554020773E+03  0.18554020773E+03  0.00000000000E+00 0. -1.
      -24    2    1    2    0    0  0.34054254456E+02  0.33171636329E+02 -0.12668449758E+03  0.15553677228E+03  0.76698604298E+02 0.  0.
       24    2    1    2    0    0 -0.34054254456E+02 -0.33171636329E+02  0.78087313060E+01  0.96667876898E+02  0.83807233794E+02 0.  0.
      -13    1    4    4    0    0  0.10256258752E+02  0.10541703397E+01  0.33510680641E+02  0.35060916071E+02  0.00000000000E+00 0.  1.
       14    1    4    4    0    0 -0.44310513207E+02 -0.34225806669E+02 -0.25701949335E+02  0.61606960828E+02  0.00000000000E+00 0. -1.
        1    1    3    3  502    0 -0.10430918918E+02  0.25658648928E+02 -0.98549106078E+02  0.10236745891E+03  0.00000000000E+00 0. -1.
       -2    1    3    3    0  502  0.44485173374E+02  0.75129874011E+01 -0.28135391505E+02  0.53169313376E+02  0.00000000000E+00 0.  1.
</event>
<event>
 8   1  0.2279600E-02  0.8419400E+02  0.7546771E-02  0.1319047E+00
       -3   -1    0    0    0  501 -0.00000000000E+00  0.00000000000E+00  0.54002801996E+02  0.54002801996E+02  0.00000000000E+00 0.  1.
        3   -1    0    0  501    0  0.00000000000E+00 -0.00000000000E+00 -0.13370601688E+03  0.13370601688E+03  0.00000000000E+00 0. -1.
       24    2    1    2    0    0 -0.16184493826E+02 -0.18066596164E+02 -0.19656545026E+02  0.84295899082E+02  0.78301207540E+02 0.  0.
      -24    2    1    2    0    0  0.16184493826E+02  0.18066596164E+02 -0.60046669853E+02  0.10341291979E+03  0.80624373992E+02 0.  0.
      -13    1    3    3    0    0 -0.40362297518E+02 -0.33372622252E+02 -0.64093840003E+01  0.52762933772E+02  0.00000000000E+00 0.  1.
       14    1    3    3    0    0  0.24177803692E+02  0.15306026089E+02 -0.13247161026E+02  0.31532965310E+02  0.00000000000E+00 0. -1.
        1    1    4    4  502    0  0.24054129530E+02  0.29652324970E+02 -0.74233485312E+02  0.83477373373E+02  0.00000000000E+00 0. -1.
       -2    1    4    4    0  502 -0.78696357045E+01 -0.11585728806E+02  0.14186815459E+02  0.19935546417E+02  0.00000000000E+00 0.  1.
</event>
<event>
 8   1  0.2279600E-02  0.1359816E+03  0.7546771E-02  0.1224695E+00
        2   -1    0    0  501    0  0.00000000000E+00  0.00000000000E+00  0.57372955795E+03  0.57372955795E+03  0.00000000000E+00 0. -1.
       -2   -1    0    0    0  501 -0.00000000000E+00 -0.00000000000E+00 -0.40917477605E+02  0.40917477605E+02  0.00000000000E+00 0.  1.
      -24    2    1    2    0    0  0.88560283407E+02  0.67869303640E+01  0.10954541071E+03  0.17461728022E+03  0.10296606879E+03 0.  0.
       24    2    1    2    0    0 -0.88560283407E+02 -0.67869303640E+01  0.42326666964E+03  0.44002975534E+03  0.81132766093E+02 0.  0.
      -13    1    4    4    0    0 -0.23345021068E+02 -0.20763813549E+02  0.38773301719E+02  0.49794526687E+02  0.00000000000E+00 0.  1.
       14    1    4    4    0    0 -0.65215262339E+02  0.13976883185E+02  0.38449336792E+03  0.39023522865E+03  0.00000000000E+00 0. -1.
        1    1    3    3  502    0  0.12034731092E+02  0.36495184947E+02  0.77481438586E+02  0.86487609529E+02  0.00000000000E+00 0. -1.
       -2    1    3    3    0  502  0.76525552315E+02 -0.29708254583E+02  0.32063972120E+02  0.88129670689E+02  0.00000000000E+00 0.  1.
</event>
<event>
 8   1  0.2279600E-02  0.9095467E+02  0.7546771E-02  0.1301766E+00
        2   -1    0    0  501    0  0.00000000000E+00  0.00000000000E+00  0.99715860475E+03  0.99715860475E+03  0.00000000000E+00 0. -1.
       -2   -1    0    0    0  501 -0.00000000000E+00 -0.00000000000E+00 -0.81514205181E+01  0.81514205181E+01  0.00000000000E+00 0.  1.
      -24    2    1    2    0    0  0.19129158673E+02 -0.37588964391E+02  0.46623946225E+03  0.47502840783E+03  0.80584720222E+02 0.  0.
       24    2    1    2    0    0 -0.19129158673E+02  0.37588964391E+02  0.52276772198E+03  0.53028161743E+03  0.78317607780E+02 0.  0.
      -13    1    4    4    0    0  0.81952550428E+01  0.12228359366E+02  0.14547780763E+02  0.20696205042E+02  0.00000000000E+00 0.  1.
       14    1    4    4    0    0 -0.27324413716E+02  0.25360605025E+02  0.50821994122E+03  0.50958541239E+03  0.00000000000E+00 0. -1.
        3    1    3    3  502    0 -0.49834894138E+01  0.22466452483E+02  0.18575049219E+03  0.18717056928E+03  0.00000000000E+00 0. -1.
       -4    1    3    3    0  502  0.24112648087E+02 -0.60055416874E+02  0.28048897006E+03  0.28785783856E+03  0.00000000000E+00 0.  1.
</event>
<event>
 8   1  0.2279600E-02  0.1310435E+03  0.7546771E-02  0.1229039E+00
       -2   -1    0    0    0  501 -0.00000000000E+00  0.00000000000E+00  0.50762598114E+02  0.50762598114E+02  0.00000000000E+00 0.  1.
        2   -1    0    0  501    0  0.00000000000E+00 -0.00000000000E+00 -0.55036981408E+03  0.55036981408E+03  0.00000000000E+00 0. -1.
       24    2    1    2    0    0 -0.68483470208E+02  0.66252215272E+02 -0.44063014084E+03  0.45742892426E+03  0.77504567718E+02 0.  0.
      -24    2    1    2    0    0  0.68483470208E+02 -0.66252215272E+02 -0.58977075129E+02  0.14370348793E+03  0.89961410241E+02 0.  0.
      -13    1    3    3    0    0 -0.89543724877E+01 -0.13196095589E+02 -0.13829800861E+03  0.13921442781E+03  0.00000000000E+00 0.  1.
       14    1    3    3    0    0 -0.59529097721E+02  0.79448310861E+02 -0.30233213223E+03  0.31821449645E+03  0.00000000000E+00 0. -1.
        1    1    4    4  502    0  0.71712928641E+02 -0.76383038817E+01 -0.36662038245E+02  0.80902366274E+02  0.00000000000E+00 0. -1.
       -2    1    4    4    0  502 -0.32294584323E+01 -0.58613911391E+02 -0.22315036884E+02  0.62801121657E+02  0.00000000000E+00 0.  1.
</event>
<event>
 8   1  0.2279600E-02  0.9251845E+02  0.7546771E-02  0.1306072E+00
        2   -1    0    0  501    0  0.00000000000E+00  0.00000000000E+00  0.44199498962E+03  0.44199498962E+03  0.00000000000E+00 0. -1.
       -2   -1    0    0    0  501 -0.00000000000E+00 -0.00000000000E+00 -0.81931809839E+02  0.81931809839E+02  0.00000000000E+00 0.  1.
      -24    2    1    2    0    0  0.49898085225E+01 -0.45607482033E+01 -0.50907843977E+02  0.10559958436E+03  0.92271149476E+02 0.  0.
       24    2    1    2    0    0 -0.49898085225E+01  0.45607482033E+01  0.41097102376E+03  0.41832721510E+03  0.77812453432E+02 0.  0.
      -13    1    4    4    0    0  0.17275087492E+02 -0.29813979080E+02  0.13471861864E+03  0.13905541415E+03  0.00000000000E+00 0.  1.
       14    1    4    4    0    0 -0.22264896014E+02  0.34374727283E+02  0.27625240512E+03  0.27927180095E+03  0.00000000000E+00 0. -1.
        3    1    3    3  502    0  0.41037230603E+02  0.22985707400E+02 -0.28539986308E+02  0.55017523197E+02  0.00000000000E+00 0. -1.
       -4    1    3    3    0  502 -0.36047422080E+02 -0.27546455603E+02 -0.22367857669E+02  0.50582061164E+02  0.00000000000E+00 0.  1.
</event>
<event>
 8   1  0.2279600E-02  0.8869448E+02  0.7546771E-02  0.1307073E+00
       -2   -1    0    0    0  501 -0.00000000000E+00  0.00000000000E+00  0.68263853390E+01  0.68263853390E+01  0.00000000000E+00 0.  1.
        2   -1    0    0  501    0  0.00000000000E+00 -0.00000000000E+00 -0.11737622008E+04  0.11737622008E+04  0.00000000000E+00 0. -1.
      -24    2    1    2    0    0 -0.29481351672E+02 -0.22425886601E+02 -0.46563311065E+03  0.47369948940E+03  0.78771454449E+02 0.  0.
       24    2    1    2    0    0  0.29481351672E+02  0.22425886601E+02 -0.70130270477E+03  0.70688909670E+03  0.80589334465E+02 0.  0.
      -13    1    4    4    0    0 -0.16724474641E+01  0.90345044409E+01 -0.64889861308E+01  0.11248390641E+02  0.00000000000E+00 0.  1.
       14    1    4    4    0    0  0.31153799136E+02  0.13391382160E+02 -0.69481371864E+03  0.69564070606E+03  0.00000000000E+00 0. -1.
        3    1    3    3  502    0  0.15648924346E+02 -0.25269589875E+02 -0.31568814694E+03  0.31708429025E+03  0.00000000000E+00 0. -1.
       -4    1    3    3    0  502 -0.45130276018E+02  0.28437032743E+01 -0.14994496371E+03  0.15661519914E+03  0.00000000000E+00 0.  1.
</event>
<event>
 8   1  0.2279600E-02  0.1034263E+03  0.7546771E-02  0.1274818E+00
        2   -1    0    0  501    0  0.00000000000E+00  0.00000000000E+00  0.37042889593E+04  0.37042889593E+04  0.00000000000E+00 0. -1.
       -2   -1    0    0    0  501 -0.00000000000E+00 -0.00000000000E+00 -0.42625798082E+01  0.42625798082E+01  0.00000000000E+00 0.  1.
      -24    2    1    2    0    0 -0.40642921352E+02 -0.46400835803E+02  0.78324791262E+03  0.79004701816E+03  0.83018754877E+02 0.  0.
       24    2    1    2    0    0  0.40642921352E+02  0.46400835803E+02  0.29167784669E+04  0.29185045210E+04  0.79165203005E+02 0.  0.
      -13    1    4    4    0    0  0.86248793403E+00  0.58704364400E+02  0.17257839716E+04  0.17267823438E+04  0.00000000000E+00 0.  1.
       14    1    4    4    0    0  0.39780433418E+02 -0.12303528598E+02  0.11909944953E+04  0.11917221772E+04  0.00000000000E+00 0. -1.
        1    1    3    3  502    0  0.70566435976E+01 -0.39258441644E+02  0.57084510505E+03  0.57223697487E+03  0.00000000000E+00 0. -1.
       -2    1    3    3    0  502 -0.47699564949E+02 -0.71423941587E+01  0.21240280758E+03  0.21781004329E+03  0.00000000000E+00 0.  1.
</event>
<event>
 8   1  0.2279600E-02  0.9877080E+02  0.7546771E-02  0.1285503E+00
        2   -1    0    0  501    0  0.00000000000E+00  0.00000000000E+00  0.59706317532E+02  0.59706317532E+02  0.00000000000E+00 0. -1.
       -2   -1    0    0    0  501 -0.00000000000E+00 -0.00000000000E+00 -0.20232258919E+03  0.20232258919E+03  0.00000000000E+00 0.  1.
      -24    2    1    2    0    0  0.23240762946E+02  0.42131384931E+02 -0.13287185795E+03  0.16277859680E+03  0.80788330107E+02 0.  0.
       24    2    1    2    0    0 -0.23240762946E+02 -0.42131384931E+02 -0.97444137010E+01  0.99250309919E+02  0.86258238807E+02 0.  0.
      -13    1    4    4    0    0  0.21365397520E+02 -0.28177126791E+00 -0.28182758250E+02  0.35367039299E+02  0.00000000000E+00 0.  1.
       14    1    4    4    0    0 -0.44606160466E+02 -0.41849613663E+02  0.18438344549E+02  0.63883270619E+02  0.00000000000E+00 0. -1.
        1    1    3    3  502    0  0.79464774836E+01 -0.15134419733E+02  0.20860163245E+00  0.17095048397E+02  0.00000000000E+00 0. -1.
       -2    1    3    3    0  502  0.15294285463E+02  0.57265804663E+02 -0.13308045959E+03  0.14568354840E+03  0.00000000000E+00 0.  1.
</event>
<event>
 8   1  0.2279600E-02  0.8132698E+02  0.7546771E-02  0.1326604E+00
        1   -1    0    0  501    0  0.00000000000E+00  0.00000000000E+00  0.63518904191E+03  0.63518904191E+03  0.00000000000E+00 0. -1.
       -1   -1    0    0    0  501 -0.00000000000E+00 -0.00000000000E+00 -0.10410027630E+02  0.10410027630E+02  0.00000000000E+00 0.  1.
       24    2    1    2    0    0  0.89001117610E+01 -0.14561622270E+01  0.35677944341E+03  0.36553149364E+03  0.78996007513E+02 0.  0.
      -24    2    1    2    0    0 -0.89001117610E+01  0.14561622270E+01  0.26799957087E+03  0.28006757590E+03  0.80825396306E+02 0.  0.
      -13    1    3    3    0    0 -0.27189899893E+02 -0.20987211312E+02  0.10625970952E+03  0.11167309238E+03  0.00000000000E+00 0.  1.
       14    1    3    3    0    0  0.36090011654E+02  0.19531049085E+02  0.25051973390E+03  0.25385840126E+03  0.00000000000E+00 0. -1.
        3    1    4    4  502    0 -0.18555927201E+02  0.12182082013E+02  0.26421754799E+03  0.26514833249E+03  0.00000000000E+00 0. -1.
       -4    1    4    4    0  502  0.96558154402E+01 -0.10725919786E+02  0.37820228856E+01  0.14919243419E+02  0.00000000000E+00 0.  1.
</event>
<event>
 8   1  0.2279600E-02  0.8339420E+02  0.7546771E-02  0.1322219E+00
        1   -1    0    0  501    0  0.00000000000E+00  0.00000000000E+00  0.52338606496E+03  0.52338606496E+03  0.00000000000E+00 0. -1.
       -1   -1    0    0    0  501 -0.00000000000E+00 -0.00000000000E+00 -0.23924484608E+02  0.23924484608E+02  0.00000000000E+00 0.  1.
       24    2    1    2    0    0  0.69317104692E+01  0.25102530829E+02  0.59376057807E+02  0.99393302190E+02  0.75334763659E+02 0.  0.
      -24    2    1    2    0    0 -0.69317104692E+01 -0.25102530829E+02  0.44008552255E+03  0.44791724738E+03  0.79223782290E+02 0.  0.
      -13    1    3    3    0    0  0.18831515380E+01  0.42106287651E+02  0.52972931983E+01  0.42479960389E+02  0.00000000000E+00 0.  1.
       14    1    3    3    0    0  0.50485589312E+01 -0.17003756822E+02  0.54078764608E+02  0.56913341800E+02  0.00000000000E+00 0. -1.
        1    1    4    4  502    0  0.97501749613E+01 -0.68138518140E+01  0.40389861245E+03  0.40407373539E+03  0.00000000000E+00 0. -1.
       -2    1    4    4    0  502 -0.16681885431E+02 -0.18288679015E+02  0.36186910092E+02  0.43843511990E+02  0.00000000000E+00 0.  1.
</event>
<event>
 8   1  0.2279600E-02  0.8662792E+02  0.7546771E-02  0.1311509E+00
       -2   -1    0    0    0  501 -0.00000000000E+00  0.00000000000E+00  0.29747481008E+02  0.29747481008E+02  0.00000000000E+00 0.  1.
        2   -1    0    0  501    0  0.00000000000E+00 -0.00000000000E+00 -0.25151759170E+03  0.25151759170E+03  0.00000000000E+00 0. -1.
       24    2    1    2    0    0 -0.30882018118E+02  0.57640881159E+01 -0.11755874528E+03  0.14602895503E+03  0.80730869944E+02 0.  0.
      -24    2    1    2    0    0  0.30882018118E+02 -0.57640881159E+01 -0.10421136542E+03  0.13523611768E+03  0.80261292586E+02 0.  0.
      -13    1    3    3    0    0 -0.40437396908E+01  0.14160974999E+02  0.84102264324E+01  0.16959273341E+02  0.00000000000E+00 0.  1.
       14    1    3    3    0    0 -0.26838278427E+02 -0.83968868832E+01 -0.12596897171E+03  0.12906968169E+03  0.00000000000E+00 0. -1.
        1    1    4    4  502    0  0.77660267816E+01 -0.35149381886E+02 -0.86849182504E+02  0.94013673051E+02  0.00000000000E+00 0. -1.
       -2    1    4    4    0  502  0.23115991336E+02  0.29385293771E+02 -0.17362182912E+02  0.41222444626E+02  0.00000000000E+00 0.  1.
</event>
<event>
 8   1  0.2279600E-02  0.9035137E+02  0.7546771E-02  0.1303694E+00
        2   -1    0    0  501    0  0.00000000000E+00  0.00000000000E+00  0.47009402798E+03  0.47009402798E+03  0.00000000000E+00 0. -1.
       -2   -1    0    0    0  501 -0.00000000000E+00 -0.00000000000E+00 -0.20059497855E+02  0.20059497855E+02  0.00000000000E+00 0.  1.
      -24    2    1    2    0    0 -0.75807280587E+01 -0.35887207618E+02  0.12975770187E+03  0.15811524469E+03  0.82571243792E+02 0.  0.
       24    2    1    2    0    0  0.75807280587E+01  0.35887207618E+02  0.32027682826E+03  0.33203828114E+03  0.79541274304E+02 0.  0.
      -13    1    4    4    0    0  0.27706841471E+02  0.91171308660E+01  0.38620379239E+02  0.48397570519E+02  0.00000000000E+00 0.  1.
       14    1    4    4    0    0 -0.20126113413E+02  0.26770076752E+02  0.28165644902E+03  0.28364071062E+03  0.00000000000E+00 0. -1.
        1    1    3    3  502    0 -0.25531857820E+01  0.46973579981E+01  0.11425593976E+03  0.11438095865E+03  0.00000000000E+00 0. -1.
       -2    1    3    3    0  502 -0.50275422767E+01 -0.40584565616E+02  0.15501762106E+02  0.43734286046E+02  0.00000000000E+00 0.  1.
</event>
<event>
 8   1  0.2279600E-02  0.8933320E+02  0.7546771E-02  0.1304488E+00
        3   -1    0    0  501    0  0.00000000000E+00  0.00000000000E+00  0.89235501996E+03  0.89235501996E+03  0.00000000000E+00 0. -1.
       -3   -1    0    0    0  501 -0.00000000000E+00 -0.00000000000E+00 -0.14081008354E+02  0.14081008354E+02  0.00000000000E+00 0.  1.
       24    2    1    2    0    0  0.32865931518E+02  0.20914955294E+02  0.16534419928E+03  0.18793383034E+03  0.80391638500E+02 0.  0.
      -24    2    1    2    0    0 -0.32865931518E+02 -0.20914955294E+02  0.71292981233E+03  0.71850219798E+03  0.80367197185E+02 0.  0.
      -13    1    3    3    0    0  0.35923482815E+02  0.20823263288E+02  0.26940690521E+02  0.49496522274E+02  0.00000000000E+00 0.  1.
       14    1    3    3    0    0 -0.30575512973E+01  0.91692006562E-01  0.13840350876E+03  0.13843730806E+03  0.00000000000E+00 0. -1.
        3    1    4    4  502    0 -0.30529238266E+02 -0.26750349488E+02  0.71066123417E+03  0.71181950334E+03  0.00000000000E+00 0. -1.
       -4    1    4    4    0  502 -0.23366932517E+01  0.58353941932E+01  0.22685781595E+01  0.66826946367E+01  0.00000000000E+00 0.  1.
</event>
<event>
 8   1  0.2279600E-02  0.1843597E+03  0.7546771E-02  0.1163693E+00
        2   -1    0    0  501    0  0.00000000000E+00  0.00000000000E+00  0.22463203553E+04  0.22463203553E+04  0.00000000000E+00 0. -1.
       -2   -1    0    0    0  501 -0.00000000000E+00 -0.00000000000E+00 -0.15411650139E+02  0.15411650139E+02  0.00000000000E+00 0.  1.
      -24    2    1    2    0    0 -0.14518898420E+03 -0.78738555931E+02  0.95922197131E+03  0.97677800892E+03  0.81907796589E+02 0.  0.
       24    2    1    2    0    0  0.14518898420E+03  0.78738555931E+02  0.12716867339E+04  0.12849539965E+04  0.81486335020E+02 0.  0.
      -13    1    4    4    0    0  0.13288001128E+03  0.91483909592E+02  0.10235867211E+04  0.10362220702E+04  0.00000000000E+00 0.  1.
       14    1    4    4    0    0  0.12308972918E+02 -0.12745353661E+02  0.24810001274E+03  0.24873192633E+03  0.00000000000E+00 0. -1.
        3    1    3    3  502    0 -0.88321331425E+02 -0.32540049304E+02  0.73221384904E+03  0.73823887267E+03  0.00000000000E+00 0. -1.
       -4    1    3    3    0  502 -0.56867652777E+02 -0.46198506627E+02  0.22700812227E+03  0.23853913626E+03  0.00000000000E+00 0.  1.
</event>
<event>
 8   1  0.2279600E-02  0.8813288E+02  0.7546771E-02  0.1307920E+00
        4   -1    0    0  501    0  0.00000000000E+00  0.00000000000E+00  0.30933387501E+03  0.30933387501E+03  0.00000000000E+00 0. -1.
       -4   -1    0    0    0  501 -0.00000000000E+00 -0.00000000000E+00 -0.31213336469E+02  0.31213336469E+02  0.00000000000E+00 0.  1.
       24    2    1    2    0    0  0.36437887010E+02  0.78160600009E+01  0.21618352191E+03  0.23345817419E+03  0.79866097604E+02 0.  0.
      -24    2    1    2    0    0 -0.36437887010E+02 -0.78160600009E+01  0.61937016627E+02  0.10708903729E+03  0.79013020918E+02 0.  0.
      -13    1    3    3    0    0  0.26209326680E+01  0.40229443860E+02  0.11744811357E+03  0.12417462230E+03  0.00000000000E+00 0.  1.
       14    1    3    3    0    0  0.33816954342E+02 -0.32413383859E+02  0.98735408342E+02  0.10928355189E+03  0.00000000000E+00 0. -1.
        3    1    4    4  502    0 -0.21195771684E+01 -0.40148382580E+02  0.27868684498E+02  0.48918798093E+02  0.00000000000E+00 0. -1.
       -4    1    4    4    0  502 -0.34318309842E+02  0.32332322579E+02  0.34068332129E+02  0.58170239194E+02  0.00000000000E+00 0.  1.
</event>
<event>
 8   1  0.2279600E-02  0.8696977E+02  0.7546771E-02  0.1310868E+00
       -2   -1    0    0    0  501 -0.00000000000E+00  0.00000000000E+00  0.93070776484E+02  0.93070776484E+02  0.00000000000E+00 0.  1.
        2   -1    0    0  501    0  0.00000000000E+00 -0.00000000000E+00 -0.41638030158E+03  0.41638030158E+03  0.00000000000E+00 0. -1.
      -24    2    1    2    0    0 -0.27066775840E+02  0.18093185423E+02  0.67261019657E+02  0.10931473688E+03  0.79785294518E+02 0.  0.
       24    2    1    2    0    0  0.27066775840E+02 -0.18093185423E+02 -0.39057054475E+03  0.40013634118E+03  0.80645938475E+02 0.  0.
      -13    1    4    4    0    0 -0.16250607750E+02 -0.25705463319E+01 -0.16694082454E+02  0.23438906751E+02  0.00000000000E+00 0.  1.
       14    1    4    4    0    0  0.43317383590E+02 -0.15522639091E+02 -0.37387646230E+03  0.37669743443E+03  0.00000000000E+00 0. -1.
        1    1    3    3  502    0 -0.23057501709E+02  0.25852996700E+02 -0.63233662310E+01  0.35213786844E+02  0.00000000000E+00 0. -1.
       -2    1    3    3    0  502 -0.40092741311E+01 -0.77598112763E+01  0.73584385888E+02  0.74100950039E+02  0.00000000000E+00 0.  1.
</event>
<event>
 8   1  0.2279600E-02  0.9605521E+02  0.7546771E-02  0.1290684E+00
        4   -1    0    0  501    0  0.00000000000E+00  0.00000000000E+00  0.48768055436E+02  0.48768055436E+02  0.00000000000E+00 0. -1.
       -4   -1    0    0    0  501 -0.00000000000E+00 -0.00000000000E+00 -0.18635675143E+03  0.18635675143E+03  0.00000000000E+00 0.  1.
      -24    2    1    2    0    0 -0.48736856591E+02 -0.43080288899E+01 -0.51253705350E+02  0.10597244215E+03  0.78799593138E+02 0.  0.
       24    2    1    2    0    0  0.48736856591E+02  0.43080288899E+01 -0.86334990639E+02  0.12915236472E+03  0.82660525038E+02 0.  0.
      -13    1    4    4    0    0  0.27030010247E+02  0.30211220578E+02 -0.86310574872E+02  0.95356460911E+02  0.00000000000E+00 0.  1.
       14    1    4    4    0    0  0.21706846345E+02 -0.25903191688E+02 -0.24415767568E-01  0.33795903805E+02  0.00000000000E+00 0. -1.
        3    1    3    3  502    0 -0.20661131809E+02  0.30983012596E+02 -0.48008929929E+02  0.60759252712E+02  0.00000000000E+00 0. -1.
       -4    1    3    3    0  502 -0.28075724782E+02 -0.35291041486E+02 -0.32447754213E+01  0.45213189434E+02  0.00000000000E+00 0.  1.
</event>
<event>
 8   1  0.2279600E-02  0.8540937E+02  0.7546771E-02  0.1314467E+00
       -1   -1    0    0    0  501 -0.00000000000E+00  0.00000000000E+00  0.62027315108E+02  0.62027315108E+02  0.00000000000E+00 0.  1.
        1   -1    0    0  501    0  0.00000000000E+00 -0.00000000000E+00 -0.15407040169E+03  0.15407040169E+03  0.00000000000E+00 0. -1.
       24    2    1    2    0    0 -0.10528933841E+02  0.29022425743E+02  0.66662627470E+01  0.85669131195E+02  0.79634171917E+02 0.  0.
      -24    2    1    2    0    0  0.10528933841E+02 -0.29022425743E+02 -0.98709349332E+02  0.13042858561E+03  0.79466475030E+02 0.  0.
      -13    1    3    3    0    0 -0.15532656079E+01 -0.10534500607E+02  0.34742502201E+02  0.36337718644E+02  0.00000000000E+00 0.  1.
       14    1    3    3    0    0 -0.89756682332E+01  0.39556926349E+02 -0.28076239454E+02  0.49331412551E+02  0.00000000000E+00 0. -1.
        3    1    4    4  502    0 -0.24671891386E+02 -0.74092788868E+01 -0.26889451479E+01  0.25900387336E+02  0.00000000000E+00 0. -1.
       -4    1    4    4    0  502  0.35200825227E+02 -0.21613146856E+02 -0.96020404184E+02  0.10452819827E+03  0.00000000000E+00 0.  1.
</event>
<event>
 8   1  0.2279600E-02  0.8370842E+02  0.7546771E-02  0.1319352E+00
       -3   -1    0    0    0  501 -0.00000000000E+00  0.00000000000E+00  0.69786648173E+02  0.69786648173E+02  0.00000000000E+00 0.  1.
        3   -1    0    0  501    0  0.00000000000E+00 -0.00000000000E+00 -0.12400263287E+03  0.12400263287E+03  0.00000000000E+00 0. -1.
       24    2    1    2    0    0  0.16201445134E+02 -0.11928474293E+02  0.16058568713E+02  0.84493297753E+02  0.80476483601E+02 0.  0.
      -24    2    1    2    0    0 -0.16201445134E+02  0.11928474293E+02 -0.70274553407E+02  0.10929598329E+03  0.81254684682E+02 0.  0.
      -13    1    3    3    0    0 -0.21017643704E+02  0.23267732431E+02  0.22291386759E+01  0.31434022628E+02  0.00000000000E+00 0.  1.
       14    1    3    3    0    0  0.37219088838E+02 -0.35196206724E+02  0.13829430037E+02  0.53059275125E+02  0.00000000000E+00 0. -1.
        1    1    4    4  502    0  0.28629140032E+02 -0.13461884617E+02 -0.32924997092E+02  0.45660764666E+02  0.00000000000E+00 0. -1.
       -2    1    4    4    0  502 -0.44830585166E+02  0.25390358910E+02 -0.37349556315E+02  0.63635218620E+02  0.00000000000E+00 0.  1.
</event>
<event>
 8   1  0.2279600E-02  0.8799141E+02  0.7546771E-02  0.1308626E+00
        2   -1    0    0  501    0  0.00000000000E+00  0.00000000000E+00  0.14515574647E+04  0.14515574647E+04  0.00000000000E+00 0. -1.
       -2   -1    0    0    0  501 -0.00000000000E+00 -0.00000000000E+00 -0.65340661089E+01  0.65340661089E+01  0.00000000000E+00 0.  1.
      -24    2    1    2    0    0 -0.31793797078E+02  0.54264967490E+01  0.10408084248E+04  0.10444102132E+04  0.80437702668E+02 0.  0.
       24    2    1    2    0    0  0.31793797078E+02 -0.54264967490E+01  0.40421497378E+03  0.41368131754E+03  0.81866935076E+02 0.  0.
      -13    1    4    4    0    0  0.59317920775E+02  0.19771018227E+01  0.26200412654E+03  0.26864230304E+03  0.00000000000E+00 0.  1.
       14    1    4    4    0    0 -0.27524123697E+02 -0.74035985717E+01  0.14221084724E+03  0.14503901451E+03  0.00000000000E+00 0. -1.
        3    1    3    3  502    0 -0.31427682581E+02 -0.15187950379E+02  0.97084023569E+03  0.97146751686E+03  0.00000000000E+00 0. -1.
       -4    1    3    3    0  502 -0.36611449724E+00  0.20614447128E+02  0.69968189082E+02  0.72942696370E+02  0.00000000000E+00 0.  1.
</event>
<event>
 8   1  0.2279600E-02  0.8291994E+02  0.7546771E-02  0.1321492E+00
       -1   -1    0    0    0  501 -0.00000000000E+00  0.00000000000E+00  0.16259546308E+02  0.16259546308E+02  0.00000000000E+00 0.  1.
        1   -1    0    0  501    0  0.00000000000E+00 -0.00000000000E+00 -0.68956766550E+03  0.68956766550E+03  0.00000000000E+00 0. -1.
       24    2    1    2    0    0 -0.11619182068E+02  0.19691062532E+02 -0.11652077974E+03  0.14301331652E+03  0.79705540927E+02 0.  0.
      -24    2    1    2    0    0  0.11619182068E+02 -0.19691062532E+02 -0.55678733946E+03  0.56281389529E+03  0.78896109045E+02 0.  0.
      -13    1    3    3    0    0  0.11766531397E+02  0.45587244765E+02 -0.56073558953E+02  0.73218113607E+02  0.00000000000E+00 0.  1.
       14    1    3    3    0    0 -0.23385713465E+02 -0.25896182233E+02 -0.60447220787E+02  0.69795202911E+02  0.00000000000E+00 0. -1.
        3    1    4    4  502    0 -0.20720925206E+02 -0.38842326548E+02 -0.33198704647E+03  0.33489323985E+03  0.00000000000E+00 0. -1.
       -4    1    4    4    0  502  0.32340107274E+02  0.19151264015E+02 -0.22480029298E+03  0.22792065544E+03  0.00000000000E+00 0.  1.
</event>
<event>
 8   1  0.2279600E-02  0.8189702E+02  0.7546771E-02  0.1329087E+00
       -2   -1    0    0    0  501 -0.00000000000E+00  0.00000000000E+00  0.37470642922E+01  0.37470642922E+01  0.00000000000E+00 0.  1.
        2   -1    0    0  501    0  0.00000000000E+00 -0.00000000000E+00 -0.18561292693E+04  0.18561292693E+04  0.00000000000E+00 0. -1.
      -24    2    1    2    0    0  0.10745430184E+01  0.20632273277E+02 -0.12103268239E+04  0.12126188622E+04  0.71600551735E+02 0.  0.
       24    2    1    2    0    0 -0.10745430184E+01 -0.20632273277E+02 -0.64205538112E+03  0.64725747139E+03  0.79248195554E+02 0.  0.
      -13    1    4    4    0    0  0.30052376598E+02  0.15209476719E+02 -0.22456787378E+03  0.22707972930E+03  0.00000000000E+00 0.  1.
       14    1    4    4    0    0 -0.31126919616E+02 -0.35841749996E+02 -0.41748750734E+03  0.42017774209E+03  0.00000000000E+00 0. -1.
        1    1    3    3  502    0 -0.23335416818E+02 -0.17502063806E+02 -0.44804124768E+03  0.44898978111E+03  0.00000000000E+00 0. -1.
       -2    1    3    3    0  502  0.24409959836E+02  0.38134337083E+02 -0.76228557623E+03  0.76362908112E+03  0.00000000000E+00 0.  1.
</event>
</LesHouchesEvents>
