<LesHouchesEvents version="3.0">
<header>
<!--
#*********************************************************************
#                                                                    *
#                        MadGraph5_aMC@NLO                           *
#                                                                    *
#                           Going Beyond                             *
#                                                                    *
#                   http://madgraph.hep.uiuc.edu                     *
#                   http://madgraph.phys.ucl.ac.be                   *
#                   http://amcatnlo.cern.ch                          *
#                                                                    *
#                     The MadGraph5_aMC@NLO team                     *
#                                                                    *
#....................................................................*
#                                                                    *
# This file contains all the information necessary to reproduce      *
# the events generated:                                              *
#                                                                    *
# 1. software version                                                *
# 2. proc_card          : code generation info including model       *
# 3. param_card         : model primary parameters in the LH format  *
# 4. run_card           : running parameters (collider and cuts)     *
# 5. pythia_card        : present only if pythia has been run        *
# 6. pgs_card           : present only if pgs has been run           *
# 7. delphes_cards      : present only if delphes has been run       *
#                                                                    *
#                                                                    *
#*********************************************************************
-->
<MGVersion>
2.4.2
</MGVersion>
<MG5ProcCard>
#************************************************************
#*                     MadGraph5_aMC@NLO                    *
#*                                                          *
#*                *                       *                 *
#*                  *        * *        *                   *
#*                    * * * * 5 * * * *                     *
#*                  *        * *        *                   *
#*                *                       *                 *
#*                                                          *
#*                                                          *
#*         VERSION 2.4.2                 2016-06-10         *
#*                                                          *
#*    The MadGraph5_aMC@NLO Development Team - Find us at   *
#*    https://server06.fynu.ucl.ac.be/projects/madgraph     *
#*                                                          *
#************************************************************
#*                                                          *
#*               Command File for MadGraph5_aMC@NLO         *
#*                                                          *
#*     run as ./bin/mg5_aMC  filename                       *
#*                                                          *
#************************************************************
set group_subprocesses Auto
set ignore_six_quark_processes False
set loop_optimized_output True
set loop_color_flows False
set gauge unitary
set complex_mass_scheme False
set max_npoint_for_channel 0
import model sm
define p = g u c d s u~ c~ d~ s~
define j = g u c d s u~ c~ d~ s~
define l+ = e+ mu+
define l- = e- mu-
define vl = ve vm vt
define vl~ = ve~ vm~ vt~
import model heft
generate p p > h > w+ w- , w+ > mu+ vm , w- > j j
output pphww
</MG5ProcCard>
<MGProcCard>
#*********************************************************************
#                        MadGraph/MadEvent                           *
#                   http://madgraph.hep.uiuc.edu                     *
#                                                                    *
#                          proc_card.dat                             *
#*********************************************************************
#                                                                    *
#            This Files is generated by MADGRAPH 5                   *
#                                                                    *
# WARNING: This Files is generated for MADEVENT (compatibility issue)*
#          This files is NOT a valid MG4 proc_card.dat               *
#          Running this in MG4 will NEVER reproduce the result of MG5*
#                                                                    *
#*********************************************************************
#*********************************************************************
# Process(es) requested : mg2 input                                  *
#*********************************************************************
# Begin PROCESS # This is TAG. Do not modify this line
p p > h > w+ w- , w+ > mu+ vm , w- > j j           #Process
# Be carefull the coupling are here in MG5 convention
          
end_coup           # End the couplings input

done               # this tells MG there are no more procs
# End PROCESS  # This is TAG. Do not modify this line
#*********************************************************************
# Model information                                                  *
#*********************************************************************
# Begin MODEL  # This is TAG. Do not modify this line
heft
# End   MODEL  # This is TAG. Do not modify this line
#*********************************************************************
# Start multiparticle definitions                                    *
#*********************************************************************
# Begin MULTIPARTICLES # This is TAG. Do not modify this line

# End  MULTIPARTICLES # This is TAG. Do not modify this line
</MGProcCard>
<MGRunCard>
#*********************************************************************
#                       MadGraph5_aMC@NLO                            *
#                                                                    *
#                     run_card.dat MadEvent                          *
#                                                                    *
#  This file is used to set the parameters of the run.               *
#                                                                    *
#  Some notation/conventions:                                        *
#                                                                    *
#   Lines starting with a '# ' are info or comments                  *
#                                                                    *
#   mind the format:   value    = variable     ! comment             *
#*********************************************************************
#
#*******************                                                 
# Running parameters
#*******************                                                 
#                                                                    
#*********************************************************************
# Tag name for the run (one word)                                    *
#*********************************************************************
  tag_1     = run_tag ! name of the run 
#*********************************************************************
# Run to generate the grid pack                                      *
#*********************************************************************
  False     = gridpack  !True = setting up the grid pack
#*********************************************************************
# Number of events and rnd seed                                      *
# Warning: Do not generate more than 1M events in a single run       *
# If you want to run Pythia, avoid more than 50k events in a run.    *
#*********************************************************************
  2000 = nevents ! Number of unweighted events requested 
 21 = iseed   ! rnd seed (0=assigned automatically=default))
#*********************************************************************
# Collider type and energy                                           *
# lpp: 0=No PDF, 1=proton, -1=antiproton, 2=photon from proton,      *
#                                         3=photon from electron     *
#*********************************************************************
     1        = lpp1    ! beam 1 type 
     1        = lpp2    ! beam 2 type
     6500.0     = ebeam1  ! beam 1 total energy in GeV
     6500.0     = ebeam2  ! beam 2 total energy in GeV
#*********************************************************************
# Beam polarization from -100 (left-handed) to 100 (right-handed)    *
#*********************************************************************
     0.0     = polbeam1 ! beam polarization for beam 1
     0.0     = polbeam2 ! beam polarization for beam 2
#*********************************************************************
# PDF CHOICE: this automatically fixes also alpha_s and its evol.    *
#*********************************************************************
     nn23lo1    = pdlabel     ! PDF set                                     
     230000    = lhaid     ! if pdlabel=lhapdf, this is the lhapdf number
#*********************************************************************
# Renormalization and factorization scales                           *
#*********************************************************************
 False = fixed_ren_scale  ! if .true. use fixed ren scale
 False        = fixed_fac_scale  ! if .true. use fixed fac scale
 91.188  = scale            ! fixed ren scale
 91.188  = dsqrt_q2fact1    ! fixed fact scale for pdf1
 91.188  = dsqrt_q2fact2    ! fixed fact scale for pdf2
 -1 = dynamical_scale_choice ! Choose one of the preselected dynamical choices
 1.0  = scalefact        ! scale factor for event-by-event scales
#*********************************************************************
# Time of flight information. (-1 means not run)
#*********************************************************************
 -1.0 = time_of_flight ! threshold below which info is not written
#*********************************************************************
# Matching - Warning! ickkw > 1 is still beta
#*********************************************************************
 0 = ickkw            ! 0 no matching, 1 MLM, 2 CKKW matching
 1 = highestmult      ! for ickkw=2, highest mult group
 1 = ktscheme         ! for ickkw=1, 1 Durham kT, 2 Pythia pTE
 1.0 = alpsfact         ! scale factor for QCD emission vx
 False = chcluster        ! cluster only according to channel diag
 True = pdfwgt           ! for ickkw=1, perform pdf reweighting
 4 = asrwgtflavor     ! highest quark flavor for a_s reweight
 True = clusinfo         ! include clustering tag in output
 3.0 = lhe_version       ! Change the way clustering information pass to shower.        
#*********************************************************************
#**********************************************************
#
#**********************************************************
# Automatic ptj and mjj cuts if xqcut > 0
# (turn off for VBF and single top processes)
#**********************************************************
   True  = auto_ptj_mjj  ! Automatic setting of ptj and mjj
#**********************************************************
#                                                                    
#**********************************
# BW cutoff (M+/-bwcutoff*Gamma)
#**********************************
  15.0  = bwcutoff      ! (M+/-bwcutoff*Gamma)
#**********************************************************
# Apply pt/E/eta/dr/mij/kt_durham cuts on decay products or not
# (note that etmiss/ptll/ptheavy/ht/sorted cuts always apply)
#*************************************************************
   False  = cut_decays    ! Cut decay products 
#*************************************************************
# Number of helicities to sum per event (0 = all helicities)
# 0 gives more stable result, but longer run time (needed for
# long decay chains e.g.).
# Use >=2 if most helicities contribute, e.g. pure QCD.
#*************************************************************
   0  = nhel          ! Number of helicities used per event
#*******************                                                 
# Standard Cuts
#*******************                                                 
#                                                                    
#*********************************************************************
# Minimum and maximum pt's (for max, -1 means no cut)                *
#*********************************************************************
 20.0  = ptj       ! minimum pt for the jets 
 0.0  = ptb       ! minimum pt for the b 
 10.0  = pta       ! minimum pt for the photons 
 10.0  = ptl       ! minimum pt for the charged leptons 
 0.0  = misset    ! minimum missing Et (sum of neutrino's momenta)
 0.0  = ptheavy   ! minimum pt for one heavy final state
 -1.0  = ptjmax    ! maximum pt for the jets
 -1.0  = ptbmax    ! maximum pt for the b
 -1.0  = ptamax    ! maximum pt for the photons
 -1.0  = ptlmax    ! maximum pt for the charged leptons
 -1.0  = missetmax ! maximum missing Et (sum of neutrino's momenta)
#*********************************************************************
# Minimum and maximum E's (in the center of mass frame)              *
#*********************************************************************
  0.0  = ej     ! minimum E for the jets 
  0.0  = eb     ! minimum E for the b 
  0.0  = ea     ! minimum E for the photons 
  0.0  = el     ! minimum E for the charged leptons 
  -1.0   = ejmax ! maximum E for the jets
 -1.0   = ebmax ! maximum E for the b
 -1.0   = eamax ! maximum E for the photons
 -1.0   = elmax ! maximum E for the charged leptons
#*********************************************************************
# Maximum and minimum absolute rapidity (for max, -1 means no cut)   *
#*********************************************************************
  5.0 = etaj    ! max rap for the jets 
  -1.0  = etab    ! max rap for the b
 2.5  = etaa    ! max rap for the photons 
 2.5  = etal    ! max rap for the charged leptons 
 0.0  = etajmin ! min rap for the jets
 0.0  = etabmin ! min rap for the b
 0.0  = etaamin ! min rap for the photons
 0.0  = etalmin ! main rap for the charged leptons
#*********************************************************************
# Minimum and maximum DeltaR distance                                *
#*********************************************************************
 0.4 = drjj    ! min distance between jets 
 0.0   = drbb    ! min distance between b's 
 0.4 = drll    ! min distance between leptons 
 0.4 = draa    ! min distance between gammas 
 0.0   = drbj    ! min distance between b and jet 
 0.4 = draj    ! min distance between gamma and jet 
 0.4 = drjl    ! min distance between jet and lepton 
 0.0   = drab    ! min distance between gamma and b 
 0.0   = drbl    ! min distance between b and lepton 
 0.4 = dral    ! min distance between gamma and lepton 
 -1.0  = drjjmax ! max distance between jets
 -1.0  = drbbmax ! max distance between b's
 -1.0  = drllmax ! max distance between leptons
 -1.0  = draamax ! max distance between gammas
 -1.0  = drbjmax ! max distance between b and jet
 -1.0  = drajmax ! max distance between gamma and jet
 -1.0  = drjlmax ! max distance between jet and lepton
 -1.0  = drabmax ! max distance between gamma and b
 -1.0  = drblmax ! max distance between b and lepton
 -1.0  = dralmax ! maxdistance between gamma and lepton
#*********************************************************************
# Minimum and maximum invariant mass for pairs                       *
# WARNING: for four lepton final state mmll cut require to have      *
#          different lepton masses for each flavor!                  *           
#*********************************************************************
 0.0   = mmjj    ! min invariant mass of a jet pair 
 0.0   = mmbb    ! min invariant mass of a b pair 
 0.0   = mmaa    ! min invariant mass of gamma gamma pair
 0.0   = mmll    ! min invariant mass of l+l- (same flavour) lepton pair
 -1.0  = mmjjmax ! max invariant mass of a jet pair
 -1.0  = mmbbmax ! max invariant mass of a b pair
 -1.0  = mmaamax ! max invariant mass of gamma gamma pair
 -1.0  = mmllmax ! max invariant mass of l+l- (same flavour) lepton pair
#*********************************************************************
# Minimum and maximum invariant mass for all letpons                 *
#*********************************************************************
 0.0   = mmnl    ! min invariant mass for all letpons (l+- and vl) 
 -1.0  = mmnlmax ! max invariant mass for all letpons (l+- and vl) 
#*********************************************************************
# Minimum and maximum pt for 4-momenta sum of leptons                *
#*********************************************************************
 0.0   = ptllmin  ! Minimum pt for 4-momenta sum of leptons(l and vl)
 -1.0  = ptllmax  ! Maximum pt for 4-momenta sum of leptons(l and vl)
#*********************************************************************
# Inclusive cuts                                                     *
#*********************************************************************
 0.0  = xptj ! minimum pt for at least one jet  
 0.0  = xptb ! minimum pt for at least one b 
 0.0  = xpta ! minimum pt for at least one photon 
 0.0  = xptl ! minimum pt for at least one charged lepton 
#*********************************************************************
# Control the pt's of the jets sorted by pt                          *
#*********************************************************************
 0.0   = ptj1min ! minimum pt for the leading jet in pt
 0.0   = ptj2min ! minimum pt for the second jet in pt
 0.0   = ptj3min ! minimum pt for the third jet in pt
 0.0   = ptj4min ! minimum pt for the fourth jet in pt
 -1.0  = ptj1max ! maximum pt for the leading jet in pt 
 -1.0  = ptj2max ! maximum pt for the second jet in pt
 -1.0  = ptj3max ! maximum pt for the third jet in pt
 -1.0  = ptj4max ! maximum pt for the fourth jet in pt
 0   = cutuse  ! reject event if fails any (0) / all (1) jet pt cuts
#*********************************************************************
# Control the pt's of leptons sorted by pt                           *
#*********************************************************************
 0.0   = ptl1min ! minimum pt for the leading lepton in pt
 0.0   = ptl2min ! minimum pt for the second lepton in pt
 0.0   = ptl3min ! minimum pt for the third lepton in pt
 0.0   = ptl4min ! minimum pt for the fourth lepton in pt
 -1.0  = ptl1max ! maximum pt for the leading lepton in pt 
 -1.0  = ptl2max ! maximum pt for the second lepton in pt
 -1.0  = ptl3max ! maximum pt for the third lepton in pt
 -1.0  = ptl4max ! maximum pt for the fourth lepton in pt
#*********************************************************************
# Control the Ht(k)=Sum of k leading jets                            *
#*********************************************************************
 0.0   = htjmin ! minimum jet HT=Sum(jet pt)
 -1.0  = htjmax ! maximum jet HT=Sum(jet pt)
 0.0   = ihtmin  !inclusive Ht for all partons (including b)
 -1.0  = ihtmax  !inclusive Ht for all partons (including b)
 0.0   = ht2min ! minimum Ht for the two leading jets
 0.0   = ht3min ! minimum Ht for the three leading jets
 0.0   = ht4min ! minimum Ht for the four leading jets
 -1.0  = ht2max ! maximum Ht for the two leading jets
 -1.0  = ht3max ! maximum Ht for the three leading jets
 -1.0  = ht4max ! maximum Ht for the four leading jets
#***********************************************************************
# Photon-isolation cuts, according to hep-ph/9801442                   *
# When ptgmin=0, all the other parameters are ignored                  *
# When ptgmin>0, pta and draj are not going to be used                 *
#***********************************************************************
 0.0 = ptgmin ! Min photon transverse momentum
 0.4 = R0gamma ! Radius of isolation code
 1.0 = xn ! n parameter of eq.(3.4) in hep-ph/9801442
 1.0 = epsgamma ! epsilon_gamma parameter of eq.(3.4) in hep-ph/9801442
 True = isoEM ! isolate photons from EM energy (photons and leptons)
#*********************************************************************
# WBF cuts                                                           *
#*********************************************************************
 0.0   = xetamin ! minimum rapidity for two jets in the WBF case  
 0.0   = deltaeta ! minimum rapidity for two jets in the WBF case 
#*********************************************************************
# KT DURHAM CUT                                                      *
#*********************************************************************
 -1.0    =  ktdurham        
 0.4  =  dparameter 
#*********************************************************************
# maximal pdg code for quark to be considered as a light jet         *
# (otherwise b cuts are applied)                                     *
#*********************************************************************
 4 = maxjetflavor    ! Maximum jet pdg code
#*********************************************************************
# Jet measure cuts                                                   *
#*********************************************************************
 0.0   = xqcut   ! minimum kt jet measure between partons
#*********************************************************************
#
#*********************************************************************
# Store info for systematics studies                                 *
# WARNING: If use_syst is T, matched Pythia output is                *
#          meaningful ONLY if plotted taking matchscale              *
#          reweighting into account!                                 *
#*********************************************************************
   False  = use_syst      ! Enable systematics studies
#
#**************************************
# Parameter of the systematics study
#  will be used by SysCalc (if installed)
#**************************************                                  
#
0.5 1 2 = sys_scalefact  # factorization/renormalization scale factor
None = sys_alpsfact  # \alpha_s emission scale factors
30 50 = sys_matchscale # variation of merging scale
# PDF sets and number of members (0 or none for all members).
NNPDF23_lo_as_0130_qed = sys_pdf # matching scales
# MSTW2008nlo68cl.LHgrid 1  = sys_pdf
</MGRunCard>
<slha>
######################################################################
## PARAM_CARD AUTOMATICALY GENERATED BY MG5 FOLLOWING UFO MODEL   ####
######################################################################
##                                                                  ##
##  Width set on Auto will be computed following the information    ##
##        present in the decay.py files of the model.               ##
##        See  arXiv:1402.1178 for more details.                    ##
##                                                                  ##
######################################################################

###################################
## INFORMATION FOR MASS
###################################
Block mass 
    5 4.700000e+00 # MB 
    6 1.730000e+02 # MT 
   15 1.777000e+00 # MTA 
   23 9.118800e+01 # MZ 
   25 2.50000e+02 # MH 
  9000006 1.250001e+02 # MP 
## Dependent parameters, given by model restrictions.
## Those values should be edited following the 
## analytical expression. MG5 ignores those values 
## but they are important for interfacing the output of MG5
## to external program such as Pythia.
  1 0.000000 # d : 0.0 
  2 0.000000 # u : 0.0 
  3 0.000000 # s : 0.0 
  4 0.000000 # c : 0.0 
  11 0.000000 # e- : 0.0 
  12 0.000000 # ve : 0.0 
  13 0.000000 # mu- : 0.0 
  14 0.000000 # vm : 0.0 
  16 0.000000 # vt : 0.0 
  21 0.000000 # g : 0.0 
  22 0.000000 # a : 0.0 
  24 80.419002 # w+ : cmath.sqrt(MZ__exp__2/2. + cmath.sqrt(MZ__exp__4/4. - (aEW*cmath.pi*MZ__exp__2)/(Gf*sqrt__2))) 

###################################
## INFORMATION FOR SMINPUTS
###################################
Block sminputs 
    1 1.325070e+02 # aEWM1 
    2 1.166390e-05 # Gf 
    3 1.180000e-01 # aS 

###################################
## INFORMATION FOR YUKAWA
###################################
Block yukawa 
    5 4.200000e+00 # ymb 
    6 1.645000e+02 # ymt 
   15 1.777000e+00 # ymtau 

###################################
## INFORMATION FOR DECAY
###################################
DECAY   6 1.491500e+00 # WT 
DECAY  23 2.441404e+00 # WZ 
DECAY  24 2.047600e+00 # WW 
DECAY  25 6.382339e-03 # WH 
DECAY 9000006 6.382339e-03 # WH1 
## Dependent parameters, given by model restrictions.
## Those values should be edited following the 
## analytical expression. MG5 ignores those values 
## but they are important for interfacing the output of MG5
## to external program such as Pythia.
DECAY  1 0.000000 # d : 0.0 
DECAY  2 0.000000 # u : 0.0 
DECAY  3 0.000000 # s : 0.0 
DECAY  4 0.000000 # c : 0.0 
DECAY  5 0.000000 # b : 0.0 
DECAY  11 0.000000 # e- : 0.0 
DECAY  12 0.000000 # ve : 0.0 
DECAY  13 0.000000 # mu- : 0.0 
DECAY  14 0.000000 # vm : 0.0 
DECAY  15 0.000000 # ta- : 0.0 
DECAY  16 0.000000 # vt : 0.0 
DECAY  21 0.000000 # g : 0.0 
DECAY  22 0.000000 # a : 0.0 
#===========================================================
# QUANTUM NUMBERS OF NEW STATE(S) (NON SM PDG CODE)
#===========================================================

Block QNUMBERS 9000006  # h1 
        1 0  # 3 times electric charge
        2 1  # number of spin states (2S+1)
        3 1  # colour rep (1: singlet, 3: triplet, 8: octet)
        4 0  # Particle/Antiparticle distinction (0=own anti)
</slha>
## END BANNER##
<MGGenerationInfo>
#  Number of Events        :         2000
#  Integrated weight (pb)  :  0.15141E+03
#  Truncated wgt (pb)      :  0.00000E+00
#  Unit wgt                :  0.75705E-01
</MGGenerationInfo>
</header>
<init>
     2212     2212  0.65000000000E+04  0.65000000000E+04 0 0  247000  247000  3   1
  0.15140666724E+03  0.65604555914E+00  0.75705000000E-01   1
<generator name='MadGraph5_aMC@NLO' version='2.4.2'>please cite 1405.0301 </generator>
</init>
<event>
 9   1  0.7570500E-01  0.2499875E+03  0.7546771E-02  0.1113313E+00
       21   -1    0    0  503  502  0.00000000000E+00  0.00000000000E+00  0.24673349184E+03  0.24673349184E+03  0.00000000000E+00 0.  1.
       21   -1    0    0  502  503 -0.00000000000E+00 -0.00000000000E+00 -0.63321083124E+02  0.63321083124E+02  0.00000000000E+00 0.  1.
       25    2    1    2    0    0  0.00000000000E+00  0.00000000000E+00  0.18341240872E+03  0.31005457497E+03  0.24998745526E+03 0.  0.
       24    2    3    3    0    0  0.21468584253E+02  0.30897538824E+02  0.20178947600E+03  0.22057440605E+03  0.80737339335E+02 0.  0.
      -24    2    3    3    0    0 -0.21468584253E+02 -0.30897538824E+02 -0.18377067288E+02  0.89480168915E+02  0.79078606536E+02 0.  0.
      -13    1    4    4    0    0  0.22335813686E+02  0.16835348047E+02  0.12288414649E+02  0.30550329809E+02  0.00000000000E+00 0.  1.
       14    1    4    4    0    0 -0.86722943276E+00  0.14062190777E+02  0.18950106136E+03  0.19002407624E+03  0.00000000000E+00 0. -1.
        3    1    5    5  501    0 -0.58524029052E+01  0.34103987927E+01 -0.43601244664E+02  0.44124256095E+02  0.00000000000E+00 0. -1.
       -4    1    5    5    0  501 -0.15616181348E+02 -0.34307937617E+02  0.25224177376E+02  0.45355912820E+02  0.00000000000E+00 0.  1.
</event>
<event>
 9   1  0.7570500E-01  0.2500024E+03  0.7546771E-02  0.1113303E+00
       21   -1    0    0  503  502  0.00000000000E+00  0.00000000000E+00  0.43787798508E+03  0.43787798508E+03  0.00000000000E+00 0.  1.
       21   -1    0    0  502  503 -0.00000000000E+00 -0.00000000000E+00 -0.35684145315E+02  0.35684145315E+02  0.00000000000E+00 0.  1.
       25    2    1    2    0    0  0.00000000000E+00  0.71054273576E-14  0.40219383976E+03  0.47356213039E+03  0.25000241319E+03 0.  0.
       24    2    3    3    0    0 -0.74539204536E+02 -0.37638852846E+02  0.28935148482E+03  0.31168007255E+03  0.80295763302E+02 0.  0.
      -24    2    3    3    0    0  0.74539204536E+02  0.37638852846E+02  0.11284235495E+03  0.16188205784E+03  0.80620266215E+02 0.  0.
      -13    1    4    4    0    0 -0.30536202510E+02  0.16383902491E+02  0.40717579561E+02  0.53467870819E+02  0.00000000000E+00 0.  1.
       14    1    4    4    0    0 -0.44003002026E+02 -0.54022755338E+02  0.24863390525E+03  0.25821220173E+03  0.00000000000E+00 0. -1.
        3    1    5    5  501    0  0.80237559162E+02  0.54201205884E+02  0.10455665463E+03  0.14250589689E+03  0.00000000000E+00 0. -1.
       -4    1    5    5    0  501 -0.56983546268E+01 -0.16562353038E+02  0.82857003140E+01  0.19376160954E+02  0.00000000000E+00 0.  1.
</event>
<event>
 9   1  0.7570500E-01  0.2499977E+03  0.7546771E-02  0.1113306E+00
       21   -1    0    0  503  502  0.00000000000E+00  0.00000000000E+00  0.22305141655E+03  0.22305141655E+03  0.00000000000E+00 0. -1.
       21   -1    0    0  502  503 -0.00000000000E+00 -0.00000000000E+00 -0.70049851258E+02  0.70049851258E+02  0.00000000000E+00 0. -1.
       25    2    1    2    0    0 -0.71054273576E-14  0.00000000000E+00  0.15300156529E+03  0.29310126781E+03  0.24999774841E+03 0.  0.
       24    2    3    3    0    0  0.62233949734E+02  0.43377671429E+02  0.77966549973E+01  0.11044797508E+03  0.79895434742E+02 0.  0.
      -24    2    3    3    0    0 -0.62233949734E+02 -0.43377671429E+02  0.14520491029E+03  0.18265329273E+03  0.80765540248E+02 0.  0.
      -13    1    4    4    0    0  0.60127223312E+02  0.12911261821E+01  0.24738808278E+02  0.65030443833E+02  0.00000000000E+00 0.  1.
       14    1    4    4    0    0  0.21067264221E+01  0.42086545247E+02 -0.16942153281E+02  0.45417531250E+02  0.00000000000E+00 0. -1.
        3    1    5    5  501    0  0.16632943989E+02 -0.16881110709E+02  0.55270435268E+02  0.60136908294E+02  0.00000000000E+00 0. -1.
       -4    1    5    5    0  501 -0.78866893724E+02 -0.26496560721E+02  0.89934475027E+02  0.12251638443E+03  0.00000000000E+00 0.  1.
</event>
<event>
 9   1  0.7570500E-01  0.2500001E+03  0.7546771E-02  0.1113305E+00
       21   -1    0    0  503  502  0.00000000000E+00  0.00000000000E+00  0.36593072027E+02  0.36593072027E+02  0.00000000000E+00 0. -1.
       21   -1    0    0  502  503 -0.00000000000E+00 -0.00000000000E+00 -0.42699366728E+03  0.42699366728E+03  0.00000000000E+00 0. -1.
       25    2    1    2    0    0  0.35527136788E-14  0.14210854715E-13 -0.39040059525E+03  0.46358673931E+03  0.25000008017E+03 0.  0.
       24    2    3    3    0    0 -0.20505470172E+02 -0.88311011573E+02 -0.24933833120E+03  0.27737941204E+03  0.80934700517E+02 0.  0.
      -24    2    3    3    0    0  0.20505470172E+02  0.88311011573E+02 -0.14106226405E+03  0.18620732726E+03  0.80964790588E+02 0.  0.
      -13    1    4    4    0    0 -0.35646940154E+02 -0.74174393405E+02 -0.11476812090E+03  0.14122417128E+03  0.00000000000E+00 0.  1.
       14    1    4    4    0    0  0.15141469982E+02 -0.14136618168E+02 -0.13457021030E+03  0.13615524076E+03  0.00000000000E+00 0. -1.
        1    1    5    5  501    0 -0.28092150823E+02  0.15952796248E+02 -0.23933841287E+02  0.40205589223E+02  0.00000000000E+00 0. -1.
       -2    1    5    5    0  501  0.48597620995E+02  0.72358215325E+02 -0.11712842276E+03  0.14600173804E+03  0.00000000000E+00 0.  1.
</event>
<event>
 9   1  0.7570500E-01  0.2500020E+03  0.7546771E-02  0.1113304E+00
       21   -1    0    0  503  502  0.00000000000E+00  0.00000000000E+00  0.14038519761E+03  0.14038519761E+03  0.00000000000E+00 0. -1.
       21   -1    0    0  502  503 -0.00000000000E+00 -0.00000000000E+00 -0.11130270027E+03  0.11130270027E+03  0.00000000000E+00 0. -1.
       25    2    1    2    0    0  0.14210854715E-13  0.71054273576E-14  0.29082497343E+02  0.25168789787E+03  0.25000201256E+03 0.  0.
       24    2    3    3    0    0 -0.91461160632E+02 -0.45221658708E+02  0.11967089924E+02  0.11996914040E+03  0.61961609785E+02 0.  0.
      -24    2    3    3    0    0  0.91461160632E+02  0.45221658708E+02  0.17115407418E+02  0.13171875747E+03  0.81527612367E+02 0.  0.
      -13    1    4    4    0    0 -0.25648288973E+02 -0.18298118271E+02 -0.24635354625E+02  0.39994456579E+02  0.00000000000E+00 0.  1.
       14    1    4    4    0    0 -0.65812871659E+02 -0.26923540437E+02  0.36602444550E+02  0.79974683823E+02  0.00000000000E+00 0. -1.
        1    1    5    5  501    0  0.30813802595E+02 -0.23206691132E+02  0.10832067266E+02  0.40067126487E+02  0.00000000000E+00 0. -1.
       -2    1    5    5    0  501  0.60647358038E+02  0.68428349840E+02  0.62833401524E+01  0.91651630985E+02  0.00000000000E+00 0.  1.
</event>
<event>
 9   1  0.7570500E-01  0.2500051E+03  0.7546771E-02  0.1113302E+00
       21   -1    0    0  503  502  0.00000000000E+00  0.00000000000E+00  0.23460632061E+03  0.23460632061E+03  0.00000000000E+00 0.  1.
       21   -1    0    0  502  503 -0.00000000000E+00 -0.00000000000E+00 -0.66603665845E+02  0.66603665845E+02  0.00000000000E+00 0.  1.
       25    2    1    2    0    0  0.71054273576E-14  0.00000000000E+00  0.16800265476E+03  0.30120998645E+03  0.25000512781E+03 0.  0.
       24    2    3    3    0    0  0.53085375054E+02 -0.44299878679E+02  0.65353995212E+01  0.10678163607E+03  0.81111466873E+02 0.  0.
      -24    2    3    3    0    0 -0.53085375054E+02  0.44299878679E+02  0.16146725524E+03  0.19442835039E+03  0.83367695322E+02 0.  0.
      -13    1    4    4    0    0  0.24524003874E+02  0.38727566002E+01  0.35820595594E+02  0.43583713453E+02  0.00000000000E+00 0.  1.
       14    1    4    4    0    0  0.28561371181E+02 -0.48172635279E+02 -0.29285196073E+02  0.63197922612E+02  0.00000000000E+00 0. -1.
        3    1    5    5  501    0  0.19645745136E+02  0.26464537817E+02  0.41336598409E+02  0.52868151394E+02  0.00000000000E+00 0. -1.
       -4    1    5    5    0  501 -0.72731120190E+02  0.17835340861E+02  0.12013065683E+03  0.14156019899E+03  0.00000000000E+00 0.  1.
</event>
<event>
 9   1  0.7570500E-01  0.2500013E+03  0.7546771E-02  0.1113304E+00
       21   -1    0    0  503  502  0.00000000000E+00  0.00000000000E+00  0.88401096900E+02  0.88401096900E+02  0.00000000000E+00 0.  1.
       21   -1    0    0  502  503 -0.00000000000E+00 -0.00000000000E+00 -0.17675307767E+03  0.17675307767E+03  0.00000000000E+00 0.  1.
       25    2    1    2    0    0  0.00000000000E+00 -0.14210854715E-13 -0.88351980774E+02  0.26515417457E+03  0.25000132757E+03 0.  0.
       24    2    3    3    0    0  0.82853115752E+02 -0.40138672705E+02 -0.19232423513E+02  0.12465508061E+03  0.81812292302E+02 0.  0.
      -24    2    3    3    0    0 -0.82853115752E+02  0.40138672705E+02 -0.69119557261E+02  0.14049909396E+03  0.80540240699E+02 0.  0.
      -13    1    4    4    0    0  0.12866351620E+02 -0.50287171174E+02 -0.13898033084E+02  0.53735443725E+02  0.00000000000E+00 0.  1.
       14    1    4    4    0    0  0.69986764132E+02  0.10148498469E+02 -0.53343904292E+01  0.70919636886E+02  0.00000000000E+00 0. -1.
        1    1    5    5  501    0 -0.57510011584E+02  0.22675401220E+01  0.18576439430E+00  0.57554996995E+02  0.00000000000E+00 0. -1.
       -2    1    5    5    0  501 -0.25343104167E+02  0.37871132583E+02 -0.69305321655E+02  0.82944096967E+02  0.00000000000E+00 0.  1.
</event>
<event>
 9   1  0.7570500E-01  0.2500002E+03  0.7546771E-02  0.1113305E+00
       21   -1    0    0  503  502  0.00000000000E+00  0.00000000000E+00  0.29493011767E+02  0.29493011767E+02  0.00000000000E+00 0. -1.
       21   -1    0    0  502  503 -0.00000000000E+00 -0.00000000000E+00 -0.52978756263E+03  0.52978756263E+03  0.00000000000E+00 0. -1.
       25    2    1    2    0    0 -0.71054273576E-14  0.00000000000E+00 -0.50029455086E+03  0.55928057440E+03  0.25000024655E+03 0.  0.
       24    2    3    3    0    0  0.52770254498E+02 -0.13619595655E+01 -0.43059160381E+03  0.44136606898E+03  0.81291591715E+02 0.  0.
      -24    2    3    3    0    0 -0.52770254498E+02  0.13619595655E+01 -0.69702947055E+02  0.11791450542E+03  0.79112420428E+02 0.  0.
      -13    1    4    4    0    0  0.52485307812E+02  0.32759169803E+02 -0.30563411366E+03  0.31183342055E+03  0.00000000000E+00 0.  1.
       14    1    4    4    0    0  0.28494668576E+00 -0.34121129369E+02 -0.12495749015E+03  0.12953264843E+03  0.00000000000E+00 0. -1.
        1    1    5    5  501    0 -0.24713959935E+02  0.34066276712E+02 -0.60750186443E+02  0.73904507153E+02  0.00000000000E+00 0. -1.
       -2    1    5    5    0  501 -0.28056294563E+02 -0.32704317146E+02 -0.89527606117E+01  0.44009998264E+02  0.00000000000E+00 0.  1.
</event>
<event>
 9   1  0.7570500E-01  0.2500233E+03  0.7546771E-02  0.1113290E+00
       21   -1    0    0  503  502  0.00000000000E+00  0.00000000000E+00  0.19163416742E+03  0.19163416742E+03  0.00000000000E+00 0.  1.
       21   -1    0    0  502  503 -0.00000000000E+00 -0.00000000000E+00 -0.81550769984E+02  0.81550769984E+02  0.00000000000E+00 0.  1.
       25    2    1    2    0    0  0.00000000000E+00  0.14210854715E-13  0.11008339744E+03  0.27318493740E+03  0.25002331018E+03 0.  0.
       24    2    3    3    0    0  0.37677204588E+02 -0.82460970722E+02  0.90786239546E+02  0.15146963308E+03  0.80507918974E+02 0.  0.
      -24    2    3    3    0    0 -0.37677204588E+02  0.82460970722E+02  0.19297157891E+02  0.12171530432E+03  0.78885052864E+02 0.  0.
      -13    1    4    4    0    0 -0.23030346750E+01 -0.56045792815E+02  0.91864963954E+01  0.56840360458E+02  0.00000000000E+00 0.  1.
       14    1    4    4    0    0  0.39980239263E+02 -0.26415177907E+02  0.81599743151E+02  0.94629272625E+02  0.00000000000E+00 0. -1.
        1    1    5    5  501    0  0.22584687057E+01  0.27531250830E+02 -0.27705445118E+02  0.39123677515E+02  0.00000000000E+00 0. -1.
       -2    1    5    5    0  501 -0.39935673294E+02  0.54929719892E+02  0.47002603009E+02  0.82591626806E+02  0.00000000000E+00 0.  1.
</event>
<event>
 9   1  0.7570500E-01  0.2500009E+03  0.7546771E-02  0.1113304E+00
       21   -1    0    0  503  502  0.00000000000E+00  0.00000000000E+00  0.18649062099E+02  0.18649062099E+02  0.00000000000E+00 0. -1.
       21   -1    0    0  502  503 -0.00000000000E+00 -0.00000000000E+00 -0.83784990055E+03  0.83784990055E+03  0.00000000000E+00 0. -1.
       25    2    1    2    0    0  0.00000000000E+00 -0.35527136788E-14 -0.81920083845E+03  0.85649896265E+03  0.25000091860E+03 0.  0.
       24    2    3    3    0    0 -0.36432888506E+02  0.23391687220E+02 -0.68702379004E+03  0.69309335392E+03  0.80636113320E+02 0.  0.
      -24    2    3    3    0    0  0.36432888506E+02 -0.23391687220E+02 -0.13217704841E+03  0.16340560873E+03  0.85767677135E+02 0.  0.
      -13    1    4    4    0    0 -0.40656195324E+01 -0.20000306391E+02 -0.53497156685E+02  0.57258076210E+02  0.00000000000E+00 0.  1.
       14    1    4    4    0    0 -0.32367268974E+02  0.43391993611E+02 -0.63352663336E+03  0.63583527771E+03  0.00000000000E+00 0. -1.
        1    1    5    5  501    0 -0.20881850682E+02 -0.30971435148E+02 -0.41193049811E+02  0.55607093395E+02  0.00000000000E+00 0. -1.
       -2    1    5    5    0  501  0.57314739188E+02  0.75797479280E+01 -0.90983998597E+02  0.10779851533E+03  0.00000000000E+00 0.  1.
</event>
<event>
 9   1  0.7570500E-01  0.2500436E+03  0.7546771E-02  0.1113277E+00
       21   -1    0    0  503  502  0.00000000000E+00  0.00000000000E+00  0.79515814583E+03  0.79515814583E+03  0.00000000000E+00 0.  1.
       21   -1    0    0  502  503 -0.00000000000E+00 -0.00000000000E+00 -0.19657038509E+02  0.19657038509E+02  0.00000000000E+00 0.  1.
       25    2    1    2    0    0  0.00000000000E+00  0.00000000000E+00  0.77550110732E+03  0.81481518434E+03  0.25004363054E+03 0.  0.
       24    2    3    3    0    0  0.14670977467E+02  0.83951364624E+02  0.24531892689E+03  0.27196710195E+03  0.80756791969E+02 0.  0.
      -24    2    3    3    0    0 -0.14670977467E+02 -0.83951364624E+02  0.53018218043E+03  0.54284808239E+03  0.79547639236E+02 0.  0.
      -13    1    4    4    0    0 -0.33079386335E+02  0.39934531036E+02  0.12281317706E+03  0.13331199882E+03  0.00000000000E+00 0.  1.
       14    1    4    4    0    0  0.47750363802E+02  0.44016833588E+02  0.12250574983E+03  0.13865510313E+03  0.00000000000E+00 0. -1.
        3    1    5    5  501    0 -0.33908318664E+02 -0.73315490809E+02  0.49362873694E+03  0.50019422748E+03  0.00000000000E+00 0. -1.
       -4    1    5    5    0  501  0.19237341197E+02 -0.10635873815E+02  0.36553443489E+02  0.42653854914E+02  0.00000000000E+00 0.  1.
</event>
<event>
 9   1  0.7570500E-01  0.2500102E+03  0.7546771E-02  0.1113298E+00
       21   -1    0    0  503  502  0.00000000000E+00  0.00000000000E+00  0.34082513635E+03  0.34082513635E+03  0.00000000000E+00 0.  1.
       21   -1    0    0  502  503 -0.00000000000E+00 -0.00000000000E+00 -0.45848370415E+02  0.45848370415E+02  0.00000000000E+00 0.  1.
       25    2    1    2    0    0 -0.14210854715E-13  0.00000000000E+00  0.29497676594E+03  0.38667350677E+03  0.25001021658E+03 0.  0.
       24    2    3    3    0    0 -0.82715760304E+02  0.13460047574E+01  0.21185801670E+03  0.24121197830E+03  0.80347311736E+02 0.  0.
      -24    2    3    3    0    0  0.82715760304E+02 -0.13460047574E+01  0.83118749241E+02  0.14546152847E+03  0.86061728185E+02 0.  0.
      -13    1    4    4    0    0 -0.63051993973E+02  0.13884327055E+02  0.61869602526E+02  0.89421340845E+02  0.00000000000E+00 0.  1.
       14    1    4    4    0    0 -0.19663766331E+02 -0.12538322297E+02  0.14998841417E+03  0.15179063745E+03  0.00000000000E+00 0. -1.
        1    1    5    5  501    0  0.66060290109E+02 -0.15277050338E+02  0.92066421071E+01  0.68425963312E+02  0.00000000000E+00 0. -1.
       -2    1    5    5    0  501  0.16655470195E+02  0.13931045581E+02  0.73912107133E+02  0.77035565159E+02  0.00000000000E+00 0.  1.
</event>
<event>
 9   1  0.7570500E-01  0.2499963E+03  0.7546771E-02  0.1113307E+00
       21   -1    0    0  503  502  0.00000000000E+00  0.00000000000E+00  0.30953983842E+02  0.30953983842E+02  0.00000000000E+00 0. -1.
       21   -1    0    0  502  503 -0.00000000000E+00 -0.00000000000E+00 -0.50476670758E+03  0.50476670758E+03  0.00000000000E+00 0. -1.
       25    2    1    2    0    0  0.71054273576E-14  0.00000000000E+00 -0.47381272374E+03  0.53572069142E+03  0.24999632406E+03 0.  0.
       24    2    3    3    0    0 -0.55576089495E+02  0.60908313440E+02 -0.34839075420E+03  0.36555133369E+03  0.73845349098E+02 0.  0.
      -24    2    3    3    0    0  0.55576089495E+02 -0.60908313440E+02 -0.12542196954E+03  0.17016935773E+03  0.80177400167E+02 0.  0.
      -13    1    4    4    0    0 -0.41160340493E+02 -0.18286359262E+00 -0.20394006781E+03  0.20805229710E+03  0.00000000000E+00 0.  1.
       14    1    4    4    0    0 -0.14415749003E+02  0.61091177032E+02 -0.14445068639E+03  0.15749903659E+03  0.00000000000E+00 0. -1.
        1    1    5    5  501    0 -0.49875245532E+01 -0.44812459789E+02 -0.24342665838E+02  0.51240582877E+02  0.00000000000E+00 0. -1.
       -2    1    5    5    0  501  0.60563614048E+02 -0.16095853651E+02 -0.10107930370E+03  0.11892877485E+03  0.00000000000E+00 0.  1.
</event>
<event>
 9   1  0.7570500E-01  0.2499995E+03  0.7546771E-02  0.1113305E+00
       21   -1    0    0  503  502  0.00000000000E+00  0.00000000000E+00  0.18493159756E+03  0.18493159756E+03  0.00000000000E+00 0.  1.
       21   -1    0    0  502  503 -0.00000000000E+00 -0.00000000000E+00 -0.84490343237E+02  0.84490343237E+02  0.00000000000E+00 0.  1.
       25    2    1    2    0    0  0.00000000000E+00 -0.35527136788E-14  0.10044125432E+03  0.26942194079E+03  0.24999947322E+03 0.  0.
       24    2    3    3    0    0  0.89136922184E+02  0.26240967295E+02  0.78336481761E+02  0.14526970698E+03  0.79578289323E+02 0.  0.
      -24    2    3    3    0    0 -0.89136922184E+02 -0.26240967295E+02  0.22104772558E+02  0.12415223381E+03  0.79316939733E+02 0.  0.
      -13    1    4    4    0    0  0.28728285877E+02  0.31539209441E+02 -0.41812966308E+01  0.42866296587E+02  0.00000000000E+00 0.  1.
       14    1    4    4    0    0  0.60408636307E+02 -0.52982421460E+01  0.82517778391E+02  0.10240341040E+03  0.00000000000E+00 0. -1.
        1    1    5    5  501    0 -0.32714456879E+02  0.23190456179E+02 -0.11846592708E+02  0.41813570829E+02  0.00000000000E+00 0. -1.
       -2    1    5    5    0  501 -0.56422465305E+02 -0.49431423474E+02  0.33951365266E+02  0.82338662979E+02  0.00000000000E+00 0.  1.
</event>
<event>
 9   1  0.7570500E-01  0.2500011E+03  0.7546771E-02  0.1113304E+00
       21   -1    0    0  503  502  0.00000000000E+00  0.00000000000E+00  0.51344499544E+03  0.51344499544E+03  0.00000000000E+00 0.  1.
       21   -1    0    0  502  503 -0.00000000000E+00 -0.00000000000E+00 -0.30431948084E+02  0.30431948084E+02  0.00000000000E+00 0.  1.
       25    2    1    2    0    0  0.00000000000E+00  0.00000000000E+00  0.48301304736E+03  0.54387694352E+03  0.25000105156E+03 0.  0.
       24    2    3    3    0    0  0.36567270068E+02 -0.39077909679E+02  0.69192798805E+02  0.11976902182E+03  0.81809088231E+02 0.  0.
      -24    2    3    3    0    0 -0.36567270068E+02  0.39077909679E+02  0.41382024855E+03  0.42410792170E+03  0.75868853115E+02 0.  0.
      -13    1    4    4    0    0  0.48304421887E+02 -0.11540882629E+02  0.74332376942E+02  0.89396931757E+02  0.00000000000E+00 0.  1.
       14    1    4    4    0    0 -0.11737151820E+02 -0.27537027051E+02 -0.51395781374E+01  0.30372090067E+02  0.00000000000E+00 0. -1.
        1    1    5    5  501    0  0.43919079717E+01  0.34753486332E+02  0.31647927839E+03  0.31841204016E+03  0.00000000000E+00 0. -1.
       -2    1    5    5    0  501 -0.40959178039E+02  0.43244233471E+01  0.97340970162E+02  0.10569588154E+03  0.00000000000E+00 0.  1.
</event>
<event>
 9   1  0.7570500E-01  0.2500193E+03  0.7546771E-02  0.1113293E+00
       21   -1    0    0  503  502  0.00000000000E+00  0.00000000000E+00  0.20744525289E+04  0.20744525289E+04  0.00000000000E+00 0. -1.
       21   -1    0    0  502  503 -0.00000000000E+00 -0.00000000000E+00 -0.75332724448E+01  0.75332724448E+01  0.00000000000E+00 0. -1.
       25    2    1    2    0    0 -0.71054273576E-14 -0.35527136788E-14  0.20669192564E+04  0.20819858013E+04  0.25001932784E+03 0.  0.
       24    2    3    3    0    0 -0.31273906095E+02  0.55551393457E+00  0.26277126924E+03  0.27575985007E+03  0.77565386458E+02 0.  0.
      -24    2    3    3    0    0  0.31273906095E+02 -0.55551393457E+00  0.18041479872E+04  0.18062259512E+04  0.80770424505E+02 0.  0.
      -13    1    4    4    0    0  0.81283286784E+01  0.31924827617E+02  0.92212882934E+02  0.97920784946E+02  0.00000000000E+00 0.  1.
       14    1    4    4    0    0 -0.39402234773E+02 -0.31369313682E+02  0.17055838630E+03  0.17783906512E+03  0.00000000000E+00 0. -1.
        1    1    5    5  501    0  0.50755738818E+02  0.22751211919E+02  0.12660569342E+04  0.12672781554E+04  0.00000000000E+00 0. -1.
       -2    1    5    5    0  501 -0.19481832723E+02 -0.23306725853E+02  0.53809105301E+03  0.53894779581E+03  0.00000000000E+00 0.  1.
</event>
<event>
 9   1  0.7570500E-01  0.2499992E+03  0.7546771E-02  0.1113305E+00
       21   -1    0    0  503  502  0.00000000000E+00  0.00000000000E+00  0.12502189086E+03  0.12502189086E+03  0.00000000000E+00 0.  1.
       21   -1    0    0  502  503 -0.00000000000E+00 -0.00000000000E+00 -0.12497729180E+03  0.12497729180E+03  0.00000000000E+00 0.  1.
       25    2    1    2    0    0  0.00000000000E+00  0.00000000000E+00  0.44599061079E-01  0.24999918266E+03  0.24999917869E+03 0.  0.
       24    2    3    3    0    0 -0.35300365016E+02  0.48975242422E+02 -0.73671341301E+02  0.12470928487E+03  0.80499994183E+02 0.  0.
      -24    2    3    3    0    0  0.35300365016E+02 -0.48975242422E+02  0.73715940362E+02  0.12528989779E+03  0.81356182833E+02 0.  0.
      -13    1    4    4    0    0 -0.31579907025E+02  0.11898257174E+02 -0.80078816332E+02  0.86899228286E+02  0.00000000000E+00 0.  1.
       14    1    4    4    0    0 -0.37204579907E+01  0.37076985248E+02  0.64074750311E+01  0.37810056585E+02  0.00000000000E+00 0. -1.
        1    1    5    5  501    0  0.13921724125E+02 -0.44188836119E+02 -0.20946146735E+01  0.46377311811E+02  0.00000000000E+00 0. -1.
       -2    1    5    5    0  501  0.21378640891E+02 -0.47864063026E+01  0.75810555035E+02  0.78912585982E+02  0.00000000000E+00 0.  1.
</event>
<event>
 9   1  0.7570500E-01  0.2499951E+03  0.7546771E-02  0.1113308E+00
       21   -1    0    0  503  502  0.00000000000E+00  0.00000000000E+00  0.77544912893E+02  0.77544912893E+02  0.00000000000E+00 0.  1.
       21   -1    0    0  502  503 -0.00000000000E+00 -0.00000000000E+00 -0.20148822227E+03  0.20148822227E+03  0.00000000000E+00 0.  1.
       25    2    1    2    0    0  0.17763568394E-14  0.35527136788E-14 -0.12394330938E+03  0.27903313517E+03  0.24999509311E+03 0.  0.
       24    2    3    3    0    0 -0.32709310503E+01 -0.18061315563E+02 -0.17395074843E+03  0.19120532509E+03  0.77225017680E+02 0.  0.
      -24    2    3    3    0    0  0.32709310503E+01  0.18061315563E+02  0.50007439045E+02  0.87827810075E+02  0.69828863323E+02 0.  0.
      -13    1    4    4    0    0 -0.12705064671E+02 -0.47043817652E+02 -0.10088267559E+03  0.11203505559E+03  0.00000000000E+00 0.  1.
       14    1    4    4    0    0  0.94341336211E+01  0.28982502089E+02 -0.73068072835E+02  0.79170269498E+02  0.00000000000E+00 0. -1.
        1    1    5    5  501    0  0.76560378354E+01  0.40498776336E+02  0.50216263496E+02  0.64964905292E+02  0.00000000000E+00 0. -1.
       -2    1    5    5    0  501 -0.43851067851E+01 -0.22437460773E+02 -0.20882445161E+00  0.22862904783E+02  0.00000000000E+00 0.  1.
</event>
<event>
 9   1  0.7570500E-01  0.2500349E+03  0.7546771E-02  0.1113283E+00
       21   -1    0    0  503  502  0.00000000000E+00  0.00000000000E+00  0.53871280441E+03  0.53871280441E+03  0.00000000000E+00 0.  1.
       21   -1    0    0  502  503 -0.00000000000E+00 -0.00000000000E+00 -0.29012413136E+02  0.29012413136E+02  0.00000000000E+00 0.  1.
       25    2    1    2    0    0  0.71054273576E-14 -0.35527136788E-14  0.50970039127E+03  0.56772521755E+03  0.25003486512E+03 0.  0.
       24    2    3    3    0    0  0.30162102394E+02 -0.10649926410E+02  0.49187239200E+02  0.99170337425E+02  0.79951222451E+02 0.  0.
      -24    2    3    3    0    0 -0.30162102394E+02  0.10649926410E+02  0.46051315207E+03  0.46855488012E+03  0.80300305726E+02 0.  0.
      -13    1    4    4    0    0  0.54624584083E+02 -0.19359052782E+02  0.43818660125E+02  0.72654615035E+02  0.00000000000E+00 0.  1.
       14    1    4    4    0    0 -0.24462481689E+02  0.87091263713E+01  0.53685790749E+01  0.26515722389E+02  0.00000000000E+00 0. -1.
        1    1    5    5  501    0  0.34380734572E+01 -0.58842792793E+01  0.37663736881E+03  0.37669902134E+03  0.00000000000E+00 0. -1.
       -2    1    5    5    0  501 -0.33600175851E+02  0.16534205690E+02  0.83875783259E+02  0.91855858780E+02  0.00000000000E+00 0.  1.
</event>
<event>
 9   1  0.7570500E-01  0.2499927E+03  0.7546771E-02  0.1113309E+00
       21   -1    0    0  503  502  0.00000000000E+00  0.00000000000E+00  0.12019506607E+03  0.12019506607E+03  0.00000000000E+00 0.  1.
       21   -1    0    0  502  503 -0.00000000000E+00 -0.00000000000E+00 -0.12998944387E+03  0.12998944387E+03  0.00000000000E+00 0.  1.
       25    2    1    2    0    0  0.00000000000E+00 -0.17763568394E-14 -0.97943778037E+01  0.25018450993E+03  0.24999271824E+03 0.  0.
       24    2    3    3    0    0  0.91829400068E+02  0.14776431134E+02  0.68544894163E+01  0.12566404499E+03  0.84222838610E+02 0.  0.
      -24    2    3    3    0    0 -0.91829400068E+02 -0.14776431134E+02 -0.16648867220E+02  0.12452046495E+03  0.81099813670E+02 0.  0.
      -13    1    4    4    0    0  0.45906868486E+02 -0.34533090670E+02 -0.32086172894E+01  0.57534947209E+02  0.00000000000E+00 0.  1.
       14    1    4    4    0    0  0.45922531581E+02  0.49309521804E+02  0.10063106706E+02  0.68129097777E+02  0.00000000000E+00 0. -1.
        3    1    5    5  501    0 -0.66658626054E+02  0.84991995887E+00 -0.47416719615E+02  0.81807335187E+02  0.00000000000E+00 0. -1.
       -4    1    5    5    0  501 -0.25170774013E+02 -0.15626351093E+02  0.30767852395E+02  0.42713129761E+02  0.00000000000E+00 0.  1.
</event>
<event>
 9   1  0.7570500E-01  0.2500450E+03  0.7546771E-02  0.1113276E+00
       21   -1    0    0  503  502  0.00000000000E+00  0.00000000000E+00  0.91817638466E+02  0.91817638466E+02  0.00000000000E+00 0. -1.
       21   -1    0    0  502  503 -0.00000000000E+00 -0.00000000000E+00 -0.17023550867E+03  0.17023550867E+03  0.00000000000E+00 0. -1.
       25    2    1    2    0    0  0.00000000000E+00  0.17763568394E-14 -0.78417870203E+02  0.26205314714E+03  0.25004497507E+03 0.  0.
       24    2    3    3    0    0 -0.91712449865E+02 -0.20390417595E+01 -0.69829625850E+02  0.14054890073E+03  0.80389586996E+02 0.  0.
      -24    2    3    3    0    0  0.91712449865E+02  0.20390417595E+01 -0.85882443531E+01  0.12150424641E+03  0.79209802442E+02 0.  0.
      -13    1    4    4    0    0 -0.27799816996E+02  0.10585855561E+02  0.15220362423E+02  0.33414811017E+02  0.00000000000E+00 0.  1.
       14    1    4    4    0    0 -0.63912632869E+02 -0.12624897321E+02 -0.85049988273E+02  0.10713408971E+03  0.00000000000E+00 0. -1.
        3    1    5    5  501    0  0.72001975967E+02 -0.60521516813E+01  0.29352461327E+02  0.77990256245E+02  0.00000000000E+00 0. -1.
       -4    1    5    5    0  501  0.19710473898E+02  0.80911934408E+01 -0.37940705680E+02  0.43513990165E+02  0.00000000000E+00 0.  1.
</event>
<event>
 9   1  0.7570500E-01  0.2500008E+03  0.7546771E-02  0.1113304E+00
       21   -1    0    0  503  502  0.00000000000E+00  0.00000000000E+00  0.95215889579E+03  0.95215889579E+03  0.00000000000E+00 0. -1.
       21   -1    0    0  502  503 -0.00000000000E+00 -0.00000000000E+00 -0.16410176180E+02  0.16410176180E+02  0.00000000000E+00 0. -1.
       25    2    1    2    0    0  0.71054273576E-14  0.71054273576E-14  0.93574871961E+03  0.96856907197E+03  0.25000076185E+03 0.  0.
       24    2    3    3    0    0 -0.38036222231E+02 -0.54447503924E+02  0.20104673126E+03  0.22652411970E+03  0.80511513268E+02 0.  0.
      -24    2    3    3    0    0  0.38036222231E+02  0.54447503924E+02  0.73470198835E+03  0.74204495227E+03  0.80202335536E+02 0.  0.
      -13    1    4    4    0    0 -0.11157319886E+02  0.96228563172E+01  0.10145545492E+01  0.14768699052E+02  0.00000000000E+00 0.  1.
       14    1    4    4    0    0 -0.26878902345E+02 -0.64070360241E+02  0.20003217671E+03  0.21175542065E+03  0.00000000000E+00 0. -1.
        3    1    5    5  501    0 -0.12905453649E+02  0.35654967651E+02  0.14598017302E+03  0.15082452840E+03  0.00000000000E+00 0. -1.
       -4    1    5    5    0  501  0.50941675880E+02  0.18792536272E+02  0.58872181533E+03  0.59122042387E+03  0.00000000000E+00 0.  1.
</event>
<event>
 9   1  0.7570500E-01  0.2500000E+03  0.7546771E-02  0.1113305E+00
       21   -1    0    0  503  502  0.00000000000E+00  0.00000000000E+00  0.86908383641E+02  0.86908383641E+02  0.00000000000E+00 0.  1.
       21   -1    0    0  502  503 -0.00000000000E+00 -0.00000000000E+00 -0.17978709434E+03  0.17978709434E+03  0.00000000000E+00 0.  1.
       25    2    1    2    0    0  0.71054273576E-14  0.00000000000E+00 -0.92878710695E+02  0.26669547798E+03  0.25000004615E+03 0.  0.
       24    2    3    3    0    0 -0.44851119331E+02 -0.76729487234E+02 -0.15206999287E+02  0.12180019819E+03  0.81884054217E+02 0.  0.
      -24    2    3    3    0    0  0.44851119331E+02  0.76729487234E+02 -0.77671711409E+02  0.14489527979E+03  0.84039932386E+02 0.  0.
      -13    1    4    4    0    0 -0.21972734688E+01 -0.75470776581E+02  0.26331293424E+01  0.75548656498E+02  0.00000000000E+00 0.  1.
       14    1    4    4    0    0 -0.42653845862E+02 -0.12587106532E+01 -0.17840128629E+02  0.46251541691E+02  0.00000000000E+00 0. -1.
        3    1    5    5  501    0  0.58256948361E+02  0.41314014925E+02 -0.79644035107E+02  0.10697612906E+03  0.00000000000E+00 0. -1.
       -4    1    5    5    0  501 -0.13405829031E+02  0.35415472309E+02  0.19723236978E+01  0.37919150724E+02  0.00000000000E+00 0.  1.
</event>
<event>
 9   1  0.7570500E-01  0.2499988E+03  0.7546771E-02  0.1113306E+00
       21   -1    0    0  503  502  0.00000000000E+00  0.00000000000E+00  0.35447757509E+02  0.35447757509E+02  0.00000000000E+00 0.  1.
       21   -1    0    0  502  503 -0.00000000000E+00 -0.00000000000E+00 -0.44078512104E+03  0.44078512104E+03  0.00000000000E+00 0.  1.
       25    2    1    2    0    0  0.00000000000E+00  0.00000000000E+00 -0.40533736353E+03  0.47623287855E+03  0.24999875267E+03 0.  0.
       24    2    3    3    0    0  0.42660233803E+02 -0.72234131141E+02 -0.12855801321E+03  0.17616702609E+03  0.86429121669E+02 0.  0.
      -24    2    3    3    0    0 -0.42660233803E+02  0.72234131141E+02 -0.27677935032E+03  0.30006585246E+03  0.79969005221E+02 0.  0.
      -13    1    4    4    0    0 -0.57400283808E+01 -0.40947530689E+02 -0.74062244031E+01  0.42005956188E+02  0.00000000000E+00 0.  1.
       14    1    4    4    0    0  0.48400262183E+02 -0.31286600452E+02 -0.12115178881E+03  0.13416106991E+03  0.00000000000E+00 0. -1.
        1    1    5    5  501    0 -0.42824436589E+02  0.88600407822E+01 -0.17321149413E+03  0.17864673070E+03  0.00000000000E+00 0. -1.
       -2    1    5    5    0  501  0.16420278629E+00  0.63374090359E+02 -0.10356785619E+03  0.12141912175E+03  0.00000000000E+00 0.  1.
</event>
<event>
 9   1  0.7570500E-01  0.2499993E+03  0.7546771E-02  0.1113305E+00
       21   -1    0    0  503  502  0.00000000000E+00  0.00000000000E+00  0.31332802030E+02  0.31332802030E+02  0.00000000000E+00 0. -1.
       21   -1    0    0  502  503 -0.00000000000E+00 -0.00000000000E+00 -0.49867583304E+03  0.49867583304E+03  0.00000000000E+00 0. -1.
       25    2    1    2    0    0  0.14210854715E-13  0.35527136788E-14 -0.46734303101E+03  0.53000863507E+03  0.24999928923E+03 0.  0.
       24    2    3    3    0    0 -0.82836897300E+02  0.24590755955E+02 -0.14809366127E+03  0.18954569267E+03  0.80803343182E+02 0.  0.
      -24    2    3    3    0    0  0.82836897300E+02 -0.24590755955E+02 -0.31924936974E+03  0.34046294240E+03  0.80797266260E+02 0.  0.
      -13    1    4    4    0    0 -0.88340810411E+02  0.16796315213E+02 -0.15399426490E+03  0.17832680284E+03  0.00000000000E+00 0.  1.
       14    1    4    4    0    0  0.55039131109E+01  0.77944407418E+01  0.59006036255E+01  0.11218889836E+02  0.00000000000E+00 0. -1.
        1    1    5    5  501    0  0.12758597156E+02  0.27915350197E+02 -0.86826926552E+02  0.92092148159E+02  0.00000000000E+00 0. -1.
       -2    1    5    5    0  501  0.70078300144E+02 -0.52506106152E+02 -0.23242244318E+03  0.24837079424E+03  0.00000000000E+00 0.  1.
</event>
<event>
 9   1  0.7570500E-01  0.2500025E+03  0.7546771E-02  0.1113303E+00
       21   -1    0    0  503  502  0.00000000000E+00  0.00000000000E+00  0.16851601390E+04  0.16851601390E+04  0.00000000000E+00 0. -1.
       21   -1    0    0  502  503 -0.00000000000E+00 -0.00000000000E+00 -0.92723002411E+01  0.92723002411E+01  0.00000000000E+00 0. -1.
       25    2    1    2    0    0  0.00000000000E+00  0.14210854715E-13  0.16758878388E+04  0.16944324393E+04  0.25000248610E+03 0.  0.
       24    2    3    3    0    0  0.39301228088E+02 -0.86692981293E+02  0.83536880734E+03  0.84470960907E+03  0.81443353649E+02 0.  0.
      -24    2    3    3    0    0 -0.39301228088E+02  0.86692981293E+02  0.84051903146E+03  0.84972283021E+03  0.80600163729E+02 0.  0.
      -13    1    4    4    0    0 -0.60580087905E+01 -0.36872884209E+02  0.10909056817E+03  0.11531288360E+03  0.00000000000E+00 0.  1.
       14    1    4    4    0    0  0.45359236879E+02 -0.49820097084E+02  0.72627823916E+03  0.72939672547E+03  0.00000000000E+00 0. -1.
        1    1    5    5  501    0 -0.54803386928E+02  0.23839010580E+02  0.42902146446E+03  0.43316408740E+03  0.00000000000E+00 0. -1.
       -2    1    5    5    0  501  0.15502158840E+02  0.62853970713E+02  0.41149756700E+03  0.41655874281E+03  0.00000000000E+00 0.  1.
</event>
<event>
 9   1  0.7570500E-01  0.2499985E+03  0.7546771E-02  0.1113306E+00
       21   -1    0    0  503  502  0.00000000000E+00  0.00000000000E+00  0.38817848680E+03  0.38817848680E+03  0.00000000000E+00 0.  1.
       21   -1    0    0  502  503 -0.00000000000E+00 -0.00000000000E+00 -0.40251626648E+02  0.40251626648E+02  0.00000000000E+00 0.  1.
       25    2    1    2    0    0  0.00000000000E+00  0.00000000000E+00  0.34792686015E+03  0.42843011345E+03  0.24999852418E+03 0.  0.
       24    2    3    3    0    0  0.41491233066E+02  0.62822630314E+02  0.72283565648E+02  0.13172668040E+03  0.80366654554E+02 0.  0.
      -24    2    3    3    0    0 -0.41491233066E+02 -0.62822630314E+02  0.27564329450E+03  0.29670343305E+03  0.79909299082E+02 0.  0.
      -13    1    4    4    0    0  0.23738723247E+02  0.35655082732E+02 -0.93809866832E+01  0.43849912396E+02  0.00000000000E+00 0.  1.
       14    1    4    4    0    0  0.17752509819E+02  0.27167547582E+02  0.81664552331E+02  0.87876767999E+02  0.00000000000E+00 0. -1.
        3    1    5    5  501    0 -0.64000671562E+01 -0.69495670452E+02  0.21791445773E+03  0.22881721954E+03  0.00000000000E+00 0. -1.
       -4    1    5    5    0  501 -0.35091165910E+02  0.66730401383E+01  0.57728836772E+02  0.67886213509E+02  0.00000000000E+00 0.  1.
</event>
<event>
 9   1  0.7570500E-01  0.2499955E+03  0.7546771E-02  0.1113308E+00
       21   -1    0    0  503  502  0.00000000000E+00  0.00000000000E+00  0.19598934681E+03  0.19598934681E+03  0.00000000000E+00 0.  1.
       21   -1    0    0  502  503 -0.00000000000E+00 -0.00000000000E+00 -0.79720853099E+02  0.79720853099E+02  0.00000000000E+00 0.  1.
       25    2    1    2    0    0  0.14210854715E-13 -0.17763568394E-14  0.11626849371E+03  0.27571019991E+03  0.24999550337E+03 0.  0.
       24    2    3    3    0    0 -0.48402841199E+02 -0.10863925902E+02 -0.33046234655E+02  0.98825752582E+02  0.78826491908E+02 0.  0.
      -24    2    3    3    0    0  0.48402841199E+02  0.10863925902E+02  0.14931472837E+03  0.17688444733E+03  0.80823014526E+02 0.  0.
      -13    1    4    4    0    0 -0.65124463812E+02 -0.52126623832E+01 -0.47880356595E+01  0.65507960749E+02  0.00000000000E+00 0.  1.
       14    1    4    4    0    0  0.16721622614E+02 -0.56512635186E+01 -0.28258198995E+02  0.33317791833E+02  0.00000000000E+00 0. -1.
        3    1    5    5  501    0  0.35610673662E+02 -0.14524298786E+02  0.17882842136E+02  0.42413103833E+02  0.00000000000E+00 0. -1.
       -4    1    5    5    0  501  0.12792167537E+02  0.25388224688E+02  0.13143188623E+03  0.13447134350E+03  0.00000000000E+00 0.  1.
</event>
<event>
 9   1  0.7570500E-01  0.2499461E+03  0.7546771E-02  0.1113339E+00
       21   -1    0    0  503  502  0.00000000000E+00  0.00000000000E+00  0.23698184779E+03  0.23698184779E+03  0.00000000000E+00 0. -1.
       21   -1    0    0  502  503 -0.00000000000E+00 -0.00000000000E+00 -0.65904914370E+02  0.65904914370E+02  0.00000000000E+00 0. -1.
       25    2    1    2    0    0  0.00000000000E+00  0.00000000000E+00  0.17107693342E+03  0.30288676216E+03  0.24994614129E+03 0.  0.
       24    2    3    3    0    0 -0.82776904657E+02 -0.46750591095E+02  0.96853072744E+02  0.15860546616E+03  0.82082534580E+02 0.  0.
      -24    2    3    3    0    0  0.82776904657E+02  0.46750591095E+02  0.74223860680E+02  0.14428129600E+03  0.79185081741E+02 0.  0.
      -13    1    4    4    0    0 -0.35699563033E+02 -0.38373207958E+02  0.97600454722E+02  0.11078271820E+03  0.00000000000E+00 0.  1.
       14    1    4    4    0    0 -0.47077341623E+02 -0.83773831370E+01 -0.74738197728E+00  0.47822747959E+02  0.00000000000E+00 0. -1.
        1    1    5    5  501    0  0.31035369697E+02  0.55150778404E+02  0.65615315090E+02  0.91160145377E+02  0.00000000000E+00 0. -1.
       -2    1    5    5    0  501  0.51741534960E+02 -0.84001873089E+01  0.86085455899E+01  0.53121150628E+02  0.00000000000E+00 0.  1.
</event>
<event>
 9   1  0.7570500E-01  0.2500075E+03  0.7546771E-02  0.1113300E+00
       21   -1    0    0  503  502  0.00000000000E+00  0.00000000000E+00  0.11275834217E+03  0.11275834217E+03  0.00000000000E+00 0.  1.
       21   -1    0    0  502  503 -0.00000000000E+00 -0.00000000000E+00 -0.13857903227E+03  0.13857903227E+03  0.00000000000E+00 0.  1.
       25    2    1    2    0    0  0.00000000000E+00  0.00000000000E+00 -0.25820690107E+02  0.25133737444E+03  0.25000753539E+03 0.  0.
       24    2    3    3    0    0  0.40708977029E+02  0.55793993177E+01  0.74130057914E+02  0.11671483743E+03  0.80241742765E+02 0.  0.
      -24    2    3    3    0    0 -0.40708977029E+02 -0.55793993177E+01 -0.99950748021E+02  0.13462253701E+03  0.80279044182E+02 0.  0.
      -13    1    4    4    0    0  0.14311894189E+02 -0.29238718154E+02  0.22938801705E+01  0.32634258698E+02  0.00000000000E+00 0.  1.
       14    1    4    4    0    0  0.26397082840E+02  0.34818117471E+02  0.71836177744E+02  0.84080578730E+02  0.00000000000E+00 0. -1.
        3    1    5    5  501    0 -0.25579236172E+01  0.28934098060E+02 -0.94932864868E+01  0.30558918372E+02  0.00000000000E+00 0. -1.
       -4    1    5    5    0  501 -0.38151053412E+02 -0.34513497378E+02 -0.90457461534E+02  0.10406361864E+03  0.00000000000E+00 0.  1.
</event>
<event>
 9   1  0.7570500E-01  0.2499989E+03  0.7546771E-02  0.1113306E+00
       21   -1    0    0  503  502  0.00000000000E+00  0.00000000000E+00  0.62367182635E+02  0.62367182635E+02  0.00000000000E+00 0.  1.
       21   -1    0    0  502  503 -0.00000000000E+00 -0.00000000000E+00 -0.25053013053E+03  0.25053013053E+03  0.00000000000E+00 0.  1.
       25    2    1    2    0    0  0.35527136788E-14  0.71054273576E-14 -0.18816294790E+03  0.31289731317E+03  0.24999886725E+03 0.  0.
       24    2    3    3    0    0 -0.23206756270E+02  0.51169824630E+02 -0.19032138717E+03  0.21315440591E+03  0.77818158910E+02 0.  0.
      -24    2    3    3    0    0  0.23206756270E+02 -0.51169824630E+02  0.21584392724E+01  0.99742907255E+02  0.82383761739E+02 0.  0.
      -13    1    4    4    0    0  0.24456270308E+02  0.32506935616E+02 -0.11588081857E+03  0.12281357471E+03  0.00000000000E+00 0.  1.
       14    1    4    4    0    0 -0.47663026578E+02  0.18662889014E+02 -0.74440568603E+02  0.90340831205E+02  0.00000000000E+00 0. -1.
        3    1    5    5  501    0  0.35025928890E+02 -0.64586549288E+02 -0.14970113292E+02  0.74982280144E+02  0.00000000000E+00 0. -1.
       -4    1    5    5    0  501 -0.11819172620E+02  0.13416724658E+02  0.17128552565E+02  0.24760627111E+02  0.00000000000E+00 0.  1.
</event>
<event>
 9   1  0.7570500E-01  0.2500035E+03  0.7546771E-02  0.1113303E+00
       21   -1    0    0  503  502  0.00000000000E+00  0.00000000000E+00  0.14139847033E+03  0.14139847033E+03  0.00000000000E+00 0.  1.
       21   -1    0    0  502  503 -0.00000000000E+00 -0.00000000000E+00 -0.11050644951E+03  0.11050644951E+03  0.00000000000E+00 0.  1.
       25    2    1    2    0    0 -0.14210854715E-13  0.00000000000E+00  0.30892020823E+02  0.25190491984E+03  0.25000354335E+03 0.  0.
       24    2    3    3    0    0  0.91601964609E+02 -0.76789167376E+01  0.44415626904E+02  0.12941123638E+03  0.79527570719E+02 0.  0.
      -24    2    3    3    0    0 -0.91601964609E+02  0.76789167376E+01 -0.13523606081E+02  0.12249368346E+03  0.79824362727E+02 0.  0.
      -13    1    4    4    0    0  0.63501058388E+02 -0.33095981929E+02  0.76897378271E+00  0.71612287751E+02  0.00000000000E+00 0.  1.
       14    1    4    4    0    0  0.28100906221E+02  0.25417065191E+02  0.43646653121E+02  0.57798948624E+02  0.00000000000E+00 0. -1.
        1    1    5    5  501    0 -0.80899825506E+02 -0.18869354913E+02  0.12257616542E+02  0.83970729930E+02  0.00000000000E+00 0. -1.
       -2    1    5    5    0  501 -0.10702139103E+02  0.26548271651E+02 -0.25781222624E+02  0.38522953534E+02  0.00000000000E+00 0.  1.
</event>
<event>
 9   1  0.7570500E-01  0.2499969E+03  0.7546771E-02  0.1113307E+00
       21   -1    0    0  503  502  0.00000000000E+00  0.00000000000E+00  0.79403278328E+02  0.79403278328E+02  0.00000000000E+00 0. -1.
       21   -1    0    0  502  503 -0.00000000000E+00 -0.00000000000E+00 -0.19677540727E+03  0.19677540727E+03  0.00000000000E+00 0. -1.
       25    2    1    2    0    0  0.00000000000E+00 -0.14210854715E-13 -0.11737212894E+03  0.27617868560E+03  0.24999689943E+03 0.  0.
       24    2    3    3    0    0  0.73032187105E+02 -0.56551714836E+02 -0.84055530258E+02  0.15061154933E+03  0.84182598078E+02 0.  0.
      -24    2    3    3    0    0 -0.73032187105E+02  0.56551714836E+02 -0.33316598684E+02  0.12556713627E+03  0.78264379888E+02 0.  0.
      -13    1    4    4    0    0  0.36228690256E+02 -0.55416513730E+01 -0.79505505108E+02  0.87546291983E+02  0.00000000000E+00 0.  1.
       14    1    4    4    0    0  0.36803496850E+02 -0.51010063463E+02 -0.45500251509E+01  0.63065257343E+02  0.00000000000E+00 0. -1.
        3    1    5    5  501    0 -0.24829193725E+02  0.16323479148E+02 -0.52148075089E+02  0.60019718160E+02  0.00000000000E+00 0. -1.
       -4    1    5    5    0  501 -0.48202993380E+02  0.40228235689E+02  0.18831476405E+02  0.65547418111E+02  0.00000000000E+00 0.  1.
</event>
<event>
 9   1  0.7570500E-01  0.2500696E+03  0.7546771E-02  0.1113261E+00
       21   -1    0    0  503  502  0.00000000000E+00  0.00000000000E+00  0.19734852821E+02  0.19734852821E+02  0.00000000000E+00 0.  1.
       21   -1    0    0  502  503 -0.00000000000E+00 -0.00000000000E+00 -0.79218736361E+03  0.79218736361E+03  0.00000000000E+00 0.  1.
       25    2    1    2    0    0 -0.71054273576E-14  0.00000000000E+00 -0.77245251079E+03  0.81192221643E+03  0.25006959853E+03 0.  0.
       24    2    3    3    0    0 -0.30666189333E+02 -0.57570904964E+02 -0.62075501862E+03  0.62941386706E+03  0.81056761807E+02 0.  0.
      -24    2    3    3    0    0  0.30666189333E+02  0.57570904964E+02 -0.15169749217E+03  0.18250834938E+03  0.77732516969E+02 0.  0.
      -13    1    4    4    0    0 -0.35777813366E+00  0.48443005414E+01 -0.34597190819E+03  0.34600600647E+03  0.00000000000E+00 0.  1.
       14    1    4    4    0    0 -0.30308411200E+02 -0.62415205506E+02 -0.27478311043E+03  0.28340786059E+03  0.00000000000E+00 0. -1.
        1    1    5    5  501    0 -0.10292584336E+02  0.59535037455E+02 -0.93188947240E+02  0.11106096463E+03  0.00000000000E+00 0. -1.
       -2    1    5    5    0  501  0.40958773669E+02 -0.19641324911E+01 -0.58508544934E+02  0.71447384747E+02  0.00000000000E+00 0.  1.
</event>
<event>
 9   1  0.7570500E-01  0.2500099E+03  0.7546771E-02  0.1113299E+00
       21   -1    0    0  503  502  0.00000000000E+00  0.00000000000E+00  0.96952239270E+02  0.96952239270E+02  0.00000000000E+00 0. -1.
       21   -1    0    0  502  503 -0.00000000000E+00 -0.00000000000E+00 -0.16117456382E+03  0.16117456382E+03  0.00000000000E+00 0. -1.
       25    2    1    2    0    0 -0.35527136788E-14  0.00000000000E+00 -0.64222324548E+02  0.25812680309E+03  0.25000987881E+03 0.  0.
       24    2    3    3    0    0  0.25960584740E+02 -0.85874806832E+02 -0.69380037273E+02  0.13786653452E+03  0.78391054080E+02 0.  0.
      -24    2    3    3    0    0 -0.25960584740E+02  0.85874806832E+02  0.51577127251E+01  0.12026026857E+03  0.79921810460E+02 0.  0.
      -13    1    4    4    0    0 -0.46243462225E+01 -0.13885307864E+02 -0.56786436654E+02  0.58642013440E+02  0.00000000000E+00 0.  1.
       14    1    4    4    0    0  0.30584930962E+02 -0.71989498967E+02 -0.12593600619E+02  0.79224521078E+02  0.00000000000E+00 0. -1.
        3    1    5    5  501    0  0.98941978851E+01  0.48572637658E+02  0.34860386591E+02  0.60600683446E+02  0.00000000000E+00 0. -1.
       -4    1    5    5    0  501 -0.35854782625E+02  0.37302169174E+02 -0.29702673866E+02  0.59659585122E+02  0.00000000000E+00 0.  1.
</event>
<event>
 9   1  0.7570500E-01  0.2499966E+03  0.7546771E-02  0.1113307E+00
       21   -1    0    0  503  502  0.00000000000E+00  0.00000000000E+00  0.21361362789E+03  0.21361362789E+03  0.00000000000E+00 0. -1.
       21   -1    0    0  502  503 -0.00000000000E+00 -0.00000000000E+00 -0.73144078096E+02  0.73144078096E+02  0.00000000000E+00 0. -1.
       25    2    1    2    0    0  0.00000000000E+00  0.00000000000E+00  0.14046954979E+03  0.28675770599E+03  0.24999657502E+03 0.  0.
       24    2    3    3    0    0 -0.51444390148E+02  0.67741786174E+02  0.20924957175E+02  0.12005062179E+03  0.82090334928E+02 0.  0.
      -24    2    3    3    0    0  0.51444390148E+02 -0.67741786174E+02  0.11954459262E+03  0.16670708419E+03  0.79150915495E+02 0.  0.
      -13    1    4    4    0    0 -0.42356652737E+02  0.56235518495E+02  0.50769441661E+02  0.86798938807E+02  0.00000000000E+00 0.  1.
       14    1    4    4    0    0 -0.90877374106E+01  0.11506267679E+02 -0.29844484487E+02  0.33251682986E+02  0.00000000000E+00 0. -1.
        3    1    5    5  501    0  0.52517557581E+02 -0.90115989567E+01  0.79161982739E+02  0.95424956281E+02  0.00000000000E+00 0. -1.
       -4    1    5    5    0  501 -0.10731674326E+01 -0.58730187217E+02  0.40382609879E+02  0.71282127911E+02  0.00000000000E+00 0.  1.
</event>
<event>
 9   1  0.7570500E-01  0.2499497E+03  0.7546771E-02  0.1113337E+00
       21   -1    0    0  503  502  0.00000000000E+00  0.00000000000E+00  0.18053059454E+03  0.18053059454E+03  0.00000000000E+00 0.  1.
       21   -1    0    0  502  503 -0.00000000000E+00 -0.00000000000E+00 -0.86515620793E+02  0.86515620793E+02  0.00000000000E+00 0.  1.
       25    2    1    2    0    0 -0.14210854715E-13 -0.14210854715E-13  0.94014973751E+02  0.26704621534E+03  0.24994972662E+03 0.  0.
       24    2    3    3    0    0  0.74487985942E+02  0.56463954222E+02  0.72180421501E+02  0.14254605549E+03  0.79829358716E+02 0.  0.
      -24    2    3    3    0    0 -0.74487985942E+02 -0.56463954222E+02  0.21834552250E+02  0.12450015984E+03  0.79289999071E+02 0.  0.
      -13    1    4    4    0    0  0.48187596912E+02 -0.10167927669E+02  0.16921307012E+02  0.52074579982E+02  0.00000000000E+00 0.  1.
       14    1    4    4    0    0  0.26300389030E+02  0.66631881891E+02  0.55259114489E+02  0.90471475513E+02  0.00000000000E+00 0. -1.
        3    1    5    5  501    0 -0.72887620314E+02 -0.25882819382E+02 -0.12657553781E+02  0.78375628877E+02  0.00000000000E+00 0. -1.
       -4    1    5    5    0  501 -0.16003656281E+01 -0.30581134840E+02  0.34492106031E+02  0.46124530964E+02  0.00000000000E+00 0.  1.
</event>
<event>
 9   1  0.7570500E-01  0.2500009E+03  0.7546771E-02  0.1113304E+00
       21   -1    0    0  503  502  0.00000000000E+00  0.00000000000E+00  0.14018423381E+04  0.14018423381E+04  0.00000000000E+00 0.  1.
       21   -1    0    0  502  503 -0.00000000000E+00 -0.00000000000E+00 -0.11146130739E+02  0.11146130739E+02  0.00000000000E+00 0.  1.
       25    2    1    2    0    0 -0.17763568394E-14 -0.14210854715E-13  0.13906962074E+04  0.14129884688E+04  0.25000094380E+03 0.  0.
       24    2    3    3    0    0  0.13293232569E+01 -0.91201308900E+02  0.52894287923E+03  0.54272612241E+03  0.80322030707E+02 0.  0.
      -24    2    3    3    0    0 -0.13293232569E+01  0.91201308900E+02  0.86175332814E+03  0.87026234643E+03  0.80114338381E+02 0.  0.
      -13    1    4    4    0    0  0.56438436639E+01 -0.53817589829E+02  0.46787874314E+03  0.47099756287E+03  0.00000000000E+00 0.  1.
       14    1    4    4    0    0 -0.43145204070E+01 -0.37383719071E+02  0.61064136088E+02  0.71728559543E+02  0.00000000000E+00 0. -1.
        1    1    5    5  501    0 -0.30184708647E+02  0.79269053989E+02  0.72736920589E+03  0.73229820513E+03  0.00000000000E+00 0. -1.
       -2    1    5    5    0  501  0.28855385390E+02  0.11932254910E+02  0.13438412224E+03  0.13796414130E+03  0.00000000000E+00 0.  1.
</event>
<event>
 9   1  0.7570500E-01  0.2500002E+03  0.7546771E-02  0.1113305E+00
       21   -1    0    0  503  502  0.00000000000E+00  0.00000000000E+00  0.74055202274E+02  0.74055202274E+02  0.00000000000E+00 0.  1.
       21   -1    0    0  502  503 -0.00000000000E+00 -0.00000000000E+00 -0.21099152816E+03  0.21099152816E+03  0.00000000000E+00 0.  1.
       25    2    1    2    0    0  0.00000000000E+00  0.71054273576E-14 -0.13693632589E+03  0.28504673043E+03  0.25000016237E+03 0.  0.
       24    2    3    3    0    0  0.21946517650E+02  0.25661962283E+02  0.34074461755E+02  0.94213250820E+02  0.81085644481E+02 0.  0.
      -24    2    3    3    0    0 -0.21946517650E+02 -0.25661962283E+02 -0.17101078764E+03  0.19083347961E+03  0.77669437408E+02 0.  0.
      -13    1    4    4    0    0 -0.26607994796E+02  0.27861961839E+02  0.21014531179E+02  0.43884904298E+02  0.00000000000E+00 0.  1.
       14    1    4    4    0    0  0.48554512446E+02 -0.21999995559E+01  0.13059930576E+02  0.50328346521E+02  0.00000000000E+00 0. -1.
        3    1    5    5  501    0 -0.15512249684E+02  0.23322829184E+02 -0.28322738425E+02  0.39834178331E+02  0.00000000000E+00 0. -1.
       -4    1    5    5    0  501 -0.64342679655E+01 -0.48984791467E+02 -0.14268804922E+03  0.15099930128E+03  0.00000000000E+00 0.  1.
</event>
<event>
 9   1  0.7570500E-01  0.2500040E+03  0.7546771E-02  0.1113302E+00
       21   -1    0    0  503  502  0.00000000000E+00  0.00000000000E+00  0.88266342696E+03  0.88266342696E+03  0.00000000000E+00 0. -1.
       21   -1    0    0  502  503 -0.00000000000E+00 -0.00000000000E+00 -0.17702666897E+02  0.17702666897E+02  0.00000000000E+00 0. -1.
       25    2    1    2    0    0  0.00000000000E+00  0.00000000000E+00  0.86496076006E+03  0.90036609386E+03  0.25000397301E+03 0.  0.
       24    2    3    3    0    0 -0.22058035366E+02  0.14358902736E+02  0.98249164512E+02  0.12897132038E+03  0.79296709516E+02 0.  0.
      -24    2    3    3    0    0  0.22058035366E+02 -0.14358902736E+02  0.76671159555E+03  0.77139477348E+03  0.80687612382E+02 0.  0.
      -13    1    4    4    0    0 -0.50008093956E+02  0.19560325134E+02  0.75024673880E+02  0.92261137383E+02  0.00000000000E+00 0.  1.
       14    1    4    4    0    0  0.27950058590E+02 -0.52014223982E+01  0.23224490632E+02  0.36710182992E+02  0.00000000000E+00 0. -1.
        3    1    5    5  501    0 -0.82307670112E+01 -0.40608590832E+02  0.49661588879E+03  0.49834139319E+03  0.00000000000E+00 0. -1.
       -4    1    5    5    0  501  0.30288802377E+02  0.26249688097E+02  0.27009570676E+03  0.27305338029E+03  0.00000000000E+00 0.  1.
</event>
<event>
 9   1  0.7570500E-01  0.2499531E+03  0.7546771E-02  0.1113334E+00
       21   -1    0    0  503  502  0.00000000000E+00  0.00000000000E+00  0.12100437955E+03  0.12100437955E+03  0.00000000000E+00 0. -1.
       21   -1    0    0  502  503 -0.00000000000E+00 -0.00000000000E+00 -0.12907910816E+03  0.12907910816E+03  0.00000000000E+00 0. -1.
       25    2    1    2    0    0 -0.71054273576E-14  0.35527136788E-14 -0.80747286086E+01  0.25008348771E+03  0.24995309476E+03 0.  0.
       24    2    3    3    0    0 -0.54875775200E+02  0.23257528429E+02  0.68871094069E+02  0.11704169201E+03  0.73506916253E+02 0.  0.
      -24    2    3    3    0    0  0.54875775200E+02 -0.23257528429E+02 -0.76945822678E+02  0.13304179570E+03  0.90703894310E+02 0.  0.
      -13    1    4    4    0    0 -0.49279284591E+02  0.42673308799E+02  0.27015919768E+02  0.70564290506E+02  0.00000000000E+00 0.  1.
       14    1    4    4    0    0 -0.55964906096E+01 -0.19415780371E+02  0.41855174301E+02  0.46477401501E+02  0.00000000000E+00 0. -1.
        1    1    5    5  501    0 -0.16283409930E+02  0.25167690317E+01 -0.50097547640E+02  0.52737537342E+02  0.00000000000E+00 0. -1.
       -2    1    5    5    0  501  0.71159185130E+02 -0.25774297461E+02 -0.26848275037E+02  0.80304258358E+02  0.00000000000E+00 0.  1.
</event>
<event>
 9   1  0.7570500E-01  0.2499973E+03  0.7546771E-02  0.1113307E+00
       21   -1    0    0  503  502  0.00000000000E+00  0.00000000000E+00  0.15292001816E+02  0.15292001816E+02  0.00000000000E+00 0.  1.
       21   -1    0    0  502  503 -0.00000000000E+00 -0.00000000000E+00 -0.10217535994E+04  0.10217535994E+04  0.00000000000E+00 0.  1.
       25    2    1    2    0    0 -0.35527136788E-14  0.17763568394E-14 -0.10064615976E+04  0.10370456012E+04  0.24999726316E+03 0.  0.
       24    2    3    3    0    0  0.11789334709E+02  0.65883571582E+01 -0.96695101695E+03  0.97041537680E+03  0.80804328411E+02 0.  0.
      -24    2    3    3    0    0 -0.11789334709E+02 -0.65883571582E+01 -0.39510580615E+02  0.66630224395E+02  0.51924040284E+02 0.  0.
      -13    1    4    4    0    0  0.14454532034E+02 -0.36067676168E+02 -0.41721657708E+03  0.41902205545E+03  0.00000000000E+00 0.  1.
       14    1    4    4    0    0 -0.26651973248E+01  0.42656033326E+02 -0.54973443987E+03  0.55139332135E+03  0.00000000000E+00 0. -1.
        1    1    5    5  501    0 -0.32421219164E+02 -0.43424812691E+01 -0.21432287193E+02  0.39106719754E+02  0.00000000000E+00 0. -1.
       -2    1    5    5    0  501  0.20631884454E+02 -0.22458758891E+01 -0.18078293422E+02  0.27523504641E+02  0.00000000000E+00 0.  1.
</event>
<event>
 9   1  0.7570500E-01  0.2499982E+03  0.7546771E-02  0.1113306E+00
       21   -1    0    0  503  502  0.00000000000E+00  0.00000000000E+00  0.56955354437E+02  0.56955354437E+02  0.00000000000E+00 0. -1.
       21   -1    0    0  502  503 -0.00000000000E+00 -0.00000000000E+00 -0.27433373132E+03  0.27433373132E+03  0.00000000000E+00 0. -1.
       25    2    1    2    0    0  0.71054273576E-14  0.00000000000E+00 -0.21737837688E+03  0.33128908576E+03  0.24999819920E+03 0.  0.
       24    2    3    3    0    0 -0.50834681267E+02 -0.17200985709E+02 -0.21366920465E+03  0.23468643730E+03  0.80889777525E+02 0.  0.
      -24    2    3    3    0    0  0.50834681267E+02  0.17200985709E+02 -0.37091722366E+01  0.96602648460E+02  0.80238862168E+02 0.  0.
      -13    1    4    4    0    0 -0.15512270933E+02  0.53766608925E+01 -0.18045902656E+03  0.18120430265E+03  0.00000000000E+00 0.  1.
       14    1    4    4    0    0 -0.35322410333E+02 -0.22577646602E+02 -0.33210178085E+02  0.53482134646E+02  0.00000000000E+00 0. -1.
        3    1    5    5  501    0  0.39394936502E+02  0.41925368665E+02 -0.24302318935E+02  0.62452383984E+02  0.00000000000E+00 0. -1.
       -4    1    5    5    0  501  0.11439744764E+02 -0.24724382956E+02  0.20593146699E+02  0.34150264476E+02  0.00000000000E+00 0.  1.
</event>
<event>
 9   1  0.7570500E-01  0.2500124E+03  0.7546771E-02  0.1113297E+00
       21   -1    0    0  503  502  0.00000000000E+00  0.00000000000E+00  0.37535594823E+02  0.37535594823E+02  0.00000000000E+00 0. -1.
       21   -1    0    0  502  503 -0.00000000000E+00 -0.00000000000E+00 -0.41631299157E+03  0.41631299157E+03  0.00000000000E+00 0. -1.
       25    2    1    2    0    0  0.00000000000E+00  0.00000000000E+00 -0.37877739675E+03  0.45384858639E+03  0.25001244586E+03 0.  0.
       24    2    3    3    0    0 -0.67796946955E+02 -0.44753018686E+02 -0.27386758285E+03  0.29730051444E+03  0.82370408835E+02 0.  0.
      -24    2    3    3    0    0  0.67796946955E+02  0.44753018686E+02 -0.10490981389E+03  0.15654807195E+03  0.83078102303E+02 0.  0.
      -13    1    4    4    0    0 -0.28621375960E+01 -0.44544214342E+02 -0.67215520135E+02  0.80686461131E+02  0.00000000000E+00 0.  1.
       14    1    4    4    0    0 -0.64934809359E+02 -0.20880434412E+00 -0.20665206272E+03  0.21661405331E+03  0.00000000000E+00 0. -1.
        1    1    5    5  501    0  0.73566457610E+02  0.28688574938E+02 -0.11284216292E+03  0.13772585723E+03  0.00000000000E+00 0. -1.
       -2    1    5    5    0  501 -0.57695106547E+01  0.16064443748E+02  0.79323490220E+01  0.18822214724E+02  0.00000000000E+00 0.  1.
</event>
<event>
 9   1  0.7570500E-01  0.2499812E+03  0.7546771E-02  0.1113317E+00
       21   -1    0    0  503  502  0.00000000000E+00  0.00000000000E+00  0.50511444684E+02  0.50511444684E+02  0.00000000000E+00 0.  1.
       21   -1    0    0  502  503 -0.00000000000E+00 -0.00000000000E+00 -0.30928930372E+03  0.30928930372E+03  0.00000000000E+00 0.  1.
       25    2    1    2    0    0  0.00000000000E+00  0.35527136788E-14 -0.25877785904E+03  0.35980074840E+03  0.24998119574E+03 0.  0.
       24    2    3    3    0    0  0.22533883222E+02  0.10253308459E+02  0.72124923439E+01  0.84092689842E+02  0.80041578019E+02 0.  0.
      -24    2    3    3    0    0 -0.22533883222E+02 -0.10253308459E+02 -0.26599035138E+03  0.27570805856E+03  0.68199415696E+02 0.  0.
      -13    1    4    4    0    0  0.17798623162E+02 -0.31307744256E+02 -0.12137862637E+02  0.38003862254E+02  0.00000000000E+00 0.  1.
       14    1    4    4    0    0  0.47352600595E+01  0.41561052714E+02  0.19350354981E+02  0.46088827588E+02  0.00000000000E+00 0. -1.
        1    1    5    5  501    0  0.23183206162E+01 -0.34564538768E+02 -0.17293039903E+03  0.17636611029E+03  0.00000000000E+00 0. -1.
       -2    1    5    5    0  501 -0.24852203838E+02  0.24311230309E+02 -0.93059952353E+02  0.99341948273E+02  0.00000000000E+00 0.  1.
</event>
<event>
 9   1  0.7570500E-01  0.2500233E+03  0.7546771E-02  0.1113290E+00
       21   -1    0    0  503  502  0.00000000000E+00  0.00000000000E+00  0.29815934785E+03  0.29815934785E+03  0.00000000000E+00 0.  1.
       21   -1    0    0  502  503 -0.00000000000E+00 -0.00000000000E+00 -0.52414620326E+02  0.52414620326E+02  0.00000000000E+00 0.  1.
       25    2    1    2    0    0  0.00000000000E+00  0.71054273576E-14  0.24574472752E+03  0.35057396818E+03  0.25002327103E+03 0.  0.
       24    2    3    3    0    0 -0.41521262565E+01  0.55614953450E+02  0.22497093203E+03  0.25007788533E+03  0.93897631873E+02 0.  0.
      -24    2    3    3    0    0  0.41521262565E+01 -0.55614953450E+02  0.20773795490E+02  0.10049608285E+03  0.80979311485E+02 0.  0.
      -13    1    4    4    0    0  0.11142464223E+02  0.33403245401E+00  0.17086312946E+03  0.17122638551E+03  0.00000000000E+00 0.  1.
       14    1    4    4    0    0 -0.15294590479E+02  0.55280920996E+02  0.54107802570E+02  0.78851499815E+02  0.00000000000E+00 0. -1.
        3    1    5    5  501    0  0.11249626695E+02 -0.14875924885E+02  0.47654726755E+02  0.51174409856E+02  0.00000000000E+00 0. -1.
       -4    1    5    5    0  501 -0.70975004390E+01 -0.40739028565E+02 -0.26880931265E+02  0.49321672990E+02  0.00000000000E+00 0.  1.
</event>
<event>
 9   1  0.7570500E-01  0.2500050E+03  0.7546771E-02  0.1113302E+00
       21   -1    0    0  503  502  0.00000000000E+00  0.00000000000E+00  0.93927310244E+01  0.93927310244E+01  0.00000000000E+00 0.  1.
       21   -1    0    0  502  503 -0.00000000000E+00 -0.00000000000E+00 -0.16635874686E+04  0.16635874686E+04  0.00000000000E+00 0.  1.
       25    2    1    2    0    0  0.00000000000E+00  0.00000000000E+00 -0.16541947376E+04  0.16729801996E+04  0.25000503697E+03 0.  0.
       24    2    3    3    0    0  0.32883700821E+02 -0.85118046995E+02 -0.78986847589E+03  0.79918292039E+03  0.80465591012E+02 0.  0.
      -24    2    3    3    0    0 -0.32883700821E+02  0.85118046995E+02 -0.86432626167E+03  0.87379727921E+03  0.90196335019E+02 0.  0.
      -13    1    4    4    0    0 -0.26087062182E+02 -0.15604740918E+02 -0.18351763207E+03  0.18601818200E+03  0.00000000000E+00 0.  1.
       14    1    4    4    0    0  0.58970763003E+02 -0.69513306077E+02 -0.60635084382E+03  0.61316473839E+03  0.00000000000E+00 0. -1.
        1    1    5    5  501    0 -0.46063073296E+02  0.98824410704E+02 -0.71509182841E+03  0.72335633953E+03  0.00000000000E+00 0. -1.
       -2    1    5    5    0  501  0.13179372475E+02 -0.13706363709E+02 -0.14923443325E+03  0.15044093968E+03  0.00000000000E+00 0.  1.
</event>
<event>
 9   1  0.7570500E-01  0.2500025E+03  0.7546771E-02  0.1113303E+00
       21   -1    0    0  503  502  0.00000000000E+00  0.00000000000E+00  0.25845357668E+03  0.25845357668E+03  0.00000000000E+00 0. -1.
       21   -1    0    0  502  503 -0.00000000000E+00 -0.00000000000E+00 -0.60456959105E+02  0.60456959105E+02  0.00000000000E+00 0. -1.
       25    2    1    2    0    0  0.00000000000E+00  0.00000000000E+00  0.19799661757E+03  0.31891053579E+03  0.25000253852E+03 0.  0.
       24    2    3    3    0    0 -0.41370310808E+02 -0.84004287432E+02  0.12079341799E+03  0.17265496488E+03  0.80314781609E+02 0.  0.
      -24    2    3    3    0    0  0.41370310808E+02  0.84004287432E+02  0.77203199583E+02  0.14625557090E+03  0.81621903134E+02 0.  0.
      -13    1    4    4    0    0 -0.26568210405E+02 -0.13493701291E+02 -0.24480382364E+01  0.29898874057E+02  0.00000000000E+00 0.  1.
       14    1    4    4    0    0 -0.14802100402E+02 -0.70510586141E+02  0.12324145623E+03  0.14275609083E+03  0.00000000000E+00 0. -1.
        3    1    5    5  501    0  0.11009708907E+02  0.45894358285E+02 -0.82258585439E+01  0.47907938397E+02  0.00000000000E+00 0. -1.
       -4    1    5    5    0  501  0.30360601901E+02  0.38109929147E+02  0.85429058127E+02  0.98347632507E+02  0.00000000000E+00 0.  1.
</event>
<event>
 9   1  0.7570500E-01  0.2500311E+03  0.7546771E-02  0.1113285E+00
       21   -1    0    0  503  502  0.00000000000E+00  0.00000000000E+00  0.47645973209E+03  0.47645973209E+03  0.00000000000E+00 0.  1.
       21   -1    0    0  502  503 -0.00000000000E+00 -0.00000000000E+00 -0.32802107488E+02  0.32802107488E+02  0.00000000000E+00 0.  1.
       25    2    1    2    0    0 -0.71054273576E-14  0.14210854715E-13  0.44365762460E+03  0.50926183958E+03  0.25003106484E+03 0.  0.
       24    2    3    3    0    0 -0.24588130480E+02  0.83730519570E+02  0.30653236848E+03  0.32768577682E+03  0.76161009323E+02 0.  0.
      -24    2    3    3    0    0  0.24588130480E+02 -0.83730519570E+02  0.13712525613E+03  0.18157606276E+03  0.80939203294E+02 0.  0.
      -13    1    4    4    0    0  0.23264954558E+02  0.45580304329E+02  0.17995606917E+03  0.18709091129E+03  0.00000000000E+00 0.  1.
       14    1    4    4    0    0 -0.47853085038E+02  0.38150215241E+02  0.12657629930E+03  0.14059486554E+03  0.00000000000E+00 0. -1.
        3    1    5    5  501    0  0.10540872579E+02 -0.40153278196E+02  0.50863544174E+01  0.41824236345E+02  0.00000000000E+00 0. -1.
       -4    1    5    5    0  501  0.14047257901E+02 -0.43577241375E+02  0.13203890171E+03  0.13975182641E+03  0.00000000000E+00 0.  1.
</event>
<event>
 9   1  0.7570500E-01  0.2500007E+03  0.7546771E-02  0.1113304E+00
       21   -1    0    0  503  502  0.00000000000E+00  0.00000000000E+00  0.19100873926E+03  0.19100873926E+03  0.00000000000E+00 0.  1.
       21   -1    0    0  502  503 -0.00000000000E+00 -0.00000000000E+00 -0.81803011398E+02  0.81803011398E+02  0.00000000000E+00 0.  1.
       25    2    1    2    0    0  0.00000000000E+00  0.00000000000E+00  0.10920572786E+03  0.27281175065E+03  0.25000072059E+03 0.  0.
       24    2    3    3    0    0 -0.13418305231E+02 -0.18189623557E+02 -0.47241589530E+02  0.95692543636E+02  0.80089835846E+02 0.  0.
      -24    2    3    3    0    0  0.13418305231E+02  0.18189623557E+02  0.15644731739E+03  0.17711920702E+03  0.79903298155E+02 0.  0.
      -13    1    4    4    0    0 -0.31356880675E+02  0.19070031343E+02 -0.58145534252E+01  0.37158163203E+02  0.00000000000E+00 0.  1.
       14    1    4    4    0    0  0.17938575444E+02 -0.37259654900E+02 -0.41427036105E+02  0.58534380433E+02  0.00000000000E+00 0. -1.
        1    1    5    5  501    0 -0.22014996006E+02 -0.66203705635E+01  0.11477833562E+03  0.11705791593E+03  0.00000000000E+00 0. -1.
       -2    1    5    5    0  501  0.35433301237E+02  0.24809994121E+02  0.41668981769E+02  0.60061291083E+02  0.00000000000E+00 0.  1.
</event>
<event>
 9   1  0.7570500E-01  0.2499803E+03  0.7546771E-02  0.1113317E+00
       21   -1    0    0  503  502  0.00000000000E+00  0.00000000000E+00  0.30302850088E+02  0.30302850088E+02  0.00000000000E+00 0.  1.
       21   -1    0    0  502  503 -0.00000000000E+00 -0.00000000000E+00 -0.51554662261E+03  0.51554662261E+03  0.00000000000E+00 0.  1.
       25    2    1    2    0    0  0.35527136788E-14  0.00000000000E+00 -0.48524377252E+03  0.54584947270E+03  0.24998025537E+03 0.  0.
       24    2    3    3    0    0  0.63409610148E+01  0.95692598032E+02 -0.26326507713E+03  0.29113723937E+03  0.79089254682E+02 0.  0.
      -24    2    3    3    0    0 -0.63409610148E+01 -0.95692598032E+02 -0.22197869540E+03  0.25471223333E+03  0.80040611540E+02 0.  0.
      -13    1    4    4    0    0 -0.34831827500E+02  0.44423409452E+02 -0.14852706238E+03  0.15889299473E+03  0.00000000000E+00 0.  1.
       14    1    4    4    0    0  0.41172788515E+02  0.51269188580E+02 -0.11473801474E+03  0.13224424464E+03  0.00000000000E+00 0. -1.
        1    1    5    5  501    0 -0.16212843577E+02 -0.24022078008E+02 -0.14957892304E+03  0.15236066010E+03  0.00000000000E+00 0. -1.
       -2    1    5    5    0  501  0.98718825627E+01 -0.71670520024E+02 -0.72399772353E+02  0.10235157323E+03  0.00000000000E+00 0.  1.
</event>
<event>
 9   1  0.7570500E-01  0.2499912E+03  0.7546771E-02  0.1113310E+00
       21   -1    0    0  503  502  0.00000000000E+00  0.00000000000E+00  0.44339588629E+02  0.44339588629E+02  0.00000000000E+00 0.  1.
       21   -1    0    0  502  503 -0.00000000000E+00 -0.00000000000E+00 -0.35236913548E+03  0.35236913548E+03  0.00000000000E+00 0.  1.
       25    2    1    2    0    0  0.00000000000E+00 -0.44408920985E-15 -0.30802954685E+03  0.39670872411E+03  0.24999121995E+03 0.  0.
       24    2    3    3    0    0 -0.80436867998E+02 -0.67586399306E+00 -0.75393055039E+02  0.13759410912E+03  0.82325449223E+02 0.  0.
      -24    2    3    3    0    0  0.80436867998E+02  0.67586399306E+00 -0.23263649181E+03  0.25911461500E+03  0.80932687186E+02 0.  0.
      -13    1    4    4    0    0 -0.64160892356E+01  0.18842672352E+02 -0.54827252417E+02  0.58328724571E+02  0.00000000000E+00 0.  1.
       14    1    4    4    0    0 -0.74020778762E+02 -0.19518536345E+02 -0.20565802622E+02  0.79265384545E+02  0.00000000000E+00 0. -1.
        3    1    5    5  501    0  0.17077990397E+01 -0.25912671831E+01 -0.12844397081E+03  0.12848145735E+03  0.00000000000E+00 0. -1.
       -4    1    5    5    0  501  0.78729068958E+02  0.32671311762E+01 -0.10419252100E+03  0.13063315765E+03  0.00000000000E+00 0.  1.
</event>
<event>
 9   1  0.7570500E-01  0.2500055E+03  0.7546771E-02  0.1113301E+00
       21   -1    0    0  503  502  0.00000000000E+00  0.00000000000E+00  0.35687330941E+04  0.35687330941E+04  0.00000000000E+00 0. -1.
       21   -1    0    0  502  503 -0.00000000000E+00 -0.00000000000E+00 -0.43784957976E+01  0.43784957976E+01  0.00000000000E+00 0. -1.
       25    2    1    2    0    0  0.00000000000E+00  0.14210854715E-13  0.35643545984E+04  0.35731115899E+04  0.25000546278E+03 0.  0.
       24    2    3    3    0    0 -0.62589943435E+01 -0.91387227231E+02  0.14624186503E+04  0.14675001922E+04  0.80608343225E+02 0.  0.
      -24    2    3    3    0    0  0.62589943435E+01  0.91387227231E+02  0.21019359481E+04  0.21056113978E+04  0.84106054327E+02 0.  0.
      -13    1    4    4    0    0 -0.33150920624E+02 -0.34373761811E+02  0.34304988175E+03  0.34635785022E+03  0.00000000000E+00 0.  1.
       14    1    4    4    0    0  0.26891926280E+02 -0.57013465419E+02  0.11193687685E+04  0.11211423419E+04  0.00000000000E+00 0. -1.
        3    1    5    5  501    0 -0.33301824377E+02  0.59760433583E+02  0.89387727764E+03  0.89649144358E+03  0.00000000000E+00 0. -1.
       -4    1    5    5    0  501  0.39560818720E+02  0.31626793648E+02  0.12080586704E+04  0.12091199542E+04  0.00000000000E+00 0.  1.
</event>
<event>
 9   1  0.7570500E-01  0.2500025E+03  0.7546771E-02  0.1113303E+00
       21   -1    0    0  503  502  0.00000000000E+00  0.00000000000E+00  0.14767390110E+03  0.14767390110E+03  0.00000000000E+00 0.  1.
       21   -1    0    0  502  503 -0.00000000000E+00 -0.00000000000E+00 -0.10580960180E+03  0.10580960180E+03  0.00000000000E+00 0.  1.
       25    2    1    2    0    0 -0.71054273576E-14  0.71054273576E-14  0.41864299306E+02  0.25348350290E+03  0.25000253336E+03 0.  0.
       24    2    3    3    0    0 -0.60079109665E+02 -0.60066617180E+02  0.64145507917E+02  0.13443118808E+03  0.82095068221E+02 0.  0.
      -24    2    3    3    0    0  0.60079109665E+02  0.60066617180E+02 -0.22281208611E+02  0.11905231481E+03  0.80371036372E+02 0.  0.
      -13    1    4    4    0    0 -0.31476663738E+02 -0.41170232936E+02  0.81055267258E+02  0.96206677473E+02  0.00000000000E+00 0.  1.
       14    1    4    4    0    0 -0.28602445927E+02 -0.18896384245E+02 -0.16909759341E+02  0.38224510612E+02  0.00000000000E+00 0. -1.
        1    1    5    5  501    0  0.49051064146E+02  0.75148366366E+02  0.30416989052E+00  0.89740606086E+02  0.00000000000E+00 0. -1.
       -2    1    5    5    0  501  0.11028045519E+02 -0.15081749185E+02 -0.22585378502E+02  0.29311708727E+02  0.00000000000E+00 0.  1.
</event>
<event>
 9   1  0.7570500E-01  0.2499997E+03  0.7546771E-02  0.1113305E+00
       21   -1    0    0  503  502  0.00000000000E+00  0.00000000000E+00  0.10960291080E+03  0.10960291080E+03  0.00000000000E+00 0.  1.
       21   -1    0    0  502  503 -0.00000000000E+00 -0.00000000000E+00 -0.14255975673E+03  0.14255975673E+03  0.00000000000E+00 0.  1.
       25    2    1    2    0    0  0.00000000000E+00  0.00000000000E+00 -0.32956845925E+02  0.25216266753E+03  0.24999971440E+03 0.  0.
       24    2    3    3    0    0  0.75388902934E+02  0.23053849137E+02  0.41084370419E+02  0.11805634680E+03  0.77681457778E+02 0.  0.
      -24    2    3    3    0    0 -0.75388902934E+02 -0.23053849137E+02 -0.74041216344E+02  0.13410632072E+03  0.79293359714E+02 0.  0.
      -13    1    4    4    0    0  0.57144552605E+02  0.51211855855E+02  0.33091438434E+02  0.83565527403E+02  0.00000000000E+00 0.  1.
       14    1    4    4    0    0  0.18244350329E+02 -0.28158006718E+02  0.79929319849E+01  0.34490819401E+02  0.00000000000E+00 0. -1.
        3    1    5    5  501    0 -0.33564484058E+02  0.29380452076E+02 -0.32821481178E+02  0.55380819613E+02  0.00000000000E+00 0. -1.
       -4    1    5    5    0  501 -0.41824418876E+02 -0.52434301213E+02 -0.41219735166E+02  0.78725501111E+02  0.00000000000E+00 0.  1.
</event>
<event>
 9   1  0.7570500E-01  0.2499993E+03  0.7546771E-02  0.1113305E+00
       21   -1    0    0  503  502  0.00000000000E+00  0.00000000000E+00  0.22139073162E+03  0.22139073162E+03  0.00000000000E+00 0. -1.
       21   -1    0    0  502  503 -0.00000000000E+00 -0.00000000000E+00 -0.70576178123E+02  0.70576178123E+02  0.00000000000E+00 0. -1.
       25    2    1    2    0    0 -0.17763568394E-14  0.00000000000E+00  0.15081455350E+03  0.29196690975E+03  0.24999929368E+03 0.  0.
       24    2    3    3    0    0  0.39903739175E+01  0.89232854025E+02  0.38515899917E+02  0.12727355849E+03  0.82077151650E+02 0.  0.
      -24    2    3    3    0    0 -0.39903739175E+01 -0.89232854025E+02  0.11229865358E+03  0.16469335126E+03  0.80836174017E+02 0.  0.
      -13    1    4    4    0    0 -0.12311248622E+02  0.74537544470E+02 -0.78711720579E+01  0.75956354097E+02  0.00000000000E+00 0.  1.
       14    1    4    4    0    0  0.16301622540E+02  0.14695309555E+02  0.46387071975E+02  0.51317204393E+02  0.00000000000E+00 0. -1.
        3    1    5    5  501    0  0.49962786173E+01  0.91403353014E+01 -0.48204628775E+01  0.11478039545E+02  0.00000000000E+00 0. -1.
       -4    1    5    5    0  501 -0.89866525348E+01 -0.98373189326E+02  0.11711911646E+03  0.15321531171E+03  0.00000000000E+00 0.  1.
</event>
<event>
 9   1  0.7570500E-01  0.2499959E+03  0.7546771E-02  0.1113307E+00
       21   -1    0    0  503  502  0.00000000000E+00  0.00000000000E+00  0.78511209506E+02  0.78511209506E+02  0.00000000000E+00 0. -1.
       21   -1    0    0  502  503 -0.00000000000E+00 -0.00000000000E+00 -0.19900971114E+03  0.19900971114E+03  0.00000000000E+00 0. -1.
       25    2    1    2    0    0  0.00000000000E+00  0.71054273576E-14 -0.12049850164E+03  0.27752092065E+03  0.24999594497E+03 0.  0.
       24    2    3    3    0    0 -0.37930031934E+02  0.58670123586E+02 -0.13316488511E+03  0.17176661393E+03  0.83006098026E+02 0.  0.
      -24    2    3    3    0    0  0.37930031934E+02 -0.58670123586E+02  0.12666383476E+02  0.10575430672E+03  0.78375158022E+02 0.  0.
      -13    1    4    4    0    0 -0.36966291613E+02  0.78456238812E+02 -0.94134310062E+02  0.12799670486E+03  0.00000000000E+00 0.  1.
       14    1    4    4    0    0 -0.96374032034E+00 -0.19786115226E+02 -0.39030575050E+02  0.43769909069E+02  0.00000000000E+00 0. -1.
        1    1    5    5  501    0 -0.83401815781E+01  0.11690509384E+02  0.15971331124E+02  0.21478129721E+02  0.00000000000E+00 0. -1.
       -2    1    5    5    0  501  0.46270213512E+02 -0.70360632970E+02 -0.33049476474E+01  0.84276176998E+02  0.00000000000E+00 0.  1.
</event>
<event>
 9   1  0.7570500E-01  0.2499993E+03  0.7546771E-02  0.1113305E+00
       21   -1    0    0  503  502  0.00000000000E+00  0.00000000000E+00  0.79089198274E+03  0.79089198274E+03  0.00000000000E+00 0. -1.
       21   -1    0    0  502  503 -0.00000000000E+00 -0.00000000000E+00 -0.19756057614E+02  0.19756057614E+02  0.00000000000E+00 0. -1.
       25    2    1    2    0    0  0.14210854715E-13  0.00000000000E+00  0.77113592513E+03  0.81064804035E+03  0.24999926062E+03 0.  0.
       24    2    3    3    0    0 -0.93518830287E+02  0.18561128493E+02  0.38688673035E+03  0.40648667048E+03  0.80372781758E+02 0.  0.
      -24    2    3    3    0    0  0.93518830287E+02 -0.18561128493E+02  0.38424919478E+03  0.40416136988E+03  0.81293801134E+02 0.  0.
      -13    1    4    4    0    0 -0.41268315099E+02  0.36865353060E+02  0.99841295486E+02  0.11415083167E+03  0.00000000000E+00 0.  1.
       14    1    4    4    0    0 -0.52250515188E+02 -0.18304224567E+02  0.28704543486E+03  0.29233583880E+03  0.00000000000E+00 0. -1.
        3    1    5    5  501    0 -0.95335534248E+01 -0.75947656261E+01  0.98129382448E+01  0.15648094543E+02  0.00000000000E+00 0. -1.
       -4    1    5    5    0  501  0.10305238371E+03 -0.10966362867E+02  0.37443625653E+03  0.38851327533E+03  0.00000000000E+00 0.  1.
</event>
<event>
 9   1  0.7570500E-01  0.2499810E+03  0.7546771E-02  0.1113317E+00
       21   -1    0    0  503  502  0.00000000000E+00  0.00000000000E+00  0.21624565713E+03  0.21624565713E+03  0.00000000000E+00 0.  1.
       21   -1    0    0  502  503 -0.00000000000E+00 -0.00000000000E+00 -0.72244791218E+02  0.72244791218E+02  0.00000000000E+00 0.  1.
       25    2    1    2    0    0  0.00000000000E+00 -0.35527136788E-14  0.14400086591E+03  0.28849044835E+03  0.24998097809E+03 0.  0.
       24    2    3    3    0    0  0.76571049729E+02  0.26655117147E+02  0.17324721074E+02  0.11549651127E+03  0.80409434951E+02 0.  0.
      -24    2    3    3    0    0 -0.76571049729E+02 -0.26655117147E+02  0.12667614484E+03  0.17299393708E+03  0.85477691049E+02 0.  0.
      -13    1    4    4    0    0 -0.10884359079E+02 -0.17224767063E+01 -0.14489372190E+02  0.18203793699E+02  0.00000000000E+00 0.  1.
       14    1    4    4    0    0  0.87455408808E+02  0.28377593854E+02  0.31814093264E+02  0.97292717574E+02  0.00000000000E+00 0. -1.
        1    1    5    5  501    0 -0.76332604187E+02  0.12673704290E+02  0.94794388174E+02  0.12236529439E+03  0.00000000000E+00 0. -1.
       -2    1    5    5    0  501 -0.23844554175E+00 -0.39328821438E+02  0.31881756664E+02  0.50628642683E+02  0.00000000000E+00 0.  1.
</event>
<event>
 9   1  0.7570500E-01  0.2500090E+03  0.7546771E-02  0.1113299E+00
       21   -1    0    0  503  502  0.00000000000E+00  0.00000000000E+00  0.30492114225E+03  0.30492114225E+03  0.00000000000E+00 0.  1.
       21   -1    0    0  502  503 -0.00000000000E+00 -0.00000000000E+00 -0.51246463915E+02  0.51246463915E+02  0.00000000000E+00 0.  1.
       25    2    1    2    0    0  0.00000000000E+00  0.00000000000E+00  0.25367467833E+03  0.35616760616E+03  0.25000904234E+03 0.  0.
       24    2    3    3    0    0  0.56974069009E+02  0.70510908951E+02  0.83516945680E+02  0.14749709419E+03  0.81009133788E+02 0.  0.
      -24    2    3    3    0    0 -0.56974069009E+02 -0.70510908951E+02  0.17015773265E+03  0.20867051198E+03  0.79824155283E+02 0.  0.
      -13    1    4    4    0    0  0.63505134474E+01 -0.79894598994E+01  0.45530744452E+02  0.46660574159E+02  0.00000000000E+00 0.  1.
       14    1    4    4    0    0  0.50623555562E+02  0.78500368851E+02  0.37986201228E+02  0.10083652003E+03  0.00000000000E+00 0. -1.
        1    1    5    5  501    0 -0.43449133600E+02 -0.75449143491E+01  0.11742773379E+03  0.12543534432E+03  0.00000000000E+00 0. -1.
       -2    1    5    5    0  501 -0.13524935409E+02 -0.62965994602E+02  0.52729998868E+02  0.83235167656E+02  0.00000000000E+00 0.  1.
</event>
<event>
 8   1  0.7570500E-01  0.2498394E+03  0.7546771E-02  0.1113406E+00
       21   -1    0    0  503  502  0.00000000000E+00  0.00000000000E+00  0.17213748029E+03  0.17213748029E+03  0.00000000000E+00 0. -1.
       21   -1    0    0  502  503 -0.00000000000E+00 -0.00000000000E+00 -0.90653873481E+02  0.90653873481E+02  0.00000000000E+00 0. -1.
       24    2    1    2    0    0  0.91952077453E+02 -0.39788765394E+01  0.15244559041E+02  0.12507412754E+03  0.83307411394E+02 0.  0.
      -24    2    1    2    0    0 -0.91952077453E+02  0.39788765394E+01  0.66239047767E+02  0.13771722623E+03  0.78149900479E+02 0.  0.
      -13    1    3    3    0    0  0.33467943967E+02 -0.27370669514E+01  0.47578827939E+02  0.58235209941E+02  0.00000000000E+00 0.  1.
       14    1    3    3    0    0  0.58484133486E+02 -0.12418095881E+01 -0.32334268897E+02  0.66838917599E+02  0.00000000000E+00 0. -1.
        1    1    4    4  501    0 -0.49161871845E+02  0.13888097097E+02  0.77084097503E+02  0.92475547969E+02  0.00000000000E+00 0. -1.
       -2    1    4    4    0  501 -0.42790205608E+02 -0.99092205576E+01 -0.10845049736E+02  0.45241678261E+02  0.00000000000E+00 0.  1.
</event>
<event>
 9   1  0.7570500E-01  0.2500204E+03  0.7546771E-02  0.1113292E+00
       21   -1    0    0  503  502  0.00000000000E+00  0.00000000000E+00  0.45436288573E+03  0.45436288573E+03  0.00000000000E+00 0.  1.
       21   -1    0    0  502  503 -0.00000000000E+00 -0.00000000000E+00 -0.34394423799E+02  0.34394423799E+02  0.00000000000E+00 0.  1.
       25    2    1    2    0    0  0.00000000000E+00 -0.71054273576E-14  0.41996846193E+03  0.48875730953E+03  0.25002039637E+03 0.  0.
       24    2    3    3    0    0  0.69064325603E+02 -0.39707192849E+01  0.77598742430E+02  0.13061723197E+03  0.79080015036E+02 0.  0.
      -24    2    3    3    0    0 -0.69064325603E+02  0.39707192849E+01  0.34236971950E+03  0.35814007756E+03  0.79130541766E+02 0.  0.
      -13    1    4    4    0    0  0.29023156399E+02 -0.36472685402E+02  0.13861187068E+02  0.48628519355E+02  0.00000000000E+00 0.  1.
       14    1    4    4    0    0  0.40041169204E+02  0.32501966117E+02  0.63737555362E+02  0.81988712615E+02  0.00000000000E+00 0. -1.
        1    1    5    5  501    0 -0.13303981687E+02 -0.32095619534E+02  0.75157238839E+02  0.82799367582E+02  0.00000000000E+00 0. -1.
       -2    1    5    5    0  501 -0.55760343916E+02  0.36066338819E+02  0.26721248066E+03  0.27534070998E+03  0.00000000000E+00 0.  1.
</event>
<event>
 8   1  0.7570500E-01  0.2509155E+03  0.7546771E-02  0.1112728E+00
       21   -1    0    0  503  502  0.00000000000E+00  0.00000000000E+00  0.13847818662E+03  0.13847818662E+03  0.00000000000E+00 0. -1.
       21   -1    0    0  502  503 -0.00000000000E+00 -0.00000000000E+00 -0.11366154210E+03  0.11366154210E+03  0.00000000000E+00 0. -1.
       24    2    1    2    0    0 -0.18326542053E+02  0.45262205155E+02  0.94140937645E+02  0.13299133019E+03  0.80247419937E+02 0.  0.
      -24    2    1    2    0    0  0.18326542053E+02 -0.45262205155E+02 -0.69324293120E+02  0.11914839853E+03  0.83701576426E+02 0.  0.
      -13    1    3    3    0    0 -0.46930384758E+02  0.45438387200E+02  0.66342992715E+02  0.93104783589E+02  0.00000000000E+00 0.  1.
       14    1    3    3    0    0  0.28603842705E+02 -0.17618204515E+00  0.27797944929E+02  0.39886546603E+02  0.00000000000E+00 0. -1.
        3    1    4    4  501    0 -0.18590273593E+02 -0.48938834800E+02 -0.17070156072E+02  0.55063581905E+02  0.00000000000E+00 0. -1.
       -4    1    4    4    0  501  0.36916815646E+02  0.36766296457E+01 -0.52254137048E+02  0.64084816623E+02  0.00000000000E+00 0.  1.
</event>
<event>
 9   1  0.7570500E-01  0.2499997E+03  0.7546771E-02  0.1113305E+00
       21   -1    0    0  503  502  0.00000000000E+00  0.00000000000E+00  0.14756888690E+03  0.14756888690E+03  0.00000000000E+00 0.  1.
       21   -1    0    0  502  503 -0.00000000000E+00 -0.00000000000E+00 -0.10588254015E+03  0.10588254015E+03  0.00000000000E+00 0.  1.
       25    2    1    2    0    0  0.00000000000E+00  0.00000000000E+00  0.41686346747E+02  0.25345142705E+03  0.24999974874E+03 0.  0.
       24    2    3    3    0    0  0.95943241989E+02  0.11643063285E+02  0.20381029933E+02  0.12586176022E+03  0.78007241315E+02 0.  0.
      -24    2    3    3    0    0 -0.95943241989E+02 -0.11643063285E+02  0.21305316814E+02  0.12758966684E+03  0.80526641260E+02 0.  0.
      -13    1    4    4    0    0  0.53646584632E+02  0.44631802654E+02  0.45452822033E+01  0.69932921011E+02  0.00000000000E+00 0.  1.
       14    1    4    4    0    0  0.42296657357E+02 -0.32988739369E+02  0.15835747730E+02  0.55928839206E+02  0.00000000000E+00 0. -1.
        1    1    5    5  501    0 -0.83130637637E+02  0.22569817679E+02  0.17631724720E+01  0.86158042928E+02  0.00000000000E+00 0. -1.
       -2    1    5    5    0  501 -0.12812604353E+02 -0.34212880964E+02  0.19542144342E+02  0.41431623908E+02  0.00000000000E+00 0.  1.
</event>
<event>
 9   1  0.7570500E-01  0.2499939E+03  0.7546771E-02  0.1113309E+00
       21   -1    0    0  503  502  0.00000000000E+00  0.00000000000E+00  0.13197526145E+03  0.13197526145E+03  0.00000000000E+00 0. -1.
       21   -1    0    0  502  503 -0.00000000000E+00 -0.00000000000E+00 -0.11838762814E+03  0.11838762814E+03  0.00000000000E+00 0. -1.
       25    2    1    2    0    0 -0.35527136788E-14 -0.35527136788E-14  0.13587633314E+02  0.25036288959E+03  0.24999390533E+03 0.  0.
       24    2    3    3    0    0 -0.61167538955E+01  0.10324480177E+02  0.10075805245E+03  0.13032604838E+03  0.81784376156E+02 0.  0.
      -24    2    3    3    0    0  0.61167538955E+01 -0.10324480177E+02 -0.87170419136E+02  0.12003684121E+03  0.81646504557E+02 0.  0.
      -13    1    4    4    0    0 -0.36939256051E+02 -0.13697422901E+02  0.30091961147E+02  0.49574733054E+02  0.00000000000E+00 0.  1.
       14    1    4    4    0    0  0.30822502155E+02  0.24021903077E+02  0.70666091303E+02  0.80751315324E+02  0.00000000000E+00 0. -1.
        3    1    5    5  501    0 -0.16682628833E+02 -0.38123400864E+02 -0.25955232369E+02  0.49044651957E+02  0.00000000000E+00 0. -1.
       -4    1    5    5    0  501  0.22799382728E+02  0.27798920688E+02 -0.61215186766E+02  0.70992189254E+02  0.00000000000E+00 0.  1.
</event>
<event>
 9   1  0.7570500E-01  0.2500096E+03  0.7546771E-02  0.1113299E+00
       21   -1    0    0  503  502  0.00000000000E+00  0.00000000000E+00  0.14088647863E+04  0.14088647863E+04  0.00000000000E+00 0. -1.
       21   -1    0    0  502  503 -0.00000000000E+00 -0.00000000000E+00 -0.11091342769E+02  0.11091342769E+02  0.00000000000E+00 0. -1.
       25    2    1    2    0    0  0.00000000000E+00  0.71054273576E-14  0.13977734435E+04  0.14199561291E+04  0.25000961790E+03 0.  0.
       24    2    3    3    0    0 -0.73311510084E+02  0.35405658762E+02  0.60097226123E+03  0.61440047533E+03  0.98448703107E+02 0.  0.
      -24    2    3    3    0    0  0.73311510084E+02 -0.35405658762E+02  0.79680118230E+03  0.80555565373E+03  0.86021212274E+02 0.  0.
      -13    1    4    4    0    0  0.10456156407E+02  0.30437142532E+02  0.72701180820E+02  0.79506053511E+02  0.00000000000E+00 0.  1.
       14    1    4    4    0    0 -0.83767666492E+02  0.49685162300E+01  0.52827108041E+03  0.53489442182E+03  0.00000000000E+00 0. -1.
        1    1    5    5  501    0  0.70444520873E+02 -0.14448358754E+02  0.30746196913E+03  0.31575947816E+03  0.00000000000E+00 0. -1.
       -2    1    5    5    0  501  0.28669892116E+01 -0.20957300007E+02  0.48933921317E+03  0.48979617556E+03  0.00000000000E+00 0.  1.
</event>
<event>
 9   1  0.7570500E-01  0.2500028E+03  0.7546771E-02  0.1113303E+00
       21   -1    0    0  503  502  0.00000000000E+00  0.00000000000E+00  0.16553577937E+03  0.16553577937E+03  0.00000000000E+00 0. -1.
       21   -1    0    0  502  503 -0.00000000000E+00 -0.00000000000E+00 -0.94392614877E+02  0.94392614877E+02  0.00000000000E+00 0. -1.
       25    2    1    2    0    0  0.00000000000E+00 -0.14210854715E-13  0.71143164497E+02  0.25992839425E+03  0.25000284055E+03 0.  0.
       24    2    3    3    0    0  0.78944932470E+02  0.52529791518E+02  0.42272978030E+02  0.13277457947E+03  0.82767160885E+02 0.  0.
      -24    2    3    3    0    0 -0.78944932470E+02 -0.52529791518E+02  0.28870186467E+02  0.12715381479E+03  0.79642473521E+02 0.  0.
      -13    1    4    4    0    0  0.56500983278E+02 -0.69182336481E+01  0.86434847549E+00  0.56929519289E+02  0.00000000000E+00 0.  1.
       14    1    4    4    0    0  0.22443949192E+02  0.59448025166E+02  0.41408629554E+02  0.75845060176E+02  0.00000000000E+00 0. -1.
        3    1    5    5  501    0 -0.84544215482E+02 -0.44871575895E+02 -0.10974942211E+01  0.95720359320E+02  0.00000000000E+00 0. -1.
       -4    1    5    5    0  501  0.55992830115E+01 -0.76582156231E+01  0.29967680689E+02  0.31433455467E+02  0.00000000000E+00 0.  1.
</event>
<event>
 9   1  0.7570500E-01  0.2499968E+03  0.7546771E-02  0.1113307E+00
       21   -1    0    0  503  502  0.00000000000E+00  0.00000000000E+00  0.89364976732E+03  0.89364976732E+03  0.00000000000E+00 0.  1.
       21   -1    0    0  502  503 -0.00000000000E+00 -0.00000000000E+00 -0.17484025822E+02  0.17484025822E+02  0.00000000000E+00 0.  1.
       25    2    1    2    0    0 -0.35527136788E-14  0.14210854715E-13  0.87616574149E+03  0.91113379314E+03  0.24999676484E+03 0.  0.
       24    2    3    3    0    0 -0.10024165132E+02 -0.72378229868E+02  0.68292916784E+03  0.69152771462E+03  0.80493724951E+02 0.  0.
      -24    2    3    3    0    0  0.10024165132E+02  0.72378229868E+02  0.19323657366E+03  0.21960607852E+03  0.74480630228E+02 0.  0.
      -13    1    4    4    0    0 -0.43094978828E+02 -0.37496908394E+02  0.45597977886E+03  0.45954407196E+03  0.00000000000E+00 0.  1.
       14    1    4    4    0    0  0.33070813696E+02 -0.34881321475E+02  0.22694938897E+03  0.23198364266E+03  0.00000000000E+00 0. -1.
        1    1    5    5  501    0  0.28903649809E+02  0.34562954849E+02  0.38702378933E+02  0.59396068517E+02  0.00000000000E+00 0. -1.
       -2    1    5    5    0  501 -0.18879484677E+02  0.37815275019E+02  0.15453419472E+03  0.16021001000E+03  0.00000000000E+00 0.  1.
</event>
<event>
 9   1  0.7570500E-01  0.2500042E+03  0.7546771E-02  0.1113302E+00
       21   -1    0    0  503  502  0.00000000000E+00  0.00000000000E+00  0.83761048181E+02  0.83761048181E+02  0.00000000000E+00 0.  1.
       21   -1    0    0  502  503 -0.00000000000E+00 -0.00000000000E+00 -0.18654888852E+03  0.18654888852E+03  0.00000000000E+00 0.  1.
       25    2    1    2    0    0  0.71054273576E-14  0.00000000000E+00 -0.10278784034E+03  0.27030993670E+03  0.25000424348E+03 0.  0.
       24    2    3    3    0    0 -0.57280835655E+02 -0.76566970310E+02 -0.37260979329E+02  0.13009889788E+03  0.79960912786E+02 0.  0.
      -24    2    3    3    0    0  0.57280835655E+02  0.76566970310E+02 -0.65526861008E+02  0.14021103882E+03  0.78878202420E+02 0.  0.
      -13    1    4    4    0    0 -0.63483088569E+02 -0.18383774245E+02 -0.18024178789E+02  0.68505012304E+02  0.00000000000E+00 0.  1.
       14    1    4    4    0    0  0.62022529136E+01 -0.58183196065E+02 -0.19236800539E+02  0.61593885577E+02  0.00000000000E+00 0. -1.
        3    1    5    5  501    0  0.70804084359E+02  0.78742155212E+02 -0.43946648625E+02  0.11465100651E+03  0.00000000000E+00 0. -1.
       -4    1    5    5    0  501 -0.13523248704E+02 -0.21751849023E+01 -0.21580212383E+02  0.25560032303E+02  0.00000000000E+00 0.  1.
</event>
<event>
 9   1  0.7570500E-01  0.2500007E+03  0.7546771E-02  0.1113304E+00
       21   -1    0    0  503  502  0.00000000000E+00  0.00000000000E+00  0.59018516504E+03  0.59018516504E+03  0.00000000000E+00 0. -1.
       21   -1    0    0  502  503 -0.00000000000E+00 -0.00000000000E+00 -0.26474891467E+02  0.26474891467E+02  0.00000000000E+00 0. -1.
       25    2    1    2    0    0  0.14210854715E-13 -0.28421709430E-13  0.56371027358E+03  0.61666005651E+03  0.25000070552E+03 0.  0.
       24    2    3    3    0    0 -0.60411751126E+02  0.69945879987E+02  0.21776394653E+03  0.24945701543E+03  0.79155924213E+02 0.  0.
      -24    2    3    3    0    0  0.60411751126E+02 -0.69945879987E+02  0.34594632704E+03  0.36720304108E+03  0.81346213063E+02 0.  0.
      -13    1    4    4    0    0 -0.20075385638E+02  0.76647400754E+02  0.16167116912E+03  0.18004280623E+03  0.00000000000E+00 0.  1.
       14    1    4    4    0    0 -0.40336365487E+02 -0.67015207668E+01  0.56092777412E+02  0.69414209202E+02  0.00000000000E+00 0. -1.
        3    1    5    5  501    0  0.74060495058E+02 -0.54998586410E+02  0.32594151549E+03  0.33874425893E+03  0.00000000000E+00 0. -1.
       -4    1    5    5    0  501 -0.13648743932E+02 -0.14947293577E+02  0.20004811552E+02  0.28458782150E+02  0.00000000000E+00 0.  1.
</event>
<event>
 9   1  0.7570500E-01  0.2499987E+03  0.7546771E-02  0.1113306E+00
       21   -1    0    0  503  502  0.00000000000E+00  0.00000000000E+00  0.49331799547E+03  0.49331799547E+03  0.00000000000E+00 0. -1.
       21   -1    0    0  502  503 -0.00000000000E+00 -0.00000000000E+00 -0.31672941707E+02  0.31672941707E+02  0.00000000000E+00 0. -1.
       25    2    1    2    0    0  0.00000000000E+00  0.71054273576E-14  0.46164505376E+03  0.52499093718E+03  0.24999865691E+03 0.  0.
       24    2    3    3    0    0  0.60778140499E+02 -0.61266806366E+02  0.14117574192E+03  0.18363599699E+03  0.79649139100E+02 0.  0.
      -24    2    3    3    0    0 -0.60778140499E+02  0.61266806366E+02  0.32046931185E+03  0.34135494019E+03  0.79843668699E+02 0.  0.
      -13    1    4    4    0    0  0.71950055377E+02 -0.55162990886E+02  0.14440079616E+03  0.17050324327E+03  0.00000000000E+00 0.  1.
       14    1    4    4    0    0 -0.11171914877E+02 -0.61038154806E+01 -0.32250542450E+01  0.13132753722E+02  0.00000000000E+00 0. -1.
        3    1    5    5  501    0  0.63697063673E+01 -0.13762925302E+02  0.65306720899E+02  0.67044455898E+02  0.00000000000E+00 0. -1.
       -4    1    5    5    0  501 -0.67147846867E+02  0.75029731668E+02  0.25516259095E+03  0.27431048429E+03  0.00000000000E+00 0.  1.
</event>
<event>
 9   1  0.7570500E-01  0.2500034E+03  0.7546771E-02  0.1113303E+00
       21   -1    0    0  503  502  0.00000000000E+00  0.00000000000E+00  0.36753424200E+02  0.36753424200E+02  0.00000000000E+00 0.  1.
       21   -1    0    0  502  503 -0.00000000000E+00 -0.00000000000E+00 -0.42514218690E+03  0.42514218690E+03  0.00000000000E+00 0.  1.
       25    2    1    2    0    0  0.35527136788E-14  0.00000000000E+00 -0.38838876270E+03  0.46189561110E+03  0.25000344910E+03 0.  0.
       24    2    3    3    0    0 -0.18557470259E+02  0.46341578850E+02 -0.45879545585E+02  0.10623546323E+03  0.81787036325E+02 0.  0.
      -24    2    3    3    0    0  0.18557470259E+02 -0.46341578850E+02 -0.34250921712E+03  0.35566014788E+03  0.81790313268E+02 0.  0.
      -13    1    4    4    0    0  0.21438636894E+02  0.48382246558E+02 -0.13186758898E+02  0.54537579192E+02  0.00000000000E+00 0.  1.
       14    1    4    4    0    0 -0.39996107154E+02 -0.20406677078E+01 -0.32692786687E+02  0.51697884033E+02  0.00000000000E+00 0. -1.
        1    1    5    5  501    0  0.50878290652E+02 -0.22518368156E+02 -0.19455109180E+03  0.20235069727E+03  0.00000000000E+00 0. -1.
       -2    1    5    5    0  501 -0.32320820393E+02 -0.23823210695E+02 -0.14795812532E+03  0.15330945061E+03  0.00000000000E+00 0.  1.
</event>
<event>
 9   1  0.7570500E-01  0.2499999E+03  0.7546771E-02  0.1113305E+00
       21   -1    0    0  503  502  0.00000000000E+00  0.00000000000E+00  0.28717799304E+03  0.28717799304E+03  0.00000000000E+00 0. -1.
       21   -1    0    0  502  503 -0.00000000000E+00 -0.00000000000E+00 -0.54408728024E+02  0.54408728024E+02  0.00000000000E+00 0. -1.
       25    2    1    2    0    0 -0.28421709430E-13 -0.35527136788E-14  0.23276926502E+03  0.34158672107E+03  0.24999991454E+03 0.  0.
       24    2    3    3    0    0 -0.84540314567E+02 -0.55655522404E+01  0.17462537621E+03  0.21013905631E+03  0.80537946417E+02 0.  0.
      -24    2    3    3    0    0  0.84540314567E+02  0.55655522404E+01  0.58143888808E+02  0.13144766475E+03  0.81973999561E+02 0.  0.
      -13    1    4    4    0    0 -0.74383931417E+02  0.25140993198E+02  0.89409644105E+02  0.11899211424E+03  0.00000000000E+00 0.  1.
       14    1    4    4    0    0 -0.10156383151E+02 -0.30706545439E+02  0.85215732106E+02  0.91146942076E+02  0.00000000000E+00 0. -1.
        3    1    5    5  501    0  0.61500566700E+02  0.40264845309E+02  0.23212106019E+02  0.77086829861E+02  0.00000000000E+00 0. -1.
       -4    1    5    5    0  501  0.23039747868E+02 -0.34699293069E+02  0.34931782788E+02  0.54360834891E+02  0.00000000000E+00 0.  1.
</event>
<event>
 9   1  0.7570500E-01  0.2500012E+03  0.7546771E-02  0.1113304E+00
       21   -1    0    0  503  502  0.00000000000E+00  0.00000000000E+00  0.45859632960E+02  0.45859632960E+02  0.00000000000E+00 0. -1.
       21   -1    0    0  502  503 -0.00000000000E+00 -0.00000000000E+00 -0.34071689982E+03  0.34071689982E+03  0.00000000000E+00 0. -1.
       25    2    1    2    0    0  0.00000000000E+00  0.14210854715E-13 -0.29485726686E+03  0.38657653278E+03  0.25000121575E+03 0.  0.
       24    2    3    3    0    0 -0.79557154842E+01 -0.88576702625E+02 -0.95745751637E+02  0.15303907578E+03  0.79652897634E+02 0.  0.
      -24    2    3    3    0    0  0.79557154842E+01  0.88576702625E+02 -0.19911151522E+03  0.23353745700E+03  0.83577644571E+02 0.  0.
      -13    1    4    4    0    0  0.34868543589E+02 -0.27134264468E+02 -0.40938262281E+02  0.60233088571E+02  0.00000000000E+00 0.  1.
       14    1    4    4    0    0 -0.42824259073E+02 -0.61442438157E+02 -0.54807489357E+02  0.92805987207E+02  0.00000000000E+00 0. -1.
        3    1    5    5  501    0  0.36614000678E+02  0.10933494781E+02 -0.49183698338E+02  0.62282923309E+02  0.00000000000E+00 0. -1.
       -4    1    5    5    0  501 -0.28658285194E+02  0.77643207843E+02 -0.14992781688E+03  0.17125453369E+03  0.00000000000E+00 0.  1.
</event>
<event>
 9   1  0.7570500E-01  0.2500000E+03  0.7546771E-02  0.1113305E+00
       21   -1    0    0  503  502  0.00000000000E+00  0.00000000000E+00  0.19186799028E+02  0.19186799028E+02  0.00000000000E+00 0.  1.
       21   -1    0    0  502  503 -0.00000000000E+00 -0.00000000000E+00 -0.81436203198E+03  0.81436203198E+03  0.00000000000E+00 0.  1.
       25    2    1    2    0    0  0.71054273576E-14  0.00000000000E+00 -0.79517523295E+03  0.83354883101E+03  0.25000000515E+03 0.  0.
       24    2    3    3    0    0 -0.28201319745E+02  0.78463161529E+01 -0.70444069377E+03  0.70984677540E+03  0.82394626004E+02 0.  0.
      -24    2    3    3    0    0  0.28201319745E+02 -0.78463161529E+01 -0.90734539178E+02  0.12370205560E+03  0.78819812537E+02 0.  0.
      -13    1    4    4    0    0  0.44939435122E+01  0.20563177976E+02 -0.58455146599E+03  0.58493030030E+03  0.00000000000E+00 0.  1.
       14    1    4    4    0    0 -0.32695263257E+02 -0.12716861823E+02 -0.11988922778E+03  0.12491647511E+03  0.00000000000E+00 0. -1.
        3    1    5    5  501    0  0.73519314951E+01  0.25541619604E+02 -0.77884364780E+02  0.82294589773E+02  0.00000000000E+00 0. -1.
       -4    1    5    5    0  501  0.20849388249E+02 -0.33387935757E+02 -0.12850174398E+02  0.41407465831E+02  0.00000000000E+00 0.  1.
</event>
<event>
 9   1  0.7570500E-01  0.2499960E+03  0.7546771E-02  0.1113307E+00
       21   -1    0    0  503  502  0.00000000000E+00  0.00000000000E+00  0.78482977162E+02  0.78482977162E+02  0.00000000000E+00 0. -1.
       21   -1    0    0  502  503 -0.00000000000E+00 -0.00000000000E+00 -0.19908144653E+03  0.19908144653E+03  0.00000000000E+00 0. -1.
       25    2    1    2    0    0  0.71054273576E-14  0.00000000000E+00 -0.12059846937E+03  0.27756442370E+03  0.24999603694E+03 0.  0.
       24    2    3    3    0    0 -0.32886636719E+02  0.88120449222E+02 -0.46119898477E+02  0.13250931769E+03  0.81147580336E+02 0.  0.
      -24    2    3    3    0    0  0.32886636719E+02 -0.88120449222E+02 -0.74478570896E+02  0.14505510600E+03  0.81530250883E+02 0.  0.
      -13    1    4    4    0    0 -0.51353699532E+02  0.49296840468E+02 -0.24491195595E+01  0.71227657004E+02  0.00000000000E+00 0.  1.
       14    1    4    4    0    0  0.18467062812E+02  0.38823608754E+02 -0.43670778917E+02  0.61281660689E+02  0.00000000000E+00 0. -1.
        1    1    5    5  501    0  0.47109022622E+02 -0.42502317700E+02 -0.91329489514E+01  0.64102400727E+02  0.00000000000E+00 0. -1.
       -2    1    5    5    0  501 -0.14222385903E+02 -0.45618131521E+02 -0.65345621944E+02  0.80952705276E+02  0.00000000000E+00 0.  1.
</event>
<event>
 9   1  0.7570500E-01  0.2499890E+03  0.7546771E-02  0.1113312E+00
       21   -1    0    0  503  502  0.00000000000E+00  0.00000000000E+00  0.23586385625E+03  0.23586385625E+03  0.00000000000E+00 0. -1.
       21   -1    0    0  502  503 -0.00000000000E+00 -0.00000000000E+00 -0.66239994670E+02  0.66239994670E+02  0.00000000000E+00 0. -1.
       25    2    1    2    0    0  0.00000000000E+00  0.00000000000E+00  0.16962386158E+03  0.30210385092E+03  0.24998896440E+03 0.  0.
       24    2    3    3    0    0  0.24950638911E+02  0.73793609505E+02  0.15710033022E+03  0.19067660797E+03  0.74893416836E+02 0.  0.
      -24    2    3    3    0    0 -0.24950638911E+02 -0.73793609505E+02  0.12523531358E+02  0.11142724295E+03  0.78683927508E+02 0.  0.
      -13    1    4    4    0    0  0.51054970009E+02  0.59107340652E+02  0.11429290353E+03  0.13843104955E+03  0.00000000000E+00 0.  1.
       14    1    4    4    0    0 -0.26104331098E+02  0.14686268853E+02  0.42807426694E+02  0.52245558424E+02  0.00000000000E+00 0. -1.
        1    1    5    5  501    0 -0.52716343822E+02 -0.58969183192E+02  0.11556475743E+02  0.79937035246E+02  0.00000000000E+00 0. -1.
       -2    1    5    5    0  501  0.27765704911E+02 -0.14824426312E+02  0.96705561546E+00  0.31490207705E+02  0.00000000000E+00 0.  1.
</event>
<event>
 9   1  0.7570500E-01  0.2500007E+03  0.7546771E-02  0.1113304E+00
       21   -1    0    0  503  502  0.00000000000E+00  0.00000000000E+00  0.32996090381E+03  0.32996090381E+03  0.00000000000E+00 0. -1.
       21   -1    0    0  502  503 -0.00000000000E+00 -0.00000000000E+00 -0.47354376468E+02  0.47354376468E+02  0.00000000000E+00 0. -1.
       25    2    1    2    0    0  0.00000000000E+00 -0.71054273576E-14  0.28260652735E+03  0.37731528028E+03  0.25000074287E+03 0.  0.
       24    2    3    3    0    0 -0.92027784752E+02  0.12438893958E+02  0.10646338246E+03  0.16292841747E+03  0.81162664837E+02 0.  0.
      -24    2    3    3    0    0  0.92027784752E+02 -0.12438893958E+02  0.17614314488E+03  0.21438686282E+03  0.79444824937E+02 0.  0.
      -13    1    4    4    0    0 -0.27168130187E+02  0.25788838314E+02 -0.10845686464E+00  0.37459087580E+02  0.00000000000E+00 0.  1.
       14    1    4    4    0    0 -0.64859654565E+02 -0.13349944356E+02  0.10657183933E+03  0.12546932989E+03  0.00000000000E+00 0. -1.
        3    1    5    5  501    0  0.52160477769E+02  0.28374395356E+02  0.12223179170E+03  0.13589125305E+03  0.00000000000E+00 0. -1.
       -4    1    5    5    0  501  0.39867306983E+02 -0.40813289314E+02  0.53911353186E+02  0.78495609769E+02  0.00000000000E+00 0.  1.
</event>
<event>
 9   1  0.7570500E-01  0.2499825E+03  0.7546771E-02  0.1113316E+00
       21   -1    0    0  503  502  0.00000000000E+00  0.00000000000E+00  0.64970256581E+02  0.64970256581E+02  0.00000000000E+00 0. -1.
       21   -1    0    0  502  503 -0.00000000000E+00 -0.00000000000E+00 -0.24046108993E+03  0.24046108993E+03  0.00000000000E+00 0. -1.
       25    2    1    2    0    0  0.71054273576E-14  0.14210854715E-13 -0.17549083335E+03  0.30543134651E+03  0.24998254908E+03 0.  0.
       24    2    3    3    0    0  0.56036870598E+02  0.76982737152E+02 -0.72848619688E+02  0.14406649405E+03  0.79885922614E+02 0.  0.
      -24    2    3    3    0    0 -0.56036870598E+02 -0.76982737152E+02 -0.10264221366E+03  0.16136485246E+03  0.80229164888E+02 0.  0.
      -13    1    4    4    0    0  0.32149355506E+02  0.41369146938E+02 -0.84683451220E+02  0.99580491505E+02  0.00000000000E+00 0.  1.
       14    1    4    4    0    0  0.23887515091E+02  0.35613590214E+02  0.11834831532E+02  0.44486002546E+02  0.00000000000E+00 0. -1.
        3    1    5    5  501    0  0.16383102136E+02 -0.35622555618E+02 -0.46526351361E+02  0.60844670065E+02  0.00000000000E+00 0. -1.
       -4    1    5    5    0  501 -0.72419972733E+02 -0.41360181534E+02 -0.56115862302E+02  0.10052018240E+03  0.00000000000E+00 0.  1.
</event>
<event>
 9   1  0.7570500E-01  0.2500044E+03  0.7546771E-02  0.1113302E+00
       21   -1    0    0  503  502  0.00000000000E+00  0.00000000000E+00  0.43212534843E+02  0.43212534843E+02  0.00000000000E+00 0. -1.
       21   -1    0    0  502  503 -0.00000000000E+00 -0.00000000000E+00 -0.36159772318E+03  0.36159772318E+03  0.00000000000E+00 0. -1.
       25    2    1    2    0    0  0.14210854715E-13  0.00000000000E+00 -0.31838518833E+03  0.40481025802E+03  0.25000443365E+03 0.  0.
       24    2    3    3    0    0  0.91584737670E+02  0.24309928586E+02 -0.14090226066E+03  0.18774670419E+03  0.80103939188E+02 0.  0.
      -24    2    3    3    0    0 -0.91584737670E+02 -0.24309928586E+02 -0.17748292767E+03  0.21706355382E+03  0.81471835519E+02 0.  0.
      -13    1    4    4    0    0  0.92864296660E+02  0.40844294748E+02 -0.95176174687E+02  0.13910621207E+03  0.00000000000E+00 0.  1.
       14    1    4    4    0    0 -0.12795589898E+01 -0.16534366162E+02 -0.45726085976E+02  0.48640492126E+02  0.00000000000E+00 0. -1.
        1    1    5    5  501    0 -0.64648828166E+02 -0.17274394783E+01 -0.42042651070E+02  0.77136499398E+02  0.00000000000E+00 0. -1.
       -2    1    5    5    0  501 -0.26935909503E+02 -0.22582489108E+02 -0.13544027660E+03  0.13992705443E+03  0.00000000000E+00 0.  1.
</event>
<event>
 9   1  0.7570500E-01  0.2500060E+03  0.7546771E-02  0.1113301E+00
       21   -1    0    0  503  502  0.00000000000E+00  0.00000000000E+00  0.98422050476E+03  0.98422050476E+03  0.00000000000E+00 0. -1.
       21   -1    0    0  502  503 -0.00000000000E+00 -0.00000000000E+00 -0.15876271573E+02  0.15876271573E+02  0.00000000000E+00 0. -1.
       25    2    1    2    0    0  0.00000000000E+00  0.17763568394E-14  0.96834423319E+03  0.10000967763E+04  0.25000601610E+03 0.  0.
       24    2    3    3    0    0 -0.23909531111E+02 -0.21214465987E+01  0.14597633718E+03  0.17350127315E+03  0.90650066496E+02 0.  0.
      -24    2    3    3    0    0  0.23909531111E+02  0.21214465987E+01  0.82236789601E+03  0.82659550318E+03  0.79968764401E+02 0.  0.
      -13    1    4    4    0    0  0.27217817056E+02  0.15645089819E+02  0.91378615182E+02  0.96621062473E+02  0.00000000000E+00 0.  1.
       14    1    4    4    0    0 -0.51127348167E+02 -0.17766536418E+02  0.54597721993E+02  0.76880210677E+02  0.00000000000E+00 0. -1.
        1    1    5    5  501    0 -0.23344400298E+02  0.10197737061E+02  0.12430727981E+03  0.12689071944E+03  0.00000000000E+00 0. -1.
       -2    1    5    5    0  501  0.47253931409E+02 -0.80762904622E+01  0.69806061621E+03  0.69970478375E+03  0.00000000000E+00 0.  1.
</event>
<event>
 9   1  0.7570500E-01  0.2499187E+03  0.7546771E-02  0.1113356E+00
       21   -1    0    0  503  502  0.00000000000E+00  0.00000000000E+00  0.44458575997E+03  0.44458575997E+03  0.00000000000E+00 0. -1.
       21   -1    0    0  502  503 -0.00000000000E+00 -0.00000000000E+00 -0.35122222120E+02  0.35122222120E+02  0.00000000000E+00 0. -1.
       25    2    1    2    0    0  0.71054273576E-14  0.17763568394E-14  0.40946353785E+03  0.47970798209E+03  0.24991870529E+03 0.  0.
       24    2    3    3    0    0 -0.50361222504E+02  0.25434376174E+01  0.44938207755E+02  0.10321818524E+03  0.78050172591E+02 0.  0.
      -24    2    3    3    0    0  0.50361222504E+02 -0.25434376174E+01  0.36452533009E+03  0.37648979684E+03  0.79518105122E+02 0.  0.
      -13    1    4    4    0    0 -0.32281429443E+02  0.12524061809E+02 -0.16533235023E+02  0.38370440073E+02  0.00000000000E+00 0.  1.
       14    1    4    4    0    0 -0.18079793061E+02 -0.99806241920E+01  0.61471442778E+02  0.64847745170E+02  0.00000000000E+00 0. -1.
        1    1    5    5  501    0  0.31259228066E+02  0.32780181582E+02  0.27022485193E+03  0.27399479967E+03  0.00000000000E+00 0. -1.
       -2    1    5    5    0  501  0.19101994438E+02 -0.35323619199E+02  0.94300478161E+02  0.10249499718E+03  0.00000000000E+00 0.  1.
</event>
<event>
 9   1  0.7570500E-01  0.2500026E+03  0.7546771E-02  0.1113303E+00
       21   -1    0    0  503  502  0.00000000000E+00  0.00000000000E+00  0.29023043985E+03  0.29023043985E+03  0.00000000000E+00 0.  1.
       21   -1    0    0  502  503 -0.00000000000E+00 -0.00000000000E+00 -0.53837638296E+02  0.53837638296E+02  0.00000000000E+00 0.  1.
       25    2    1    2    0    0  0.00000000000E+00  0.00000000000E+00  0.23639280156E+03  0.34406807815E+03  0.25000257153E+03 0.  0.
       24    2    3    3    0    0  0.52786046822E+02 -0.48419750436E+02  0.20310336736E+03  0.23117551815E+03  0.84025611495E+02 0.  0.
      -24    2    3    3    0    0 -0.52786046822E+02  0.48419750436E+02  0.33289434202E+02  0.11289256000E+03  0.80657948792E+02 0.  0.
      -13    1    4    4    0    0  0.24038816025E+01 -0.53094913634E+02  0.64213577432E+02  0.83356055732E+02  0.00000000000E+00 0.  1.
       14    1    4    4    0    0  0.50382165219E+02  0.46751631982E+01  0.13888978992E+03  0.14781946241E+03  0.00000000000E+00 0. -1.
        3    1    5    5  501    0 -0.76113748231E+01  0.51347078980E+02  0.42025739922E+02  0.66787860891E+02  0.00000000000E+00 0. -1.
       -4    1    5    5    0  501 -0.45174671999E+02 -0.29273285439E+01 -0.87363057206E+01  0.46104699112E+02  0.00000000000E+00 0.  1.
</event>
<event>
 9   1  0.7570500E-01  0.2499992E+03  0.7546771E-02  0.1113305E+00
       21   -1    0    0  503  502  0.00000000000E+00  0.00000000000E+00  0.39595565144E+03  0.39595565144E+03  0.00000000000E+00 0. -1.
       21   -1    0    0  502  503 -0.00000000000E+00 -0.00000000000E+00 -0.39461247201E+02  0.39461247201E+02  0.00000000000E+00 0. -1.
       25    2    1    2    0    0  0.26645352591E-14  0.71054273576E-14  0.35649440424E+03  0.43541689864E+03  0.24999923074E+03 0.  0.
       24    2    3    3    0    0  0.52702668667E+01 -0.50071676008E+02  0.32253733561E+03  0.33556948344E+03  0.77727709998E+02 0.  0.
      -24    2    3    3    0    0 -0.52702668667E+01  0.50071676008E+02  0.33957068633E+02  0.99847415207E+02  0.79255759174E+02 0.  0.
      -13    1    4    4    0    0  0.16513965039E+01 -0.63536292961E+02  0.31112887238E+03  0.31755434631E+03  0.00000000000E+00 0.  1.
       14    1    4    4    0    0  0.36188703628E+01  0.13464616953E+02  0.11408463230E+02  0.18015137125E+02  0.00000000000E+00 0. -1.
        1    1    5    5  501    0 -0.37781398863E+02  0.10152871149E+02  0.27809570359E+02  0.47998823904E+02  0.00000000000E+00 0. -1.
       -2    1    5    5    0  501  0.32511131996E+02  0.39918804859E+02  0.61474982737E+01  0.51848591303E+02  0.00000000000E+00 0.  1.
</event>
<event>
 9   1  0.7570500E-01  0.2500019E+03  0.7546771E-02  0.1113304E+00
       21   -1    0    0  503  502  0.00000000000E+00  0.00000000000E+00  0.67105007526E+03  0.67105007526E+03  0.00000000000E+00 0. -1.
       21   -1    0    0  502  503 -0.00000000000E+00 -0.00000000000E+00 -0.23284757804E+02  0.23284757804E+02  0.00000000000E+00 0. -1.
       25    2    1    2    0    0 -0.14210854715E-13 -0.35527136788E-14  0.64776531746E+03  0.69433483307E+03  0.25000190781E+03 0.  0.
       24    2    3    3    0    0  0.61924343254E+02  0.13123221947E+02  0.52607893043E+03  0.53616619071E+03  0.81904210965E+02 0.  0.
      -24    2    3    3    0    0 -0.61924343254E+02 -0.13123221947E+02  0.12168638703E+03  0.15816864236E+03  0.78758487768E+02 0.  0.
      -13    1    4    4    0    0  0.44688137606E+02 -0.28157801175E+02  0.37177711765E+03  0.37551047471E+03  0.00000000000E+00 0.  1.
       14    1    4    4    0    0  0.17236205648E+02  0.41281023122E+02  0.15430181279E+03  0.16065571600E+03  0.00000000000E+00 0. -1.
        1    1    5    5  501    0 -0.40391998020E+02  0.21840059872E+02  0.23160565655E+02  0.51428722721E+02  0.00000000000E+00 0. -1.
       -2    1    5    5    0  501 -0.21532345235E+02 -0.34963281819E+02  0.98525821372E+02  0.10673991964E+03  0.00000000000E+00 0.  1.
</event>
<event>
 9   1  0.7570500E-01  0.2499975E+03  0.7546771E-02  0.1113306E+00
       21   -1    0    0  503  502  0.00000000000E+00  0.00000000000E+00  0.43322483292E+02  0.43322483292E+02  0.00000000000E+00 0. -1.
       21   -1    0    0  502  503 -0.00000000000E+00 -0.00000000000E+00 -0.36066005245E+03  0.36066005245E+03  0.00000000000E+00 0. -1.
       25    2    1    2    0    0  0.00000000000E+00  0.00000000000E+00 -0.31733756916E+03  0.40398253575E+03  0.24999751276E+03 0.  0.
       24    2    3    3    0    0 -0.34070677004E+02 -0.83202399837E+02 -0.21361671471E+03  0.24538770811E+03  0.80619948640E+02 0.  0.
      -24    2    3    3    0    0  0.34070677004E+02  0.83202399837E+02 -0.10372085445E+03  0.15859482763E+03  0.79440879488E+02 0.  0.
      -13    1    4    4    0    0  0.49764215908E+01 -0.62952241852E+02 -0.65945175362E+02  0.91304521682E+02  0.00000000000E+00 0.  1.
       14    1    4    4    0    0 -0.39047098595E+02 -0.20250157986E+02 -0.14767153935E+03  0.15408318643E+03  0.00000000000E+00 0. -1.
        3    1    5    5  501    0  0.36110256763E+02  0.53030673260E+02 -0.11034152332E+03  0.12763798305E+03  0.00000000000E+00 0. -1.
       -4    1    5    5    0  501 -0.20395797587E+01  0.30171726577E+02  0.66206688643E+01  0.30956844581E+02  0.00000000000E+00 0.  1.
</event>
<event>
 9   1  0.7570500E-01  0.2499998E+03  0.7546771E-02  0.1113305E+00
       21   -1    0    0  503  502  0.00000000000E+00  0.00000000000E+00  0.29975858508E+03  0.29975858508E+03  0.00000000000E+00 0. -1.
       21   -1    0    0  502  503 -0.00000000000E+00 -0.00000000000E+00 -0.52125206223E+02  0.52125206223E+02  0.00000000000E+00 0. -1.
       25    2    1    2    0    0  0.00000000000E+00  0.00000000000E+00  0.24763337886E+03  0.35188379130E+03  0.24999982451E+03 0.  0.
       24    2    3    3    0    0  0.33718576088E+02  0.82977067607E+02  0.84825104291E+02  0.14929553294E+03  0.84093529567E+02 0.  0.
      -24    2    3    3    0    0 -0.33718576088E+02 -0.82977067607E+02  0.16280827457E+03  0.20258825837E+03  0.80705216919E+02 0.  0.
      -13    1    4    4    0    0  0.24465747540E+02 -0.11974739160E+02  0.15238408125E+02  0.31211796853E+02  0.00000000000E+00 0.  1.
       14    1    4    4    0    0  0.92528285486E+01  0.94951806767E+02  0.69586696165E+02  0.11808373608E+03  0.00000000000E+00 0. -1.
        1    1    5    5  501    0 -0.42262447406E+01 -0.68141734793E+02  0.48862948768E+02  0.83956803939E+02  0.00000000000E+00 0. -1.
       -2    1    5    5    0  501 -0.29492331348E+02 -0.14835332814E+02  0.11394532580E+03  0.11863145443E+03  0.00000000000E+00 0.  1.
</event>
<event>
 9   1  0.7570500E-01  0.2499986E+03  0.7546771E-02  0.1113306E+00
       21   -1    0    0  503  502  0.00000000000E+00  0.00000000000E+00  0.13191920213E+03  0.13191920213E+03  0.00000000000E+00 0.  1.
       21   -1    0    0  502  503 -0.00000000000E+00 -0.00000000000E+00 -0.11844240851E+03  0.11844240851E+03  0.00000000000E+00 0.  1.
       25    2    1    2    0    0 -0.71054273576E-14 -0.71054273576E-14  0.13476793624E+02  0.25036161064E+03  0.24999862423E+03 0.  0.
       24    2    3    3    0    0  0.44482097246E+02 -0.23896537804E+02 -0.72246121391E+02  0.12057597936E+03  0.82276140216E+02 0.  0.
      -24    2    3    3    0    0 -0.44482097246E+02  0.23896537804E+02  0.85722915015E+02  0.12978563128E+03  0.83343808604E+02 0.  0.
      -13    1    4    4    0    0  0.59722378278E+02 -0.41505730924E+02 -0.49166978008E+02  0.87788836950E+02  0.00000000000E+00 0.  1.
       14    1    4    4    0    0 -0.15240281032E+02  0.17609193119E+02 -0.23079143383E+02  0.32787142412E+02  0.00000000000E+00 0. -1.
        3    1    5    5  501    0  0.91906595507E+01  0.38048306380E+02  0.20652929096E+02  0.44257036973E+02  0.00000000000E+00 0. -1.
       -4    1    5    5    0  501 -0.53672756796E+02 -0.14151768576E+02  0.65069985919E+02  0.85528594303E+02  0.00000000000E+00 0.  1.
</event>
<event>
 9   1  0.7570500E-01  0.2500010E+03  0.7546771E-02  0.1113304E+00
       21   -1    0    0  503  502  0.00000000000E+00  0.00000000000E+00  0.53628265267E+02  0.53628265267E+02  0.00000000000E+00 0. -1.
       21   -1    0    0  502  503 -0.00000000000E+00 -0.00000000000E+00 -0.29135998614E+03  0.29135998614E+03  0.00000000000E+00 0. -1.
       25    2    1    2    0    0  0.00000000000E+00  0.00000000000E+00 -0.23773172087E+03  0.34498825141E+03  0.25000104500E+03 0.  0.
       24    2    3    3    0    0 -0.78700070203E+02  0.52992330880E+02 -0.10007332946E+03  0.15942089390E+03  0.79990386667E+02 0.  0.
      -24    2    3    3    0    0  0.78700070203E+02 -0.52992330880E+02 -0.13765839141E+03  0.18556735751E+03  0.80520328276E+02 0.  0.
      -13    1    4    4    0    0 -0.63658528150E+02  0.54150888334E+01 -0.23599513605E+02  0.68107770744E+02  0.00000000000E+00 0.  1.
       14    1    4    4    0    0 -0.15041542053E+02  0.47577242046E+02 -0.76473815860E+02  0.91313123154E+02  0.00000000000E+00 0. -1.
        1    1    5    5  501    0  0.76777565982E+01 -0.51821175062E+02 -0.70331575688E+02  0.87697848719E+02  0.00000000000E+00 0. -1.
       -2    1    5    5    0  501  0.71022313604E+02 -0.11711558179E+01 -0.67326815720E+02  0.97869508789E+02  0.00000000000E+00 0.  1.
</event>
<event>
 9   1  0.7570500E-01  0.2500108E+03  0.7546771E-02  0.1113298E+00
       21   -1    0    0  503  502  0.00000000000E+00  0.00000000000E+00  0.66734524363E+03  0.66734524363E+03  0.00000000000E+00 0.  1.
       21   -1    0    0  502  503 -0.00000000000E+00 -0.00000000000E+00 -0.23415697420E+02  0.23415697420E+02  0.00000000000E+00 0.  1.
       25    2    1    2    0    0  0.00000000000E+00 -0.71054273576E-14  0.64392954621E+03  0.69076094105E+03  0.25001083416E+03 0.  0.
       24    2    3    3    0    0 -0.39754111915E+02 -0.46483625054E+02  0.11811747378E+03  0.15536462349E+03  0.80282699304E+02 0.  0.
      -24    2    3    3    0    0  0.39754111915E+02  0.46483625054E+02  0.52581207242E+03  0.53539631756E+03  0.80185812549E+02 0.  0.
      -13    1    4    4    0    0 -0.54373505820E+02 -0.24922973883E+02  0.11434355511E+03  0.12904294385E+03  0.00000000000E+00 0.  1.
       14    1    4    4    0    0  0.14619393905E+02 -0.21560651171E+02  0.37739186752E+01  0.26321679643E+02  0.00000000000E+00 0. -1.
        1    1    5    5  501    0  0.25015248302E+02 -0.45188096057E+01  0.36833545611E+03  0.36921157961E+03  0.00000000000E+00 0. -1.
       -2    1    5    5    0  501  0.14738863613E+02  0.51002434660E+02  0.15747661631E+03  0.16618473795E+03  0.00000000000E+00 0.  1.
</event>
<event>
 9   1  0.7570500E-01  0.2499795E+03  0.7546771E-02  0.1113318E+00
       21   -1    0    0  503  502  0.00000000000E+00  0.00000000000E+00  0.13597094897E+03  0.13597094897E+03  0.00000000000E+00 0. -1.
       21   -1    0    0  502  503 -0.00000000000E+00 -0.00000000000E+00 -0.11489538057E+03  0.11489538057E+03  0.00000000000E+00 0. -1.
       25    2    1    2    0    0  0.71054273576E-14  0.00000000000E+00  0.21075568396E+02  0.25086632954E+03  0.24997947058E+03 0.  0.
       24    2    3    3    0    0  0.27087656127E+02  0.81471260495E+02  0.52782768003E+02  0.12875124989E+03  0.80122133956E+02 0.  0.
      -24    2    3    3    0    0 -0.27087656127E+02 -0.81471260495E+02 -0.31707199607E+02  0.12211507965E+03  0.80842060645E+02 0.  0.
      -13    1    4    4    0    0  0.33607536932E+02  0.61594462149E+02  0.71863420724E+02  0.10043752060E+03  0.00000000000E+00 0.  1.
       14    1    4    4    0    0 -0.65198808049E+01  0.19876798346E+02 -0.19080652721E+02  0.28313729293E+02  0.00000000000E+00 0. -1.
        1    1    5    5  501    0 -0.23487757957E+02 -0.72359585013E+02  0.12270453749E+02  0.77059381988E+02  0.00000000000E+00 0. -1.
       -2    1    5    5    0  501 -0.35998981697E+01 -0.91116754815E+01 -0.43977653356E+02  0.45055697660E+02  0.00000000000E+00 0.  1.
</event>
<event>
 9   1  0.7570500E-01  0.2500006E+03  0.7546771E-02  0.1113304E+00
       21   -1    0    0  503  502  0.00000000000E+00  0.00000000000E+00  0.27549098108E+02  0.27549098108E+02  0.00000000000E+00 0.  1.
       21   -1    0    0  502  503 -0.00000000000E+00 -0.00000000000E+00 -0.56717199620E+03  0.56717199620E+03  0.00000000000E+00 0.  1.
       25    2    1    2    0    0  0.00000000000E+00  0.00000000000E+00 -0.53962289810E+03  0.59472109431E+03  0.25000061574E+03 0.  0.
       24    2    3    3    0    0  0.26866399274E+02  0.86636458117E+02 -0.20411127809E+03  0.23766439550E+03  0.81211278535E+02 0.  0.
      -24    2    3    3    0    0 -0.26866399274E+02 -0.86636458117E+02 -0.33551162001E+03  0.35705669881E+03  0.81815400262E+02 0.  0.
      -13    1    4    4    0    0 -0.25740215962E+02  0.46604329781E+02 -0.11484581608E+03  0.12658626996E+03  0.00000000000E+00 0.  1.
       14    1    4    4    0    0  0.52606615236E+02  0.40032128336E+02 -0.89265462014E+02  0.11107812554E+03  0.00000000000E+00 0. -1.
        3    1    5    5  501    0 -0.54394320406E+02 -0.48759162837E+02 -0.16956658081E+03  0.18463212987E+03  0.00000000000E+00 0. -1.
       -4    1    5    5    0  501  0.27527921132E+02 -0.37877295280E+02 -0.16594503920E+03  0.17242456894E+03  0.00000000000E+00 0.  1.
</event>
<event>
 9   1  0.7570500E-01  0.2499991E+03  0.7546771E-02  0.1113305E+00
       21   -1    0    0  503  502  0.00000000000E+00  0.00000000000E+00  0.97324089282E+02  0.97324089282E+02  0.00000000000E+00 0. -1.
       21   -1    0    0  502  503 -0.00000000000E+00 -0.00000000000E+00 -0.16054486487E+03  0.16054486487E+03  0.00000000000E+00 0. -1.
       25    2    1    2    0    0  0.00000000000E+00 -0.17763568394E-14 -0.63220775584E+02  0.25786895415E+03  0.24999906209E+03 0.  0.
       24    2    3    3    0    0 -0.69896072455E+02 -0.13258658544E+01 -0.95026583709E+02  0.14589308579E+03  0.85834270575E+02 0.  0.
      -24    2    3    3    0    0  0.69896072455E+02  0.13258658544E+01  0.31805808125E+02  0.11197586836E+03  0.81484764214E+02 0.  0.
      -13    1    4    4    0    0 -0.57007310212E+02 -0.18332414074E+02 -0.10611491944E+03  0.12184534029E+03  0.00000000000E+00 0.  1.
       14    1    4    4    0    0 -0.12888762243E+02  0.17006548219E+02  0.11088335727E+02  0.24047745501E+02  0.00000000000E+00 0. -1.
        1    1    5    5  501    0  0.84116105553E+02  0.57672850712E+01  0.90782355592E+01  0.84800914802E+02  0.00000000000E+00 0. -1.
       -2    1    5    5    0  501 -0.14220033098E+02 -0.44414192168E+01  0.22727572566E+02  0.27174953555E+02  0.00000000000E+00 0.  1.
</event>
<event>
 9   1  0.7570500E-01  0.2500077E+03  0.7546771E-02  0.1113300E+00
       21   -1    0    0  503  502  0.00000000000E+00  0.00000000000E+00  0.14765932775E+03  0.14765932775E+03  0.00000000000E+00 0. -1.
       21   -1    0    0  502  503 -0.00000000000E+00 -0.00000000000E+00 -0.10582438319E+03  0.10582438319E+03  0.00000000000E+00 0. -1.
       25    2    1    2    0    0 -0.17763568394E-14  0.00000000000E+00  0.41834944555E+02  0.25348371094E+03  0.25000765813E+03 0.  0.
       24    2    3    3    0    0 -0.33535116686E+01 -0.93645352765E+02  0.58832870857E+02  0.12968689990E+03  0.67651217117E+02 0.  0.
      -24    2    3    3    0    0  0.33535116686E+01  0.93645352765E+02 -0.16997926302E+02  0.12379681104E+03  0.79095023797E+02 0.  0.
      -13    1    4    4    0    0 -0.26299496171E+02 -0.60736515731E+02  0.60307722726E+02  0.89541103759E+02  0.00000000000E+00 0.  1.
       14    1    4    4    0    0  0.22945984503E+02 -0.32908837034E+02 -0.14748518691E+01  0.40145796141E+02  0.00000000000E+00 0. -1.
        1    1    5    5  501    0 -0.98736754640E+01  0.28518839112E+02 -0.42916187581E+02  0.52465348640E+02  0.00000000000E+00 0. -1.
       -2    1    5    5    0  501  0.13227187133E+02  0.65126513653E+02  0.25918261278E+02  0.71331462398E+02  0.00000000000E+00 0.  1.
</event>
<event>
 9   1  0.7570500E-01  0.2499988E+03  0.7546771E-02  0.1113306E+00
       21   -1    0    0  503  502  0.00000000000E+00  0.00000000000E+00  0.12014280136E+03  0.12014280136E+03  0.00000000000E+00 0.  1.
       21   -1    0    0  502  503 -0.00000000000E+00 -0.00000000000E+00 -0.13005227829E+03  0.13005227829E+03  0.00000000000E+00 0.  1.
       25    2    1    2    0    0  0.00000000000E+00 -0.14210854715E-13 -0.99094769328E+01  0.25019507966E+03  0.24999876030E+03 0.  0.
       24    2    3    3    0    0  0.15205004608E+02 -0.93861172908E+02  0.30310361084E+01  0.12497830905E+03  0.81051086407E+02 0.  0.
      -24    2    3    3    0    0 -0.15205004608E+02  0.93861172908E+02 -0.12940513041E+02  0.12521677061E+03  0.80440479979E+02 0.  0.
      -13    1    4    4    0    0  0.39642628206E+02 -0.56837082200E+02  0.27219336219E+02  0.74450548341E+02  0.00000000000E+00 0.  1.
       14    1    4    4    0    0 -0.24437623597E+02 -0.37024090708E+02 -0.24188300110E+02  0.50527760707E+02  0.00000000000E+00 0. -1.
        3    1    5    5  501    0 -0.28868620809E+02  0.37934382801E+01  0.10834414640E+02  0.31067217159E+02  0.00000000000E+00 0. -1.
       -4    1    5    5    0  501  0.13663616201E+02  0.90067734628E+02 -0.23774927681E+02  0.94149553450E+02  0.00000000000E+00 0.  1.
</event>
<event>
 9   1  0.7570500E-01  0.2500003E+03  0.7546771E-02  0.1113305E+00
       21   -1    0    0  503  502  0.00000000000E+00  0.00000000000E+00  0.34915367298E+02  0.34915367298E+02  0.00000000000E+00 0. -1.
       21   -1    0    0  502  503 -0.00000000000E+00 -0.00000000000E+00 -0.44751186871E+03  0.44751186871E+03  0.00000000000E+00 0. -1.
       25    2    1    2    0    0 -0.71054273576E-14  0.00000000000E+00 -0.41259650141E+03  0.48242723601E+03  0.25000033013E+03 0.  0.
       24    2    3    3    0    0 -0.37486917383E+02  0.75157641071E+02 -0.29651734906E+03  0.31801265338E+03  0.78457437053E+02 0.  0.
      -24    2    3    3    0    0  0.37486917383E+02 -0.75157641071E+02 -0.11607915235E+03  0.16441458263E+03  0.80646422017E+02 0.  0.
      -13    1    4    4    0    0 -0.39336356280E+02  0.12690643532E+02 -0.56574200891E+02  0.70064552843E+02  0.00000000000E+00 0.  1.
       14    1    4    4    0    0  0.18494388967E+01  0.62466997539E+02 -0.23994314817E+03  0.24794810053E+03  0.00000000000E+00 0. -1.
        1    1    5    5  501    0  0.37839704417E+02  0.48834919573E+00 -0.22286777171E+02  0.43917902409E+02  0.00000000000E+00 0. -1.
       -2    1    5    5    0  501 -0.35278703396E+00 -0.75645990267E+02 -0.93792375179E+02  0.12049668022E+03  0.00000000000E+00 0.  1.
</event>
<event>
 9   1  0.7570500E-01  0.2499952E+03  0.7546771E-02  0.1113308E+00
       21   -1    0    0  503  502  0.00000000000E+00  0.00000000000E+00  0.48892263962E+02  0.48892263962E+02  0.00000000000E+00 0. -1.
       21   -1    0    0  502  503 -0.00000000000E+00 -0.00000000000E+00 -0.31956797789E+03  0.31956797789E+03  0.00000000000E+00 0. -1.
       25    2    1    2    0    0  0.35527136788E-14  0.00000000000E+00 -0.27067571393E+03  0.36846024186E+03  0.24999521539E+03 0.  0.
       24    2    3    3    0    0  0.20132397158E+02  0.91298389485E+02 -0.11331377867E+03  0.16855577621E+03  0.82645797946E+02 0.  0.
      -24    2    3    3    0    0 -0.20132397158E+02 -0.91298389485E+02 -0.15736193526E+03  0.19990446565E+03  0.80363594864E+02 0.  0.
      -13    1    4    4    0    0  0.38013854970E+02  0.75008042087E+01 -0.41274866521E+02  0.56612099765E+02  0.00000000000E+00 0.  1.
       14    1    4    4    0    0 -0.17881457812E+02  0.83797585276E+02 -0.72038912152E+02  0.11194367644E+03  0.00000000000E+00 0. -1.
        1    1    5    5  501    0 -0.35345995753E+02 -0.85009129995E+02 -0.83698687721E+02  0.12442412115E+03  0.00000000000E+00 0. -1.
       -2    1    5    5    0  501  0.15213598596E+02 -0.62892594896E+01 -0.73663247539E+02  0.75480344495E+02  0.00000000000E+00 0.  1.
</event>
<event>
 9   1  0.7570500E-01  0.2500011E+03  0.7546771E-02  0.1113304E+00
       21   -1    0    0  503  502  0.00000000000E+00  0.00000000000E+00  0.17075059556E+02  0.17075059556E+02  0.00000000000E+00 0.  1.
       21   -1    0    0  502  503 -0.00000000000E+00 -0.00000000000E+00 -0.91508514346E+03  0.91508514346E+03  0.00000000000E+00 0.  1.
       25    2    1    2    0    0  0.00000000000E+00 -0.28421709430E-13 -0.89801008391E+03  0.93216020302E+03  0.25000106658E+03 0.  0.
       24    2    3    3    0    0  0.78868773067E+02 -0.47952242584E+02 -0.53772738156E+03  0.55157335862E+03  0.81010691469E+02 0.  0.
      -24    2    3    3    0    0 -0.78868773067E+02  0.47952242584E+02 -0.36028270235E+03  0.38058684439E+03  0.80765212688E+02 0.  0.
      -13    1    4    4    0    0  0.15192112179E+02  0.20720350115E+02 -0.17847112318E+03  0.18031105067E+03  0.00000000000E+00 0.  1.
       14    1    4    4    0    0  0.63676660888E+02 -0.68672592700E+02 -0.35925625837E+03  0.37126230796E+03  0.00000000000E+00 0. -1.
        1    1    5    5  501    0 -0.76441736369E+02  0.67504549505E+02 -0.28237061335E+03  0.30022219530E+03  0.00000000000E+00 0. -1.
       -2    1    5    5    0  501 -0.24270366982E+01 -0.19552306921E+02 -0.77912088994E+02  0.80364649097E+02  0.00000000000E+00 0.  1.
</event>
<event>
 9   1  0.7570500E-01  0.2499768E+03  0.7546771E-02  0.1113319E+00
       21   -1    0    0  503  502  0.00000000000E+00  0.00000000000E+00  0.12101288668E+02  0.12101288668E+02  0.00000000000E+00 0.  1.
       21   -1    0    0  502  503 -0.00000000000E+00 -0.00000000000E+00 -0.12909450682E+04  0.12909450682E+04  0.00000000000E+00 0.  1.
       25    2    1    2    0    0  0.00000000000E+00  0.00000000000E+00 -0.12788437796E+04  0.13030463569E+04  0.24997679032E+03 0.  0.
       24    2    3    3    0    0 -0.85106338476E+02 -0.40533857031E+02 -0.72217786675E+03  0.73279139327E+03  0.80970812081E+02 0.  0.
      -24    2    3    3    0    0  0.85106338476E+02  0.40533857031E+02 -0.55666591281E+03  0.57025496363E+03  0.80172954562E+02 0.  0.
      -13    1    4    4    0    0 -0.33120180822E+01 -0.16114755243E+02 -0.22218804702E+02  0.27646520264E+02  0.00000000000E+00 0.  1.
       14    1    4    4    0    0 -0.81794320393E+02 -0.24419101788E+02 -0.69995906205E+03  0.70514487300E+03  0.00000000000E+00 0. -1.
        3    1    5    5  501    0  0.12286335159E+02  0.46071715665E+02 -0.28416600305E+03  0.28813863730E+03  0.00000000000E+00 0. -1.
       -4    1    5    5    0  501  0.72820003317E+02 -0.55378586346E+01 -0.27249990977E+03  0.28211632633E+03  0.00000000000E+00 0.  1.
</event>
<event>
 9   1  0.7570500E-01  0.2499959E+03  0.7546771E-02  0.1113307E+00
       21   -1    0    0  503  502  0.00000000000E+00  0.00000000000E+00  0.12788595274E+03  0.12788595274E+03  0.00000000000E+00 0. -1.
       21   -1    0    0  502  503 -0.00000000000E+00 -0.00000000000E+00 -0.12217515068E+03  0.12217515068E+03  0.00000000000E+00 0. -1.
       25    2    1    2    0    0  0.88817841970E-15  0.00000000000E+00  0.57108020535E+01  0.25006110342E+03  0.24999588433E+03 0.  0.
       24    2    3    3    0    0 -0.41020766940E+01  0.72693631441E+02 -0.60070792151E+02  0.12374473352E+03  0.80019172199E+02 0.  0.
      -24    2    3    3    0    0  0.41020766940E+01 -0.72693631441E+02  0.65781594204E+02  0.12631636990E+03  0.79545056932E+02 0.  0.
      -13    1    4    4    0    0 -0.35933462608E+02  0.12373710961E+02 -0.33114791461E+02  0.50407458490E+02  0.00000000000E+00 0.  1.
       14    1    4    4    0    0  0.31831385914E+02  0.60319920479E+02 -0.26956000690E+02  0.73337275031E+02  0.00000000000E+00 0. -1.
        1    1    5    5  501    0 -0.72991736760E+01 -0.53091344874E+02 -0.32166510655E+01  0.53687202208E+02  0.00000000000E+00 0. -1.
       -2    1    5    5    0  501  0.11401250370E+02 -0.19602286567E+02  0.68998245270E+02  0.72629167687E+02  0.00000000000E+00 0.  1.
</event>
<event>
 9   1  0.7570500E-01  0.2499956E+03  0.7546771E-02  0.1113308E+00
       21   -1    0    0  503  502  0.00000000000E+00  0.00000000000E+00  0.41584382789E+02  0.41584382789E+02  0.00000000000E+00 0. -1.
       21   -1    0    0  502  503 -0.00000000000E+00 -0.00000000000E+00 -0.37572869275E+03  0.37572869275E+03  0.00000000000E+00 0. -1.
       25    2    1    2    0    0  0.00000000000E+00  0.14210854715E-13 -0.33414430997E+03  0.41731307554E+03  0.24999556624E+03 0.  0.
       24    2    3    3    0    0 -0.52794462769E+02 -0.77318853092E+02 -0.14597888577E+03  0.19114643769E+03  0.80384483612E+02 0.  0.
      -24    2    3    3    0    0  0.52794462769E+02  0.77318853092E+02 -0.18816542419E+03  0.22616663786E+03  0.83544364721E+02 0.  0.
      -13    1    4    4    0    0 -0.55433092820E+02 -0.75895286031E+02 -0.15520640285E+03  0.18144406771E+03  0.00000000000E+00 0.  1.
       14    1    4    4    0    0  0.26386300507E+01 -0.14235670606E+01  0.92275170773E+01  0.97023699750E+01  0.00000000000E+00 0. -1.
        3    1    5    5  501    0 -0.11185776864E+02  0.55731574333E+02 -0.10111641157E+03  0.11599852874E+03  0.00000000000E+00 0. -1.
       -4    1    5    5    0  501  0.63980239633E+02  0.21587278759E+02 -0.87049012619E+02  0.11016810911E+03  0.00000000000E+00 0.  1.
</event>
<event>
 9   1  0.7570500E-01  0.2500000E+03  0.7546771E-02  0.1113305E+00
       21   -1    0    0  503  502  0.00000000000E+00  0.00000000000E+00  0.22201178197E+03  0.22201178197E+03  0.00000000000E+00 0. -1.
       21   -1    0    0  502  503 -0.00000000000E+00 -0.00000000000E+00 -0.70379124696E+02  0.70379124696E+02  0.00000000000E+00 0. -1.
       25    2    1    2    0    0  0.00000000000E+00  0.00000000000E+00  0.15163265728E+03  0.29239090667E+03  0.24999995910E+03 0.  0.
       24    2    3    3    0    0  0.31908129720E+02 -0.82084934171E+02  0.96325798702E+02  0.15651434361E+03  0.86382956069E+02 0.  0.
      -24    2    3    3    0    0 -0.31908129720E+02  0.82084934171E+02  0.55306858576E+02  0.13587656306E+03  0.87450137929E+02 0.  0.
      -13    1    4    4    0    0  0.60432653207E+02 -0.65127362295E+02  0.79890425913E+02  0.11948288181E+03  0.00000000000E+00 0.  1.
       14    1    4    4    0    0 -0.28524523487E+02 -0.16957571876E+02  0.16435372788E+02  0.37031461796E+02  0.00000000000E+00 0. -1.
        3    1    5    5  501    0  0.27675354480E+01  0.57176793849E+02  0.70270788268E+02  0.90635692148E+02  0.00000000000E+00 0. -1.
       -4    1    5    5    0  501 -0.34675665168E+02  0.24908140322E+02 -0.14963929693E+02  0.45240870913E+02  0.00000000000E+00 0.  1.
</event>
<event>
 9   1  0.7570500E-01  0.2499742E+03  0.7546771E-02  0.1113321E+00
       21   -1    0    0  503  502  0.00000000000E+00  0.00000000000E+00  0.40020520589E+03  0.40020520589E+03  0.00000000000E+00 0. -1.
       21   -1    0    0  502  503 -0.00000000000E+00 -0.00000000000E+00 -0.39034397989E+02  0.39034397989E+02  0.00000000000E+00 0. -1.
       25    2    1    2    0    0  0.00000000000E+00  0.00000000000E+00  0.36117080790E+03  0.43923960388E+03  0.24997415294E+03 0.  0.
       24    2    3    3    0    0  0.66123363125E+02 -0.70523187564E+02  0.18036627226E+03  0.21931247354E+03  0.78867925969E+02 0.  0.
      -24    2    3    3    0    0 -0.66123363125E+02  0.70523187564E+02  0.18080453564E+03  0.21992713034E+03  0.79572881154E+02 0.  0.
      -13    1    4    4    0    0  0.54097343057E+02 -0.76674766110E+02  0.18290136953E+03  0.20556860962E+03  0.00000000000E+00 0.  1.
       14    1    4    4    0    0  0.12026020068E+02  0.61515785462E+01 -0.25350972741E+01  0.13743863921E+02  0.00000000000E+00 0. -1.
        1    1    5    5  501    0 -0.30442787649E+02  0.13625105375E+02  0.76706004682E+01  0.34223455815E+02  0.00000000000E+00 0. -1.
       -2    1    5    5    0  501 -0.35680575476E+02  0.56898082188E+02  0.17313393517E+03  0.18570367452E+03  0.00000000000E+00 0.  1.
</event>
<event>
 9   1  0.7570500E-01  0.2500014E+03  0.7546771E-02  0.1113304E+00
       21   -1    0    0  503  502  0.00000000000E+00  0.00000000000E+00  0.15647315776E+03  0.15647315776E+03  0.00000000000E+00 0.  1.
       21   -1    0    0  502  503 -0.00000000000E+00 -0.00000000000E+00 -0.99858473775E+02  0.99858473775E+02  0.00000000000E+00 0.  1.
       25    2    1    2    0    0  0.14210854715E-13 -0.71054273576E-14  0.56614683989E+02  0.25633163154E+03  0.25000136576E+03 0.  0.
       24    2    3    3    0    0 -0.66784308969E+02  0.31986795394E+02 -0.33638886584E+02  0.11362900516E+03  0.79351604395E+02 0.  0.
      -24    2    3    3    0    0  0.66784308969E+02 -0.31986795394E+02  0.90253570573E+02  0.14270262637E+03  0.82067250282E+02 0.  0.
      -13    1    4    4    0    0 -0.44083924116E+02  0.28604007866E+02 -0.59278144417E+02  0.79217927498E+02  0.00000000000E+00 0.  1.
       14    1    4    4    0    0 -0.22700384853E+02  0.33827875277E+01  0.25639257833E+02  0.34411077667E+02  0.00000000000E+00 0. -1.
        1    1    5    5  501    0  0.62608670960E+02 -0.57272687320E+02  0.67386625495E+02  0.10835572753E+03  0.00000000000E+00 0. -1.
       -2    1    5    5    0  501  0.41756380093E+01  0.25285891926E+02  0.22866945077E+02  0.34346898847E+02  0.00000000000E+00 0.  1.
</event>
<event>
 9   1  0.7570500E-01  0.2500003E+03  0.7546771E-02  0.1113305E+00
       21   -1    0    0  503  502  0.00000000000E+00  0.00000000000E+00  0.50736206969E+02  0.50736206969E+02  0.00000000000E+00 0.  1.
       21   -1    0    0  502  503 -0.00000000000E+00 -0.00000000000E+00 -0.30796624816E+03  0.30796624816E+03  0.00000000000E+00 0.  1.
       25    2    1    2    0    0  0.00000000000E+00  0.14210854715E-13 -0.25723004119E+03  0.35870245512E+03  0.25000031445E+03 0.  0.
       24    2    3    3    0    0 -0.42516731530E+02  0.69271463357E+02 -0.20150520209E+03  0.23138440092E+03  0.79549898941E+02 0.  0.
      -24    2    3    3    0    0  0.42516731530E+02 -0.69271463357E+02 -0.55724839094E+02  0.12731805421E+03  0.80612785212E+02 0.  0.
      -13    1    4    4    0    0 -0.46854772439E+02  0.28639009577E+02 -0.49327370968E+02  0.73815662948E+02  0.00000000000E+00 0.  1.
       14    1    4    4    0    0  0.43380409088E+01  0.40632453780E+02 -0.15217783113E+03  0.15756873797E+03  0.00000000000E+00 0. -1.
        3    1    5    5  501    0  0.17844233815E+02 -0.58912353618E+02  0.41912863101E+01  0.61698046729E+02  0.00000000000E+00 0. -1.
       -4    1    5    5    0  501  0.24672497715E+02 -0.10359109739E+02 -0.59916125404E+02  0.65620007479E+02  0.00000000000E+00 0.  1.
</event>
<event>
 9   1  0.7570500E-01  0.2499845E+03  0.7546771E-02  0.1113315E+00
       21   -1    0    0  503  502  0.00000000000E+00  0.00000000000E+00  0.99389716769E+02  0.99389716769E+02  0.00000000000E+00 0. -1.
       21   -1    0    0  502  503 -0.00000000000E+00 -0.00000000000E+00 -0.15718998263E+03  0.15718998263E+03  0.00000000000E+00 0. -1.
       25    2    1    2    0    0  0.00000000000E+00  0.35527136788E-14 -0.57800265861E+02  0.25657969940E+03  0.24998454234E+03 0.  0.
       24    2    3    3    0    0  0.27226094260E+02  0.24724004530E+02  0.67735809556E+02  0.11020616934E+03  0.78770065738E+02 0.  0.
      -24    2    3    3    0    0 -0.27226094260E+02 -0.24724004530E+02 -0.12553607542E+03  0.14637353006E+03  0.65676232087E+02 0.  0.
      -13    1    4    4    0    0 -0.23182296018E+02  0.24470642320E+02  0.41223040744E+02  0.53250072980E+02  0.00000000000E+00 0.  1.
       14    1    4    4    0    0  0.50408390278E+02  0.25336221001E+00  0.26512768812E+02  0.56956096363E+02  0.00000000000E+00 0. -1.
        1    1    5    5  501    0 -0.47330362802E+01  0.20519627183E+02 -0.60218677513E+02  0.63794559749E+02  0.00000000000E+00 0. -1.
       -2    1    5    5    0  501 -0.22493057979E+02 -0.45243631713E+02 -0.65317397904E+02  0.82578970306E+02  0.00000000000E+00 0.  1.
</event>
<event>
 9   1  0.7570500E-01  0.2499996E+03  0.7546771E-02  0.1113305E+00
       21   -1    0    0  503  502  0.00000000000E+00  0.00000000000E+00  0.34440852614E+02  0.34440852614E+02  0.00000000000E+00 0.  1.
       21   -1    0    0  502  503 -0.00000000000E+00 -0.00000000000E+00 -0.45367503389E+03  0.45367503389E+03  0.00000000000E+00 0.  1.
       25    2    1    2    0    0 -0.71054273576E-14  0.00000000000E+00 -0.41923418128E+03  0.48811588650E+03  0.24999963982E+03 0.  0.
       24    2    3    3    0    0 -0.24976669787E+02  0.70018355400E+01 -0.37248289396E+02  0.92973050521E+02  0.81139961336E+02 0.  0.
      -24    2    3    3    0    0  0.24976669787E+02 -0.70018355400E+01 -0.38198589188E+03  0.39514283598E+03  0.97733205714E+02 0.  0.
      -13    1    4    4    0    0 -0.36662982180E+02  0.19673423349E+02 -0.54512038689E+02  0.68576819776E+02  0.00000000000E+00 0.  1.
       14    1    4    4    0    0  0.11686312393E+02 -0.12671587809E+02  0.17263749292E+02  0.24396230745E+02  0.00000000000E+00 0. -1.
        3    1    5    5  501    0 -0.36558932248E+02 -0.58230829413E+01 -0.18860965267E+03  0.19220838926E+03  0.00000000000E+00 0. -1.
       -4    1    5    5    0  501  0.61535602035E+02 -0.11787525987E+01 -0.19337623921E+03  0.20293444672E+03  0.00000000000E+00 0.  1.
</event>
<event>
 9   1  0.7570500E-01  0.2499938E+03  0.7546771E-02  0.1113309E+00
       21   -1    0    0  503  502  0.00000000000E+00  0.00000000000E+00  0.23686567718E+02  0.23686567718E+02  0.00000000000E+00 0.  1.
       21   -1    0    0  502  503 -0.00000000000E+00 -0.00000000000E+00 -0.65962403836E+03  0.65962403836E+03  0.00000000000E+00 0.  1.
       25    2    1    2    0    0 -0.14210854715E-13  0.00000000000E+00 -0.63593747064E+03  0.68331060608E+03  0.24999383555E+03 0.  0.
       24    2    3    3    0    0  0.67916435396E+02 -0.47953589203E+02 -0.46227280493E+03  0.47657906675E+03  0.80742007476E+02 0.  0.
      -24    2    3    3    0    0 -0.67916435396E+02  0.47953589203E+02 -0.17366466571E+03  0.20673153933E+03  0.75274991344E+02 0.  0.
      -13    1    4    4    0    0  0.38097864979E+02 -0.62940448468E+02 -0.39123433668E+03  0.39809201645E+03  0.00000000000E+00 0.  1.
       14    1    4    4    0    0  0.29818570417E+02  0.14986859264E+02 -0.71038468254E+02  0.78487050296E+02  0.00000000000E+00 0. -1.
        3    1    5    5  501    0 -0.69667473178E+02  0.59247231241E+01 -0.10285869106E+03  0.12437270396E+03  0.00000000000E+00 0. -1.
       -4    1    5    5    0  501  0.17510377821E+01  0.42028866079E+02 -0.70805974652E+02  0.82358835370E+02  0.00000000000E+00 0.  1.
</event>
<event>
 9   1  0.7570500E-01  0.2499999E+03  0.7546771E-02  0.1113305E+00
       21   -1    0    0  503  502  0.00000000000E+00  0.00000000000E+00  0.30922048830E+03  0.30922048830E+03  0.00000000000E+00 0. -1.
       21   -1    0    0  502  503 -0.00000000000E+00 -0.00000000000E+00 -0.50530241904E+02  0.50530241904E+02  0.00000000000E+00 0. -1.
       25    2    1    2    0    0  0.14210854715E-13 -0.35527136788E-14  0.25869024639E+03  0.35975073020E+03  0.24999988860E+03 0.  0.
       24    2    3    3    0    0  0.79557438700E+02  0.48123966546E+01  0.19618749912E+03  0.22888287370E+03  0.86863627857E+02 0.  0.
      -24    2    3    3    0    0 -0.79557438700E+02 -0.48123966546E+01  0.62502747270E+02  0.13086785651E+03  0.82868915983E+02 0.  0.
      -13    1    4    4    0    0  0.30455485428E+02  0.45006961299E+02  0.86046474995E+02  0.10177012831E+03  0.00000000000E+00 0.  1.
       14    1    4    4    0    0  0.49101953272E+02 -0.40194564645E+02  0.11014102413E+03  0.12711274538E+03  0.00000000000E+00 0. -1.
        1    1    5    5  501    0  0.51203256624E+01  0.22509190958E+02  0.25797561713E+02  0.34617850928E+02  0.00000000000E+00 0. -1.
       -2    1    5    5    0  501 -0.84677764363E+02 -0.27321587613E+02  0.36705185557E+02  0.96250005579E+02  0.00000000000E+00 0.  1.
</event>
<event>
 9   1  0.7570500E-01  0.2500275E+03  0.7546771E-02  0.1113287E+00
       21   -1    0    0  503  502  0.00000000000E+00  0.00000000000E+00  0.13223316402E+03  0.13223316402E+03  0.00000000000E+00 0. -1.
       21   -1    0    0  502  503 -0.00000000000E+00 -0.00000000000E+00 -0.11818845948E+03  0.11818845948E+03  0.00000000000E+00 0. -1.
       25    2    1    2    0    0 -0.71054273576E-14  0.71054273576E-14  0.14044704537E+02  0.25042162351E+03  0.25002747008E+03 0.  0.
       24    2    3    3    0    0 -0.47193645663E+02  0.60566486231E+02  0.64958389930E+02  0.12863894273E+03  0.80205023023E+02 0.  0.
      -24    2    3    3    0    0  0.47193645663E+02 -0.60566486231E+02 -0.50913685393E+02  0.12178268078E+03  0.79644701847E+02 0.  0.
      -13    1    4    4    0    0 -0.25486038092E+02  0.73589163262E+02  0.67682444273E+02  0.10317856536E+03  0.00000000000E+00 0.  1.
       14    1    4    4    0    0 -0.21707607571E+02 -0.13022677031E+02 -0.27240543428E+01  0.25460377365E+02  0.00000000000E+00 0. -1.
        3    1    5    5  501    0  0.23658554681E+02  0.47998210575E+01  0.12967838640E+02  0.27403108050E+02  0.00000000000E+00 0. -1.
       -4    1    5    5    0  501  0.23535090981E+02 -0.65366307288E+02 -0.63881524033E+02  0.94379572730E+02  0.00000000000E+00 0.  1.
</event>
<event>
 9   1  0.7570500E-01  0.2500013E+03  0.7546771E-02  0.1113304E+00
       21   -1    0    0  503  502  0.00000000000E+00  0.00000000000E+00  0.23025024044E+02  0.23025024044E+02  0.00000000000E+00 0.  1.
       21   -1    0    0  502  503 -0.00000000000E+00 -0.00000000000E+00 -0.67861655453E+03  0.67861655453E+03  0.00000000000E+00 0.  1.
       25    2    1    2    0    0  0.71054273576E-14  0.35527136788E-14 -0.65559153049E+03  0.70164157857E+03  0.25000129987E+03 0.  0.
       24    2    3    3    0    0 -0.48990790979E+02 -0.25963691957E+02 -0.54528400462E+03  0.55391282619E+03  0.80065987943E+02 0.  0.
      -24    2    3    3    0    0  0.48990790979E+02  0.25963691957E+02 -0.11030752586E+03  0.14772875238E+03  0.81128435931E+02 0.  0.
      -13    1    4    4    0    0 -0.10515254023E+02 -0.35672419471E+02 -0.43712767544E+03  0.43870684599E+03  0.00000000000E+00 0.  1.
       14    1    4    4    0    0 -0.38475536956E+02  0.97087275140E+01 -0.10815632918E+03  0.11520598021E+03  0.00000000000E+00 0. -1.
        1    1    5    5  501    0  0.30575269147E+02 -0.25856698793E+02 -0.65592500295E+02  0.76849151270E+02  0.00000000000E+00 0. -1.
       -2    1    5    5    0  501  0.18415521832E+02  0.51820390751E+02 -0.44715025568E+02  0.70879601110E+02  0.00000000000E+00 0.  1.
</event>
<event>
 9   1  0.7570500E-01  0.2499890E+03  0.7546771E-02  0.1113312E+00
       21   -1    0    0  503  502  0.00000000000E+00  0.00000000000E+00  0.10465511110E+03  0.10465511110E+03  0.00000000000E+00 0. -1.
       21   -1    0    0  502  503 -0.00000000000E+00 -0.00000000000E+00 -0.14928681088E+03  0.14928681088E+03  0.00000000000E+00 0. -1.
       25    2    1    2    0    0  0.35527136788E-14  0.00000000000E+00 -0.44631699780E+02  0.25394192199E+03  0.24998902200E+03 0.  0.
       24    2    3    3    0    0 -0.29820450707E+02  0.32841998040E+02  0.65578413340E+02  0.11135380436E+03  0.78302524442E+02 0.  0.
      -24    2    3    3    0    0  0.29820450707E+02 -0.32841998040E+02 -0.11021011312E+03  0.14258811763E+03  0.78849515783E+02 0.  0.
      -13    1    4    4    0    0 -0.22496338089E+02 -0.20486576217E+02  0.59147530269E+01  0.30996279388E+02  0.00000000000E+00 0.  1.
       14    1    4    4    0    0 -0.73241126181E+01  0.53328574257E+02  0.59663660313E+02  0.80357524973E+02  0.00000000000E+00 0. -1.
        3    1    5    5  501    0  0.11316768167E+02 -0.25014571809E+02  0.29910869726E+01  0.27617832026E+02  0.00000000000E+00 0. -1.
       -4    1    5    5    0  501  0.18503682540E+02 -0.78274262302E+01 -0.11320120009E+03  0.11497028560E+03  0.00000000000E+00 0.  1.
</event>
<event>
 9   1  0.7570500E-01  0.2500012E+03  0.7546771E-02  0.1113304E+00
       21   -1    0    0  503  502  0.00000000000E+00  0.00000000000E+00  0.46682424202E+02  0.46682424202E+02  0.00000000000E+00 0. -1.
       21   -1    0    0  502  503 -0.00000000000E+00 -0.00000000000E+00 -0.33471150291E+03  0.33471150291E+03  0.00000000000E+00 0. -1.
       25    2    1    2    0    0  0.00000000000E+00  0.28421709430E-13 -0.28802907871E+03  0.38139392711E+03  0.25000115491E+03 0.  0.
       24    2    3    3    0    0 -0.32658008989E+02  0.74022563677E+02 -0.66821455887E+02  0.13230618853E+03  0.80584955625E+02 0.  0.
      -24    2    3    3    0    0  0.32658008989E+02 -0.74022563677E+02 -0.22120762282E+03  0.24908773858E+03  0.81030880728E+02 0.  0.
      -13    1    4    4    0    0 -0.45331727282E+02  0.10902145372E+02 -0.43693045053E+02  0.63897609174E+02  0.00000000000E+00 0.  1.
       14    1    4    4    0    0  0.12673718294E+02  0.63120418305E+02 -0.23128410834E+02  0.68408579360E+02  0.00000000000E+00 0. -1.
        3    1    5    5  501    0  0.18076752796E+02 -0.16788665223E+01 -0.13231051487E+03  0.13355021501E+03  0.00000000000E+00 0. -1.
       -4    1    5    5    0  501  0.14581256193E+02 -0.72343697155E+02 -0.88897107957E+02  0.11553752357E+03  0.00000000000E+00 0.  1.
</event>
<event>
 9   1  0.7570500E-01  0.2499828E+03  0.7546771E-02  0.1113316E+00
       21   -1    0    0  503  502  0.00000000000E+00  0.00000000000E+00  0.22103495695E+03  0.22103495695E+03  0.00000000000E+00 0. -1.
       21   -1    0    0  502  503 -0.00000000000E+00 -0.00000000000E+00 -0.70680437422E+02  0.70680437422E+02  0.00000000000E+00 0. -1.
       25    2    1    2    0    0  0.71054273576E-14  0.71054273576E-14  0.15035451953E+03  0.29171539437E+03  0.24998277895E+03 0.  0.
       24    2    3    3    0    0 -0.62615087112E+02 -0.60180547974E+02  0.27698191774E+02  0.12105914985E+03  0.79660407024E+02 0.  0.
      -24    2    3    3    0    0  0.62615087112E+02  0.60180547974E+02  0.12265632775E+03  0.17065624452E+03  0.80849437640E+02 0.  0.
      -13    1    4    4    0    0 -0.36884918830E+02 -0.42579596076E+02 -0.23562661894E+02  0.61063231773E+02  0.00000000000E+00 0.  1.
       14    1    4    4    0    0 -0.25730168283E+02 -0.17600951898E+02  0.51260853668E+02  0.59995918081E+02  0.00000000000E+00 0. -1.
        3    1    5    5  501    0  0.51174222670E+02  0.47639008972E+01  0.94223257532E+02  0.10732901787E+03  0.00000000000E+00 0. -1.
       -4    1    5    5    0  501  0.11440864442E+02  0.55416647077E+02  0.28433070222E+02  0.63327226646E+02  0.00000000000E+00 0.  1.
</event>
<event>
 9   1  0.7570500E-01  0.2499998E+03  0.7546771E-02  0.1113305E+00
       21   -1    0    0  503  502  0.00000000000E+00  0.00000000000E+00  0.18243668839E+02  0.18243668839E+02  0.00000000000E+00 0. -1.
       21   -1    0    0  502  503 -0.00000000000E+00 -0.00000000000E+00 -0.85646016489E+03  0.85646016489E+03  0.00000000000E+00 0. -1.
       25    2    1    2    0    0 -0.71054273576E-14  0.17763568394E-14 -0.83821649605E+03  0.87470383373E+03  0.24999980498E+03 0.  0.
       24    2    3    3    0    0  0.53000242309E+02  0.69458927376E+01 -0.69623811593E+03  0.70285249670E+03  0.79980290943E+02 0.  0.
      -24    2    3    3    0    0 -0.53000242309E+02 -0.69458927376E+01 -0.14197838013E+03  0.17185133703E+03  0.80732586390E+02 0.  0.
      -13    1    4    4    0    0  0.38420449643E+02 -0.16270066117E+02 -0.14369911933E+03  0.14963382939E+03  0.00000000000E+00 0.  1.
       14    1    4    4    0    0  0.14579792667E+02  0.23215958854E+02 -0.55253899660E+03  0.55321866731E+03  0.00000000000E+00 0. -1.
        3    1    5    5  501    0  0.14466718478E+02 -0.14884741172E+02 -0.92003517114E+01  0.22704359381E+02  0.00000000000E+00 0. -1.
       -4    1    5    5    0  501 -0.67466960787E+02  0.79388484347E+01 -0.13277802841E+03  0.14914697765E+03  0.00000000000E+00 0.  1.
</event>
<event>
 9   1  0.7570500E-01  0.2500220E+03  0.7546771E-02  0.1113291E+00
       21   -1    0    0  503  502  0.00000000000E+00  0.00000000000E+00  0.78500662254E+03  0.78500662254E+03  0.00000000000E+00 0.  1.
       21   -1    0    0  502  503 -0.00000000000E+00 -0.00000000000E+00 -0.19907798904E+02  0.19907798904E+02  0.00000000000E+00 0.  1.
       25    2    1    2    0    0  0.00000000000E+00  0.35527136788E-14  0.76509882363E+03  0.80491442144E+03  0.25002203087E+03 0.  0.
       24    2    3    3    0    0 -0.59212582047E+02  0.13996851238E+02  0.14502455712E+03  0.17677366521E+03  0.80714093105E+02 0.  0.
      -24    2    3    3    0    0  0.59212582047E+02 -0.13996851238E+02  0.62007426651E+03  0.62814075623E+03  0.79791427695E+02 0.  0.
      -13    1    4    4    0    0 -0.16253260175E+02 -0.10005272235E+02 -0.42873219493E+01  0.19561571213E+02  0.00000000000E+00 0.  1.
       14    1    4    4    0    0 -0.42959321872E+02  0.24002123474E+02  0.14931187907E+03  0.15721209400E+03  0.00000000000E+00 0. -1.
        1    1    5    5  501    0  0.38091905804E+02 -0.45724464199E+02  0.30345313566E+03  0.30923377153E+03  0.00000000000E+00 0. -1.
       -2    1    5    5    0  501  0.21120676243E+02  0.31727612961E+02  0.31662113086E+03  0.31890698471E+03  0.00000000000E+00 0.  1.
</event>
<event>
 9   1  0.7570500E-01  0.2500100E+03  0.7546771E-02  0.1113298E+00
       21   -1    0    0  503  502  0.00000000000E+00  0.00000000000E+00  0.71756927898E+01  0.71756927898E+01  0.00000000000E+00 0.  1.
       21   -1    0    0  502  503 -0.00000000000E+00 -0.00000000000E+00 -0.21776650548E+04  0.21776650548E+04  0.00000000000E+00 0.  1.
       25    2    1    2    0    0  0.00000000000E+00 -0.14210854715E-13 -0.21704893620E+04  0.21848407476E+04  0.25001004326E+03 0.  0.
       24    2    3    3    0    0 -0.84997685901E+02 -0.43794800980E+02 -0.10880529693E+04  0.10952662906E+04  0.81279715905E+02 0.  0.
      -24    2    3    3    0    0  0.84997685901E+02  0.43794800980E+02 -0.10824363927E+04  0.10895744570E+04  0.79758145440E+02 0.  0.
      -13    1    4    4    0    0 -0.55123907506E+02  0.16817534884E+02 -0.53801028982E+03  0.54108829835E+03  0.00000000000E+00 0.  1.
       14    1    4    4    0    0 -0.29873778395E+02 -0.60612335864E+02 -0.55004267948E+03  0.55417799230E+03  0.00000000000E+00 0. -1.
        1    1    5    5  501    0 -0.95926870332E+01  0.11696285757E+02 -0.35378857405E+03  0.35411181550E+03  0.00000000000E+00 0. -1.
       -2    1    5    5    0  501  0.94590372934E+02  0.32098515223E+02 -0.72864781869E+03  0.73546264148E+03  0.00000000000E+00 0.  1.
</event>
<event>
 9   1  0.7570500E-01  0.2499981E+03  0.7546771E-02  0.1113306E+00
       21   -1    0    0  503  502  0.00000000000E+00  0.00000000000E+00  0.95714352736E+02  0.95714352736E+02  0.00000000000E+00 0.  1.
       21   -1    0    0  502  503 -0.00000000000E+00 -0.00000000000E+00 -0.16324373193E+03  0.16324373193E+03  0.00000000000E+00 0.  1.
       25    2    1    2    0    0  0.00000000000E+00  0.35527136788E-14 -0.67529379190E+02  0.25895808466E+03  0.24999814511E+03 0.  0.
       24    2    3    3    0    0 -0.10230621638E+02  0.30886272132E+02 -0.12878573888E+03  0.15357355793E+03  0.77074274118E+02 0.  0.
      -24    2    3    3    0    0  0.10230621638E+02 -0.30886272132E+02  0.61256359693E+02  0.10538452673E+03  0.79340591415E+02 0.  0.
      -13    1    4    4    0    0 -0.22645872954E+02  0.40341624234E+02 -0.12993516511E+03  0.13792544848E+03  0.00000000000E+00 0.  1.
       14    1    4    4    0    0  0.12415251317E+02 -0.94553521021E+01  0.11494262256E+01  0.15648109447E+02  0.00000000000E+00 0. -1.
        1    1    5    5  501    0 -0.17393985164E+02  0.11033894950E+02  0.49797543041E+02  0.53889635836E+02  0.00000000000E+00 0. -1.
       -2    1    5    5    0  501  0.27624606802E+02 -0.41920167082E+02  0.11458816652E+02  0.51494890894E+02  0.00000000000E+00 0.  1.
</event>
<event>
 9   1  0.7570500E-01  0.2500002E+03  0.7546771E-02  0.1113305E+00
       21   -1    0    0  503  502  0.00000000000E+00  0.00000000000E+00  0.28599210793E+02  0.28599210793E+02  0.00000000000E+00 0.  1.
       21   -1    0    0  502  503 -0.00000000000E+00 -0.00000000000E+00 -0.54634456409E+03  0.54634456409E+03  0.00000000000E+00 0.  1.
       25    2    1    2    0    0  0.14210854715E-13  0.00000000000E+00 -0.51774535329E+03  0.57494377488E+03  0.25000018683E+03 0.  0.
       24    2    3    3    0    0 -0.79209860365E+02 -0.36723284417E+02 -0.19878215117E+03  0.23390589387E+03  0.87033453151E+02 0.  0.
      -24    2    3    3    0    0  0.79209860365E+02  0.36723284417E+02 -0.31896320212E+03  0.34103788101E+03  0.83345727997E+02 0.  0.
      -13    1    4    4    0    0 -0.55338657246E+02  0.79823177011E+01 -0.16174240244E+03  0.17113354180E+03  0.00000000000E+00 0.  1.
       14    1    4    4    0    0 -0.23871203119E+02 -0.44705602118E+02 -0.37039748734E+02  0.62772352078E+02  0.00000000000E+00 0. -1.
        1    1    5    5  501    0  0.37847709295E+02  0.59594242452E+02 -0.22567700296E+03  0.23646148206E+03  0.00000000000E+00 0. -1.
       -2    1    5    5    0  501  0.41362151070E+02 -0.22870958035E+02 -0.93286199165E+02  0.10457639895E+03  0.00000000000E+00 0.  1.
</event>
<event>
 9   1  0.7570500E-01  0.2500068E+03  0.7546771E-02  0.1113301E+00
       21   -1    0    0  503  502  0.00000000000E+00  0.00000000000E+00  0.19160582807E+04  0.19160582807E+04  0.00000000000E+00 0. -1.
       21   -1    0    0  502  503 -0.00000000000E+00 -0.00000000000E+00 -0.81552031992E+01  0.81552031992E+01  0.00000000000E+00 0. -1.
       25    2    1    2    0    0 -0.14210854715E-13  0.17763568394E-14  0.19079030775E+04  0.19242134839E+04  0.25000675688E+03 0.  0.
       24    2    3    3    0    0  0.88254804354E+02 -0.13115688335E+02  0.68014796540E+03  0.69067634338E+03  0.80446408865E+02 0.  0.
      -24    2    3    3    0    0 -0.88254804354E+02  0.13115688335E+02  0.12277551121E+04  0.12335371405E+04  0.79185415140E+02 0.  0.
      -13    1    4    4    0    0 -0.92200261295E+01 -0.20291282325E+02  0.13814160772E+03  0.13992801294E+03  0.00000000000E+00 0.  1.
       14    1    4    4    0    0  0.97474830484E+02  0.71755939899E+01  0.54200635767E+03  0.55074833044E+03  0.00000000000E+00 0. -1.
        3    1    5    5  501    0 -0.68068610580E+02  0.84074801221E+01  0.11727859504E+04  0.11747897289E+04  0.00000000000E+00 0. -1.
       -4    1    5    5    0  501 -0.20186193774E+02  0.47082082131E+01  0.54969161689E+02  0.58747411691E+02  0.00000000000E+00 0.  1.
</event>
<event>
 9   1  0.7570500E-01  0.2500055E+03  0.7546771E-02  0.1113301E+00
       21   -1    0    0  503  502  0.00000000000E+00  0.00000000000E+00  0.10171367404E+03  0.10171367404E+03  0.00000000000E+00 0.  1.
       21   -1    0    0  502  503 -0.00000000000E+00 -0.00000000000E+00 -0.15362421128E+03  0.15362421128E+03  0.00000000000E+00 0.  1.
       25    2    1    2    0    0  0.35527136788E-14  0.00000000000E+00 -0.51910537240E+02  0.25533788532E+03  0.25000546354E+03 0.  0.
       24    2    3    3    0    0 -0.27350700854E+02  0.66815487213E+02  0.41282470587E+02  0.11421791432E+03  0.78288692706E+02 0.  0.
      -24    2    3    3    0    0  0.27350700854E+02 -0.66815487213E+02 -0.93193007827E+02  0.14111997100E+03  0.77572800241E+02 0.  0.
      -13    1    4    4    0    0 -0.52170531173E+02  0.56610456703E+02  0.41341184099E+02  0.87381929674E+02  0.00000000000E+00 0.  1.
       14    1    4    4    0    0  0.24819830319E+02  0.10205030510E+02 -0.58713511434E-01  0.26835984648E+02  0.00000000000E+00 0. -1.
        3    1    5    5  501    0 -0.18330189583E+02 -0.31473108400E+02 -0.65731025335E+01  0.37010242899E+02  0.00000000000E+00 0. -1.
       -4    1    5    5    0  501  0.45680890437E+02 -0.35342378812E+02 -0.86619905294E+02  0.10410972810E+03  0.00000000000E+00 0.  1.
</event>
<event>
 9   1  0.7570500E-01  0.2499977E+03  0.7546771E-02  0.1113306E+00
       21   -1    0    0  503  502  0.00000000000E+00  0.00000000000E+00  0.26664568511E+02  0.26664568511E+02  0.00000000000E+00 0.  1.
       21   -1    0    0  502  503 -0.00000000000E+00 -0.00000000000E+00 -0.58597290484E+03  0.58597290484E+03  0.00000000000E+00 0.  1.
       25    2    1    2    0    0  0.00000000000E+00  0.00000000000E+00 -0.55930833633E+03  0.61263747335E+03  0.24999771732E+03 0.  0.
       24    2    3    3    0    0  0.68110142571E+02 -0.59362725321E+02 -0.34097457510E+03  0.36194446375E+03  0.81099995665E+02 0.  0.
      -24    2    3    3    0    0 -0.68110142571E+02  0.59362725321E+02 -0.21833376123E+03  0.25069300960E+03  0.83752188577E+02 0.  0.
      -13    1    4    4    0    0  0.56427331228E+02 -0.75348870682E+02 -0.31787225780E+03  0.33151812666E+03  0.00000000000E+00 0.  1.
       14    1    4    4    0    0  0.11682811343E+02  0.15986145361E+02 -0.23102317298E+02  0.30426337093E+02  0.00000000000E+00 0. -1.
        1    1    5    5  501    0 -0.31119265876E+02  0.16425565674E+02 -0.17721282209E+03  0.18067261062E+03  0.00000000000E+00 0. -1.
       -2    1    5    5    0  501 -0.36990876695E+02  0.42937159648E+02 -0.41120939141E+02  0.70020398979E+02  0.00000000000E+00 0.  1.
</event>
<event>
 9   1  0.7570500E-01  0.2500013E+03  0.7546771E-02  0.1113304E+00
       21   -1    0    0  503  502  0.00000000000E+00  0.00000000000E+00  0.14626141915E+04  0.14626141915E+04  0.00000000000E+00 0. -1.
       21   -1    0    0  502  503 -0.00000000000E+00 -0.00000000000E+00 -0.10683036096E+02  0.10683036096E+02  0.00000000000E+00 0. -1.
       25    2    1    2    0    0  0.00000000000E+00 -0.14210854715E-13  0.14519311554E+04  0.14732972276E+04  0.25000128161E+03 0.  0.
       24    2    3    3    0    0  0.11378282391E+02 -0.47716080370E+02  0.24381248927E+03  0.26136604459E+03  0.80382769940E+02 0.  0.
      -24    2    3    3    0    0 -0.11378282391E+02  0.47716080370E+02  0.12081186661E+04  0.12119311830E+04  0.82584449209E+02 0.  0.
      -13    1    4    4    0    0 -0.13293710320E+02 -0.22529860082E+02  0.21282587261E+03  0.21442753877E+03  0.00000000000E+00 0.  1.
       14    1    4    4    0    0  0.24671992711E+02 -0.25186220288E+02  0.30986616662E+02  0.46938505823E+02  0.00000000000E+00 0. -1.
        3    1    5    5  501    0  0.23755925038E+01  0.12245130880E+02  0.10162810968E+04  0.10163576410E+04  0.00000000000E+00 0. -1.
       -4    1    5    5    0  501 -0.13753874895E+02  0.35470949490E+02  0.19183756928E+03  0.19557354197E+03  0.00000000000E+00 0.  1.
</event>
<event>
 9   1  0.7570500E-01  0.2500029E+03  0.7546771E-02  0.1113303E+00
       21   -1    0    0  503  502  0.00000000000E+00  0.00000000000E+00  0.43438072796E+03  0.43438072796E+03  0.00000000000E+00 0.  1.
       21   -1    0    0  502  503 -0.00000000000E+00 -0.00000000000E+00 -0.35971574689E+02  0.35971574689E+02  0.00000000000E+00 0.  1.
       25    2    1    2    0    0  0.00000000000E+00  0.00000000000E+00  0.39840915327E+03  0.47035230265E+03  0.25000287038E+03 0.  0.
       24    2    3    3    0    0 -0.45367028480E+02  0.95385256772E+01  0.41590370983E+02  0.10073116003E+03  0.79169797891E+02 0.  0.
      -24    2    3    3    0    0  0.45367028480E+02 -0.95385256772E+01  0.35681878228E+03  0.36962114261E+03  0.84563555565E+02 0.  0.
      -13    1    4    4    0    0 -0.64174593139E+02  0.18801156177E+02  0.43348409335E+02  0.79692825712E+02  0.00000000000E+00 0.  1.
       14    1    4    4    0    0  0.18807564659E+02 -0.92626305001E+01 -0.17580383520E+01  0.21038334322E+02  0.00000000000E+00 0. -1.
        1    1    5    5  501    0  0.35157143617E+02  0.28789779763E+02  0.27460262292E+03  0.27833698403E+03  0.00000000000E+00 0. -1.
       -2    1    5    5    0  501  0.10209884863E+02 -0.38328305441E+02  0.82216159365E+02  0.91284158580E+02  0.00000000000E+00 0.  1.
</event>
<event>
 9   1  0.7570500E-01  0.2499988E+03  0.7546771E-02  0.1113306E+00
       21   -1    0    0  503  502  0.00000000000E+00  0.00000000000E+00  0.80494418104E+02  0.80494418104E+02  0.00000000000E+00 0.  1.
       21   -1    0    0  502  503 -0.00000000000E+00 -0.00000000000E+00 -0.19411091773E+03  0.19411091773E+03  0.00000000000E+00 0.  1.
       25    2    1    2    0    0 -0.14210854715E-13 -0.71054273576E-14 -0.11361649963E+03  0.27460533583E+03  0.24999876296E+03 0.  0.
       24    2    3    3    0    0  0.52429230633E+02 -0.17907134068E+02 -0.14435231918E+03  0.17385751659E+03  0.79494366751E+02 0.  0.
      -24    2    3    3    0    0 -0.52429230633E+02  0.17907134068E+02  0.30735819557E+02  0.10074781925E+03  0.78332259022E+02 0.  0.
      -13    1    4    4    0    0  0.65804839351E+02  0.94120188300E+01 -0.98326988772E+02  0.11868891988E+03  0.00000000000E+00 0.  1.
       14    1    4    4    0    0 -0.13375608718E+02 -0.27319152898E+02 -0.46025330410E+02  0.55168596711E+02  0.00000000000E+00 0. -1.
        1    1    5    5  501    0  0.47918880478E+01 -0.49462972938E+01  0.38078104013E+02  0.38695866100E+02  0.00000000000E+00 0. -1.
       -2    1    5    5    0  501 -0.57221118681E+02  0.22853431362E+02 -0.73422844561E+01  0.62051953145E+02  0.00000000000E+00 0.  1.
</event>
<event>
 9   1  0.7570500E-01  0.2500021E+03  0.7546771E-02  0.1113304E+00
       21   -1    0    0  503  502  0.00000000000E+00  0.00000000000E+00  0.17907695745E+03  0.17907695745E+03  0.00000000000E+00 0.  1.
       21   -1    0    0  502  503 -0.00000000000E+00 -0.00000000000E+00 -0.87254436094E+02  0.87254436094E+02  0.00000000000E+00 0.  1.
       25    2    1    2    0    0 -0.71054273576E-14  0.71054273576E-14  0.91822521359E+02  0.26633139355E+03  0.25000207151E+03 0.  0.
       24    2    3    3    0    0 -0.45171531554E+02  0.53373052203E+02  0.10051537520E+03  0.14701680742E+03  0.81372299026E+02 0.  0.
      -24    2    3    3    0    0  0.45171531554E+02 -0.53373052203E+02 -0.86928538415E+01  0.11931458612E+03  0.96287355295E+02 0.  0.
      -13    1    4    4    0    0 -0.51687251353E+02  0.74354488103E+00  0.33673702008E+02  0.61693135909E+02  0.00000000000E+00 0.  1.
       14    1    4    4    0    0  0.65157197991E+01  0.52629507322E+02  0.66841673192E+02  0.85323671514E+02  0.00000000000E+00 0. -1.
        1    1    5    5  501    0 -0.10957049185E+02 -0.38558633408E+01 -0.37390125915E+02  0.39152855897E+02  0.00000000000E+00 0. -1.
       -2    1    5    5    0  501  0.56128580739E+02 -0.49517188862E+02  0.28697272074E+02  0.80161730227E+02  0.00000000000E+00 0.  1.
</event>
<event>
 9   1  0.7570500E-01  0.2499969E+03  0.7546771E-02  0.1113307E+00
       21   -1    0    0  503  502  0.00000000000E+00  0.00000000000E+00  0.76529054457E+03  0.76529054457E+03  0.00000000000E+00 0. -1.
       21   -1    0    0  502  503 -0.00000000000E+00 -0.00000000000E+00 -0.20416580711E+02  0.20416580711E+02  0.00000000000E+00 0. -1.
       25    2    1    2    0    0  0.00000000000E+00  0.35527136788E-14  0.74487396386E+03  0.78570712529E+03  0.24999692935E+03 0.  0.
       24    2    3    3    0    0  0.67027323026E+02  0.24655695488E+02  0.18054563730E+03  0.21021248616E+03  0.80572928670E+02 0.  0.
      -24    2    3    3    0    0 -0.67027323026E+02 -0.24655695488E+02  0.56432832656E+03  0.57549463913E+03  0.87333007263E+02 0.  0.
      -13    1    4    4    0    0  0.63230666835E+02  0.12177962295E+02  0.18542455122E+03  0.19628724918E+03  0.00000000000E+00 0.  1.
       14    1    4    4    0    0  0.37966561905E+01  0.12477733192E+02 -0.48789139188E+01  0.13925236977E+02  0.00000000000E+00 0. -1.
        3    1    5    5  501    0 -0.14444201850E+02 -0.36535587378E+02  0.41274876158E+03  0.41461430788E+03  0.00000000000E+00 0. -1.
       -4    1    5    5    0  501 -0.52583121176E+02  0.11879891891E+02  0.15157956498E+03  0.16088033125E+03  0.00000000000E+00 0.  1.
</event>
<event>
 9   1  0.7570500E-01  0.2500067E+03  0.7546771E-02  0.1113301E+00
       21   -1    0    0  503  502  0.00000000000E+00  0.00000000000E+00  0.25230753313E+02  0.25230753313E+02  0.00000000000E+00 0. -1.
       21   -1    0    0  502  503 -0.00000000000E+00 -0.00000000000E+00 -0.61931706157E+03  0.61931706157E+03  0.00000000000E+00 0. -1.
       25    2    1    2    0    0  0.14210854715E-13 -0.14210854715E-13 -0.59408630826E+03  0.64454781488E+03  0.25000668793E+03 0.  0.
       24    2    3    3    0    0  0.67521764887E+02 -0.66037804630E+02 -0.25432001990E+03  0.28297797867E+03  0.80484057510E+02 0.  0.
      -24    2    3    3    0    0 -0.67521764887E+02  0.66037804630E+02 -0.33976628836E+03  0.36156983622E+03  0.79821271510E+02 0.  0.
      -13    1    4    4    0    0  0.55395471458E+02 -0.65524577991E+02 -0.25665553229E+03  0.27061816427E+03  0.00000000000E+00 0.  1.
       14    1    4    4    0    0  0.12126293429E+02 -0.51322663846E+00  0.23355123817E+01  0.12359814400E+02  0.00000000000E+00 0. -1.
        3    1    5    5  501    0 -0.79878965807E+02  0.32387873363E+02 -0.26476147018E+03  0.27843896928E+03  0.00000000000E+00 0. -1.
       -4    1    5    5    0  501  0.12357200921E+02  0.33649931267E+02 -0.75004818172E+02  0.83130866938E+02  0.00000000000E+00 0.  1.
</event>
<event>
 9   1  0.7570500E-01  0.2500275E+03  0.7546771E-02  0.1113287E+00
       21   -1    0    0  503  502  0.00000000000E+00  0.00000000000E+00  0.46761940216E+02  0.46761940216E+02  0.00000000000E+00 0.  1.
       21   -1    0    0  502  503 -0.00000000000E+00 -0.00000000000E+00 -0.33421265364E+03  0.33421265364E+03  0.00000000000E+00 0.  1.
       25    2    1    2    0    0  0.14210854715E-13  0.71054273576E-14 -0.28745071342E+03  0.38097459385E+03  0.25002745552E+03 0.  0.
       24    2    3    3    0    0 -0.43002985960E+02 -0.37913436738E+02 -0.26768978403E+02  0.10205934538E+03  0.80080249051E+02 0.  0.
      -24    2    3    3    0    0  0.43002985960E+02  0.37913436738E+02 -0.26068173502E+03  0.27891524847E+03  0.80944816827E+02 0.  0.
      -13    1    4    4    0    0  0.47333329786E+01 -0.36342138150E+02  0.14031092499E+02  0.39243177791E+02  0.00000000000E+00 0.  1.
       14    1    4    4    0    0 -0.47736318939E+02 -0.15712985876E+01 -0.40800070902E+02  0.62816167590E+02  0.00000000000E+00 0. -1.
        1    1    5    5  501    0  0.47660093541E+02 -0.11695483103E+02 -0.11871102771E+03  0.12845457151E+03  0.00000000000E+00 0. -1.
       -2    1    5    5    0  501 -0.46571075805E+01  0.49608919841E+02 -0.14197070730E+03  0.15046067696E+03  0.00000000000E+00 0.  1.
</event>
<event>
 9   1  0.7570500E-01  0.2499980E+03  0.7546771E-02  0.1113306E+00
       21   -1    0    0  503  502  0.00000000000E+00  0.00000000000E+00  0.10087367757E+03  0.10087367757E+03  0.00000000000E+00 0. -1.
       21   -1    0    0  502  503 -0.00000000000E+00 -0.00000000000E+00 -0.15489424020E+03  0.15489424020E+03  0.00000000000E+00 0. -1.
       25    2    1    2    0    0 -0.88817841970E-15 -0.14210854715E-13 -0.54020562627E+02  0.25576791777E+03  0.24999801314E+03 0.  0.
       24    2    3    3    0    0  0.44862195176E+01 -0.75553996296E+02 -0.87092994131E+02  0.14062784873E+03  0.80389487440E+02 0.  0.
      -24    2    3    3    0    0 -0.44862195176E+01  0.75553996296E+02  0.33072431504E+02  0.11514006903E+03  0.80217935959E+02 0.  0.
      -13    1    4    4    0    0  0.47927293520E+01 -0.51787465106E+02 -0.17514739932E+01  0.52038249951E+02  0.00000000000E+00 0.  1.
       14    1    4    4    0    0 -0.30650983439E+00 -0.23766531190E+02 -0.85341520137E+02  0.88589598782E+02  0.00000000000E+00 0. -1.
        3    1    5    5  501    0 -0.26550478015E+02  0.47411626126E+02  0.51538303033E+02  0.74893169610E+02  0.00000000000E+00 0. -1.
       -4    1    5    5    0  501  0.22064258498E+02  0.28142370171E+02 -0.18465871529E+02  0.40246899423E+02  0.00000000000E+00 0.  1.
</event>
<event>
 9   1  0.7570500E-01  0.2500196E+03  0.7546771E-02  0.1113292E+00
       21   -1    0    0  503  502  0.00000000000E+00  0.00000000000E+00  0.16676844641E+04  0.16676844641E+04  0.00000000000E+00 0.  1.
       21   -1    0    0  502  503 -0.00000000000E+00 -0.00000000000E+00 -0.93707508624E+01  0.93707508624E+01  0.00000000000E+00 0.  1.
       25    2    1    2    0    0  0.35527136788E-14  0.00000000000E+00  0.16583137132E+04  0.16770552149E+04  0.25001964427E+03 0.  0.
       24    2    3    3    0    0 -0.21035698493E+02  0.80797054841E+02  0.52818959430E+03  0.54074150476E+03  0.80289867104E+02 0.  0.
      -24    2    3    3    0    0  0.21035698493E+02 -0.80797054841E+02  0.11301241189E+04  0.11363137102E+04  0.84009875078E+02 0.  0.
      -13    1    4    4    0    0 -0.21369353543E+02  0.71477554450E+02  0.52586512573E+03  0.53113070004E+03  0.00000000000E+00 0.  1.
       14    1    4    4    0    0  0.33365504964E+00  0.93195003913E+01  0.23244685658E+01  0.96108047191E+01  0.00000000000E+00 0. -1.
        1    1    5    5  501    0  0.47586340466E+01  0.15269901416E+02  0.31167617378E+03  0.31208628901E+03  0.00000000000E+00 0. -1.
       -2    1    5    5    0  501  0.16277064447E+02 -0.96066956257E+02  0.81844794514E+03  0.82422742118E+03  0.00000000000E+00 0.  1.
</event>
<event>
 9   1  0.7570500E-01  0.2500090E+03  0.7546771E-02  0.1113299E+00
       21   -1    0    0  503  502  0.00000000000E+00  0.00000000000E+00  0.17432217832E+03  0.17432217832E+03  0.00000000000E+00 0.  1.
       21   -1    0    0  502  503 -0.00000000000E+00 -0.00000000000E+00 -0.89639326326E+02  0.89639326326E+02  0.00000000000E+00 0.  1.
       25    2    1    2    0    0  0.00000000000E+00 -0.88817841970E-15  0.84682851994E+02  0.26396150465E+03  0.25000898086E+03 0.  0.
       24    2    3    3    0    0 -0.80072779903E+02  0.64329776574E+01 -0.11850844011E+02  0.11423018963E+03  0.80343390738E+02 0.  0.
      -24    2    3    3    0    0  0.80072779903E+02 -0.64329776574E+01  0.96533696004E+02  0.14973131502E+03  0.81533299641E+02 0.  0.
      -13    1    4    4    0    0 -0.51290763233E+02  0.51119985688E+01 -0.46323851590E+02  0.69302050104E+02  0.00000000000E+00 0.  1.
       14    1    4    4    0    0 -0.28782016670E+02  0.13209790886E+01  0.34473007580E+02  0.44928139522E+02  0.00000000000E+00 0. -1.
        3    1    5    5  501    0  0.49750992885E+02  0.36619957821E+02  0.50578226176E+02  0.79839461214E+02  0.00000000000E+00 0. -1.
       -4    1    5    5    0  501  0.30321787018E+02 -0.43052935478E+02  0.45955469828E+02  0.69891853806E+02  0.00000000000E+00 0.  1.
</event>
<event>
 9   1  0.7570500E-01  0.2499743E+03  0.7546771E-02  0.1113321E+00
       21   -1    0    0  503  502  0.00000000000E+00  0.00000000000E+00  0.43927573240E+02  0.43927573240E+02  0.00000000000E+00 0. -1.
       21   -1    0    0  502  503 -0.00000000000E+00 -0.00000000000E+00 -0.35562615354E+03  0.35562615354E+03  0.00000000000E+00 0. -1.
       25    2    1    2    0    0  0.00000000000E+00  0.00000000000E+00 -0.31169858030E+03  0.39955372678E+03  0.24997434993E+03 0.  0.
       24    2    3    3    0    0 -0.34913481434E+02  0.81882616917E+02 -0.17246644180E+03  0.21718195066E+03  0.97465953050E+02 0.  0.
      -24    2    3    3    0    0  0.34913481434E+02 -0.81882616917E+02 -0.13923213850E+03  0.18237177613E+03  0.77137294462E+02 0.  0.
      -13    1    4    4    0    0 -0.57414536667E+02  0.76195561458E+02 -0.16850286622E+03  0.19363731182E+03  0.00000000000E+00 0.  1.
       14    1    4    4    0    0  0.22501055233E+02  0.56870554592E+01 -0.39635755862E+01  0.23544638834E+02  0.00000000000E+00 0. -1.
        3    1    5    5  501    0  0.12270597050E+02 -0.69303031328E+02 -0.13974101834E+03  0.15646414896E+03  0.00000000000E+00 0. -1.
       -4    1    5    5    0  501  0.22642884383E+02 -0.12579585589E+02  0.50887983685E+00  0.25907627168E+02  0.00000000000E+00 0.  1.
</event>
<event>
 9   1  0.7570500E-01  0.2499996E+03  0.7546771E-02  0.1113305E+00
       21   -1    0    0  503  502  0.00000000000E+00  0.00000000000E+00  0.62470645977E+03  0.62470645977E+03  0.00000000000E+00 0. -1.
       21   -1    0    0  502  503 -0.00000000000E+00 -0.00000000000E+00 -0.25011671934E+02  0.25011671934E+02  0.00000000000E+00 0. -1.
       25    2    1    2    0    0 -0.71054273576E-14  0.00000000000E+00  0.59969478783E+03  0.64971813170E+03  0.24999962421E+03 0.  0.
       24    2    3    3    0    0 -0.40103871459E+02  0.18472088277E+02  0.51142093526E+03  0.51957439419E+03  0.80353217280E+02 0.  0.
      -24    2    3    3    0    0  0.40103871459E+02 -0.18472088277E+02  0.88273852572E+02  0.13014373751E+03  0.84826769436E+02 0.  0.
      -13    1    4    4    0    0 -0.65161264990E+01  0.19721584978E+02  0.27373588599E+02  0.34361521669E+02  0.00000000000E+00 0.  1.
       14    1    4    4    0    0 -0.33587744960E+02 -0.12494967010E+01  0.48404734666E+03  0.48521287252E+03  0.00000000000E+00 0. -1.
        3    1    5    5  501    0  0.26374748528E+02 -0.26107117091E+02 -0.32767241562E+01  0.37255145200E+02  0.00000000000E+00 0. -1.
       -4    1    5    5    0  501  0.13729122932E+02  0.76350288133E+01  0.91550576728E+02  0.92888592306E+02  0.00000000000E+00 0.  1.
</event>
<event>
 9   1  0.7570500E-01  0.2500010E+03  0.7546771E-02  0.1113304E+00
       21   -1    0    0  503  502  0.00000000000E+00  0.00000000000E+00  0.82240802939E+02  0.82240802939E+02  0.00000000000E+00 0.  1.
       21   -1    0    0  502  503 -0.00000000000E+00 -0.00000000000E+00 -0.18999243838E+03  0.18999243838E+03  0.00000000000E+00 0.  1.
       25    2    1    2    0    0  0.00000000000E+00  0.00000000000E+00 -0.10775163544E+03  0.27223324132E+03  0.25000104547E+03 0.  0.
       24    2    3    3    0    0 -0.51482020052E+02  0.28562094921E+02 -0.13359663469E+03  0.16912153715E+03  0.85368857738E+02 0.  0.
      -24    2    3    3    0    0  0.51482020052E+02 -0.28562094921E+02  0.25844999252E+02  0.10311170417E+03  0.80609353648E+02 0.  0.
      -13    1    4    4    0    0 -0.63681733513E+01  0.52276813090E+02 -0.64755794152E+02  0.83466949717E+02  0.00000000000E+00 0.  1.
       14    1    4    4    0    0 -0.45113846700E+02 -0.23714718169E+02 -0.68840840537E+02  0.85654587430E+02  0.00000000000E+00 0. -1.
        1    1    5    5  501    0  0.83652584100E+01  0.19325637975E+02  0.32078100107E+02  0.38372676970E+02  0.00000000000E+00 0. -1.
       -2    1    5    5    0  501  0.43116761642E+02 -0.47887732896E+02 -0.62331008552E+01  0.64739027199E+02  0.00000000000E+00 0.  1.
</event>
<event>
 9   1  0.7570500E-01  0.2500014E+03  0.7546771E-02  0.1113304E+00
       21   -1    0    0  503  502  0.00000000000E+00  0.00000000000E+00  0.98786233353E+03  0.98786233353E+03  0.00000000000E+00 0.  1.
       21   -1    0    0  502  503 -0.00000000000E+00 -0.00000000000E+00 -0.15817154775E+02  0.15817154775E+02  0.00000000000E+00 0.  1.
       25    2    1    2    0    0 -0.71054273576E-14  0.71054273576E-14  0.97204517876E+03  0.10036794883E+04  0.25000137141E+03 0.  0.
       24    2    3    3    0    0  0.35108250923E+02 -0.47232883931E+02  0.18167580413E+03  0.20682969183E+03  0.79428515085E+02 0.  0.
      -24    2    3    3    0    0 -0.35108250923E+02  0.47232883931E+02  0.79036937463E+03  0.79684979648E+03  0.82597307413E+02 0.  0.
      -13    1    4    4    0    0 -0.23083230311E+02 -0.88056789746E+01  0.78516154515E+02  0.82311372384E+02  0.00000000000E+00 0.  1.
       14    1    4    4    0    0  0.58191481234E+02 -0.38427204956E+02  0.10315964961E+03  0.12451831945E+03  0.00000000000E+00 0. -1.
        3    1    5    5  501    0 -0.26287734848E+02  0.15838183003E+02  0.79279082842E+02  0.85012152194E+02  0.00000000000E+00 0. -1.
       -4    1    5    5    0  501 -0.88205160751E+01  0.31394700928E+02  0.71109029179E+03  0.71183764429E+03  0.00000000000E+00 0.  1.
</event>
<event>
 9   1  0.7570500E-01  0.2500007E+03  0.7546771E-02  0.1113304E+00
       21   -1    0    0  503  502  0.00000000000E+00  0.00000000000E+00  0.43885236727E+03  0.43885236727E+03  0.00000000000E+00 0.  1.
       21   -1    0    0  502  503 -0.00000000000E+00 -0.00000000000E+00 -0.35604424049E+02  0.35604424049E+02  0.00000000000E+00 0.  1.
       25    2    1    2    0    0  0.00000000000E+00 -0.71054273576E-14  0.40324794322E+03  0.47445679132E+03  0.25000068623E+03 0.  0.
       24    2    3    3    0    0 -0.83631349598E+02 -0.56805569160E+02  0.22956778668E+03  0.26410640672E+03  0.82642301908E+02 0.  0.
      -24    2    3    3    0    0  0.83631349598E+02  0.56805569160E+02  0.17368015654E+03  0.21035038460E+03  0.62140262330E+02 0.  0.
      -13    1    4    4    0    0 -0.63193780442E+02 -0.25444901232E+02  0.61035357693E+02  0.91466998278E+02  0.00000000000E+00 0.  1.
       14    1    4    4    0    0 -0.20437569156E+02 -0.31360667928E+02  0.16853242899E+03  0.17263940844E+03  0.00000000000E+00 0. -1.
        1    1    5    5  501    0  0.39107315174E+02  0.23809552232E+02  0.26085434408E+02  0.52694655952E+02  0.00000000000E+00 0. -1.
       -2    1    5    5    0  501  0.44524034425E+02  0.32996016928E+02  0.14759472213E+03  0.15765572865E+03  0.00000000000E+00 0.  1.
</event>
<event>
 9   1  0.7570500E-01  0.2500074E+03  0.7546771E-02  0.1113300E+00
       21   -1    0    0  503  502  0.00000000000E+00  0.00000000000E+00  0.31464549835E+03  0.31464549835E+03  0.00000000000E+00 0.  1.
       21   -1    0    0  502  503 -0.00000000000E+00 -0.00000000000E+00 -0.49661984088E+02  0.49661984088E+02  0.00000000000E+00 0.  1.
       25    2    1    2    0    0  0.71054273576E-14  0.00000000000E+00  0.26498351427E+03  0.36430748244E+03  0.25000735775E+03 0.  0.
       24    2    3    3    0    0  0.41214825853E+02  0.67826770283E+02  0.52915493612E+02  0.12466887174E+03  0.80269206299E+02 0.  0.
      -24    2    3    3    0    0 -0.41214825853E+02 -0.67826770283E+02  0.21206802065E+03  0.23963861070E+03  0.78451805062E+02 0.  0.
      -13    1    4    4    0    0 -0.23417689644E+02  0.29753650378E+02  0.18308486811E+02  0.42057919449E+02  0.00000000000E+00 0.  1.
       14    1    4    4    0    0  0.64632515497E+02  0.38073119905E+02  0.34607006801E+02  0.82610952292E+02  0.00000000000E+00 0. -1.
        1    1    5    5  501    0 -0.10365549582E+01  0.13196191081E+02  0.58710606603E+01  0.14480444003E+02  0.00000000000E+00 0. -1.
       -2    1    5    5    0  501 -0.40178270895E+02 -0.81022961365E+02  0.20619695999E+03  0.22515816670E+03  0.00000000000E+00 0.  1.
</event>
<event>
 9   1  0.7570500E-01  0.2499959E+03  0.7546771E-02  0.1113307E+00
       21   -1    0    0  503  502  0.00000000000E+00  0.00000000000E+00  0.66174352635E+02  0.66174352635E+02  0.00000000000E+00 0. -1.
       21   -1    0    0  502  503 -0.00000000000E+00 -0.00000000000E+00 -0.23611097608E+03  0.23611097608E+03  0.00000000000E+00 0. -1.
       25    2    1    2    0    0  0.71054273576E-14  0.14210854715E-13 -0.16993662345E+03  0.30228532872E+03  0.24999592791E+03 0.  0.
       24    2    3    3    0    0 -0.37927294848E+02  0.72000516975E+02 -0.29295767049E+02  0.11815683357E+03  0.80499945421E+02 0.  0.
      -24    2    3    3    0    0  0.37927294848E+02 -0.72000516975E+02 -0.14064085640E+03  0.18412849515E+03  0.86607725399E+02 0.  0.
      -13    1    4    4    0    0  0.14226729072E+02  0.48842297261E+02 -0.33541981481E+02  0.60934672753E+02  0.00000000000E+00 0.  1.
       14    1    4    4    0    0 -0.52154023920E+02  0.23158219714E+02  0.42462144320E+01  0.57222160815E+02  0.00000000000E+00 0. -1.
        3    1    5    5  501    0 -0.24430925434E+02 -0.23144313520E+02 -0.71327126013E+02  0.78867536232E+02  0.00000000000E+00 0. -1.
       -4    1    5    5    0  501  0.62358220282E+02 -0.48856203454E+02 -0.69313730386E+02  0.10526095892E+03  0.00000000000E+00 0.  1.
</event>
<event>
 9   1  0.7570500E-01  0.2499998E+03  0.7546771E-02  0.1113305E+00
       21   -1    0    0  503  502  0.00000000000E+00  0.00000000000E+00  0.19961777393E+04  0.19961777393E+04  0.00000000000E+00 0. -1.
       21   -1    0    0  502  503 -0.00000000000E+00 -0.00000000000E+00 -0.78274462393E+01  0.78274462393E+01  0.00000000000E+00 0. -1.
       25    2    1    2    0    0 -0.71054273576E-14  0.00000000000E+00  0.19883502931E+04  0.20040051856E+04  0.24999979151E+03 0.  0.
       24    2    3    3    0    0 -0.63017171974E+02  0.35909577871E+02  0.14877390630E+04  0.14917399518E+04  0.81608224998E+02 0.  0.
      -24    2    3    3    0    0  0.63017171974E+02 -0.35909577871E+02  0.50061123009E+03  0.51226523380E+03  0.80891311766E+02 0.  0.
      -13    1    4    4    0    0 -0.52213248503E+02  0.26641904632E+02  0.14532133318E+04  0.14543950639E+04  0.00000000000E+00 0.  1.
       14    1    4    4    0    0 -0.10803923470E+02  0.92676732391E+01  0.34525731239E+02  0.37344887832E+02  0.00000000000E+00 0. -1.
        3    1    5    5  501    0  0.68259062407E+02 -0.17096205897E+02  0.47433424810E+03  0.47952534738E+03  0.00000000000E+00 0. -1.
       -4    1    5    5    0  501 -0.52418904336E+01 -0.18813371974E+02  0.26276981992E+02  0.32739886422E+02  0.00000000000E+00 0.  1.
</event>
<event>
 9   1  0.7570500E-01  0.2499964E+03  0.7546771E-02  0.1113307E+00
       21   -1    0    0  503  502  0.00000000000E+00  0.00000000000E+00  0.10408391292E+04  0.10408391292E+04  0.00000000000E+00 0. -1.
       21   -1    0    0  502  503 -0.00000000000E+00 -0.00000000000E+00 -0.15011493634E+02  0.15011493634E+02  0.00000000000E+00 0. -1.
       25    2    1    2    0    0 -0.14210854715E-13  0.17763568394E-14  0.10258276356E+04  0.10558506229E+04  0.24999639967E+03 0.  0.
       24    2    3    3    0    0  0.93853187534E+02  0.90026487839E+01  0.45162394395E+03  0.46826372001E+03  0.80107778843E+02 0.  0.
      -24    2    3    3    0    0 -0.93853187534E+02 -0.90026487839E+01  0.57420369165E+03  0.58758690286E+03  0.81602821109E+02 0.  0.
      -13    1    4    4    0    0 -0.36465306075E+01  0.13408958131E+02  0.16286357065E+03  0.16345531496E+03  0.00000000000E+00 0.  1.
       14    1    4    4    0    0  0.97499718141E+02 -0.44063093469E+01  0.28876037330E+03  0.30480840505E+03  0.00000000000E+00 0. -1.
        3    1    5    5  501    0 -0.66143272557E+02 -0.22217599731E+02  0.52482439552E+03  0.52944234849E+03  0.00000000000E+00 0. -1.
       -4    1    5    5    0  501 -0.27709914977E+02  0.13214950947E+02  0.49379296131E+02  0.58144554371E+02  0.00000000000E+00 0.  1.
</event>
<event>
 9   1  0.7570500E-01  0.2500013E+03  0.7546771E-02  0.1113304E+00
       21   -1    0    0  503  502  0.00000000000E+00  0.00000000000E+00  0.46704074187E+02  0.46704074187E+02  0.00000000000E+00 0.  1.
       21   -1    0    0  502  503 -0.00000000000E+00 -0.00000000000E+00 -0.33455671485E+03  0.33455671485E+03  0.00000000000E+00 0.  1.
       25    2    1    2    0    0  0.00000000000E+00  0.00000000000E+00 -0.28785264066E+03  0.38126078904E+03  0.25000129304E+03 0.  0.
       24    2    3    3    0    0 -0.10480239548E+02 -0.94061717979E+02 -0.17484082438E+03  0.21376985451E+03  0.78554405472E+02 0.  0.
      -24    2    3    3    0    0  0.10480239548E+02  0.94061717979E+02 -0.11301181629E+03  0.16749093453E+03  0.79524212151E+02 0.  0.
      -13    1    4    4    0    0 -0.38102614711E+02 -0.53638870197E+02 -0.13669269568E+03  0.15170310048E+03  0.00000000000E+00 0.  1.
       14    1    4    4    0    0  0.27622375164E+02 -0.40422847782E+02 -0.38148128693E+02  0.62066754026E+02  0.00000000000E+00 0. -1.
        3    1    5    5  501    0  0.15459110338E+02  0.71722188213E+02 -0.12243822722E+03  0.14273813736E+03  0.00000000000E+00 0. -1.
       -4    1    5    5    0  501 -0.49788707905E+01  0.22339529766E+02  0.94264109265E+01  0.24752797164E+02  0.00000000000E+00 0.  1.
</event>
<event>
 9   1  0.7570500E-01  0.2499998E+03  0.7546771E-02  0.1113305E+00
       21   -1    0    0  503  502  0.00000000000E+00  0.00000000000E+00  0.11149027403E+04  0.11149027403E+04  0.00000000000E+00 0.  1.
       21   -1    0    0  502  503 -0.00000000000E+00 -0.00000000000E+00 -0.14014649666E+02  0.14014649666E+02  0.00000000000E+00 0.  1.
       25    2    1    2    0    0 -0.71054273576E-14  0.00000000000E+00  0.11008880906E+04  0.11289173899E+04  0.24999977053E+03 0.  0.
       24    2    3    3    0    0  0.45941384879E+02 -0.16508084846E+02  0.91283206036E+03  0.91772756945E+03  0.81107296831E+02 0.  0.
      -24    2    3    3    0    0 -0.45941384879E+02  0.16508084846E+02  0.18805603024E+03  0.21118982048E+03  0.82782498486E+02 0.  0.
      -13    1    4    4    0    0  0.60223775603E+02 -0.30972195926E+02  0.52305299819E+03  0.52741882692E+03  0.00000000000E+00 0.  1.
       14    1    4    4    0    0 -0.14282390724E+02  0.14464111080E+02  0.38977906217E+03  0.39030874253E+03  0.00000000000E+00 0. -1.
        3    1    5    5  501    0 -0.44482277512E+02  0.21539903928E+02  0.41488176499E+02  0.64528360146E+02  0.00000000000E+00 0. -1.
       -4    1    5    5    0  501 -0.14591073667E+01 -0.50318190822E+01  0.14656785374E+03  0.14666146034E+03  0.00000000000E+00 0.  1.
</event>
<event>
 9   1  0.7570500E-01  0.2500015E+03  0.7546771E-02  0.1113304E+00
       21   -1    0    0  503  502  0.00000000000E+00  0.00000000000E+00  0.28809681242E+02  0.28809681242E+02  0.00000000000E+00 0. -1.
       21   -1    0    0  502  503 -0.00000000000E+00 -0.00000000000E+00 -0.54235884223E+03  0.54235884223E+03  0.00000000000E+00 0. -1.
       25    2    1    2    0    0  0.71054273576E-14  0.71054273576E-14 -0.51354916099E+03  0.57116852347E+03  0.25000148290E+03 0.  0.
       24    2    3    3    0    0  0.43454775435E+02 -0.55508882749E+02 -0.10562363313E+03  0.14999266485E+03  0.79824144588E+02 0.  0.
      -24    2    3    3    0    0 -0.43454775435E+02  0.55508882749E+02 -0.40792552786E+03  0.42117585863E+03  0.77564902117E+02 0.  0.
      -13    1    4    4    0    0 -0.38869244880E+00 -0.61457612813E+02 -0.70295081899E+02  0.93373378399E+02  0.00000000000E+00 0.  1.
       14    1    4    4    0    0  0.43843467884E+02  0.59487300633E+01 -0.35328551233E+02  0.56619286447E+02  0.00000000000E+00 0. -1.
        1    1    5    5  501    0 -0.63622166046E+02  0.50043509230E+02 -0.27668357771E+03  0.28828100007E+03  0.00000000000E+00 0. -1.
       -2    1    5    5    0  501  0.20167390611E+02  0.54653735198E+01 -0.13124195015E+03  0.13289485856E+03  0.00000000000E+00 0.  1.
</event>
<event>
 9   1  0.7570500E-01  0.2500017E+03  0.7546771E-02  0.1113304E+00
       21   -1    0    0  503  502  0.00000000000E+00  0.00000000000E+00  0.73119705415E+02  0.73119705415E+02  0.00000000000E+00 0. -1.
       21   -1    0    0  502  503 -0.00000000000E+00 -0.00000000000E+00 -0.21369359592E+03  0.21369359592E+03  0.00000000000E+00 0. -1.
       25    2    1    2    0    0  0.00000000000E+00 -0.35527136788E-14 -0.14057389051E+03  0.28681330134E+03  0.25000170226E+03 0.  0.
       24    2    3    3    0    0  0.96077810539E+02  0.14635353569E+02 -0.71086795678E+02  0.14447665115E+03  0.79843790957E+02 0.  0.
      -24    2    3    3    0    0 -0.96077810539E+02 -0.14635353569E+02 -0.69487094828E+02  0.14233665019E+03  0.77370061314E+02 0.  0.
      -13    1    4    4    0    0  0.41961039499E+02  0.28939158142E+02 -0.72331547495E+02  0.88487606324E+02  0.00000000000E+00 0.  1.
       14    1    4    4    0    0  0.54116771039E+02 -0.14303804572E+02  0.12447518177E+01  0.55989044822E+02  0.00000000000E+00 0. -1.
        1    1    5    5  501    0 -0.22801196400E+02  0.23233097217E+02  0.27831955862E+01  0.32671356587E+02  0.00000000000E+00 0. -1.
       -2    1    5    5    0  501 -0.73276614139E+02 -0.37868450786E+02 -0.72270290414E+02  0.10966529360E+03  0.00000000000E+00 0.  1.
</event>
<event>
 9   1  0.7570500E-01  0.2500049E+03  0.7546771E-02  0.1113302E+00
       21   -1    0    0  503  502  0.00000000000E+00  0.00000000000E+00  0.19957672824E+03  0.19957672824E+03  0.00000000000E+00 0.  1.
       21   -1    0    0  502  503 -0.00000000000E+00 -0.00000000000E+00 -0.78293743682E+02  0.78293743682E+02  0.00000000000E+00 0.  1.
       25    2    1    2    0    0 -0.35527136788E-14  0.71054273576E-14  0.12128298456E+03  0.27787047193E+03  0.25000487360E+03 0.  0.
       24    2    3    3    0    0 -0.29666114850E+02  0.50908018189E+02 -0.22943397076E+02  0.10220133412E+03  0.80293265844E+02 0.  0.
      -24    2    3    3    0    0  0.29666114850E+02 -0.50908018189E+02  0.14422638164E+03  0.17566913781E+03  0.81158438448E+02 0.  0.
      -13    1    4    4    0    0  0.62885995060E+00 -0.20945997044E+02 -0.97543487760E+01  0.23114445203E+02  0.00000000000E+00 0.  1.
       14    1    4    4    0    0 -0.30294974801E+02  0.71854015233E+02 -0.13189048300E+02  0.79086888916E+02  0.00000000000E+00 0. -1.
        3    1    5    5  501    0  0.21286209507E+02 -0.67580180002E+02  0.71783010961E+02  0.10086121210E+03  0.00000000000E+00 0. -1.
       -4    1    5    5    0  501  0.83799053434E+01  0.16672161813E+02  0.72443370678E+02  0.74807925704E+02  0.00000000000E+00 0.  1.
</event>
<event>
 9   1  0.7570500E-01  0.2500007E+03  0.7546771E-02  0.1113304E+00
       21   -1    0    0  503  502  0.00000000000E+00  0.00000000000E+00  0.52704074063E+03  0.52704074063E+03  0.00000000000E+00 0. -1.
       21   -1    0    0  502  503 -0.00000000000E+00 -0.00000000000E+00 -0.29646837876E+02  0.29646837876E+02  0.00000000000E+00 0. -1.
       25    2    1    2    0    0  0.00000000000E+00  0.00000000000E+00  0.49739390275E+03  0.55668757851E+03  0.25000073113E+03 0.  0.
       24    2    3    3    0    0  0.24665232569E+02  0.88286341905E+02  0.31167469277E+03  0.33455419394E+03  0.79890817414E+02 0.  0.
      -24    2    3    3    0    0 -0.24665232569E+02 -0.88286341905E+02  0.18571920998E+03  0.22213338456E+03  0.80304194883E+02 0.  0.
      -13    1    4    4    0    0 -0.42722605193E+01  0.58667547932E+02  0.80507084965E+02  0.99707191916E+02  0.00000000000E+00 0.  1.
       14    1    4    4    0    0  0.28937493088E+02  0.29618793973E+02  0.23116760780E+03  0.23484700203E+03  0.00000000000E+00 0. -1.
        1    1    5    5  501    0 -0.48685088507E+02 -0.41751879534E+02  0.13386538320E+03  0.14843651204E+03  0.00000000000E+00 0. -1.
       -2    1    5    5    0  501  0.24019855938E+02 -0.46534462371E+02  0.51853826782E+02  0.73696872521E+02  0.00000000000E+00 0.  1.
</event>
<event>
 9   1  0.7570500E-01  0.2499923E+03  0.7546771E-02  0.1113310E+00
       21   -1    0    0  503  502  0.00000000000E+00  0.00000000000E+00  0.61653463180E+02  0.61653463180E+02  0.00000000000E+00 0.  1.
       21   -1    0    0  502  503 -0.00000000000E+00 -0.00000000000E+00 -0.25341698950E+03  0.25341698950E+03  0.00000000000E+00 0.  1.
       25    2    1    2    0    0  0.14210854715E-13 -0.88817841970E-15 -0.19176352632E+03  0.31507045268E+03  0.24999228013E+03 0.  0.
       24    2    3    3    0    0 -0.49908812929E+02  0.77625062221E+01 -0.19919178947E+03  0.22111129761E+03  0.81619181728E+02 0.  0.
      -24    2    3    3    0    0  0.49908812929E+02 -0.77625062221E+01  0.74282631563E+01  0.93959155067E+02  0.78879640064E+02 0.  0.
      -13    1    4    4    0    0 -0.48843091614E+02 -0.16196866077E+02 -0.56513698644E+02  0.76431565491E+02  0.00000000000E+00 0.  1.
       14    1    4    4    0    0 -0.10657213157E+01  0.23959372299E+02 -0.14267809083E+03  0.14467973212E+03  0.00000000000E+00 0. -1.
        1    1    5    5  501    0 -0.51494821804E+01 -0.10249409759E+01  0.32618399128E+02  0.33038275263E+02  0.00000000000E+00 0. -1.
       -2    1    5    5    0  501  0.55058295110E+02 -0.67375652462E+01 -0.25190135971E+02  0.60920879804E+02  0.00000000000E+00 0.  1.
</event>
<event>
 9   1  0.7570500E-01  0.2500025E+03  0.7546771E-02  0.1113303E+00
       21   -1    0    0  503  502  0.00000000000E+00  0.00000000000E+00  0.15626203789E+03  0.15626203789E+03  0.00000000000E+00 0. -1.
       21   -1    0    0  502  503 -0.00000000000E+00 -0.00000000000E+00 -0.99994310846E+02  0.99994310846E+02  0.00000000000E+00 0. -1.
       25    2    1    2    0    0 -0.14210854715E-13  0.00000000000E+00  0.56267727044E+02  0.25625634874E+03  0.25000251831E+03 0.  0.
       24    2    3    3    0    0 -0.75440590424E+02  0.37691388072E+02  0.72752951351E+02  0.13791224592E+03  0.81331864766E+02 0.  0.
      -24    2    3    3    0    0  0.75440590424E+02 -0.37691388072E+02 -0.16485224307E+02  0.11834410281E+03  0.81373463932E+02 0.  0.
      -13    1    4    4    0    0  0.25614276494E+01 -0.84706785154E+01  0.40890168970E+02  0.41836816616E+02  0.00000000000E+00 0.  1.
       14    1    4    4    0    0 -0.78002018073E+02  0.46162066587E+02  0.31862782381E+02  0.96075429305E+02  0.00000000000E+00 0. -1.
        1    1    5    5  501    0  0.93167644027E+02 -0.32411755832E+02 -0.15128928986E+02  0.99797877241E+02  0.00000000000E+00 0. -1.
       -2    1    5    5    0  501 -0.17727053603E+02 -0.52796322392E+01 -0.13562953207E+01  0.18546225573E+02  0.00000000000E+00 0.  1.
</event>
<event>
 9   1  0.7570500E-01  0.2499991E+03  0.7546771E-02  0.1113305E+00
       21   -1    0    0  503  502  0.00000000000E+00  0.00000000000E+00  0.11833032359E+03  0.11833032359E+03  0.00000000000E+00 0.  1.
       21   -1    0    0  502  503 -0.00000000000E+00 -0.00000000000E+00 -0.13204462946E+03  0.13204462946E+03  0.00000000000E+00 0.  1.
       25    2    1    2    0    0 -0.17763568394E-14  0.00000000000E+00 -0.13714305866E+02  0.25037495306E+03  0.24999906986E+03 0.  0.
       24    2    3    3    0    0  0.13031210081E+02 -0.10472042376E+02 -0.10125669763E+03  0.12981672649E+03  0.79498349374E+02 0.  0.
      -24    2    3    3    0    0 -0.13031210081E+02  0.10472042376E+02  0.87542391767E+02  0.12055822657E+03  0.81185833301E+02 0.  0.
      -13    1    4    4    0    0  0.69911783417E+01 -0.89706016051E+01  0.11916371325E+02  0.16472649250E+02  0.00000000000E+00 0.  1.
       14    1    4    4    0    0  0.60400317394E+01 -0.15014407712E+01 -0.11317306896E+03  0.11334407724E+03  0.00000000000E+00 0. -1.
        1    1    5    5  501    0  0.52223053249E+01  0.15557960916E+02  0.97693049544E+02  0.99061872332E+02  0.00000000000E+00 0. -1.
       -2    1    5    5    0  501 -0.18253515406E+02 -0.50859185394E+01 -0.10150657776E+02  0.21496354234E+02  0.00000000000E+00 0.  1.
</event>
<event>
 9   1  0.7570500E-01  0.2499979E+03  0.7546771E-02  0.1113306E+00
       21   -1    0    0  503  502  0.00000000000E+00  0.00000000000E+00  0.23471090846E+02  0.23471090846E+02  0.00000000000E+00 0. -1.
       21   -1    0    0  502  503 -0.00000000000E+00 -0.00000000000E+00 -0.66570111378E+03  0.66570111378E+03  0.00000000000E+00 0. -1.
       25    2    1    2    0    0  0.00000000000E+00  0.00000000000E+00 -0.64223002293E+03  0.68917220462E+03  0.24999785053E+03 0.  0.
       24    2    3    3    0    0 -0.48018956062E+02 -0.80050237062E+02 -0.39183454043E+03  0.41019103328E+03  0.77514618736E+02 0.  0.
      -24    2    3    3    0    0  0.48018956062E+02  0.80050237062E+02 -0.25039548250E+03  0.27898117134E+03  0.80117012613E+02 0.  0.
      -13    1    4    4    0    0 -0.39888997928E+02 -0.31993646876E+02 -0.31554496993E+03  0.31966131084E+03  0.00000000000E+00 0.  1.
       14    1    4    4    0    0 -0.81299581341E+01 -0.48056590186E+02 -0.76289570492E+02  0.90529722442E+02  0.00000000000E+00 0. -1.
        3    1    5    5  501    0  0.59684777244E+02  0.21702543822E+02 -0.13041071620E+03  0.14505250064E+03  0.00000000000E+00 0. -1.
       -4    1    5    5    0  501 -0.11665821181E+02  0.58347693240E+02 -0.11998476630E+03  0.13392867070E+03  0.00000000000E+00 0.  1.
</event>
<event>
 9   1  0.7570500E-01  0.2500009E+03  0.7546771E-02  0.1113304E+00
       21   -1    0    0  503  502  0.00000000000E+00  0.00000000000E+00  0.46933675657E+02  0.46933675657E+02  0.00000000000E+00 0. -1.
       21   -1    0    0  502  503 -0.00000000000E+00 -0.00000000000E+00 -0.33291899618E+03  0.33291899618E+03  0.00000000000E+00 0. -1.
       25    2    1    2    0    0  0.00000000000E+00  0.00000000000E+00 -0.28598532052E+03  0.37985267183E+03  0.25000089749E+03 0.  0.
       24    2    3    3    0    0  0.36548787735E+02 -0.65699329999E+01 -0.84175152545E+01  0.88075499120E+02  0.79419525796E+02 0.  0.
      -24    2    3    3    0    0 -0.36548787735E+02  0.65699329999E+01 -0.27756780526E+03  0.29177717271E+03  0.81921023508E+02 0.  0.
      -13    1    4    4    0    0  0.53612168289E+02 -0.91068677582E+01  0.17337338522E+02  0.57076991302E+02  0.00000000000E+00 0.  1.
       14    1    4    4    0    0 -0.17063380554E+02  0.25369347583E+01 -0.25754853776E+02  0.30998507818E+02  0.00000000000E+00 0. -1.
        1    1    5    5  501    0  0.26376622548E+02  0.21166657154E+00 -0.70861836426E+02  0.75611975780E+02  0.00000000000E+00 0. -1.
       -2    1    5    5    0  501 -0.62925410284E+02  0.63582664283E+01 -0.20670596884E+03  0.21616519693E+03  0.00000000000E+00 0.  1.
</event>
<event>
 9   1  0.7570500E-01  0.2499953E+03  0.7546771E-02  0.1113308E+00
       21   -1    0    0  503  502  0.00000000000E+00  0.00000000000E+00  0.94151046570E+02  0.94151046570E+02  0.00000000000E+00 0.  1.
       21   -1    0    0  502  503 -0.00000000000E+00 -0.00000000000E+00 -0.16595051811E+03  0.16595051811E+03  0.00000000000E+00 0.  1.
       25    2    1    2    0    0  0.71054273576E-14  0.00000000000E+00 -0.71799471544E+02  0.26010156468E+03  0.24999531963E+03 0.  0.
       24    2    3    3    0    0 -0.37887297626E+02 -0.86260739005E+02 -0.49247344016E+02  0.13316188833E+03  0.80189932018E+02 0.  0.
      -24    2    3    3    0    0  0.37887297626E+02  0.86260739005E+02 -0.22552127528E+02  0.12693967635E+03  0.82028778856E+02 0.  0.
      -13    1    4    4    0    0  0.84005244609E+01  0.79338735364E+00 -0.31969639081E+02  0.33064423444E+02  0.00000000000E+00 0.  1.
       14    1    4    4    0    0 -0.46287822086E+02 -0.87054126359E+02 -0.17277704935E+02  0.10009746489E+03  0.00000000000E+00 0. -1.
        1    1    5    5  501    0  0.25439061336E+02  0.44541417248E+02 -0.53042747440E+02  0.73787646311E+02  0.00000000000E+00 0. -1.
       -2    1    5    5    0  501  0.12448236290E+02  0.41719321757E+02  0.30490619912E+02  0.53152030038E+02  0.00000000000E+00 0.  1.
</event>
<event>
 9   1  0.7570500E-01  0.2499526E+03  0.7546771E-02  0.1113335E+00
       21   -1    0    0  503  502  0.00000000000E+00  0.00000000000E+00  0.28606680510E+03  0.28606680510E+03  0.00000000000E+00 0. -1.
       21   -1    0    0  502  503 -0.00000000000E+00 -0.00000000000E+00 -0.54599413443E+02  0.54599413443E+02  0.00000000000E+00 0. -1.
       25    2    1    2    0    0 -0.71054273576E-14  0.00000000000E+00  0.23146739166E+03  0.34066621855E+03  0.24995263363E+03 0.  0.
       24    2    3    3    0    0  0.56877463033E+02  0.49685322168E+02  0.19171836466E+03  0.22142232448E+03  0.81044662949E+02 0.  0.
      -24    2    3    3    0    0 -0.56877463033E+02 -0.49685322168E+02  0.39749027001E+02  0.11924389406E+03  0.83279313658E+02 0.  0.
      -13    1    4    4    0    0 -0.13435603567E+02 -0.82664019118E+01  0.54261501309E+02  0.56508046932E+02  0.00000000000E+00 0.  1.
       14    1    4    4    0    0  0.70313066600E+02  0.57951724080E+02  0.13745686335E+03  0.16491427755E+03  0.00000000000E+00 0. -1.
        1    1    5    5  501    0 -0.54155351690E+02 -0.57402108920E+02  0.58863469604E+02  0.98451573268E+02  0.00000000000E+00 0. -1.
       -2    1    5    5    0  501 -0.27221113434E+01  0.77167867521E+01 -0.19114442603E+02  0.20792320793E+02  0.00000000000E+00 0.  1.
</event>
<event>
 9   1  0.7570500E-01  0.2499861E+03  0.7546771E-02  0.1113314E+00
       21   -1    0    0  503  502  0.00000000000E+00  0.00000000000E+00  0.85076371603E+02  0.85076371603E+02  0.00000000000E+00 0.  1.
       21   -1    0    0  502  503 -0.00000000000E+00 -0.00000000000E+00 -0.18363806071E+03  0.18363806071E+03  0.00000000000E+00 0.  1.
       25    2    1    2    0    0 -0.26645352591E-14  0.00000000000E+00 -0.98561689108E+02  0.26871443231E+03  0.24998607876E+03 0.  0.
       24    2    3    3    0    0 -0.40397834721E+01  0.89819532814E+02 -0.27093628385E+02  0.12936300651E+03  0.88976707228E+02 0.  0.
      -24    2    3    3    0    0  0.40397834721E+01 -0.89819532814E+02 -0.71468060723E+02  0.13935142580E+03  0.78913039761E+02 0.  0.
      -13    1    4    4    0    0 -0.49480295859E+01 -0.26309213938E+01  0.23370077968E+02  0.24032588050E+02  0.00000000000E+00 0.  1.
       14    1    4    4    0    0  0.90824611378E+00  0.92450454208E+02 -0.50463706353E+02  0.10533041846E+03  0.00000000000E+00 0. -1.
        1    1    5    5  501    0 -0.36767297202E+02 -0.41925057523E+02 -0.24890234318E+02  0.61066098256E+02  0.00000000000E+00 0. -1.
       -2    1    5    5    0  501  0.40807080674E+02 -0.47894475291E+02 -0.46577826405E+02  0.78285327547E+02  0.00000000000E+00 0.  1.
</event>
<event>
 9   1  0.7570500E-01  0.2500052E+03  0.7546771E-02  0.1113302E+00
       21   -1    0    0  503  502  0.00000000000E+00  0.00000000000E+00  0.68011156161E+02  0.68011156161E+02  0.00000000000E+00 0. -1.
       21   -1    0    0  502  503 -0.00000000000E+00 -0.00000000000E+00 -0.22975127281E+03  0.22975127281E+03  0.00000000000E+00 0. -1.
       25    2    1    2    0    0  0.00000000000E+00  0.14210854715E-13 -0.16174011664E+03  0.29776242897E+03  0.25000519749E+03 0.  0.
       24    2    3    3    0    0 -0.33106072997E+02  0.85129787149E+02 -0.11598933322E+03  0.16772351967E+03  0.79589954779E+02 0.  0.
      -24    2    3    3    0    0  0.33106072997E+02 -0.85129787149E+02 -0.45750783428E+02  0.13003890929E+03  0.80460493517E+02 0.  0.
      -13    1    4    4    0    0 -0.12876602263E+02  0.38997985400E+02  0.21689628943E+00  0.41069414350E+02  0.00000000000E+00 0.  1.
       14    1    4    4    0    0 -0.20229470734E+02  0.46131801749E+02 -0.11620622951E+03  0.12665410532E+03  0.00000000000E+00 0. -1.
        1    1    5    5  501    0  0.20367832846E+02  0.97856091184E+01  0.26233993470E+01  0.22748384224E+02  0.00000000000E+00 0. -1.
       -2    1    5    5    0  501  0.12738240150E+02 -0.94915396267E+02 -0.48374182775E+02  0.10729052507E+03  0.00000000000E+00 0.  1.
</event>
<event>
 9   1  0.7570500E-01  0.2499990E+03  0.7546771E-02  0.1113305E+00
       21   -1    0    0  503  502  0.00000000000E+00  0.00000000000E+00  0.74634811911E+03  0.74634811911E+03  0.00000000000E+00 0. -1.
       21   -1    0    0  502  503 -0.00000000000E+00 -0.00000000000E+00 -0.20935099838E+02  0.20935099838E+02  0.00000000000E+00 0. -1.
       25    2    1    2    0    0  0.00000000000E+00  0.00000000000E+00  0.72541301927E+03  0.76728321895E+03  0.24999897910E+03 0.  0.
       24    2    3    3    0    0  0.40458913690E+02  0.46625407393E+02  0.13951458260E+03  0.17273305356E+03  0.81003313033E+02 0.  0.
      -24    2    3    3    0    0 -0.40458913690E+02 -0.46625407393E+02  0.58589843667E+03  0.59455016539E+03  0.80012928685E+02 0.  0.
      -13    1    4    4    0    0  0.27946171227E+02  0.28812460660E+02  0.99519450618E+01  0.41354414347E+02  0.00000000000E+00 0.  1.
       14    1    4    4    0    0  0.12512742463E+02  0.17812946734E+02  0.12956263754E+03  0.13137863921E+03  0.00000000000E+00 0. -1.
        3    1    5    5  501    0  0.14963184455E+02  0.24255789801E+01  0.28693460359E+02  0.32451425081E+02  0.00000000000E+00 0. -1.
       -4    1    5    5    0  501 -0.55422098145E+02 -0.49050986374E+02  0.55720497631E+03  0.56209874031E+03  0.00000000000E+00 0.  1.
</event>
<event>
 9   1  0.7570500E-01  0.2499992E+03  0.7546771E-02  0.1113305E+00
       21   -1    0    0  503  502  0.00000000000E+00  0.00000000000E+00  0.79553762199E+02  0.79553762199E+02  0.00000000000E+00 0. -1.
       21   -1    0    0  502  503 -0.00000000000E+00 -0.00000000000E+00 -0.19640684272E+03  0.19640684272E+03  0.00000000000E+00 0. -1.
       25    2    1    2    0    0  0.00000000000E+00  0.00000000000E+00 -0.11685308052E+03  0.27596060492E+03  0.24999922608E+03 0.  0.
       24    2    3    3    0    0 -0.43114087979E+02 -0.85771562073E+02 -0.55536728538E+02  0.13628191792E+03  0.79201309913E+02 0.  0.
      -24    2    3    3    0    0  0.43114087979E+02  0.85771562073E+02 -0.61316351982E+02  0.13967868700E+03  0.80838450870E+02 0.  0.
      -13    1    4    4    0    0  0.10351721675E+02 -0.64574732148E+02 -0.40167497692E+02  0.76749475858E+02  0.00000000000E+00 0.  1.
       14    1    4    4    0    0 -0.53465809654E+02 -0.21196829925E+02 -0.15369230846E+02  0.59532442060E+02  0.00000000000E+00 0. -1.
        1    1    5    5  501    0 -0.24590458679E+01  0.78526618383E+02 -0.30968614186E+02  0.84448397059E+02  0.00000000000E+00 0. -1.
       -2    1    5    5    0  501  0.45573133847E+02  0.72449436901E+01 -0.30347737796E+02  0.55230289941E+02  0.00000000000E+00 0.  1.
</event>
<event>
 9   1  0.7570500E-01  0.2499974E+03  0.7546771E-02  0.1113306E+00
       21   -1    0    0  503  502  0.00000000000E+00  0.00000000000E+00  0.32929613134E+03  0.32929613134E+03  0.00000000000E+00 0.  1.
       21   -1    0    0  502  503 -0.00000000000E+00 -0.00000000000E+00 -0.47448707664E+02  0.47448707664E+02  0.00000000000E+00 0.  1.
       25    2    1    2    0    0 -0.14210854715E-13  0.00000000000E+00  0.28184742368E+03  0.37674483901E+03  0.24999740695E+03 0.  0.
       24    2    3    3    0    0  0.69554634138E+02  0.38959069012E+02  0.59886340720E+02  0.12796977419E+03  0.80213671608E+02 0.  0.
      -24    2    3    3    0    0 -0.69554634138E+02 -0.38959069012E+02  0.22196108296E+03  0.24877506482E+03  0.79162202715E+02 0.  0.
      -13    1    4    4    0    0 -0.40094003836E+01  0.21599726492E+02 -0.10802535131E+02  0.24480977129E+02  0.00000000000E+00 0.  1.
       14    1    4    4    0    0  0.73564034522E+02  0.17359342521E+02  0.70688875851E+02  0.10348879706E+03  0.00000000000E+00 0. -1.
        1    1    5    5  501    0  0.11355328502E+02 -0.18083064736E+02  0.16540566211E+02  0.27009832399E+02  0.00000000000E+00 0. -1.
       -2    1    5    5    0  501 -0.80909962640E+02 -0.20876004276E+02  0.20542051675E+03  0.22176523242E+03  0.00000000000E+00 0.  1.
</event>
<event>
 9   1  0.7570500E-01  0.2499980E+03  0.7546771E-02  0.1113306E+00
       21   -1    0    0  503  502  0.00000000000E+00  0.00000000000E+00  0.87384057708E+02  0.87384057708E+02  0.00000000000E+00 0.  1.
       21   -1    0    0  502  503 -0.00000000000E+00 -0.00000000000E+00 -0.17880550973E+03  0.17880550973E+03  0.00000000000E+00 0.  1.
       25    2    1    2    0    0  0.14210854715E-13  0.71054273576E-14 -0.91421452026E+02  0.26618956744E+03  0.24999800784E+03 0.  0.
       24    2    3    3    0    0  0.56916678917E+02  0.46598965755E+02 -0.10983510277E+03  0.15451191491E+03  0.79995062979E+02 0.  0.
      -24    2    3    3    0    0 -0.56916678917E+02 -0.46598965755E+02  0.18413650745E+02  0.11167765253E+03  0.81986972089E+02 0.  0.
      -13    1    4    4    0    0  0.75480232356E+02  0.30612826495E+02 -0.97617697343E+02  0.12713624761E+03  0.00000000000E+00 0.  1.
       14    1    4    4    0    0 -0.18563553439E+02  0.15986139260E+02 -0.12217405428E+02  0.27375667300E+02  0.00000000000E+00 0. -1.
        1    1    5    5  501    0  0.13009576403E+02  0.12176552802E+02  0.86588811641E+01  0.19811454751E+02  0.00000000000E+00 0. -1.
       -2    1    5    5    0  501 -0.69926255319E+02 -0.58775518557E+02  0.97547695806E+01  0.91866197778E+02  0.00000000000E+00 0.  1.
</event>
<event>
 9   1  0.7570500E-01  0.2499934E+03  0.7546771E-02  0.1113309E+00
       21   -1    0    0  503  502  0.00000000000E+00  0.00000000000E+00  0.34431318556E+03  0.34431318556E+03  0.00000000000E+00 0. -1.
       21   -1    0    0  502  503 -0.00000000000E+00 -0.00000000000E+00 -0.45377794096E+02  0.45377794096E+02  0.00000000000E+00 0. -1.
       25    2    1    2    0    0  0.00000000000E+00  0.00000000000E+00  0.29893539147E+03  0.38969097966E+03  0.24999338263E+03 0.  0.
       24    2    3    3    0    0  0.77531544902E+02 -0.28126937191E+02  0.75413698657E+02  0.13813085002E+03  0.81182761297E+02 0.  0.
      -24    2    3    3    0    0 -0.77531544902E+02  0.28126937191E+02  0.22352169281E+03  0.25156012964E+03  0.80735906610E+02 0.  0.
      -13    1    4    4    0    0  0.64798303576E+01  0.16375948191E+02 -0.84623135154E+01  0.19538951626E+02  0.00000000000E+00 0.  1.
       14    1    4    4    0    0  0.71051714545E+02 -0.44502885382E+02  0.83876012172E+02  0.11859189840E+03  0.00000000000E+00 0. -1.
        1    1    5    5  501    0 -0.64635541493E+02 -0.14449971201E+02  0.97079829806E+02  0.11752041630E+03  0.00000000000E+00 0. -1.
       -2    1    5    5    0  501 -0.12896003409E+02  0.42576908392E+02  0.12644186301E+03  0.13403971334E+03  0.00000000000E+00 0.  1.
</event>
<event>
 9   1  0.7570500E-01  0.2500022E+03  0.7546771E-02  0.1113303E+00
       21   -1    0    0  503  502  0.00000000000E+00  0.00000000000E+00  0.89407076762E+02  0.89407076762E+02  0.00000000000E+00 0. -1.
       21   -1    0    0  502  503 -0.00000000000E+00 -0.00000000000E+00 -0.17476558375E+03  0.17476558375E+03  0.00000000000E+00 0. -1.
       25    2    1    2    0    0  0.00000000000E+00  0.00000000000E+00 -0.85358506985E+02  0.26417266051E+03  0.25000223968E+03 0.  0.
       24    2    3    3    0    0 -0.52516566267E+02  0.29469991850E+02  0.33804221085E+02  0.11331029835E+03  0.89833335667E+02 0.  0.
      -24    2    3    3    0    0  0.52516566267E+02 -0.29469991850E+02 -0.11916272807E+03  0.15086236216E+03  0.70236930478E+02 0.  0.
      -13    1    4    4    0    0 -0.21918996279E+01  0.45338508478E+02 -0.78729623119E+01  0.46069168763E+02  0.00000000000E+00 0.  1.
       14    1    4    4    0    0 -0.50324666639E+02 -0.15868516628E+02  0.41677183396E+02  0.67241129587E+02  0.00000000000E+00 0. -1.
        3    1    5    5  501    0  0.45038737025E+02 -0.66538338016E+01 -0.21605714664E+02  0.50394129055E+02  0.00000000000E+00 0. -1.
       -4    1    5    5    0  501  0.74778292413E+01 -0.22816158048E+02 -0.97557013405E+02  0.10046823310E+03  0.00000000000E+00 0.  1.
</event>
<event>
 9   1  0.7570500E-01  0.2499962E+03  0.7546771E-02  0.1113307E+00
       21   -1    0    0  503  502  0.00000000000E+00  0.00000000000E+00  0.46654267000E+02  0.46654267000E+02  0.00000000000E+00 0. -1.
       21   -1    0    0  502  503 -0.00000000000E+00 -0.00000000000E+00 -0.33490012374E+03  0.33490012374E+03  0.00000000000E+00 0. -1.
       25    2    1    2    0    0  0.00000000000E+00 -0.71054273576E-14 -0.28824585674E+03  0.38155439074E+03  0.24999615830E+03 0.  0.
       24    2    3    3    0    0 -0.77500734795E+02  0.26855100391E+02 -0.22131484144E+03  0.24834543203E+03  0.77250464463E+02 0.  0.
      -24    2    3    3    0    0  0.77500734795E+02 -0.26855100391E+02 -0.66931015301E+02  0.13320895871E+03  0.80853605730E+02 0.  0.
      -13    1    4    4    0    0  0.40946587483E+01 -0.13989990627E+01 -0.96364653119E+02  0.96461753040E+02  0.00000000000E+00 0.  1.
       14    1    4    4    0    0 -0.81595393543E+02  0.28254099454E+02 -0.12495018832E+03  0.15188367899E+03  0.00000000000E+00 0. -1.
        1    1    5    5  501    0  0.60070826041E+02  0.18916708128E+02 -0.21906135147E+02  0.66680017582E+02  0.00000000000E+00 0. -1.
       -2    1    5    5    0  501  0.17429908755E+02 -0.45771808519E+02 -0.45024880153E+02  0.66528941124E+02  0.00000000000E+00 0.  1.
</event>
<event>
 9   1  0.7570500E-01  0.2500027E+03  0.7546771E-02  0.1113303E+00
       21   -1    0    0  503  502  0.00000000000E+00  0.00000000000E+00  0.10230253262E+03  0.10230253262E+03  0.00000000000E+00 0.  1.
       21   -1    0    0  502  503 -0.00000000000E+00 -0.00000000000E+00 -0.15273651666E+03  0.15273651666E+03  0.00000000000E+00 0.  1.
       25    2    1    2    0    0  0.00000000000E+00  0.71054273576E-14 -0.50433984042E+02  0.25503904929E+03  0.25000265981E+03 0.  0.
       24    2    3    3    0    0  0.67809057230E+02 -0.62766518333E+02 -0.12375434782E+02  0.12670200604E+03  0.85805261385E+02 0.  0.
      -24    2    3    3    0    0 -0.67809057230E+02  0.62766518333E+02 -0.38058549260E+02  0.12833704325E+03  0.80524775270E+02 0.  0.
      -13    1    4    4    0    0  0.71999984746E+02 -0.75234480646E+02 -0.26445551010E+02  0.10744110968E+03  0.00000000000E+00 0.  1.
       14    1    4    4    0    0 -0.41909275157E+01  0.12467962313E+02  0.14070116228E+02  0.19260896354E+02  0.00000000000E+00 0. -1.
        1    1    5    5  501    0 -0.46420475611E+02 -0.89455324866E+01 -0.20153315633E+02  0.51391042395E+02  0.00000000000E+00 0. -1.
       -2    1    5    5    0  501 -0.21388581619E+02  0.71712050820E+02 -0.17905233628E+02  0.76946000856E+02  0.00000000000E+00 0.  1.
</event>
<event>
 9   1  0.7570500E-01  0.2500141E+03  0.7546771E-02  0.1113296E+00
       21   -1    0    0  503  502  0.00000000000E+00  0.00000000000E+00  0.15898417138E+03  0.15898417138E+03  0.00000000000E+00 0. -1.
       21   -1    0    0  502  503 -0.00000000000E+00 -0.00000000000E+00 -0.98291346752E+02  0.98291346752E+02  0.00000000000E+00 0. -1.
       25    2    1    2    0    0  0.00000000000E+00  0.14210854715E-13  0.60692824628E+02  0.25727551813E+03  0.25001414614E+03 0.  0.
       24    2    3    3    0    0 -0.43396384392E+02  0.72844171945E+02 -0.24413470093E+02  0.11810687426E+03  0.78509213854E+02 0.  0.
      -24    2    3    3    0    0  0.43396384392E+02 -0.72844171945E+02  0.85106294721E+02  0.13916864387E+03  0.70251764906E+02 0.  0.
      -13    1    4    4    0    0  0.44867006610E+01  0.16822543158E+02 -0.39243960769E+02  0.42932701964E+02  0.00000000000E+00 0.  1.
       14    1    4    4    0    0 -0.47883085053E+02  0.56021628787E+02  0.14830490676E+02  0.75174172292E+02  0.00000000000E+00 0. -1.
        3    1    5    5  501    0 -0.53689108938E+01 -0.51376676188E+02  0.20875677290E+02  0.55715186105E+02  0.00000000000E+00 0. -1.
       -4    1    5    5    0  501  0.48765295286E+02 -0.21467495756E+02  0.64230617430E+02  0.83453457770E+02  0.00000000000E+00 0.  1.
</event>
<event>
 9   1  0.7570500E-01  0.2499982E+03  0.7546771E-02  0.1113306E+00
       21   -1    0    0  503  502  0.00000000000E+00  0.00000000000E+00  0.25421136877E+03  0.25421136877E+03  0.00000000000E+00 0.  1.
       21   -1    0    0  502  503 -0.00000000000E+00 -0.00000000000E+00 -0.61463734800E+02  0.61463734800E+02  0.00000000000E+00 0.  1.
       25    2    1    2    0    0  0.00000000000E+00  0.00000000000E+00  0.19274763397E+03  0.31567510357E+03  0.24999824122E+03 0.  0.
       24    2    3    3    0    0 -0.84227270308E+02 -0.33328897227E+02  0.13174336288E+03  0.17839710232E+03  0.79146471798E+02 0.  0.
      -24    2    3    3    0    0  0.84227270308E+02  0.33328897227E+02  0.61004271091E+02  0.13727800125E+03  0.83178603517E+02 0.  0.
      -13    1    4    4    0    0 -0.85129484667E+02 -0.44787277400E+01  0.70238647973E+02  0.11045612627E+03  0.00000000000E+00 0.  1.
       14    1    4    4    0    0  0.90221435898E+00 -0.28850169487E+02  0.61504714906E+02  0.67940976045E+02  0.00000000000E+00 0. -1.
        3    1    5    5  501    0  0.24249088331E+02  0.33299922325E+02 -0.11894782087E+02  0.42876438199E+02  0.00000000000E+00 0. -1.
       -4    1    5    5    0  501  0.59978181977E+02  0.28974901978E-01  0.72899053179E+02  0.94401563054E+02  0.00000000000E+00 0.  1.
</event>
<event>
 9   1  0.7570500E-01  0.2499908E+03  0.7546771E-02  0.1113311E+00
       21   -1    0    0  503  502  0.00000000000E+00  0.00000000000E+00  0.21824578597E+02  0.21824578597E+02  0.00000000000E+00 0. -1.
       21   -1    0    0  502  503 -0.00000000000E+00 -0.00000000000E+00 -0.71588339972E+03  0.71588339972E+03  0.00000000000E+00 0. -1.
       25    2    1    2    0    0  0.00000000000E+00  0.71054273576E-14 -0.69405882112E+03  0.73770797832E+03  0.24999082802E+03 0.  0.
       24    2    3    3    0    0 -0.56269742625E+02  0.22878291424E+02 -0.57224563654E+03  0.58028922628E+03  0.74704868899E+02 0.  0.
      -24    2    3    3    0    0  0.56269742625E+02 -0.22878291424E+02 -0.12181318458E+03  0.15741875204E+03  0.79072823415E+02 0.  0.
      -13    1    4    4    0    0 -0.16132971931E+01  0.29542754635E+02 -0.35290713947E+03  0.35414520492E+03  0.00000000000E+00 0.  1.
       14    1    4    4    0    0 -0.54656445432E+02 -0.66644632108E+01 -0.21933849707E+03  0.22614402136E+03  0.00000000000E+00 0. -1.
        3    1    5    5  501    0  0.25807275364E+02  0.17637029584E+02 -0.71712699039E+01  0.32070350580E+02  0.00000000000E+00 0. -1.
       -4    1    5    5    0  501  0.30462467261E+02 -0.40515321008E+02 -0.11464191468E+03  0.12534840146E+03  0.00000000000E+00 0.  1.
</event>
<event>
 9   1  0.7570500E-01  0.2500228E+03  0.7546771E-02  0.1113290E+00
       21   -1    0    0  503  502  0.00000000000E+00  0.00000000000E+00  0.62194180284E+03  0.62194180284E+03  0.00000000000E+00 0.  1.
       21   -1    0    0  502  503 -0.00000000000E+00 -0.00000000000E+00 -0.25127513896E+02  0.25127513896E+02  0.00000000000E+00 0.  1.
       25    2    1    2    0    0  0.00000000000E+00  0.00000000000E+00  0.59681428895E+03  0.64706931674E+03  0.25002280930E+03 0.  0.
       24    2    3    3    0    0  0.43880139406E+02 -0.79571355555E+02  0.17502197196E+03  0.21070687153E+03  0.74213393562E+02 0.  0.
      -24    2    3    3    0    0 -0.43880139406E+02  0.79571355555E+02  0.42179231699E+03  0.43636244520E+03  0.65164082559E+02 0.  0.
      -13    1    4    4    0    0 -0.98993205189E+01 -0.40035015818E+02  0.11019368031E+03  0.11765817532E+03  0.00000000000E+00 0.  1.
       14    1    4    4    0    0  0.53779459925E+02 -0.39536339737E+02  0.64828291644E+02  0.93048696213E+02  0.00000000000E+00 0. -1.
        1    1    5    5  501    0 -0.46722072208E+02  0.24007836780E+02  0.26052102933E+03  0.26576405886E+03  0.00000000000E+00 0. -1.
       -2    1    5    5    0  501  0.28419328022E+01  0.55563518775E+02  0.16127128766E+03  0.17059838634E+03  0.00000000000E+00 0.  1.
</event>
<event>
 9   1  0.7570500E-01  0.2499904E+03  0.7546771E-02  0.1113311E+00
       21   -1    0    0  503  502  0.00000000000E+00  0.00000000000E+00  0.44542128641E+02  0.44542128641E+02  0.00000000000E+00 0. -1.
       21   -1    0    0  502  503 -0.00000000000E+00 -0.00000000000E+00 -0.35076457986E+03  0.35076457986E+03  0.00000000000E+00 0. -1.
       25    2    1    2    0    0  0.71054273576E-14  0.14210854715E-13 -0.30622245122E+03  0.39530670850E+03  0.24999040813E+03 0.  0.
       24    2    3    3    0    0 -0.43774486842E+02 -0.81659418758E+02 -0.19408015718E+03  0.22968793346E+03  0.80653412814E+02 0.  0.
      -24    2    3    3    0    0  0.43774486842E+02  0.81659418758E+02 -0.11214229404E+03  0.16561877504E+03  0.79178394540E+02 0.  0.
      -13    1    4    4    0    0  0.22148538096E+01 -0.19362166925E+02  0.12910432934E+01  0.19531151482E+02  0.00000000000E+00 0.  1.
       14    1    4    4    0    0 -0.45989340652E+02 -0.62297251833E+02 -0.19537120047E+03  0.21015678198E+03  0.00000000000E+00 0. -1.
        1    1    5    5  501    0  0.52248733201E+02  0.30332763450E+02 -0.27755986111E+02  0.66486099484E+02  0.00000000000E+00 0. -1.
       -2    1    5    5    0  501 -0.84742463587E+01  0.51326655307E+02 -0.84386307928E+02  0.99132675552E+02  0.00000000000E+00 0.  1.
</event>
<event>
 9   1  0.7570500E-01  0.2500036E+03  0.7546771E-02  0.1113303E+00
       21   -1    0    0  503  502  0.00000000000E+00  0.00000000000E+00  0.25952843220E+03  0.25952843220E+03  0.00000000000E+00 0.  1.
       21   -1    0    0  502  503 -0.00000000000E+00 -0.00000000000E+00 -0.60207070396E+02  0.60207070396E+02  0.00000000000E+00 0.  1.
       25    2    1    2    0    0  0.35527136788E-14 -0.35527136788E-14  0.19932136181E+03  0.31973550260E+03  0.25000357267E+03 0.  0.
       24    2    3    3    0    0  0.13593676055E+02 -0.20381795567E+02  0.21357096147E+03  0.22978155677E+03  0.81159119186E+02 0.  0.
      -24    2    3    3    0    0 -0.13593676055E+02  0.20381795567E+02 -0.14249599664E+02  0.89953945832E+02  0.85372452588E+02 0.  0.
      -13    1    4    4    0    0  0.19000818638E+02 -0.50280086196E+02  0.12242598050E+03  0.13370579224E+03  0.00000000000E+00 0.  1.
       14    1    4    4    0    0 -0.54071425830E+01  0.29898290629E+02  0.91144980968E+02  0.96075764526E+02  0.00000000000E+00 0. -1.
        3    1    5    5  501    0  0.31468298191E+02  0.21234766412E+02 -0.22507828478E+02  0.44133563627E+02  0.00000000000E+00 0. -1.
       -4    1    5    5    0  501 -0.45061974246E+02 -0.85297084517E+00  0.82582288142E+01  0.45820382205E+02  0.00000000000E+00 0.  1.
</event>
<event>
 9   1  0.7570500E-01  0.2499966E+03  0.7546771E-02  0.1113307E+00
       21   -1    0    0  503  502  0.00000000000E+00  0.00000000000E+00  0.25665596854E+02  0.25665596854E+02  0.00000000000E+00 0. -1.
       21   -1    0    0  502  503 -0.00000000000E+00 -0.00000000000E+00 -0.60877515282E+03  0.60877515282E+03  0.00000000000E+00 0. -1.
       25    2    1    2    0    0 -0.14210854715E-13  0.00000000000E+00 -0.58310955596E+03  0.63444074967E+03  0.24999662115E+03 0.  0.
       24    2    3    3    0    0  0.95228043710E+02  0.44082886700E+01 -0.28390481329E+03  0.31038968175E+03  0.81559783048E+02 0.  0.
      -24    2    3    3    0    0 -0.95228043710E+02 -0.44082886700E+01 -0.29920474267E+03  0.32405106792E+03  0.79986269223E+02 0.  0.
      -13    1    4    4    0    0  0.98666767935E+02 -0.20102729374E+02 -0.22605786840E+03  0.24747001978E+03  0.00000000000E+00 0.  1.
       14    1    4    4    0    0 -0.34387242249E+01  0.24511018044E+02 -0.57846944888E+02  0.62919661973E+02  0.00000000000E+00 0. -1.
        3    1    5    5  501    0 -0.81309692981E+02 -0.11626280841E+02 -0.12772181674E+03  0.15185288621E+03  0.00000000000E+00 0. -1.
       -4    1    5    5    0  501 -0.13918350729E+02  0.72179921712E+01 -0.17148292593E+03  0.17219818171E+03  0.00000000000E+00 0.  1.
</event>
<event>
 9   1  0.7570500E-01  0.2500057E+03  0.7546771E-02  0.1113301E+00
       21   -1    0    0  503  502  0.00000000000E+00  0.00000000000E+00  0.23001306228E+02  0.23001306228E+02  0.00000000000E+00 0.  1.
       21   -1    0    0  502  503 -0.00000000000E+00 -0.00000000000E+00 -0.67934002931E+03  0.67934002931E+03  0.00000000000E+00 0.  1.
       25    2    1    2    0    0  0.35527136788E-14  0.71054273576E-14 -0.65633872308E+03  0.70234133553E+03  0.25000566431E+03 0.  0.
       24    2    3    3    0    0  0.28936342609E+02  0.35788056970E+02 -0.56474390541E+03  0.57173296151E+03  0.76320401197E+02 0.  0.
      -24    2    3    3    0    0 -0.28936342609E+02 -0.35788056970E+02 -0.91594817672E+02  0.13060837402E+03  0.80937258390E+02 0.  0.
      -13    1    4    4    0    0  0.34818872833E+01  0.53328230481E+00 -0.43268252667E+03  0.43269686480E+03  0.00000000000E+00 0.  1.
       14    1    4    4    0    0  0.25454455326E+02  0.35254774665E+02 -0.13206137874E+03  0.13903609671E+03  0.00000000000E+00 0. -1.
        1    1    5    5  501    0  0.45539604852E+01 -0.33342180107E+02 -0.64534485289E+00  0.33657926263E+02  0.00000000000E+00 0. -1.
       -2    1    5    5    0  501 -0.33490303095E+02 -0.24458768630E+01 -0.90949472819E+02  0.96950447761E+02  0.00000000000E+00 0.  1.
</event>
<event>
 9   1  0.7570500E-01  0.2499905E+03  0.7546771E-02  0.1113311E+00
       21   -1    0    0  503  502  0.00000000000E+00  0.00000000000E+00  0.11383592969E+03  0.11383592969E+03  0.00000000000E+00 0. -1.
       21   -1    0    0  502  503 -0.00000000000E+00 -0.00000000000E+00 -0.13724852827E+03  0.13724852827E+03  0.00000000000E+00 0. -1.
       25    2    1    2    0    0 -0.14210854715E-13  0.00000000000E+00 -0.23412598578E+02  0.25108445796E+03  0.24999051033E+03 0.  0.
       24    2    3    3    0    0 -0.50845903867E+02 -0.78585231270E+02  0.12234930066E+02  0.12273594337E+03  0.78444080516E+02 0.  0.
      -24    2    3    3    0    0  0.50845903867E+02  0.78585231270E+02 -0.35647528644E+02  0.12834851458E+03  0.80259892745E+02 0.  0.
      -13    1    4    4    0    0  0.18853728689E+02 -0.14514216996E+02 -0.94653144554E+01  0.25606986512E+02  0.00000000000E+00 0.  1.
       14    1    4    4    0    0 -0.69699632556E+02 -0.64071014274E+02  0.21700244522E+02  0.97128956861E+02  0.00000000000E+00 0. -1.
        3    1    5    5  501    0  0.29835175614E+02 -0.10109186156E+02 -0.14999134878E+02  0.34889932584E+02  0.00000000000E+00 0. -1.
       -4    1    5    5    0  501  0.21010728254E+02  0.88694417426E+02 -0.20648393766E+02  0.93458581999E+02  0.00000000000E+00 0.  1.
</event>
<event>
 9   1  0.7570500E-01  0.2500029E+03  0.7546771E-02  0.1113303E+00
       21   -1    0    0  503  502  0.00000000000E+00  0.00000000000E+00  0.13953268917E+03  0.13953268917E+03  0.00000000000E+00 0.  1.
       21   -1    0    0  502  503 -0.00000000000E+00 -0.00000000000E+00 -0.11198348426E+03  0.11198348426E+03  0.00000000000E+00 0.  1.
       25    2    1    2    0    0  0.00000000000E+00  0.00000000000E+00  0.27549204914E+02  0.25151617343E+03  0.25000285360E+03 0.  0.
       24    2    3    3    0    0 -0.46990695137E+02  0.16647679647E+02 -0.68432828644E+02  0.11662589778E+03  0.80207713662E+02 0.  0.
      -24    2    3    3    0    0  0.46990695137E+02 -0.16647679647E+02  0.95982033558E+02  0.13489027565E+03  0.80607475037E+02 0.  0.
      -13    1    4    4    0    0 -0.75953228544E+00  0.26179609927E+02 -0.64075636486E+02  0.69221644421E+02  0.00000000000E+00 0.  1.
       14    1    4    4    0    0 -0.46231162852E+02 -0.95319302799E+01 -0.43571921573E+01  0.47404253364E+02  0.00000000000E+00 0. -1.
        1    1    5    5  501    0  0.52764379415E+02 -0.31850551739E+02  0.33137910362E+02  0.69976127960E+02  0.00000000000E+00 0. -1.
       -2    1    5    5    0  501 -0.57736842778E+01  0.15202872092E+02  0.62844123196E+02  0.64914147690E+02  0.00000000000E+00 0.  1.
</event>
<event>
 9   1  0.7570500E-01  0.2499990E+03  0.7546771E-02  0.1113305E+00
       21   -1    0    0  503  502  0.00000000000E+00  0.00000000000E+00  0.52366777668E+03  0.52366777668E+03  0.00000000000E+00 0.  1.
       21   -1    0    0  502  503 -0.00000000000E+00 -0.00000000000E+00 -0.29837377074E+02  0.29837377074E+02  0.00000000000E+00 0.  1.
       25    2    1    2    0    0  0.00000000000E+00  0.71054273576E-14  0.49383039961E+03  0.55350515376E+03  0.24999898331E+03 0.  0.
       24    2    3    3    0    0  0.60107765740E+02 -0.58087146292E+02  0.13749624772E+03  0.18001352817E+03  0.80700632708E+02 0.  0.
      -24    2    3    3    0    0 -0.60107765740E+02  0.58087146292E+02  0.35633415189E+03  0.37349162559E+03  0.74396952334E+02 0.  0.
      -13    1    4    4    0    0  0.28248303598E+02 -0.71516496838E+02  0.11642156413E+03  0.13952260236E+03  0.00000000000E+00 0.  1.
       14    1    4    4    0    0  0.31859462142E+02  0.13429350546E+02  0.21074683597E+02  0.40490925808E+02  0.00000000000E+00 0. -1.
        1    1    5    5  501    0 -0.21157289734E+02  0.32622601952E+01  0.22427183416E+03  0.22529120899E+03  0.00000000000E+00 0. -1.
       -2    1    5    5    0  501 -0.38950476006E+02  0.54824886097E+02  0.13206231773E+03  0.14820041660E+03  0.00000000000E+00 0.  1.
</event>
<event>
 9   1  0.7570500E-01  0.2499998E+03  0.7546771E-02  0.1113305E+00
       21   -1    0    0  503  502  0.00000000000E+00  0.00000000000E+00  0.40786635473E+02  0.40786635473E+02  0.00000000000E+00 0. -1.
       21   -1    0    0  502  503 -0.00000000000E+00 -0.00000000000E+00 -0.38309041491E+03  0.38309041491E+03  0.00000000000E+00 0. -1.
       25    2    1    2    0    0 -0.14210854715E-13  0.00000000000E+00 -0.34230377944E+03  0.42387705038E+03  0.24999975285E+03 0.  0.
       24    2    3    3    0    0 -0.80558112519E+02 -0.22824533729E+02 -0.91984764607E+02  0.14801121992E+03  0.80221913893E+02 0.  0.
      -24    2    3    3    0    0  0.80558112519E+02  0.22824533729E+02 -0.25031901483E+03  0.27586583047E+03  0.80198369072E+02 0.  0.
      -13    1    4    4    0    0 -0.67727129029E+02 -0.29949398352E+02 -0.10493780311E+03  0.12843626041E+03  0.00000000000E+00 0.  1.
       14    1    4    4    0    0 -0.12830983489E+02  0.71248646230E+01  0.12953038498E+02  0.19574959503E+02  0.00000000000E+00 0. -1.
        3    1    5    5  501    0  0.72577246208E+02 -0.59496916247E+01 -0.22572631641E+03  0.23718184040E+03  0.00000000000E+00 0. -1.
       -4    1    5    5    0  501  0.79808663105E+01  0.28774225354E+02 -0.24592698425E+02  0.38683990068E+02  0.00000000000E+00 0.  1.
</event>
<event>
 9   1  0.7570500E-01  0.2500048E+03  0.7546771E-02  0.1113302E+00
       21   -1    0    0  503  502  0.00000000000E+00  0.00000000000E+00  0.33640385380E+03  0.33640385380E+03  0.00000000000E+00 0. -1.
       21   -1    0    0  502  503 -0.00000000000E+00 -0.00000000000E+00 -0.46448930080E+02  0.46448930080E+02  0.00000000000E+00 0. -1.
       25    2    1    2    0    0  0.00000000000E+00 -0.35527136788E-14  0.28995492372E+03  0.38285278388E+03  0.25000479263E+03 0.  0.
       24    2    3    3    0    0 -0.13640310100E+01 -0.29886581964E+02  0.28248889045E+03  0.29577127317E+03  0.82374780378E+02 0.  0.
      -24    2    3    3    0    0  0.13640310100E+01  0.29886581964E+02  0.74660332750E+01  0.87081510716E+02  0.81439422233E+02 0.  0.
      -13    1    4    4    0    0  0.34191790529E+02  0.80364814980E+01  0.13019437814E+03  0.13484895133E+03  0.00000000000E+00 0.  1.
       14    1    4    4    0    0 -0.35555821539E+02 -0.37923063462E+02  0.15229451231E+03  0.16092232184E+03  0.00000000000E+00 0. -1.
        1    1    5    5  501    0 -0.35209456082E+02 -0.41674444097E+01  0.10612942188E+02  0.37009565417E+02  0.00000000000E+00 0. -1.
       -2    1    5    5    0  501  0.36573487092E+02  0.34054026374E+02 -0.31469089128E+01  0.50071945299E+02  0.00000000000E+00 0.  1.
</event>
<event>
 9   1  0.7570500E-01  0.2500011E+03  0.7546771E-02  0.1113304E+00
       21   -1    0    0  503  502  0.00000000000E+00  0.00000000000E+00  0.19809540725E+04  0.19809540725E+04  0.00000000000E+00 0.  1.
       21   -1    0    0  502  503 -0.00000000000E+00 -0.00000000000E+00 -0.78876822340E+01  0.78876822340E+01  0.00000000000E+00 0.  1.
       25    2    1    2    0    0  0.14210854715E-13 -0.71054273576E-14  0.19730663902E+04  0.19888417547E+04  0.25000108995E+03 0.  0.
       24    2    3    3    0    0 -0.59754486151E+02  0.68823317446E+01  0.40370435839E+03  0.41631026281E+03  0.81969877622E+02 0.  0.
      -24    2    3    3    0    0  0.59754486151E+02 -0.68823317446E+01  0.15693620318E+04  0.15725314919E+04  0.79625001562E+02 0.  0.
      -13    1    4    4    0    0 -0.75070776262E+01  0.33320767939E+02  0.24062130966E+03  0.24303342251E+03  0.00000000000E+00 0.  1.
       14    1    4    4    0    0 -0.52247408525E+02 -0.26438436195E+02  0.16308304872E+03  0.17327684031E+03  0.00000000000E+00 0. -1.
        1    1    5    5  501    0  0.18963589909E+02 -0.32944328716E+02  0.32287534864E+03  0.32510527109E+03  0.00000000000E+00 0. -1.
       -2    1    5    5    0  501  0.40790896242E+02  0.26061996971E+02  0.12464866832E+04  0.12474262208E+04  0.00000000000E+00 0.  1.
</event>
<event>
 9   1  0.7570500E-01  0.2500006E+03  0.7546771E-02  0.1113304E+00
       21   -1    0    0  503  502  0.00000000000E+00  0.00000000000E+00  0.34750372271E+03  0.34750372271E+03  0.00000000000E+00 0. -1.
       21   -1    0    0  502  503 -0.00000000000E+00 -0.00000000000E+00 -0.44963760130E+02  0.44963760130E+02  0.00000000000E+00 0. -1.
       25    2    1    2    0    0 -0.35527136788E-14  0.00000000000E+00  0.30253996258E+03  0.39246748284E+03  0.25000059226E+03 0.  0.
       24    2    3    3    0    0  0.31625420035E+02  0.80031509703E+02  0.20453005088E+03  0.23716442454E+03  0.83721041644E+02 0.  0.
      -24    2    3    3    0    0 -0.31625420035E+02 -0.80031509703E+02  0.98009911692E+02  0.15530305830E+03  0.84308287785E+02 0.  0.
      -13    1    4    4    0    0 -0.70155273275E+01  0.64783585385E+02  0.17344263896E+03  0.18527946343E+03  0.00000000000E+00 0.  1.
       14    1    4    4    0    0  0.38640947363E+02  0.15247924318E+02  0.31087411922E+02  0.51884961107E+02  0.00000000000E+00 0. -1.
        3    1    5    5  501    0 -0.35687923435E+02 -0.33586953517E+02  0.25582742636E+01  0.49073985908E+02  0.00000000000E+00 0. -1.
       -4    1    5    5    0  501  0.40625034004E+01 -0.46444556186E+02  0.95451637428E+02  0.10622907239E+03  0.00000000000E+00 0.  1.
</event>
<event>
 9   1  0.7570500E-01  0.2500064E+03  0.7546771E-02  0.1113301E+00
       21   -1    0    0  503  502  0.00000000000E+00  0.00000000000E+00  0.54927370044E+02  0.54927370044E+02  0.00000000000E+00 0. -1.
       21   -1    0    0  502  503 -0.00000000000E+00 -0.00000000000E+00 -0.28448112774E+03  0.28448112774E+03  0.00000000000E+00 0. -1.
       25    2    1    2    0    0  0.00000000000E+00  0.71054273576E-14 -0.22955375770E+03  0.33940849779E+03  0.25000640131E+03 0.  0.
       24    2    3    3    0    0 -0.81471806213E+02 -0.33460418986E+02 -0.16597898077E+03  0.20431671594E+03  0.80243650886E+02 0.  0.
      -24    2    3    3    0    0  0.81471806213E+02  0.33460418986E+02 -0.63574776925E+02  0.13509178185E+03  0.80316762977E+02 0.  0.
      -13    1    4    4    0    0 -0.76685341372E+01 -0.37800186935E+00 -0.99020268581E+02  0.99317485324E+02  0.00000000000E+00 0.  1.
       14    1    4    4    0    0 -0.73803272076E+02 -0.33082417116E+02 -0.66958712191E+02  0.10499923061E+03  0.00000000000E+00 0. -1.
        1    1    5    5  501    0  0.61171120371E+02 -0.16291865361E+01 -0.71156632350E+02  0.93850021543E+02  0.00000000000E+00 0. -1.
       -2    1    5    5    0  501  0.20300685842E+02  0.35089605522E+02  0.75818554242E+01  0.41241760304E+02  0.00000000000E+00 0.  1.
</event>
<event>
 9   1  0.7570500E-01  0.2500012E+03  0.7546771E-02  0.1113304E+00
       21   -1    0    0  503  502  0.00000000000E+00  0.00000000000E+00  0.62472780714E+03  0.62472780714E+03  0.00000000000E+00 0.  1.
       21   -1    0    0  502  503 -0.00000000000E+00 -0.00000000000E+00 -0.25011133841E+02  0.25011133841E+02  0.00000000000E+00 0.  1.
       25    2    1    2    0    0 -0.14210854715E-13 -0.35527136788E-14  0.59971667330E+03  0.64973894098E+03  0.25000120638E+03 0.  0.
       24    2    3    3    0    0 -0.89922595243E+02  0.23335577123E+02  0.34117062012E+03  0.36280410113E+03  0.81233007270E+02 0.  0.
      -24    2    3    3    0    0  0.89922595243E+02 -0.23335577123E+02  0.25854605318E+03  0.28693483985E+03  0.82794434654E+02 0.  0.
      -13    1    4    4    0    0 -0.45192913744E+02  0.47081557171E+02  0.12771241619E+03  0.14342082738E+03  0.00000000000E+00 0.  1.
       14    1    4    4    0    0 -0.44729681499E+02 -0.23745980048E+02  0.21345820393E+03  0.21938327375E+03  0.00000000000E+00 0. -1.
        3    1    5    5  501    0  0.12432215475E+02 -0.46286582110E+01  0.15830905386E+03  0.15886390714E+03  0.00000000000E+00 0. -1.
       -4    1    5    5    0  501  0.77490379768E+02 -0.18706918912E+02  0.10023699932E+03  0.12807093271E+03  0.00000000000E+00 0.  1.
</event>
<event>
 9   1  0.7570500E-01  0.2500046E+03  0.7546771E-02  0.1113302E+00
       21   -1    0    0  503  502  0.00000000000E+00  0.00000000000E+00  0.60356563341E+02  0.60356563341E+02  0.00000000000E+00 0.  1.
       21   -1    0    0  502  503 -0.00000000000E+00 -0.00000000000E+00 -0.25888769973E+03  0.25888769973E+03  0.00000000000E+00 0.  1.
       25    2    1    2    0    0 -0.35527136788E-14  0.00000000000E+00 -0.19853113638E+03  0.31924426307E+03  0.25000457473E+03 0.  0.
       24    2    3    3    0    0  0.15163851818E+02  0.69173262923E+02 -0.18485690967E+03  0.21159931482E+03  0.74748312849E+02 0.  0.
      -24    2    3    3    0    0 -0.15163851818E+02 -0.69173262923E+02 -0.13674226711E+02  0.10764494824E+03  0.79909747221E+02 0.  0.
      -13    1    4    4    0    0  0.19002849235E+02  0.57669525708E+02 -0.18921013985E+03  0.19871426596E+03  0.00000000000E+00 0.  1.
       14    1    4    4    0    0 -0.38389974172E+01  0.11503737215E+02  0.43532301794E+01  0.12885048858E+02  0.00000000000E+00 0. -1.
        3    1    5    5  501    0 -0.76990309287E+01  0.10233381863E+02 -0.24019460536E+02  0.27220059994E+02  0.00000000000E+00 0. -1.
       -4    1    5    5    0  501 -0.74648208888E+01 -0.79406644786E+02  0.10345233826E+02  0.80424888250E+02  0.00000000000E+00 0.  1.
</event>
<event>
 9   1  0.7570500E-01  0.2499901E+03  0.7546771E-02  0.1113311E+00
       21   -1    0    0  503  502  0.00000000000E+00  0.00000000000E+00  0.11872994389E+03  0.11872994389E+03  0.00000000000E+00 0.  1.
       21   -1    0    0  502  503 -0.00000000000E+00 -0.00000000000E+00 -0.13159079443E+03  0.13159079443E+03  0.00000000000E+00 0.  1.
       25    2    1    2    0    0  0.00000000000E+00  0.00000000000E+00 -0.12860850540E+02  0.25032073833E+03  0.24999014092E+03 0.  0.
       24    2    3    3    0    0 -0.25040202761E+02 -0.70505622135E+02 -0.64561965974E+02  0.12779759294E+03  0.81030381982E+02 0.  0.
      -24    2    3    3    0    0  0.25040202761E+02  0.70505622135E+02  0.51701115433E+02  0.12252314539E+03  0.82102748499E+02 0.  0.
      -13    1    4    4    0    0 -0.45351187944E+02 -0.41708329150E+02 -0.93810757449E+01  0.62324309467E+02  0.00000000000E+00 0.  1.
       14    1    4    4    0    0  0.20310985184E+02 -0.28797292985E+02 -0.55180890229E+02  0.65473283474E+02  0.00000000000E+00 0. -1.
        1    1    5    5  501    0 -0.25216835155E+02  0.46924103331E+02  0.12951656933E+02  0.54822492337E+02  0.00000000000E+00 0. -1.
       -2    1    5    5    0  501  0.50257037916E+02  0.23581518803E+02  0.38749458500E+02  0.67700653049E+02  0.00000000000E+00 0.  1.
</event>
<event>
 9   1  0.7570500E-01  0.2499984E+03  0.7546771E-02  0.1113306E+00
       21   -1    0    0  503  502  0.00000000000E+00  0.00000000000E+00  0.39847642697E+02  0.39847642697E+02  0.00000000000E+00 0.  1.
       21   -1    0    0  502  503 -0.00000000000E+00 -0.00000000000E+00 -0.39211345273E+03  0.39211345273E+03  0.00000000000E+00 0.  1.
       25    2    1    2    0    0  0.00000000000E+00  0.00000000000E+00 -0.35226581003E+03  0.43196109543E+03  0.24999837409E+03 0.  0.
       24    2    3    3    0    0 -0.76096635071E+02  0.57085055522E+02 -0.16588041326E+03  0.20770045684E+03  0.81078769322E+02 0.  0.
      -24    2    3    3    0    0  0.76096635071E+02 -0.57085055522E+02 -0.18638539678E+03  0.22426063859E+03  0.80646862662E+02 0.  0.
      -13    1    4    4    0    0 -0.55882945286E+02 -0.78097403079E+01 -0.65225379281E+02  0.86245264913E+02  0.00000000000E+00 0.  1.
       14    1    4    4    0    0 -0.20213689785E+02  0.64894795830E+02 -0.10065503398E+03  0.12145519193E+03  0.00000000000E+00 0. -1.
        1    1    5    5  501    0  0.34088740027E+02 -0.62357882741E+02 -0.15811534642E+03  0.17335227288E+03  0.00000000000E+00 0. -1.
       -2    1    5    5    0  501  0.42007895044E+02  0.52728272198E+01 -0.28270050351E+02  0.50908365715E+02  0.00000000000E+00 0.  1.
</event>
<event>
 9   1  0.7570500E-01  0.2499971E+03  0.7546771E-02  0.1113307E+00
       21   -1    0    0  503  502  0.00000000000E+00  0.00000000000E+00  0.81047016320E+03  0.81047016320E+03  0.00000000000E+00 0. -1.
       21   -1    0    0  502  503 -0.00000000000E+00 -0.00000000000E+00 -0.19278492233E+02  0.19278492233E+02  0.00000000000E+00 0. -1.
       25    2    1    2    0    0  0.71054273576E-14  0.00000000000E+00  0.79119167097E+03  0.82974865543E+03  0.24999714195E+03 0.  0.
       24    2    3    3    0    0  0.44225408362E+02 -0.81282807204E+02  0.30504125809E+03  0.32796376999E+03  0.77118634543E+02 0.  0.
      -24    2    3    3    0    0 -0.44225408362E+02  0.81282807204E+02  0.48615041287E+03  0.50178488545E+03  0.82964244301E+02 0.  0.
      -13    1    4    4    0    0 -0.21247542080E+02 -0.16009341787E+02  0.49225372359E+02  0.55954395294E+02  0.00000000000E+00 0.  1.
       14    1    4    4    0    0  0.65472950442E+02 -0.65273465417E+02  0.25581588574E+03  0.27200937469E+03  0.00000000000E+00 0. -1.
        1    1    5    5  501    0 -0.28795559674E+02  0.32614764740E+01  0.45010099026E+02  0.53532518156E+02  0.00000000000E+00 0. -1.
       -2    1    5    5    0  501 -0.15429848688E+02  0.78021330730E+02  0.44114031385E+03  0.44825236729E+03  0.00000000000E+00 0.  1.
</event>
<event>
 9   1  0.7570500E-01  0.2499973E+03  0.7546771E-02  0.1113307E+00
       21   -1    0    0  503  502  0.00000000000E+00  0.00000000000E+00  0.52392911768E+01  0.52392911768E+01  0.00000000000E+00 0.  1.
       21   -1    0    0  502  503 -0.00000000000E+00 -0.00000000000E+00 -0.29822089411E+04  0.29822089411E+04  0.00000000000E+00 0.  1.
       25    2    1    2    0    0 -0.35527136788E-14  0.00000000000E+00 -0.29769696500E+04  0.29874482323E+04  0.24999728793E+03 0.  0.
       24    2    3    3    0    0 -0.18582813170E+02 -0.56303067848E+02 -0.57558844196E+03  0.58400970552E+03  0.79056468598E+02 0.  0.
      -24    2    3    3    0    0  0.18582813170E+02  0.56303067848E+02 -0.24013812080E+04  0.24034385268E+04  0.79810334882E+02 0.  0.
      -13    1    4    4    0    0  0.21338912834E+02 -0.50722661274E+02 -0.40511395927E+03  0.40883426662E+03  0.00000000000E+00 0.  1.
       14    1    4    4    0    0 -0.39921726003E+02 -0.55804065735E+01 -0.17047448269E+03  0.17517543889E+03  0.00000000000E+00 0. -1.
        3    1    5    5  501    0  0.21584317579E+02  0.32607190645E+01 -0.16650990225E+04  0.16652421054E+04  0.00000000000E+00 0. -1.
       -4    1    5    5    0  501 -0.30015044091E+01  0.53042348783E+02 -0.73628218555E+03  0.73819642139E+03  0.00000000000E+00 0.  1.
</event>
<event>
 9   1  0.7570500E-01  0.2499966E+03  0.7546771E-02  0.1113307E+00
       21   -1    0    0  503  502  0.00000000000E+00  0.00000000000E+00  0.65730557046E+03  0.65730557046E+03  0.00000000000E+00 0. -1.
       21   -1    0    0  502  503 -0.00000000000E+00 -0.00000000000E+00 -0.23770640231E+02  0.23770640231E+02  0.00000000000E+00 0. -1.
       25    2    1    2    0    0  0.00000000000E+00  0.00000000000E+00  0.63353493023E+03  0.68107621069E+03  0.24999659387E+03 0.  0.
       24    2    3    3    0    0  0.40856531421E+02  0.83221735529E+02  0.28755233946E+03  0.31246652890E+03  0.79711168162E+02 0.  0.
      -24    2    3    3    0    0 -0.40856531421E+02 -0.83221735529E+02  0.34598259077E+03  0.36860968179E+03  0.87028908820E+02 0.  0.
      -13    1    4    4    0    0  0.29311308459E+02  0.25887823917E+02  0.21851395868E+03  0.22198577064E+03  0.00000000000E+00 0.  1.
       14    1    4    4    0    0  0.11545222962E+02  0.57333911611E+02  0.69038380786E+02  0.90480758261E+02  0.00000000000E+00 0. -1.
        1    1    5    5  501    0 -0.35914923283E+02 -0.65959834237E+02  0.11768961632E+03  0.13961170164E+03  0.00000000000E+00 0. -1.
       -2    1    5    5    0  501 -0.49416081376E+01 -0.17261901291E+02  0.22829297445E+03  0.22899798015E+03  0.00000000000E+00 0.  1.
</event>
<event>
 9   1  0.7570500E-01  0.2500103E+03  0.7546771E-02  0.1113298E+00
       21   -1    0    0  503  502  0.00000000000E+00  0.00000000000E+00  0.12129057193E+03  0.12129057193E+03  0.00000000000E+00 0.  1.
       21   -1    0    0  502  503 -0.00000000000E+00 -0.00000000000E+00 -0.12883344209E+03  0.12883344209E+03  0.00000000000E+00 0.  1.
       25    2    1    2    0    0  0.00000000000E+00  0.00000000000E+00 -0.75428701682E+01  0.25012401402E+03  0.25001025479E+03 0.  0.
       24    2    3    3    0    0  0.54560975319E+02 -0.45409476241E+02 -0.54576554533E+02  0.13269439963E+03  0.97929989421E+02 0.  0.
      -24    2    3    3    0    0 -0.54560975319E+02  0.45409476241E+02  0.47033684364E+02  0.11742961439E+03  0.80861772865E+02 0.  0.
      -13    1    4    4    0    0  0.43723923661E+02  0.24546369146E+02 -0.21498993367E+02  0.54557423458E+02  0.00000000000E+00 0.  1.
       14    1    4    4    0    0  0.10837051658E+02 -0.69955845387E+02 -0.33077561166E+02  0.78136976171E+02  0.00000000000E+00 0. -1.
        3    1    5    5  501    0 -0.58441837862E+02  0.54792395237E+02  0.12061449161E+02  0.81013168956E+02  0.00000000000E+00 0. -1.
       -4    1    5    5    0  501  0.38808625424E+01 -0.93829189959E+01  0.34972235204E+02  0.36416445435E+02  0.00000000000E+00 0.  1.
</event>
<event>
 9   1  0.7570500E-01  0.2499939E+03  0.7546771E-02  0.1113309E+00
       21   -1    0    0  503  502  0.00000000000E+00  0.00000000000E+00  0.16068758817E+03  0.16068758817E+03  0.00000000000E+00 0.  1.
       21   -1    0    0  502  503 -0.00000000000E+00 -0.00000000000E+00 -0.97233616781E+02  0.97233616781E+02  0.00000000000E+00 0.  1.
       25    2    1    2    0    0 -0.14210854715E-13 -0.88817841970E-15  0.63453971389E+02  0.25792120495E+03  0.24999388288E+03 0.  0.
       24    2    3    3    0    0 -0.94063768947E+02  0.49466698217E+01  0.13883948881E+02  0.12442303003E+03  0.80099089844E+02 0.  0.
      -24    2    3    3    0    0  0.94063768947E+02 -0.49466698217E+01  0.49570022508E+02  0.13349817492E+03  0.80573652056E+02 0.  0.
      -13    1    4    4    0    0 -0.76176710808E+02 -0.14407592819E+02 -0.21359529022E+02  0.80415791238E+02  0.00000000000E+00 0.  1.
       14    1    4    4    0    0 -0.17887058139E+02  0.19354262641E+02  0.35243477902E+02  0.44007238790E+02  0.00000000000E+00 0. -1.
        3    1    5    5  501    0  0.15527167074E+02  0.67068908778E+01 -0.21213104991E+02  0.27130630770E+02  0.00000000000E+00 0. -1.
       -4    1    5    5    0  501  0.78536601873E+02 -0.11653560699E+02  0.70783127499E+02  0.10636754415E+03  0.00000000000E+00 0.  1.
</event>
<event>
 9   1  0.7570500E-01  0.2500014E+03  0.7546771E-02  0.1113304E+00
       21   -1    0    0  503  502  0.00000000000E+00  0.00000000000E+00  0.24313655242E+03  0.24313655242E+03  0.00000000000E+00 0.  1.
       21   -1    0    0  502  503 -0.00000000000E+00 -0.00000000000E+00 -0.64265020547E+02  0.64265020547E+02  0.00000000000E+00 0.  1.
       25    2    1    2    0    0  0.35527136788E-14  0.00000000000E+00  0.17887153187E+03  0.30740157296E+03  0.25000140429E+03 0.  0.
       24    2    3    3    0    0  0.26114502439E+02  0.18054507861E+02  0.20061680075E+03  0.21847049601E+03  0.80463186564E+02 0.  0.
      -24    2    3    3    0    0 -0.26114502439E+02 -0.18054507861E+02 -0.21745268880E+02  0.88931076953E+02  0.80174479965E+02 0.  0.
      -13    1    4    4    0    0 -0.22014744129E+02  0.29512897016E+02  0.93127153937E+02  0.10014153409E+03  0.00000000000E+00 0.  1.
       14    1    4    4    0    0  0.48129246569E+02 -0.11458389155E+02  0.10748964681E+03  0.11832896192E+03  0.00000000000E+00 0. -1.
        1    1    5    5  501    0 -0.17333928756E+02  0.18191117139E+02  0.20608852465E+02  0.32497794214E+02  0.00000000000E+00 0. -1.
       -2    1    5    5    0  501 -0.87805736832E+01 -0.36245625000E+02 -0.42354121345E+02  0.56433282739E+02  0.00000000000E+00 0.  1.
</event>
<event>
 9   1  0.7570500E-01  0.2500047E+03  0.7546771E-02  0.1113302E+00
       21   -1    0    0  503  502  0.00000000000E+00  0.00000000000E+00  0.22625175889E+03  0.22625175889E+03  0.00000000000E+00 0.  1.
       21   -1    0    0  502  503 -0.00000000000E+00 -0.00000000000E+00 -0.69062838547E+02  0.69062838547E+02  0.00000000000E+00 0.  1.
       25    2    1    2    0    0  0.71054273576E-14  0.00000000000E+00  0.15718892035E+03  0.29531459744E+03  0.25000470952E+03 0.  0.
       24    2    3    3    0    0 -0.18124097022E+02  0.13664541528E+02 -0.31343546074E+02  0.89505568252E+02  0.80707039839E+02 0.  0.
      -24    2    3    3    0    0  0.18124097022E+02 -0.13664541528E+02  0.18853246642E+03  0.20580902919E+03  0.79357816334E+02 0.  0.
      -13    1    4    4    0    0 -0.94473167978E+01  0.32571976545E+02 -0.50761175700E+02  0.61048197427E+02  0.00000000000E+00 0.  1.
       14    1    4    4    0    0 -0.86767802238E+01 -0.18907435016E+02  0.19417629626E+02  0.28457370824E+02  0.00000000000E+00 0. -1.
        3    1    5    5  501    0  0.43702806729E+02  0.49701684456E+01  0.66427462042E+02  0.79669602759E+02  0.00000000000E+00 0. -1.
       -4    1    5    5    0  501 -0.25578709707E+02 -0.18634709974E+02  0.12210500438E+03  0.12613942643E+03  0.00000000000E+00 0.  1.
</event>
<event>
 9   1  0.7570500E-01  0.2500011E+03  0.7546771E-02  0.1113304E+00
       21   -1    0    0  503  502  0.00000000000E+00  0.00000000000E+00  0.75793589709E+02  0.75793589709E+02  0.00000000000E+00 0. -1.
       21   -1    0    0  502  503 -0.00000000000E+00 -0.00000000000E+00 -0.20615378732E+03  0.20615378732E+03  0.00000000000E+00 0. -1.
       25    2    1    2    0    0  0.14210854715E-13  0.00000000000E+00 -0.13036019761E+03  0.28194737703E+03  0.25000108458E+03 0.  0.
       24    2    3    3    0    0  0.64019692754E+02 -0.69507491056E+02 -0.85846775239E+02  0.14998788702E+03  0.78720296370E+02 0.  0.
      -24    2    3    3    0    0 -0.64019692754E+02  0.69507491056E+02 -0.44513422370E+02  0.13195949001E+03  0.80635289163E+02 0.  0.
      -13    1    4    4    0    0 -0.86661748988E+01 -0.39207594012E+02 -0.48108161944E+02  0.62663651834E+02  0.00000000000E+00 0.  1.
       14    1    4    4    0    0  0.72685867653E+02 -0.30299897044E+02 -0.37738613295E+02  0.87324235185E+02  0.00000000000E+00 0. -1.
        3    1    5    5  501    0 -0.66265373990E+02  0.29696732389E+02 -0.54572907196E+02  0.90836104631E+02  0.00000000000E+00 0. -1.
       -4    1    5    5    0  501  0.22456812359E+01  0.39810758666E+02  0.10059484826E+02  0.41123385376E+02  0.00000000000E+00 0.  1.
</event>
<event>
 9   1  0.7570500E-01  0.2499982E+03  0.7546771E-02  0.1113306E+00
       21   -1    0    0  503  502  0.00000000000E+00  0.00000000000E+00  0.17479462860E+04  0.17479462860E+04  0.00000000000E+00 0.  1.
       21   -1    0    0  502  503 -0.00000000000E+00 -0.00000000000E+00 -0.89389336533E+01  0.89389336533E+01  0.00000000000E+00 0.  1.
       25    2    1    2    0    0  0.00000000000E+00 -0.71054273576E-14  0.17390073523E+04  0.17568852196E+04  0.24999820703E+03 0.  0.
       24    2    3    3    0    0  0.24803755254E+02  0.50744615963E+02  0.31692207972E+03  0.33141197634E+03  0.78765799192E+02 0.  0.
      -24    2    3    3    0    0 -0.24803755254E+02 -0.50744615963E+02  0.14220852726E+04  0.14254732433E+04  0.80356720076E+02 0.  0.
      -13    1    4    4    0    0 -0.46567984993E+01 -0.95537199045E+01  0.39706585882E+01  0.11345724565E+02  0.00000000000E+00 0.  1.
       14    1    4    4    0    0  0.29460553753E+02  0.60298335867E+02  0.31295142113E+03  0.32006625177E+03  0.00000000000E+00 0. -1.
        3    1    5    5  501    0 -0.43410414425E+02 -0.27951063569E+02  0.45156847827E+03  0.45451052419E+03  0.00000000000E+00 0. -1.
       -4    1    5    5    0  501  0.18606659172E+02 -0.22793552393E+02  0.97051679434E+03  0.97096271910E+03  0.00000000000E+00 0.  1.
</event>
<event>
 9   1  0.7570500E-01  0.2499944E+03  0.7546771E-02  0.1113308E+00
       21   -1    0    0  503  502  0.00000000000E+00  0.00000000000E+00  0.34644339166E+02  0.34644339166E+02  0.00000000000E+00 0. -1.
       21   -1    0    0  502  503 -0.00000000000E+00 -0.00000000000E+00 -0.45099149061E+03  0.45099149061E+03  0.00000000000E+00 0. -1.
       25    2    1    2    0    0  0.14210854715E-13  0.35527136788E-14 -0.41634715144E+03  0.48563582977E+03  0.24999441723E+03 0.  0.
       24    2    3    3    0    0 -0.93847796551E+02  0.25165750881E+02 -0.18083263757E+03  0.21841265438E+03  0.74584990769E+02 0.  0.
      -24    2    3    3    0    0  0.93847796551E+02 -0.25165750881E+02 -0.23551451386E+03  0.26722317539E+03  0.80625152953E+02 0.  0.
      -13    1    4    4    0    0 -0.23944880951E+02  0.12727372286E+02 -0.12550189857E+03  0.12839809139E+03  0.00000000000E+00 0.  1.
       14    1    4    4    0    0 -0.69902915601E+02  0.12438378595E+02 -0.55330739005E+02  0.90014562991E+02  0.00000000000E+00 0. -1.
        1    1    5    5  501    0  0.79516379498E+02  0.16385568955E+02 -0.16912697447E+03  0.18760403773E+03  0.00000000000E+00 0. -1.
       -2    1    5    5    0  501  0.14331417053E+02 -0.41551319836E+02 -0.66387539394E+02  0.79619137660E+02  0.00000000000E+00 0.  1.
</event>
<event>
 9   1  0.7570500E-01  0.2500015E+03  0.7546771E-02  0.1113304E+00
       21   -1    0    0  503  502  0.00000000000E+00  0.00000000000E+00  0.18736652097E+03  0.18736652097E+03  0.00000000000E+00 0.  1.
       21   -1    0    0  502  503 -0.00000000000E+00 -0.00000000000E+00 -0.83393695089E+02  0.83393695089E+02  0.00000000000E+00 0.  1.
       25    2    1    2    0    0  0.00000000000E+00  0.00000000000E+00  0.10397282588E+03  0.27076021606E+03  0.25000149215E+03 0.  0.
       24    2    3    3    0    0 -0.64695077608E+02  0.37900843211E+02  0.11772222628E+03  0.16217698293E+03  0.82588886956E+02 0.  0.
      -24    2    3    3    0    0  0.64695077608E+02 -0.37900843211E+02 -0.13749400401E+02  0.10858323313E+03  0.77326227908E+02 0.  0.
      -13    1    4    4    0    0 -0.25250512819E+02 -0.24719033126E+02  0.53903457709E+02  0.64453097282E+02  0.00000000000E+00 0.  1.
       14    1    4    4    0    0 -0.39444564789E+02  0.62619876336E+02  0.63818768570E+02  0.97723885645E+02  0.00000000000E+00 0. -1.
        3    1    5    5  501    0  0.56701514271E+02 -0.35107118113E+02  0.23250394964E+02  0.70626852746E+02  0.00000000000E+00 0. -1.
       -4    1    5    5    0  501  0.79935633367E+01 -0.27937250980E+01 -0.36999795364E+02  0.37956380383E+02  0.00000000000E+00 0.  1.
</event>
<event>
 9   1  0.7570500E-01  0.2500007E+03  0.7546771E-02  0.1113304E+00
       21   -1    0    0  503  502  0.00000000000E+00  0.00000000000E+00  0.46647487974E+02  0.46647487974E+02  0.00000000000E+00 0. -1.
       21   -1    0    0  502  503 -0.00000000000E+00 -0.00000000000E+00 -0.33496094637E+03  0.33496094637E+03  0.00000000000E+00 0. -1.
       25    2    1    2    0    0  0.00000000000E+00  0.00000000000E+00 -0.28831345840E+03  0.38160843435E+03  0.25000069374E+03 0.  0.
       24    2    3    3    0    0  0.69861311748E+02 -0.62715570076E+02 -0.10691051822E+03  0.16199391151E+03  0.77448840210E+02 0.  0.
      -24    2    3    3    0    0 -0.69861311748E+02  0.62715570076E+02 -0.18140294018E+03  0.21961452284E+03  0.80682503233E+02 0.  0.
      -13    1    4    4    0    0  0.53993413979E+02 -0.37469741265E+02 -0.17890688840E+02  0.68112752189E+02  0.00000000000E+00 0.  1.
       14    1    4    4    0    0  0.15867897769E+02 -0.25245828811E+02 -0.89019829379E+02  0.93881159316E+02  0.00000000000E+00 0. -1.
        3    1    5    5  501    0  0.12874797846E+02  0.30203652617E+02 -0.32521266163E+02  0.46213134538E+02  0.00000000000E+00 0. -1.
       -4    1    5    5    0  501 -0.82736109593E+02  0.32511917459E+02 -0.14888167402E+03  0.17340138830E+03  0.00000000000E+00 0.  1.
</event>
<event>
 9   1  0.7570500E-01  0.2500020E+03  0.7546771E-02  0.1113304E+00
       21   -1    0    0  503  502  0.00000000000E+00  0.00000000000E+00  0.21623581877E+03  0.21623581877E+03  0.00000000000E+00 0.  1.
       21   -1    0    0  502  503 -0.00000000000E+00 -0.00000000000E+00 -0.72260246419E+02  0.72260246419E+02  0.00000000000E+00 0.  1.
       25    2    1    2    0    0  0.35527136788E-14  0.00000000000E+00  0.14397557235E+03  0.28849606519E+03  0.25000202838E+03 0.  0.
       24    2    3    3    0    0 -0.16149810821E+02  0.11665716400E+02 -0.34255436892E+02  0.91968556512E+02  0.82993223227E+02 0.  0.
      -24    2    3    3    0    0  0.16149810821E+02 -0.11665716400E+02  0.17823100924E+03  0.19652750867E+03  0.80373277164E+02 0.  0.
      -13    1    4    4    0    0 -0.44379488024E+01 -0.35591802760E+02 -0.83833342853E+01  0.36834116075E+02  0.00000000000E+00 0.  1.
       14    1    4    4    0    0 -0.11711862019E+02  0.47257519160E+02 -0.25872102607E+02  0.55134440437E+02  0.00000000000E+00 0. -1.
        3    1    5    5  501    0 -0.63864019363E+01 -0.41933826633E+02  0.69362626319E+02  0.81304402560E+02  0.00000000000E+00 0. -1.
       -4    1    5    5    0  501  0.22536212758E+02  0.30268110234E+02  0.10886838292E+03  0.11522310611E+03  0.00000000000E+00 0.  1.
</event>
<event>
 9   1  0.7570500E-01  0.2500033E+03  0.7546771E-02  0.1113303E+00
       21   -1    0    0  503  502  0.00000000000E+00  0.00000000000E+00  0.47358111079E+02  0.47358111079E+02  0.00000000000E+00 0. -1.
       21   -1    0    0  502  503 -0.00000000000E+00 -0.00000000000E+00 -0.32994165012E+03  0.32994165012E+03  0.00000000000E+00 0. -1.
       25    2    1    2    0    0  0.35527136788E-14  0.00000000000E+00 -0.28258353904E+03  0.37729976120E+03  0.25000330651E+03 0.  0.
       24    2    3    3    0    0  0.27289066277E+02 -0.32602091669E+01 -0.11217700816E+01  0.83216391286E+02  0.78539081408E+02 0.  0.
      -24    2    3    3    0    0 -0.27289066277E+02  0.32602091669E+01 -0.28146176896E+03  0.29408336991E+03  0.80678243485E+02 0.  0.
      -13    1    4    4    0    0 -0.75601876843E+01  0.29996704130E+02 -0.13074336945E+02  0.33584177570E+02  0.00000000000E+00 0.  1.
       14    1    4    4    0    0  0.34849253961E+02 -0.33256913297E+02  0.11952566863E+02  0.49632213716E+02  0.00000000000E+00 0. -1.
        3    1    5    5  501    0 -0.50079828219E+02  0.22560010506E+02 -0.16764600281E+03  0.17641464091E+03  0.00000000000E+00 0. -1.
       -4    1    5    5    0  501  0.22790761943E+02 -0.19299801339E+02 -0.11381576614E+03  0.11766872900E+03  0.00000000000E+00 0.  1.
</event>
<event>
 9   1  0.7570500E-01  0.2499990E+03  0.7546771E-02  0.1113305E+00
       21   -1    0    0  503  502  0.00000000000E+00  0.00000000000E+00  0.10341876372E+03  0.10341876372E+03  0.00000000000E+00 0.  1.
       21   -1    0    0  502  503 -0.00000000000E+00 -0.00000000000E+00 -0.15108351052E+03  0.15108351052E+03  0.00000000000E+00 0.  1.
       25    2    1    2    0    0  0.17763568394E-14  0.35527136788E-14 -0.47664746803E+02  0.25450227424E+03  0.24999895901E+03 0.  0.
       24    2    3    3    0    0  0.19284697228E+01  0.76185063614E+01  0.68167618653E+02  0.11293202193E+03  0.89694240119E+02 0.  0.
      -24    2    3    3    0    0 -0.19284697228E+01 -0.76185063614E+01 -0.11583236546E+03  0.14157025230E+03  0.81013818672E+02 0.  0.
      -13    1    4    4    0    0 -0.13090121109E+02 -0.37503938776E+02  0.45027648938E+02  0.60044865419E+02  0.00000000000E+00 0.  1.
       14    1    4    4    0    0  0.15018590831E+02  0.45122445138E+02  0.23139969715E+02  0.52887156514E+02  0.00000000000E+00 0. -1.
        3    1    5    5  501    0 -0.29839072549E+02  0.12681651933E+02 -0.16430936006E+02  0.36347905089E+02  0.00000000000E+00 0. -1.
       -4    1    5    5    0  501  0.27910602826E+02 -0.20300158294E+02 -0.99401429450E+02  0.10522234722E+03  0.00000000000E+00 0.  1.
</event>
<event>
 9   1  0.7570500E-01  0.2500016E+03  0.7546771E-02  0.1113304E+00
       21   -1    0    0  503  502  0.00000000000E+00  0.00000000000E+00  0.37850565104E+02  0.37850565104E+02  0.00000000000E+00 0.  1.
       21   -1    0    0  502  503 -0.00000000000E+00 -0.00000000000E+00 -0.41281273866E+03  0.41281273866E+03  0.00000000000E+00 0.  1.
       25    2    1    2    0    0 -0.35527136788E-14  0.14210854715E-13 -0.37496217356E+03  0.45066330377E+03  0.25000156352E+03 0.  0.
       24    2    3    3    0    0  0.61234932871E+01 -0.71198315737E+02 -0.65826630235E+02  0.12630941380E+03  0.80710751647E+02 0.  0.
      -24    2    3    3    0    0 -0.61234932871E+01  0.71198315737E+02 -0.30913554333E+03  0.32435388997E+03  0.67334719573E+02 0.  0.
      -13    1    4    4    0    0 -0.29696905403E+02 -0.34575310917E+01 -0.10088822704E+02  0.31553843748E+02  0.00000000000E+00 0.  1.
       14    1    4    4    0    0  0.35820398690E+02 -0.67740784645E+02 -0.55737807530E+02  0.94755570047E+02  0.00000000000E+00 0. -1.
        3    1    5    5  501    0  0.19837189106E+02 -0.20443083858E+01 -0.77829989291E+02  0.80344262405E+02  0.00000000000E+00 0. -1.
       -4    1    5    5    0  501 -0.25960682393E+02  0.73242624123E+02 -0.23130555403E+03  0.24400962757E+03  0.00000000000E+00 0.  1.
</event>
<event>
 9   1  0.7570500E-01  0.2500029E+03  0.7546771E-02  0.1113303E+00
       21   -1    0    0  503  502  0.00000000000E+00  0.00000000000E+00  0.85508232026E+02  0.85508232026E+02  0.00000000000E+00 0. -1.
       21   -1    0    0  502  503 -0.00000000000E+00 -0.00000000000E+00 -0.18273516883E+03  0.18273516883E+03  0.00000000000E+00 0. -1.
       25    2    1    2    0    0  0.00000000000E+00  0.00000000000E+00 -0.97226936804E+02  0.26824340086E+03  0.25000288971E+03 0.  0.
       24    2    3    3    0    0 -0.33761021546E+02 -0.89712919750E+02 -0.36448327200E+02  0.12953972588E+03  0.79144459560E+02 0.  0.
      -24    2    3    3    0    0  0.33761021546E+02  0.89712919750E+02 -0.60778609604E+02  0.13870367498E+03  0.79727382505E+02 0.  0.
      -13    1    4    4    0    0 -0.25647919811E+02 -0.62218944851E+02  0.16534347915E+02  0.69299332969E+02  0.00000000000E+00 0.  1.
       14    1    4    4    0    0 -0.81131017349E+01 -0.27493974899E+02 -0.52982675115E+02  0.60240392909E+02  0.00000000000E+00 0. -1.
        3    1    5    5  501    0  0.38338125238E+02  0.54324847690E+02  0.19689243596E+01  0.66519753355E+02  0.00000000000E+00 0. -1.
       -4    1    5    5    0  501 -0.45771036920E+01  0.35388072060E+02 -0.62747533963E+02  0.72183921623E+02  0.00000000000E+00 0.  1.
</event>
<event>
 9   1  0.7570500E-01  0.2500046E+03  0.7546771E-02  0.1113302E+00
       21   -1    0    0  503  502  0.00000000000E+00  0.00000000000E+00  0.36808353829E+02  0.36808353829E+02  0.00000000000E+00 0.  1.
       21   -1    0    0  502  503 -0.00000000000E+00 -0.00000000000E+00 -0.42451174859E+03  0.42451174859E+03  0.00000000000E+00 0.  1.
       25    2    1    2    0    0  0.00000000000E+00  0.71054273576E-14 -0.38770339476E+03  0.46132010242E+03  0.25000462913E+03 0.  0.
       24    2    3    3    0    0 -0.51241085843E+02 -0.63010556349E+02 -0.28903164888E+03  0.31029525850E+03  0.78408381569E+02 0.  0.
      -24    2    3    3    0    0  0.51241085843E+02  0.63010556349E+02 -0.98671745880E+02  0.15102484392E+03  0.80476151481E+02 0.  0.
      -13    1    4    4    0    0 -0.12391844194E+02 -0.67408800417E+02 -0.13529393598E+03  0.15166394854E+03  0.00000000000E+00 0.  1.
       14    1    4    4    0    0 -0.38849241649E+02  0.43982440682E+01 -0.15373771291E+03  0.15863130995E+03  0.00000000000E+00 0. -1.
        1    1    5    5  501    0  0.62318761287E+02  0.37743375161E+02 -0.99620409671E+02  0.12341967590E+03  0.00000000000E+00 0. -1.
       -2    1    5    5    0  501 -0.11077675445E+02  0.25267181187E+02  0.94866379113E+00  0.27605168020E+02  0.00000000000E+00 0.  1.
</event>
<event>
 9   1  0.7570500E-01  0.2499996E+03  0.7546771E-02  0.1113305E+00
       21   -1    0    0  503  502  0.00000000000E+00  0.00000000000E+00  0.14856505127E+03  0.14856505127E+03  0.00000000000E+00 0. -1.
       21   -1    0    0  502  503 -0.00000000000E+00 -0.00000000000E+00 -0.10517242869E+03  0.10517242869E+03  0.00000000000E+00 0. -1.
       25    2    1    2    0    0  0.14210854715E-13  0.00000000000E+00  0.43392622571E+02  0.25373747996E+03  0.24999957809E+03 0.  0.
       24    2    3    3    0    0  0.43234321423E+02  0.86677302511E+02  0.71913428258E+01  0.12569034465E+03  0.79775848523E+02 0.  0.
      -24    2    3    3    0    0 -0.43234321423E+02 -0.86677302511E+02  0.36201279745E+02  0.12804713531E+03  0.75520691772E+02 0.  0.
      -13    1    4    4    0    0  0.33033559004E+02  0.56702939567E+02 -0.33862397674E+02  0.73845117322E+02  0.00000000000E+00 0.  1.
       14    1    4    4    0    0  0.10200762419E+02  0.29974362944E+02  0.41053740500E+02  0.51845227330E+02  0.00000000000E+00 0. -1.
        3    1    5    5  501    0  0.15720106892E+02 -0.52153746434E+02  0.17527556051E+02  0.57221938528E+02  0.00000000000E+00 0. -1.
       -4    1    5    5    0  501 -0.58954428316E+02 -0.34523556078E+02  0.18673723694E+02  0.70825196780E+02  0.00000000000E+00 0.  1.
</event>
<event>
 9   1  0.7570500E-01  0.2499855E+03  0.7546771E-02  0.1113314E+00
       21   -1    0    0  503  502  0.00000000000E+00  0.00000000000E+00  0.14292554291E+03  0.14292554291E+03  0.00000000000E+00 0. -1.
       21   -1    0    0  502  503 -0.00000000000E+00 -0.00000000000E+00 -0.10930996370E+03  0.10930996370E+03  0.00000000000E+00 0. -1.
       25    2    1    2    0    0  0.71054273576E-14  0.00000000000E+00  0.33615579212E+02  0.25223550662E+03  0.24998548684E+03 0.  0.
       24    2    3    3    0    0  0.16163965498E+02 -0.35918772583E+02 -0.64402015323E+02  0.11122230642E+03  0.81678331659E+02 0.  0.
      -24    2    3    3    0    0 -0.16163965498E+02  0.35918772583E+02  0.98017594535E+02  0.14101320020E+03  0.93412214339E+02 0.  0.
      -13    1    4    4    0    0  0.27705657594E+01 -0.13588067558E+02  0.19185576391E+02  0.23672725995E+02  0.00000000000E+00 0.  1.
       14    1    4    4    0    0  0.13393399738E+02 -0.22330705025E+02 -0.83587591714E+02  0.87549580422E+02  0.00000000000E+00 0. -1.
        1    1    5    5  501    0 -0.45421631287E+01 -0.29788233370E+02  0.51515748641E+02  0.59681173340E+02  0.00000000000E+00 0. -1.
       -2    1    5    5    0  501 -0.11621802369E+02  0.65707005953E+02  0.46501845894E+02  0.81332026860E+02  0.00000000000E+00 0.  1.
</event>
<event>
 9   1  0.7570500E-01  0.2500023E+03  0.7546771E-02  0.1113303E+00
       21   -1    0    0  503  502  0.00000000000E+00  0.00000000000E+00  0.56209501807E+02  0.56209501807E+02  0.00000000000E+00 0.  1.
       21   -1    0    0  502  503 -0.00000000000E+00 -0.00000000000E+00 -0.27798295451E+03  0.27798295451E+03  0.00000000000E+00 0.  1.
       25    2    1    2    0    0  0.00000000000E+00 -0.14210854715E-13 -0.22177345270E+03  0.33419245631E+03  0.25000226706E+03 0.  0.
       24    2    3    3    0    0 -0.60173988198E+02  0.71175787743E+02 -0.80939399106E+02  0.14690780712E+03  0.79648074991E+02 0.  0.
      -24    2    3    3    0    0  0.60173988198E+02 -0.71175787743E+02 -0.14083405359E+03  0.18728464919E+03  0.80959295662E+02 0.  0.
      -13    1    4    4    0    0 -0.28836398909E+02 -0.13095284309E+02 -0.29726204383E+02  0.43435833136E+02  0.00000000000E+00 0.  1.
       14    1    4    4    0    0 -0.31337589289E+02  0.84271072052E+02 -0.51213194723E+02  0.10347197399E+03  0.00000000000E+00 0. -1.
        1    1    5    5  501    0  0.10479009065E+02 -0.72539553483E+02 -0.91653439008E+02  0.11735480106E+03  0.00000000000E+00 0. -1.
       -2    1    5    5    0  501  0.49694979133E+02  0.13637657403E+01 -0.49180614586E+02  0.69929848127E+02  0.00000000000E+00 0.  1.
</event>
<event>
 9   1  0.7570500E-01  0.2499991E+03  0.7546771E-02  0.1113305E+00
       21   -1    0    0  503  502  0.00000000000E+00  0.00000000000E+00  0.32929579804E+03  0.32929579804E+03  0.00000000000E+00 0. -1.
       21   -1    0    0  502  503 -0.00000000000E+00 -0.00000000000E+00 -0.47449401426E+02  0.47449401426E+02  0.00000000000E+00 0. -1.
       25    2    1    2    0    0  0.00000000000E+00  0.00000000000E+00  0.28184639661E+03  0.37674519946E+03  0.24999910807E+03 0.  0.
       24    2    3    3    0    0  0.71055845379E+02  0.39527170151E+02  0.61537744114E+02  0.12904557889E+03  0.79085631677E+02 0.  0.
      -24    2    3    3    0    0 -0.71055845379E+02 -0.39527170151E+02  0.22030865250E+03  0.24769962057E+03  0.78790033155E+02 0.  0.
      -13    1    4    4    0    0  0.10151981413E+02  0.35167808704E+02  0.57099636965E+02  0.67824818741E+02  0.00000000000E+00 0.  1.
       14    1    4    4    0    0  0.60903863966E+02  0.43593614466E+01  0.44381071487E+01  0.61220760149E+02  0.00000000000E+00 0. -1.
        1    1    5    5  501    0 -0.42178285804E+02  0.11775581257E+02  0.45090164206E+02  0.62855349935E+02  0.00000000000E+00 0. -1.
       -2    1    5    5    0  501 -0.28877559575E+02 -0.51302751408E+02  0.17521848829E+03  0.18484427064E+03  0.00000000000E+00 0.  1.
</event>
<event>
 9   1  0.7570500E-01  0.2500064E+03  0.7546771E-02  0.1113301E+00
       21   -1    0    0  503  502  0.00000000000E+00  0.00000000000E+00  0.34302872633E+03  0.34302872633E+03  0.00000000000E+00 0.  1.
       21   -1    0    0  502  503 -0.00000000000E+00 -0.00000000000E+00 -0.45552441479E+02  0.45552441479E+02  0.00000000000E+00 0.  1.
       25    2    1    2    0    0  0.00000000000E+00  0.00000000000E+00  0.29747628485E+03  0.38858116781E+03  0.25000636777E+03 0.  0.
       24    2    3    3    0    0 -0.42148519288E+02 -0.42756166485E+02  0.25504288059E+03  0.27344290572E+03  0.78227644077E+02 0.  0.
      -24    2    3    3    0    0  0.42148519288E+02  0.42756166485E+02  0.42433404260E+02  0.11513826209E+03  0.88609469860E+02 0.  0.
      -13    1    4    4    0    0 -0.84091224481E+01 -0.25189992864E+02  0.22039776230E+03  0.22199194289E+03  0.00000000000E+00 0.  1.
       14    1    4    4    0    0 -0.33739396840E+02 -0.17566173622E+02  0.34645118291E+02  0.51450962831E+02  0.00000000000E+00 0. -1.
        1    1    5    5  501    0  0.33172352172E+01  0.54379183167E+01 -0.26730444567E+02  0.27478931418E+02  0.00000000000E+00 0. -1.
       -2    1    5    5    0  501  0.38831284071E+02  0.37318248169E+02  0.69163848827E+02  0.87659330670E+02  0.00000000000E+00 0.  1.
</event>
<event>
 9   1  0.7570500E-01  0.2500049E+03  0.7546771E-02  0.1113302E+00
       21   -1    0    0  503  502  0.00000000000E+00  0.00000000000E+00  0.32655613427E+02  0.32655613427E+02  0.00000000000E+00 0. -1.
       21   -1    0    0  502  503 -0.00000000000E+00 -0.00000000000E+00 -0.47849684400E+03  0.47849684400E+03  0.00000000000E+00 0. -1.
       25    2    1    2    0    0 -0.17763568394E-14  0.00000000000E+00 -0.44584123058E+03  0.51115245743E+03  0.25000486366E+03 0.  0.
       24    2    3    3    0    0 -0.10629002650E+02  0.84261645607E+01 -0.27156371971E+02  0.85157327705E+02  0.79563345685E+02 0.  0.
      -24    2    3    3    0    0  0.10629002650E+02 -0.84261645607E+01 -0.41868485860E+03  0.42599512972E+03  0.77400670397E+02 0.  0.
      -13    1    4    4    0    0  0.88343267788E+01  0.38887624088E+02  0.10971091888E+00  0.39878624266E+02  0.00000000000E+00 0.  1.
       14    1    4    4    0    0 -0.19463329429E+02 -0.30461459527E+02 -0.27266082890E+02  0.45278703439E+02  0.00000000000E+00 0. -1.
        3    1    5    5  501    0  0.79670980932E+01  0.31242097351E+02 -0.27593224995E+03  0.27780955682E+03  0.00000000000E+00 0. -1.
       -4    1    5    5    0  501  0.26619045572E+01 -0.39668261912E+02 -0.14275260866E+03  0.14818557291E+03  0.00000000000E+00 0.  1.
</event>
<event>
 9   1  0.7570500E-01  0.2500030E+03  0.7546771E-02  0.1113303E+00
       21   -1    0    0  503  502  0.00000000000E+00  0.00000000000E+00  0.28631163260E+04  0.28631163260E+04  0.00000000000E+00 0. -1.
       21   -1    0    0  502  503 -0.00000000000E+00 -0.00000000000E+00 -0.54574731718E+01  0.54574731718E+01  0.00000000000E+00 0. -1.
       25    2    1    2    0    0 -0.35527136788E-14 -0.14210854715E-13  0.28576588529E+04  0.28685737992E+04  0.25000304428E+03 0.  0.
       24    2    3    3    0    0 -0.11792448306E+02  0.40548670561E+02  0.24093983980E+04  0.24111193293E+04  0.80700207071E+02 0.  0.
      -24    2    3    3    0    0  0.11792448306E+02 -0.40548670561E+02  0.44826045484E+03  0.45745446987E+03  0.80894376209E+02 0.  0.
      -13    1    4    4    0    0 -0.39107594633E+02  0.17071699378E+02  0.67525120142E+03  0.67659813176E+03  0.00000000000E+00 0.  1.
       14    1    4    4    0    0  0.27315146327E+02  0.23476971183E+02  0.17341471966E+04  0.17345211976E+04  0.00000000000E+00 0. -1.
        3    1    5    5  501    0  0.28452737387E+02 -0.43297417148E+02  0.42780153788E+03  0.43092734934E+03  0.00000000000E+00 0. -1.
       -4    1    5    5    0  501 -0.16660289081E+02  0.27487465867E+01  0.20458916963E+02  0.26527120526E+02  0.00000000000E+00 0.  1.
</event>
<event>
 9   1  0.7570500E-01  0.2499978E+03  0.7546771E-02  0.1113306E+00
       21   -1    0    0  503  502  0.00000000000E+00  0.00000000000E+00  0.15506679763E+03  0.15506679763E+03  0.00000000000E+00 0.  1.
       21   -1    0    0  502  503 -0.00000000000E+00 -0.00000000000E+00 -0.10076122103E+03  0.10076122103E+03  0.00000000000E+00 0.  1.
       25    2    1    2    0    0  0.00000000000E+00  0.00000000000E+00  0.54305576600E+02  0.25582801865E+03  0.24999775895E+03 0.  0.
       24    2    3    3    0    0 -0.34180979331E+02 -0.77548061665E+02  0.74490417610E+02  0.13793494878E+03  0.79342211736E+02 0.  0.
      -24    2    3    3    0    0  0.34180979331E+02  0.77548061665E+02 -0.20184841010E+02  0.11789306987E+03  0.79431145667E+02 0.  0.
      -13    1    4    4    0    0 -0.10811398953E+02 -0.25601432452E+02  0.76033086750E+02  0.80952763830E+02  0.00000000000E+00 0.  1.
       14    1    4    4    0    0 -0.23369580378E+02 -0.51946629213E+02 -0.15426691397E+01  0.56982184950E+02  0.00000000000E+00 0. -1.
        3    1    5    5  501    0 -0.67126311364E+01  0.36072381324E+02  0.24810063250E+02  0.44292384782E+02  0.00000000000E+00 0. -1.
       -4    1    5    5    0  501  0.40893610467E+02  0.41475680340E+02 -0.44994904260E+02  0.73600685093E+02  0.00000000000E+00 0.  1.
</event>
<event>
 9   1  0.7570500E-01  0.2499964E+03  0.7546771E-02  0.1113307E+00
       21   -1    0    0  503  502  0.00000000000E+00  0.00000000000E+00  0.39338319557E+02  0.39338319557E+02  0.00000000000E+00 0. -1.
       21   -1    0    0  502  503 -0.00000000000E+00 -0.00000000000E+00 -0.39718395331E+03  0.39718395331E+03  0.00000000000E+00 0. -1.
       25    2    1    2    0    0  0.14210854715E-13  0.00000000000E+00 -0.35784563375E+03  0.43652227286E+03  0.24999639420E+03 0.  0.
       24    2    3    3    0    0  0.64150462445E+02 -0.47065211807E+02 -0.27219538228E+03  0.29408175553E+03  0.77867430970E+02 0.  0.
      -24    2    3    3    0    0 -0.64150462445E+02  0.47065211807E+02 -0.85650251469E+02  0.14244051733E+03  0.81381320997E+02 0.  0.
      -13    1    4    4    0    0 -0.31456926353E+01 -0.54170453790E+01 -0.13905237189E+03  0.13919339744E+03  0.00000000000E+00 0.  1.
       14    1    4    4    0    0  0.67296155080E+02 -0.41648166428E+02 -0.13314301039E+03  0.15488835809E+03  0.00000000000E+00 0. -1.
        3    1    5    5  501    0 -0.38716551350E+01  0.52771036855E+02 -0.45542200689E+02  0.69813065309E+02  0.00000000000E+00 0. -1.
       -4    1    5    5    0  501 -0.60278807310E+02 -0.57058250481E+01 -0.40108050780E+02  0.72627452025E+02  0.00000000000E+00 0.  1.
</event>
<event>
 9   1  0.7570500E-01  0.2500018E+03  0.7546771E-02  0.1113304E+00
       21   -1    0    0  503  502  0.00000000000E+00  0.00000000000E+00  0.11152214382E+04  0.11152214382E+04  0.00000000000E+00 0. -1.
       21   -1    0    0  502  503 -0.00000000000E+00 -0.00000000000E+00 -0.14010875659E+02  0.14010875659E+02  0.00000000000E+00 0. -1.
       25    2    1    2    0    0 -0.14210854715E-13  0.00000000000E+00  0.11012105625E+04  0.11292323138E+04  0.25000183121E+03 0.  0.
       24    2    3    3    0    0 -0.54052257014E+02  0.42663984626E+02  0.24629474643E+03  0.26794716615E+03  0.79954484906E+02 0.  0.
      -24    2    3    3    0    0  0.54052257014E+02 -0.42663984626E+02  0.85491581608E+03  0.86128514767E+03  0.78671411288E+02 0.  0.
      -13    1    4    4    0    0 -0.15787366226E+02  0.12624983484E+02  0.19925168788E+03  0.20027447731E+03  0.00000000000E+00 0.  1.
       14    1    4    4    0    0 -0.38264890789E+02  0.30039001142E+02  0.47043058551E+02  0.67672688838E+02  0.00000000000E+00 0. -1.
        3    1    5    5  501    0  0.45029203662E+02 -0.54287547889E+02  0.82434936472E+03  0.82736125250E+03  0.00000000000E+00 0. -1.
       -4    1    5    5    0  501  0.90230533523E+01  0.11623563263E+02  0.30566451362E+02  0.33923895171E+02  0.00000000000E+00 0.  1.
</event>
<event>
 9   1  0.7570500E-01  0.2500098E+03  0.7546771E-02  0.1113299E+00
       21   -1    0    0  503  502  0.00000000000E+00  0.00000000000E+00  0.12372676515E+02  0.12372676515E+02  0.00000000000E+00 0. -1.
       21   -1    0    0  502  503 -0.00000000000E+00 -0.00000000000E+00 -0.12629626852E+04  0.12629626852E+04  0.00000000000E+00 0. -1.
       25    2    1    2    0    0  0.00000000000E+00  0.35527136788E-14 -0.12505900086E+04  0.12753353617E+04  0.25000982983E+03 0.  0.
       24    2    3    3    0    0  0.61102464472E+02  0.22195086443E+02 -0.98366044712E+03  0.98923949802E+03  0.82345468607E+02 0.  0.
      -24    2    3    3    0    0 -0.61102464472E+02 -0.22195086443E+02 -0.26692956153E+03  0.28609586365E+03  0.79833071806E+02 0.  0.
      -13    1    4    4    0    0  0.66853875905E+02  0.30102723068E+01 -0.42642894996E+03  0.43164818061E+03  0.00000000000E+00 0.  1.
       14    1    4    4    0    0 -0.57514114332E+01  0.19184814137E+02 -0.55723149716E+03  0.55759131741E+03  0.00000000000E+00 0. -1.
        3    1    5    5  501    0 -0.54697764080E+02 -0.33857931747E+02 -0.26494527892E+03  0.27264300057E+03  0.00000000000E+00 0. -1.
       -4    1    5    5    0  501 -0.64047003922E+01  0.11662845303E+02 -0.19842826107E+01  0.13452863084E+02  0.00000000000E+00 0.  1.
</event>
<event>
 9   1  0.7570500E-01  0.2500000E+03  0.7546771E-02  0.1113305E+00
       21   -1    0    0  503  502  0.00000000000E+00  0.00000000000E+00  0.93840416112E+02  0.93840416112E+02  0.00000000000E+00 0.  1.
       21   -1    0    0  502  503 -0.00000000000E+00 -0.00000000000E+00 -0.16650606353E+03  0.16650606353E+03  0.00000000000E+00 0.  1.
       25    2    1    2    0    0  0.00000000000E+00  0.14210854715E-13 -0.72665647420E+02  0.26034647964E+03  0.24999998630E+03 0.  0.
       24    2    3    3    0    0  0.98276678001E+01 -0.80647568602E+02 -0.87198058461E+02  0.14452444103E+03  0.81750836577E+02 0.  0.
      -24    2    3    3    0    0 -0.98276678001E+01  0.80647568602E+02  0.14532411041E+02  0.11582203861E+03  0.81258478212E+02 0.  0.
      -13    1    4    4    0    0  0.31616540165E+02 -0.15376857903E+02 -0.22872540250E+01  0.35231873381E+02  0.00000000000E+00 0.  1.
       14    1    4    4    0    0 -0.21788872365E+02 -0.65270710700E+02 -0.84910804436E+02  0.10929256765E+03  0.00000000000E+00 0. -1.
        3    1    5    5  501    0  0.19032303499E+01  0.48282224292E+02 -0.31988442112E+02  0.57948735078E+02  0.00000000000E+00 0. -1.
       -4    1    5    5    0  501 -0.11730898150E+02  0.32365344310E+02  0.46520853153E+02  0.57873303533E+02  0.00000000000E+00 0.  1.
</event>
<event>
 9   1  0.7570500E-01  0.2500041E+03  0.7546771E-02  0.1113302E+00
       21   -1    0    0  503  502  0.00000000000E+00  0.00000000000E+00  0.11452662022E+04  0.11452662022E+04  0.00000000000E+00 0. -1.
       21   -1    0    0  502  503 -0.00000000000E+00 -0.00000000000E+00 -0.13643567926E+02  0.13643567926E+02  0.00000000000E+00 0. -1.
       25    2    1    2    0    0  0.00000000000E+00 -0.14210854715E-13  0.11316226343E+04  0.11589097701E+04  0.25000413775E+03 0.  0.
       24    2    3    3    0    0 -0.31890685566E+02 -0.78610937023E+02  0.34395106374E+03  0.36266736784E+03  0.77643996568E+02 0.  0.
      -24    2    3    3    0    0  0.31890685566E+02  0.78610937023E+02  0.78767157053E+03  0.79624240228E+03  0.79867170500E+02 0.  0.
      -13    1    4    4    0    0 -0.47477694233E+02 -0.15617585318E+02  0.15817110902E+03  0.16587989676E+03  0.00000000000E+00 0.  1.
       14    1    4    4    0    0  0.15587008666E+02 -0.62993351705E+02  0.18577995472E+03  0.19678747108E+03  0.00000000000E+00 0. -1.
        3    1    5    5  501    0 -0.19971045347E+02  0.48436743466E+02  0.26431179319E+03  0.26945442062E+03  0.00000000000E+00 0. -1.
       -4    1    5    5    0  501  0.51861730914E+02  0.30174193557E+02  0.52335977734E+03  0.52678798166E+03  0.00000000000E+00 0.  1.
</event>
<event>
 9   1  0.7570500E-01  0.2499962E+03  0.7546771E-02  0.1113307E+00
       21   -1    0    0  503  502  0.00000000000E+00  0.00000000000E+00  0.15358151246E+03  0.15358151246E+03  0.00000000000E+00 0.  1.
       21   -1    0    0  502  503 -0.00000000000E+00 -0.00000000000E+00 -0.10173439207E+03  0.10173439207E+03  0.00000000000E+00 0.  1.
       25    2    1    2    0    0  0.00000000000E+00  0.00000000000E+00  0.51847120391E+02  0.25531590453E+03  0.24999617439E+03 0.  0.
       24    2    3    3    0    0 -0.37245537428E+02 -0.55279724854E+02 -0.40303027616E+02  0.11390787633E+03  0.83111925845E+02 0.  0.
      -24    2    3    3    0    0  0.37245537428E+02  0.55279724854E+02  0.92150148006E+02  0.14140802819E+03  0.84032747317E+02 0.  0.
      -13    1    4    4    0    0  0.29507082524E+01 -0.29486008889E+02  0.20909431555E+02  0.36267557505E+02  0.00000000000E+00 0.  1.
       14    1    4    4    0    0 -0.40196245680E+02 -0.25793715964E+02 -0.61212459171E+02  0.77640318829E+02  0.00000000000E+00 0. -1.
        3    1    5    5  501    0  0.13005109669E+02  0.69421240513E+02  0.37484463409E+02  0.79959530445E+02  0.00000000000E+00 0. -1.
       -4    1    5    5    0  501  0.24240427759E+02 -0.14141515659E+02  0.54665684597E+02  0.61448497749E+02  0.00000000000E+00 0.  1.
</event>
<event>
 8   1  0.7570500E-01  0.2501389E+03  0.7546771E-02  0.1113217E+00
       21   -1    0    0  503  502  0.00000000000E+00  0.00000000000E+00  0.26035598667E+04  0.26035598667E+04  0.00000000000E+00 0.  1.
       21   -1    0    0  502  503 -0.00000000000E+00 -0.00000000000E+00 -0.60080685899E+01  0.60080685899E+01  0.00000000000E+00 0.  1.
       24    2    1    2    0    0  0.85015772501E+02 -0.25914539832E+02  0.90657001288E+03  0.91435884001E+03  0.79269509339E+02 0.  0.
      -24    2    1    2    0    0 -0.85015772501E+02  0.25914539832E+02  0.16909817853E+04  0.16952090953E+04  0.80095154510E+02 0.  0.
      -13    1    3    3    0    0  0.75322398568E+02  0.34833161782E+01  0.79520138898E+03  0.79876833078E+03  0.00000000000E+00 0.  1.
       14    1    3    3    0    0  0.96933739331E+01 -0.29397856010E+02  0.11136862389E+03  0.11559050923E+03  0.00000000000E+00 0. -1.
        1    1    4    4  501    0 -0.40788942993E+02  0.53434852270E+02  0.88979830897E+03  0.89233404729E+03  0.00000000000E+00 0. -1.
       -2    1    4    4    0  501 -0.44226829507E+02 -0.27520312437E+02  0.80118347629E+03  0.80287504802E+03  0.00000000000E+00 0.  1.
</event>
<event>
 9   1  0.7570500E-01  0.2499975E+03  0.7546771E-02  0.1113306E+00
       21   -1    0    0  503  502  0.00000000000E+00  0.00000000000E+00  0.34274826852E+02  0.34274826852E+02  0.00000000000E+00 0.  1.
       21   -1    0    0  502  503 -0.00000000000E+00 -0.00000000000E+00 -0.45586498655E+03  0.45586498655E+03  0.00000000000E+00 0.  1.
       25    2    1    2    0    0  0.00000000000E+00  0.00000000000E+00 -0.42159015970E+03  0.49013981340E+03  0.24999754784E+03 0.  0.
       24    2    3    3    0    0 -0.12209224702E+02  0.70513121126E+02 -0.33890058919E+03  0.35521084244E+03  0.78739874364E+02 0.  0.
      -24    2    3    3    0    0  0.12209224702E+02 -0.70513121126E+02 -0.82689570508E+02  0.13492897096E+03  0.79038577387E+02 0.  0.
      -13    1    4    4    0    0 -0.19269293996E+02  0.61960320520E+02 -0.12335569801E+03  0.13938082810E+03  0.00000000000E+00 0.  1.
       14    1    4    4    0    0  0.70600692941E+01  0.85528006065E+01 -0.21554489118E+03  0.21583001434E+03  0.00000000000E+00 0. -1.
        3    1    5    5  501    0  0.40725323502E+02 -0.35643291188E+02 -0.69313863996E+02  0.87939797152E+02  0.00000000000E+00 0. -1.
       -4    1    5    5    0  501 -0.28516098800E+02 -0.34869829938E+02 -0.13375706512E+02  0.46989173810E+02  0.00000000000E+00 0.  1.
</event>
<event>
 9   1  0.7570500E-01  0.2500001E+03  0.7546771E-02  0.1113305E+00
       21   -1    0    0  503  502  0.00000000000E+00  0.00000000000E+00  0.11030676881E+03  0.11030676881E+03  0.00000000000E+00 0. -1.
       21   -1    0    0  502  503 -0.00000000000E+00 -0.00000000000E+00 -0.14165057695E+03  0.14165057695E+03  0.00000000000E+00 0. -1.
       25    2    1    2    0    0  0.00000000000E+00 -0.14210854715E-13 -0.31343808145E+02  0.25195734576E+03  0.25000013955E+03 0.  0.
       24    2    3    3    0    0  0.46045654869E+02  0.70796458129E+02 -0.60429430423E+02  0.13150611915E+03  0.80683347085E+02 0.  0.
      -24    2    3    3    0    0 -0.46045654869E+02 -0.70796458129E+02  0.29085622278E+02  0.12045122661E+03  0.80809552360E+02 0.  0.
      -13    1    4    4    0    0  0.42001525528E+02 -0.26517430138E+01 -0.31036019876E+02  0.52291437324E+02  0.00000000000E+00 0.  1.
       14    1    4    4    0    0  0.40441293411E+01  0.73448201143E+02 -0.29393410547E+02  0.79214681826E+02  0.00000000000E+00 0. -1.
        1    1    5    5  501    0  0.69191272779E+01 -0.13554725724E+02 -0.22343268356E+02  0.27033803886E+02  0.00000000000E+00 0. -1.
       -2    1    5    5    0  501 -0.52964782147E+02 -0.57241732406E+02  0.51428890634E+02  0.93417422724E+02  0.00000000000E+00 0.  1.
</event>
<event>
 9   1  0.7570500E-01  0.2499975E+03  0.7546771E-02  0.1113306E+00
       21   -1    0    0  503  502  0.00000000000E+00  0.00000000000E+00  0.77976001884E+02  0.77976001884E+02  0.00000000000E+00 0. -1.
       21   -1    0    0  502  503 -0.00000000000E+00 -0.00000000000E+00 -0.20037816837E+03  0.20037816837E+03  0.00000000000E+00 0. -1.
       25    2    1    2    0    0 -0.71054273576E-14 -0.71054273576E-14 -0.12240216648E+03  0.27835417025E+03  0.24999750746E+03 0.  0.
       24    2    3    3    0    0  0.47059754960E+02  0.39370832165E+02  0.19611286757E+02  0.10392253342E+03  0.81551256410E+02 0.  0.
      -24    2    3    3    0    0 -0.47059754960E+02 -0.39370832165E+02 -0.14201345324E+03  0.17443163683E+03  0.80584688768E+02 0.  0.
      -13    1    4    4    0    0  0.75735253265E+01  0.51558385409E+02 -0.10028290582E+02  0.53067805719E+02  0.00000000000E+00 0.  1.
       14    1    4    4    0    0  0.39486229634E+02 -0.12187553244E+02  0.29639577339E+02  0.50854727702E+02  0.00000000000E+00 0. -1.
        1    1    5    5  501    0 -0.18528109391E+02 -0.22323968488E+01  0.56666647920E+01  0.19503474643E+02  0.00000000000E+00 0. -1.
       -2    1    5    5    0  501 -0.28531645570E+02 -0.37138435316E+02 -0.14768011803E+03  0.15492816219E+03  0.00000000000E+00 0.  1.
</event>
<event>
 9   1  0.7570500E-01  0.2499989E+03  0.7546771E-02  0.1113306E+00
       21   -1    0    0  503  502  0.00000000000E+00  0.00000000000E+00  0.21384193258E+02  0.21384193258E+02  0.00000000000E+00 0. -1.
       21   -1    0    0  502  503 -0.00000000000E+00 -0.00000000000E+00 -0.73067339874E+03  0.73067339874E+03  0.00000000000E+00 0. -1.
       25    2    1    2    0    0  0.00000000000E+00 -0.35527136788E-14 -0.70928920548E+03  0.75205759200E+03  0.24999888934E+03 0.  0.
       24    2    3    3    0    0  0.97888990466E+02 -0.24463948432E+02 -0.34498717725E+03  0.36845117192E+03  0.80989964781E+02 0.  0.
      -24    2    3    3    0    0 -0.97888990466E+02  0.24463948432E+02 -0.36430202823E+03  0.38360642008E+03  0.65247057586E+02 0.  0.
      -13    1    4    4    0    0  0.10776764712E+03 -0.21302468401E+02 -0.33926169207E+03  0.35660364080E+03  0.00000000000E+00 0.  1.
       14    1    4    4    0    0 -0.98786566493E+01 -0.31614800316E+01 -0.57254851849E+01  0.11847531126E+02  0.00000000000E+00 0. -1.
        1    1    5    5  501    0 -0.36742757302E+02  0.41169929506E+02 -0.13885782674E+03  0.14942051183E+03  0.00000000000E+00 0. -1.
       -2    1    5    5    0  501 -0.61146233165E+02 -0.16705981074E+02 -0.22544420149E+03  0.23418590824E+03  0.00000000000E+00 0.  1.
</event>
<event>
 9   1  0.7570500E-01  0.2500030E+03  0.7546771E-02  0.1113303E+00
       21   -1    0    0  503  502  0.00000000000E+00  0.00000000000E+00  0.41105042644E+02  0.41105042644E+02  0.00000000000E+00 0. -1.
       21   -1    0    0  502  503 -0.00000000000E+00 -0.00000000000E+00 -0.38013288319E+03  0.38013288319E+03  0.00000000000E+00 0. -1.
       25    2    1    2    0    0  0.00000000000E+00  0.00000000000E+00 -0.33902784055E+03  0.42123792584E+03  0.25000302697E+03 0.  0.
       24    2    3    3    0    0 -0.73304197308E+02  0.33292631717E+02 -0.72854367157E+02  0.13452176021E+03  0.79413100220E+02 0.  0.
      -24    2    3    3    0    0  0.73304197308E+02 -0.33292631717E+02 -0.26617347339E+03  0.28671616563E+03  0.69827910071E+02 0.  0.
      -13    1    4    4    0    0 -0.68126326098E+02  0.55394144169E+01 -0.80174855608E+02  0.10535601023E+03  0.00000000000E+00 0.  1.
       14    1    4    4    0    0 -0.51778712104E+01  0.27753217300E+02  0.73204884509E+01  0.29165749981E+02  0.00000000000E+00 0. -1.
        1    1    5    5  501    0  0.51478003597E+02  0.34277829364E+01 -0.20942851399E+03  0.21568967760E+03  0.00000000000E+00 0. -1.
       -2    1    5    5    0  501  0.21826193711E+02 -0.36720414654E+02 -0.56744959401E+02  0.71026488029E+02  0.00000000000E+00 0.  1.
</event>
<event>
 9   1  0.7570500E-01  0.2500248E+03  0.7546771E-02  0.1113289E+00
       21   -1    0    0  503  502  0.00000000000E+00  0.00000000000E+00  0.13943617119E+03  0.13943617119E+03  0.00000000000E+00 0. -1.
       21   -1    0    0  502  503 -0.00000000000E+00 -0.00000000000E+00 -0.11208068820E+03  0.11208068820E+03  0.00000000000E+00 0. -1.
       25    2    1    2    0    0 -0.71054273576E-14 -0.71054273576E-14  0.27355482990E+02  0.25151685939E+03  0.25002481498E+03 0.  0.
       24    2    3    3    0    0  0.36881519402E+02  0.53574506982E+02  0.84254879045E+02  0.13299899055E+03  0.79745674312E+02 0.  0.
      -24    2    3    3    0    0 -0.36881519402E+02 -0.53574506982E+02 -0.56899396056E+02  0.11851786884E+03  0.81107765915E+02 0.  0.
      -13    1    4    4    0    0  0.37006109526E+02  0.79347490997E+00  0.43971820993E+01  0.37274883703E+02  0.00000000000E+00 0.  1.
       14    1    4    4    0    0 -0.12459012372E+00  0.52781032072E+02  0.79857696946E+02  0.95724106843E+02  0.00000000000E+00 0. -1.
        1    1    5    5  501    0 -0.38654590191E+02  0.10337934853E+02 -0.20895091644E+02  0.45140393160E+02  0.00000000000E+00 0. -1.
       -2    1    5    5    0  501  0.17730707889E+01 -0.63912441835E+02 -0.36004304412E+02  0.73377475683E+02  0.00000000000E+00 0.  1.
</event>
<event>
 9   1  0.7570500E-01  0.2500087E+03  0.7546771E-02  0.1113299E+00
       21   -1    0    0  503  502  0.00000000000E+00  0.00000000000E+00  0.13541163579E+03  0.13541163579E+03  0.00000000000E+00 0.  1.
       21   -1    0    0  502  503 -0.00000000000E+00 -0.00000000000E+00 -0.11539691570E+03  0.11539691570E+03  0.00000000000E+00 0.  1.
       25    2    1    2    0    0 -0.71054273576E-14  0.14210854715E-13  0.20014720094E+02  0.25080855148E+03  0.25000868080E+03 0.  0.
       24    2    3    3    0    0 -0.37876266949E+02 -0.58754345679E+02  0.78761379698E+02  0.12897802909E+03  0.74466719567E+02 0.  0.
      -24    2    3    3    0    0  0.37876266949E+02  0.58754345679E+02 -0.58746659604E+02  0.12183052239E+03  0.80652473224E+02 0.  0.
      -13    1    4    4    0    0 -0.58020650359E+02 -0.57867441199E+02  0.64393711592E+02  0.10421893643E+03  0.00000000000E+00 0.  1.
       14    1    4    4    0    0  0.20144383410E+02 -0.88690447983E+00  0.14367668106E+02  0.24759092660E+02  0.00000000000E+00 0. -1.
        3    1    5    5  501    0  0.23545658396E+02  0.76411317387E+02 -0.30521377502E+02  0.85584122002E+02  0.00000000000E+00 0. -1.
       -4    1    5    5    0  501  0.14330608553E+02 -0.17656971708E+02 -0.28225282102E+02  0.36246400389E+02  0.00000000000E+00 0.  1.
</event>
<event>
 9   1  0.7570500E-01  0.2499820E+03  0.7546771E-02  0.1113316E+00
       21   -1    0    0  503  502  0.00000000000E+00  0.00000000000E+00  0.19301595036E+03  0.19301595036E+03  0.00000000000E+00 0.  1.
       21   -1    0    0  502  503 -0.00000000000E+00 -0.00000000000E+00 -0.80940175469E+02  0.80940175469E+02  0.00000000000E+00 0.  1.
       25    2    1    2    0    0  0.00000000000E+00  0.00000000000E+00  0.11207577489E+03  0.27395612583E+03  0.24998195847E+03 0.  0.
       24    2    3    3    0    0  0.27984734089E+02  0.84112865572E+02  0.22604355186E+02  0.12183484308E+03  0.80465226142E+02 0.  0.
      -24    2    3    3    0    0 -0.27984734089E+02 -0.84112865572E+02  0.89471419703E+02  0.15212128275E+03  0.85309027801E+02 0.  0.
      -13    1    4    4    0    0 -0.14930318353E+02  0.54957098266E+02 -0.13623529404E+02  0.58555935732E+02  0.00000000000E+00 0.  1.
       14    1    4    4    0    0  0.42915052441E+02  0.29155767306E+02  0.36227884590E+02  0.63278907348E+02  0.00000000000E+00 0. -1.
        3    1    5    5  501    0 -0.56123643709E+01 -0.52208454323E+02 -0.21546743452E+01  0.52553439071E+02  0.00000000000E+00 0. -1.
       -4    1    5    5    0  501 -0.22372369718E+02 -0.31904411249E+02  0.91626094048E+02  0.99567843677E+02  0.00000000000E+00 0.  1.
</event>
<event>
 9   1  0.7570500E-01  0.2500002E+03  0.7546771E-02  0.1113305E+00
       21   -1    0    0  503  502  0.00000000000E+00  0.00000000000E+00  0.94853415282E+02  0.94853415282E+02  0.00000000000E+00 0. -1.
       21   -1    0    0  502  503 -0.00000000000E+00 -0.00000000000E+00 -0.16472811401E+03  0.16472811401E+03  0.00000000000E+00 0. -1.
       25    2    1    2    0    0  0.00000000000E+00  0.35527136788E-14 -0.69874698729E+02  0.25958152929E+03  0.25000019365E+03 0.  0.
       24    2    3    3    0    0 -0.78493749395E+02  0.29861895938E+02 -0.82238746678E+02  0.14144454700E+03  0.78678757599E+02 0.  0.
      -24    2    3    3    0    0  0.78493749395E+02 -0.29861895938E+02  0.12364047949E+02  0.11813698229E+03  0.82161276651E+02 0.  0.
      -13    1    4    4    0    0 -0.17349410965E+02  0.13035494175E+02  0.14264215070E+02  0.25969097034E+02  0.00000000000E+00 0.  1.
       14    1    4    4    0    0 -0.61144338431E+02  0.16826401762E+02 -0.96502961747E+02  0.11547544996E+03  0.00000000000E+00 0. -1.
        1    1    5    5  501    0  0.30267878790E+02  0.21812378284E+02  0.26875447792E+02  0.45980583151E+02  0.00000000000E+00 0. -1.
       -2    1    5    5    0  501  0.48225870605E+02 -0.51674274222E+02 -0.14511399843E+02  0.72156399144E+02  0.00000000000E+00 0.  1.
</event>
<event>
 9   1  0.7570500E-01  0.2499997E+03  0.7546771E-02  0.1113305E+00
       21   -1    0    0  503  502  0.00000000000E+00  0.00000000000E+00  0.38474633623E+03  0.38474633623E+03  0.00000000000E+00 0. -1.
       21   -1    0    0  502  503 -0.00000000000E+00 -0.00000000000E+00 -0.40611070449E+02  0.40611070449E+02  0.00000000000E+00 0. -1.
       25    2    1    2    0    0  0.00000000000E+00 -0.35527136788E-14  0.34413526578E+03  0.42535740668E+03  0.24999968453E+03 0.  0.
       24    2    3    3    0    0 -0.58550526196E+02 -0.50427317418E+01  0.43690964502E+02  0.10857268487E+03  0.80159430261E+02 0.  0.
      -24    2    3    3    0    0  0.58550526196E+02  0.50427317418E+01  0.30044430128E+03  0.31678472181E+03  0.81438249854E+02 0.  0.
      -13    1    4    4    0    0 -0.63116646885E+02 -0.25073085343E+02  0.52873606656E+02  0.86069675284E+02  0.00000000000E+00 0.  1.
       14    1    4    4    0    0  0.45661206891E+01  0.20030353601E+02 -0.91826421544E+01  0.22503009587E+02  0.00000000000E+00 0. -1.
        3    1    5    5  501    0  0.29393984540E+02 -0.94002870198E+01  0.25813626590E+02  0.40233257895E+02  0.00000000000E+00 0. -1.
       -4    1    5    5    0  501  0.29156541656E+02  0.14443018762E+02  0.27463067469E+03  0.27655146391E+03  0.00000000000E+00 0.  1.
</event>
<event>
 9   1  0.7570500E-01  0.2499926E+03  0.7546771E-02  0.1113310E+00
       21   -1    0    0  503  502  0.00000000000E+00  0.00000000000E+00  0.14372002298E+02  0.14372002298E+02  0.00000000000E+00 0.  1.
       21   -1    0    0  502  503 -0.00000000000E+00 -0.00000000000E+00 -0.10871184580E+04  0.10871184580E+04  0.00000000000E+00 0.  1.
       25    2    1    2    0    0  0.35527136788E-14  0.00000000000E+00 -0.10727464557E+04  0.11014904603E+04  0.24999255170E+03 0.  0.
       24    2    3    3    0    0 -0.27763811009E+02 -0.82756092192E+02 -0.71256795361E+03  0.72240890780E+03  0.80635857787E+02 0.  0.
      -24    2    3    3    0    0  0.27763811009E+02  0.82756092192E+02 -0.36017850210E+03  0.37908155251E+03  0.79717438982E+02 0.  0.
      -13    1    4    4    0    0  0.20441520571E+02 -0.63847978932E+02 -0.39679918356E+03  0.40242267860E+03  0.00000000000E+00 0.  1.
       14    1    4    4    0    0 -0.48205331580E+02 -0.18908113260E+02 -0.31576877005E+03  0.31998622920E+03  0.00000000000E+00 0. -1.
        3    1    5    5  501    0  0.44337881019E+02  0.55180855672E+02 -0.31934479240E+03  0.32709611883E+03  0.00000000000E+00 0. -1.
       -4    1    5    5    0  501 -0.16574070010E+02  0.27575236520E+02 -0.40833709708E+02  0.51985433674E+02  0.00000000000E+00 0.  1.
</event>
<event>
 9   1  0.7570500E-01  0.2500001E+03  0.7546771E-02  0.1113305E+00
       21   -1    0    0  503  502  0.00000000000E+00  0.00000000000E+00  0.26444081599E+03  0.26444081599E+03  0.00000000000E+00 0.  1.
       21   -1    0    0  502  503 -0.00000000000E+00 -0.00000000000E+00 -0.59087004833E+02  0.59087004833E+02  0.00000000000E+00 0.  1.
       25    2    1    2    0    0  0.35527136788E-14  0.00000000000E+00  0.20535381116E+03  0.32352782082E+03  0.25000012618E+03 0.  0.
       24    2    3    3    0    0 -0.18926987092E+02  0.68625012473E+02  0.20048349626E+02  0.10905228809E+03  0.80142635581E+02 0.  0.
      -24    2    3    3    0    0  0.18926987092E+02 -0.68625012473E+02  0.18530546153E+03  0.21447553273E+03  0.81203552205E+02 0.  0.
      -13    1    4    4    0    0 -0.38478487900E+02  0.59667223211E+02  0.38455995302E+02  0.80744257576E+02  0.00000000000E+00 0.  1.
       14    1    4    4    0    0  0.19551500808E+02  0.89577892613E+01 -0.18407645676E+02  0.28308030515E+02  0.00000000000E+00 0. -1.
        1    1    5    5  501    0 -0.24668821770E+01 -0.14393431880E+02 -0.50038886225E+01  0.15436816068E+02  0.00000000000E+00 0. -1.
       -2    1    5    5    0  501  0.21393869269E+02 -0.54231580592E+02  0.19030935015E+03  0.19903871667E+03  0.00000000000E+00 0.  1.
</event>
<event>
 9   1  0.7570500E-01  0.2500001E+03  0.7546771E-02  0.1113305E+00
       21   -1    0    0  503  502  0.00000000000E+00  0.00000000000E+00  0.26725611266E+03  0.26725611266E+03  0.00000000000E+00 0.  1.
       21   -1    0    0  502  503 -0.00000000000E+00 -0.00000000000E+00 -0.58464544219E+02  0.58464544219E+02  0.00000000000E+00 0.  1.
       25    2    1    2    0    0  0.00000000000E+00  0.00000000000E+00  0.20879156844E+03  0.32572065688E+03  0.25000005453E+03 0.  0.
       24    2    3    3    0    0 -0.83449474516E+00 -0.87406259163E+02  0.11850626628E+03  0.17361674208E+03  0.91970035663E+02 0.  0.
      -24    2    3    3    0    0  0.83449474516E+00  0.87406259163E+02  0.90285302157E+02  0.15210391480E+03  0.85694892432E+02 0.  0.
      -13    1    4    4    0    0 -0.33662112064E+02 -0.81183637434E+01  0.11578412429E+02  0.36511713913E+02  0.00000000000E+00 0.  1.
       14    1    4    4    0    0  0.32827617319E+02 -0.79287895419E+02  0.10692785385E+03  0.13710502817E+03  0.00000000000E+00 0. -1.
        3    1    5    5  501    0 -0.29997967496E+02  0.81783665601E+02  0.82119684264E+02  0.11971670124E+03  0.00000000000E+00 0. -1.
       -4    1    5    5    0  501  0.30832462242E+02  0.56225935621E+01  0.81656178928E+01  0.32387213554E+02  0.00000000000E+00 0.  1.
</event>
<event>
 9   1  0.7570500E-01  0.2499964E+03  0.7546771E-02  0.1113307E+00
       21   -1    0    0  503  502  0.00000000000E+00  0.00000000000E+00  0.45240322467E+02  0.45240322467E+02  0.00000000000E+00 0. -1.
       21   -1    0    0  502  503 -0.00000000000E+00 -0.00000000000E+00 -0.34536781294E+03  0.34536781294E+03  0.00000000000E+00 0. -1.
       25    2    1    2    0    0 -0.71054273576E-14  0.00000000000E+00 -0.30012749047E+03  0.39060813541E+03  0.24999640979E+03 0.  0.
       24    2    3    3    0    0  0.46577818310E+02  0.77810877836E+02 -0.18614195776E+03  0.22389125986E+03  0.85173011791E+02 0.  0.
      -24    2    3    3    0    0 -0.46577818310E+02 -0.77810877836E+02 -0.11398553271E+03  0.16671687554E+03  0.81103569924E+02 0.  0.
      -13    1    4    4    0    0  0.31189614062E+02  0.38483022821E+02 -0.21641411636E+02  0.54056320337E+02  0.00000000000E+00 0.  1.
       14    1    4    4    0    0  0.15388204249E+02  0.39327855015E+02 -0.16450054612E+03  0.16983493953E+03  0.00000000000E+00 0. -1.
        1    1    5    5  501    0 -0.65428569185E+02 -0.40637490577E+02 -0.90637193701E+02  0.11894286102E+03  0.00000000000E+00 0. -1.
       -2    1    5    5    0  501  0.18850750874E+02 -0.37173387258E+02 -0.23348339013E+02  0.47774014521E+02  0.00000000000E+00 0.  1.
</event>
<event>
 9   1  0.7570500E-01  0.2500025E+03  0.7546771E-02  0.1113303E+00
       21   -1    0    0  503  502  0.00000000000E+00  0.00000000000E+00  0.86233199784E+03  0.86233199784E+03  0.00000000000E+00 0. -1.
       21   -1    0    0  502  503 -0.00000000000E+00 -0.00000000000E+00 -0.18119829161E+02  0.18119829161E+02  0.00000000000E+00 0. -1.
       25    2    1    2    0    0  0.00000000000E+00  0.00000000000E+00  0.84421216868E+03  0.88045182700E+03  0.25000246783E+03 0.  0.
       24    2    3    3    0    0 -0.52017837742E+02  0.20642410063E+02  0.70913425929E+03  0.71481426869E+03  0.70399406891E+02 0.  0.
      -24    2    3    3    0    0  0.52017837742E+02 -0.20642410063E+02  0.13507790939E+03  0.16563755831E+03  0.77831835267E+02 0.  0.
      -13    1    4    4    0    0 -0.86073695078E+01  0.40013322897E+02  0.39309378582E+03  0.39521877141E+03  0.00000000000E+00 0.  1.
       14    1    4    4    0    0 -0.43410468234E+02 -0.19370912833E+02  0.31604047346E+03  0.31959549728E+03  0.00000000000E+00 0. -1.
        3    1    5    5  501    0  0.47735997986E+02  0.10681114444E+02  0.33588534972E+02  0.59338026518E+02  0.00000000000E+00 0. -1.
       -4    1    5    5    0  501  0.42818397556E+01 -0.31323524507E+02  0.10148937442E+03  0.10629953180E+03  0.00000000000E+00 0.  1.
</event>
<event>
 9   1  0.7570500E-01  0.2499901E+03  0.7546771E-02  0.1113311E+00
       21   -1    0    0  503  502  0.00000000000E+00  0.00000000000E+00  0.96319241292E+02  0.96319241292E+02  0.00000000000E+00 0.  1.
       21   -1    0    0  502  503 -0.00000000000E+00 -0.00000000000E+00 -0.16220808101E+03  0.16220808101E+03  0.00000000000E+00 0.  1.
       25    2    1    2    0    0  0.14210854715E-13  0.00000000000E+00 -0.65888839715E+02  0.25852732230E+03  0.24999007415E+03 0.  0.
       24    2    3    3    0    0  0.61103095485E+02 -0.43421144889E+02  0.10528402572E+02  0.12412943917E+03  0.98378281684E+02 0.  0.
      -24    2    3    3    0    0 -0.61103095485E+02  0.43421144889E+02 -0.76417242287E+02  0.13439788313E+03  0.81266302788E+02 0.  0.
      -13    1    4    4    0    0  0.11891856865E+02  0.42188318100E+01 -0.38096171509E+02  0.40131447583E+02  0.00000000000E+00 0.  1.
       14    1    4    4    0    0  0.49211238620E+02 -0.47639976699E+02  0.48624574081E+02  0.83997991588E+02  0.00000000000E+00 0. -1.
        3    1    5    5  501    0 -0.31439488368E+02  0.19813996628E+02 -0.87363018488E+02  0.94938574303E+02  0.00000000000E+00 0. -1.
       -4    1    5    5    0  501 -0.29663607117E+02  0.23607148261E+02  0.10945776201E+02  0.39459308824E+02  0.00000000000E+00 0.  1.
</event>
<event>
 9   1  0.7570500E-01  0.2499974E+03  0.7546771E-02  0.1113306E+00
       21   -1    0    0  503  502  0.00000000000E+00  0.00000000000E+00  0.35505489963E+02  0.35505489963E+02  0.00000000000E+00 0.  1.
       21   -1    0    0  502  503 -0.00000000000E+00 -0.00000000000E+00 -0.44006355347E+03  0.44006355347E+03  0.00000000000E+00 0.  1.
       25    2    1    2    0    0  0.00000000000E+00 -0.14210854715E-13 -0.40455806351E+03  0.47556904344E+03  0.24999737663E+03 0.  0.
       24    2    3    3    0    0 -0.23804657564E+02 -0.73216581745E+02 -0.10063436513E+03  0.15167659809E+03  0.83373769261E+02 0.  0.
      -24    2    3    3    0    0  0.23804657564E+02  0.73216581745E+02 -0.30392369839E+03  0.32389244534E+03  0.81298045154E+02 0.  0.
      -13    1    4    4    0    0 -0.13636863796E+02 -0.45093554348E+02 -0.43771157558E+00  0.47112464267E+02  0.00000000000E+00 0.  1.
       14    1    4    4    0    0 -0.10167793768E+02 -0.28123027397E+02 -0.10019665355E+03  0.10456413383E+03  0.00000000000E+00 0. -1.
        3    1    5    5  501    0  0.26873492445E+02  0.82187694356E+02 -0.18089976444E+03  0.20050368194E+03  0.00000000000E+00 0. -1.
       -4    1    5    5    0  501 -0.30688348815E+01 -0.89711126106E+01 -0.12302393395E+03  0.12338876340E+03  0.00000000000E+00 0.  1.
</event>
<event>
 9   1  0.7570500E-01  0.2500328E+03  0.7546771E-02  0.1113284E+00
       21   -1    0    0  503  502  0.00000000000E+00  0.00000000000E+00  0.30180229973E+03  0.30180229973E+03  0.00000000000E+00 0. -1.
       21   -1    0    0  502  503 -0.00000000000E+00 -0.00000000000E+00 -0.51785906217E+02  0.51785906217E+02  0.00000000000E+00 0. -1.
       25    2    1    2    0    0  0.17763568394E-14 -0.14210854715E-13  0.25001639352E+03  0.35358820595E+03  0.25003284256E+03 0.  0.
       24    2    3    3    0    0  0.12723699298E+02  0.83347919350E+02  0.58182118882E+02  0.12963111390E+03  0.79437387609E+02 0.  0.
      -24    2    3    3    0    0 -0.12723699298E+02 -0.83347919350E+02  0.19183427463E+03  0.22395709205E+03  0.79041900091E+02 0.  0.
      -13    1    4    4    0    0  0.43586015070E+02  0.69385756214E+02  0.39879226010E+02  0.91128900697E+02  0.00000000000E+00 0.  1.
       14    1    4    4    0    0 -0.30862315772E+02  0.13962163136E+02  0.18302892873E+02  0.38502213206E+02  0.00000000000E+00 0. -1.
        3    1    5    5  501    0  0.15391156429E+02 -0.85848201892E+02  0.14933701981E+03  0.17294029880E+03  0.00000000000E+00 0. -1.
       -4    1    5    5    0  501 -0.28114855727E+02  0.25002825415E+01  0.42497254822E+02  0.51016793243E+02  0.00000000000E+00 0.  1.
</event>
<event>
 9   1  0.7570500E-01  0.2499967E+03  0.7546771E-02  0.1113307E+00
       21   -1    0    0  503  502  0.00000000000E+00  0.00000000000E+00  0.82473455053E+02  0.82473455053E+02  0.00000000000E+00 0.  1.
       21   -1    0    0  502  503 -0.00000000000E+00 -0.00000000000E+00 -0.18944995879E+03  0.18944995879E+03  0.00000000000E+00 0.  1.
       25    2    1    2    0    0  0.00000000000E+00 -0.35527136788E-14 -0.10697650373E+03  0.27192341384E+03  0.24999674126E+03 0.  0.
       24    2    3    3    0    0 -0.50477351839E+02 -0.44445720720E+01 -0.14010150545E+03  0.16921638486E+03  0.80237371625E+02 0.  0.
      -24    2    3    3    0    0  0.50477351839E+02  0.44445720720E+01  0.33125001717E+02  0.10270702898E+03  0.82968372249E+02 0.  0.
      -13    1    4    4    0    0  0.84835684593E+01  0.25961283939E+02 -0.54082674366E+02  0.60587910214E+02  0.00000000000E+00 0.  1.
       14    1    4    4    0    0 -0.58960920299E+02 -0.30405856011E+02 -0.86018831084E+02  0.10862847464E+03  0.00000000000E+00 0. -1.
        3    1    5    5  501    0  0.51883929561E+02  0.36998912552E+02  0.15180890703E+02  0.65508175973E+02  0.00000000000E+00 0. -1.
       -4    1    5    5    0  501 -0.14065777216E+01 -0.32554340480E+02  0.17944111014E+02  0.37198853008E+02  0.00000000000E+00 0.  1.
</event>
<event>
 9   1  0.7570500E-01  0.2499976E+03  0.7546771E-02  0.1113306E+00
       21   -1    0    0  503  502  0.00000000000E+00  0.00000000000E+00  0.42596990308E+02  0.42596990308E+02  0.00000000000E+00 0. -1.
       21   -1    0    0  502  503 -0.00000000000E+00 -0.00000000000E+00 -0.36680281725E+03  0.36680281725E+03  0.00000000000E+00 0. -1.
       25    2    1    2    0    0  0.00000000000E+00  0.14210854715E-13 -0.32420582694E+03  0.40939980756E+03  0.24999756840E+03 0.  0.
       24    2    3    3    0    0  0.67044598974E+02 -0.66101137774E+02 -0.20466285314E+03  0.23931929183E+03  0.80762004199E+02 0.  0.
      -24    2    3    3    0    0 -0.67044598974E+02  0.66101137774E+02 -0.11954297380E+03  0.17008051572E+03  0.75977105610E+02 0.  0.
      -13    1    4    4    0    0  0.80892234019E+01  0.13100953662E+02 -0.73788630092E+02  0.75377930808E+02  0.00000000000E+00 0.  1.
       14    1    4    4    0    0  0.58955375572E+02 -0.79202091436E+02 -0.13087422305E+03  0.16394136102E+03  0.00000000000E+00 0. -1.
        1    1    5    5  501    0 -0.58717211563E+02  0.12835237643E+02 -0.34250850133E+02  0.69177850457E+02  0.00000000000E+00 0. -1.
       -2    1    5    5    0  501 -0.83273874107E+01  0.53265900131E+02 -0.85292123671E+02  0.10090266527E+03  0.00000000000E+00 0.  1.
</event>
<event>
 9   1  0.7570500E-01  0.2500034E+03  0.7546771E-02  0.1113303E+00
       21   -1    0    0  503  502  0.00000000000E+00  0.00000000000E+00  0.18164528986E+03  0.18164528986E+03  0.00000000000E+00 0.  1.
       21   -1    0    0  502  503 -0.00000000000E+00 -0.00000000000E+00 -0.86021655990E+02  0.86021655990E+02  0.00000000000E+00 0.  1.
       25    2    1    2    0    0  0.00000000000E+00  0.14210854715E-13  0.95623633869E+02  0.26766694585E+03  0.25000342907E+03 0.  0.
       24    2    3    3    0    0  0.70173232692E+02  0.60985623266E+02  0.27085402272E+02  0.12541734636E+03  0.79701712148E+02 0.  0.
      -24    2    3    3    0    0 -0.70173232692E+02 -0.60985623266E+02  0.68538231598E+02  0.14224959949E+03  0.83029696697E+02 0.  0.
      -13    1    4    4    0    0  0.52289059416E+01  0.26871173208E+02 -0.23688143343E+02  0.36201236746E+02  0.00000000000E+00 0.  1.
       14    1    4    4    0    0  0.64944326750E+02  0.34114450058E+02  0.50773545614E+02  0.89216109610E+02  0.00000000000E+00 0. -1.
        1    1    5    5  501    0 -0.83439480662E+02 -0.47768295575E+02  0.75525010522E+02  0.12226194915E+03  0.00000000000E+00 0. -1.
       -2    1    5    5    0  501  0.13266247970E+02 -0.13217327691E+02 -0.69867789245E+01  0.19987650343E+02  0.00000000000E+00 0.  1.
</event>
<event>
 9   1  0.7570500E-01  0.2500018E+03  0.7546771E-02  0.1113304E+00
       21   -1    0    0  503  502  0.00000000000E+00  0.00000000000E+00  0.81701413326E+01  0.81701413326E+01  0.00000000000E+00 0.  1.
       21   -1    0    0  502  503 -0.00000000000E+00 -0.00000000000E+00 -0.19124789030E+04  0.19124789030E+04  0.00000000000E+00 0.  1.
       25    2    1    2    0    0  0.00000000000E+00  0.00000000000E+00 -0.19043087616E+04  0.19206490443E+04  0.25000178346E+03 0.  0.
       24    2    3    3    0    0 -0.37737430447E+01  0.80609213739E+02 -0.12748880087E+04  0.12799648026E+04  0.80364013231E+02 0.  0.
      -24    2    3    3    0    0  0.37737430447E+01 -0.80609213739E+02 -0.62942075293E+03  0.64068424172E+03  0.88282087063E+02 0.  0.
      -13    1    4    4    0    0 -0.46615124251E+01  0.20699526857E+02 -0.60740184417E+02  0.64339491086E+02  0.00000000000E+00 0.  1.
       14    1    4    4    0    0  0.88776938039E+00  0.59909686882E+02 -0.12141478243E+04  0.12156253115E+04  0.00000000000E+00 0. -1.
        3    1    5    5  501    0 -0.13277646567E+02 -0.48169103492E+02 -0.55963077568E+03  0.56185688883E+03  0.00000000000E+00 0. -1.
       -4    1    5    5    0  501  0.17051389612E+02 -0.32440110247E+02 -0.69789977248E+02  0.78827352897E+02  0.00000000000E+00 0.  1.
</event>
<event>
 9   1  0.7570500E-01  0.2500008E+03  0.7546771E-02  0.1113304E+00
       21   -1    0    0  503  502  0.00000000000E+00  0.00000000000E+00  0.87133016455E+03  0.87133016455E+03  0.00000000000E+00 0.  1.
       21   -1    0    0  502  503 -0.00000000000E+00 -0.00000000000E+00 -0.17932462627E+02  0.17932462627E+02  0.00000000000E+00 0.  1.
       25    2    1    2    0    0  0.14210854715E-13  0.00000000000E+00  0.85339770192E+03  0.88926262717E+03  0.25000076489E+03 0.  0.
       24    2    3    3    0    0 -0.35524998314E+02 -0.33922045059E+02  0.10346114978E+03  0.13266523367E+03  0.66956135388E+02 0.  0.
      -24    2    3    3    0    0  0.35524998314E+02  0.33922045059E+02  0.74993655214E+03  0.75659739350E+03  0.87304369683E+02 0.  0.
      -13    1    4    4    0    0 -0.54477460611E+02 -0.27796316246E+02  0.89262786095E+02  0.10820477759E+03  0.00000000000E+00 0.  1.
       14    1    4    4    0    0  0.18952462297E+02 -0.61257288127E+01  0.14198363684E+02  0.24460456086E+02  0.00000000000E+00 0. -1.
        1    1    5    5  501    0  0.26323775804E+02 -0.11179712495E+02  0.57485425608E+03  0.57556523772E+03  0.00000000000E+00 0. -1.
       -2    1    5    5    0  501  0.92012225096E+01  0.45101757554E+02  0.17508229606E+03  0.18103215578E+03  0.00000000000E+00 0.  1.
</event>
<event>
 9   1  0.7570500E-01  0.2499998E+03  0.7546771E-02  0.1113305E+00
       21   -1    0    0  503  502  0.00000000000E+00  0.00000000000E+00  0.15001647880E+03  0.15001647880E+03  0.00000000000E+00 0.  1.
       21   -1    0    0  502  503 -0.00000000000E+00 -0.00000000000E+00 -0.10415506094E+03  0.10415506094E+03  0.00000000000E+00 0.  1.
       25    2    1    2    0    0  0.00000000000E+00  0.00000000000E+00  0.45861417855E+02  0.25417153974E+03  0.24999980393E+03 0.  0.
       24    2    3    3    0    0  0.83933862481E+02 -0.89878112977E+01  0.67599266675E+02  0.13465658380E+03  0.80231294905E+02 0.  0.
      -24    2    3    3    0    0 -0.83933862481E+02  0.89878112977E+01 -0.21737848820E+02  0.11951495595E+03  0.81765619917E+02 0.  0.
      -13    1    4    4    0    0  0.87834203083E+02  0.93268857817E+01  0.73621297631E+02  0.11498666659E+03  0.00000000000E+00 0.  1.
       14    1    4    4    0    0 -0.39003406024E+01 -0.18314697079E+02 -0.60220309563E+01  0.19669917203E+02  0.00000000000E+00 0. -1.
        3    1    5    5  501    0 -0.20644876751E+02  0.26428149541E+02 -0.39196487504E+02  0.51585101113E+02  0.00000000000E+00 0. -1.
       -4    1    5    5    0  501 -0.63288985730E+02 -0.17440338243E+02  0.17458638684E+02  0.67929854832E+02  0.00000000000E+00 0.  1.
</event>
<event>
 9   1  0.7570500E-01  0.2500010E+03  0.7546771E-02  0.1113304E+00
       21   -1    0    0  503  502  0.00000000000E+00  0.00000000000E+00  0.19934860754E+04  0.19934860754E+04  0.00000000000E+00 0.  1.
       21   -1    0    0  502  503 -0.00000000000E+00 -0.00000000000E+00 -0.78380930813E+01  0.78380930813E+01  0.00000000000E+00 0.  1.
       25    2    1    2    0    0  0.14210854715E-13  0.00000000000E+00  0.19856479824E+04  0.20013241685E+04  0.25000103532E+03 0.  0.
       24    2    3    3    0    0 -0.72247427036E+02 -0.16575447700E+02  0.14638172855E+04  0.14680243366E+04  0.82704119624E+02 0.  0.
      -24    2    3    3    0    0  0.72247427036E+02  0.16575447700E+02  0.52183069689E+03  0.53329983193E+03  0.81283444451E+02 0.  0.
      -13    1    4    4    0    0 -0.25495145319E+02 -0.44559149465E+01  0.98205310136E+02  0.10155855725E+03  0.00000000000E+00 0.  1.
       14    1    4    4    0    0 -0.46752281716E+02 -0.12119532754E+02  0.13656119753E+04  0.13664657793E+04  0.00000000000E+00 0. -1.
        3    1    5    5  501    0 -0.58960996605E+01 -0.13842529331E+02  0.23094627024E+02  0.27563407026E+02  0.00000000000E+00 0. -1.
       -4    1    5    5    0  501  0.78143526696E+02  0.30417977031E+02  0.49873606987E+03  0.50573642491E+03  0.00000000000E+00 0.  1.
</event>
<event>
 9   1  0.7570500E-01  0.2499965E+03  0.7546771E-02  0.1113307E+00
       21   -1    0    0  503  502  0.00000000000E+00  0.00000000000E+00  0.30732731615E+03  0.30732731615E+03  0.00000000000E+00 0.  1.
       21   -1    0    0  502  503 -0.00000000000E+00 -0.00000000000E+00 -0.50840117420E+02  0.50840117420E+02  0.00000000000E+00 0.  1.
       25    2    1    2    0    0  0.71054273576E-14  0.17763568394E-14  0.25648719873E+03  0.35816743357E+03  0.24999645469E+03 0.  0.
       24    2    3    3    0    0  0.45772099079E+02 -0.15171016858E+02  0.24585529957E+03  0.26299748975E+03  0.79985039104E+02 0.  0.
      -24    2    3    3    0    0 -0.45772099079E+02  0.15171016858E+02  0.10631899158E+02  0.95169943821E+02  0.81357458912E+02 0.  0.
      -13    1    4    4    0    0  0.38438677078E+02 -0.46862692827E+02  0.16907581071E+03  0.17961145186E+03  0.00000000000E+00 0.  1.
       14    1    4    4    0    0  0.73334220009E+01  0.31691675969E+02  0.76779488866E+02  0.83386037887E+02  0.00000000000E+00 0. -1.
        3    1    5    5  501    0 -0.97863135698E+01 -0.12536150597E+02 -0.30177697279E+02  0.34111880894E+02  0.00000000000E+00 0. -1.
       -4    1    5    5    0  501 -0.35985785509E+02  0.27707167455E+02  0.40809596437E+02  0.61058062927E+02  0.00000000000E+00 0.  1.
</event>
<event>
 9   1  0.7570500E-01  0.2500017E+03  0.7546771E-02  0.1113304E+00
       21   -1    0    0  503  502  0.00000000000E+00  0.00000000000E+00  0.50288352321E+02  0.50288352321E+02  0.00000000000E+00 0. -1.
       21   -1    0    0  502  503 -0.00000000000E+00 -0.00000000000E+00 -0.31071247427E+03  0.31071247427E+03  0.00000000000E+00 0. -1.
       25    2    1    2    0    0  0.00000000000E+00 -0.14210854715E-13 -0.26042412195E+03  0.36100082659E+03  0.25000174701E+03 0.  0.
       24    2    3    3    0    0 -0.23679809818E+02  0.80440115866E+02 -0.66472731985E+02  0.13462872981E+03  0.81700215170E+02 0.  0.
      -24    2    3    3    0    0  0.23679809818E+02 -0.80440115866E+02 -0.19395138997E+03  0.22637209679E+03  0.81214770204E+02 0.  0.
      -13    1    4    4    0    0 -0.40460267153E+02  0.88826389639E+02 -0.60946600533E+02  0.11507236345E+03  0.00000000000E+00 0.  1.
       14    1    4    4    0    0  0.16780457335E+02 -0.83862737731E+01 -0.55261314516E+01  0.19556366354E+02  0.00000000000E+00 0. -1.
        1    1    5    5  501    0  0.51881848207E+01 -0.86319949085E+02 -0.18652461749E+03  0.20559543721E+03  0.00000000000E+00 0. -1.
       -2    1    5    5    0  501  0.18491624997E+02  0.58798332194E+01 -0.74267724791E+01  0.20776659577E+02  0.00000000000E+00 0.  1.
</event>
<event>
 9   1  0.7570500E-01  0.2499951E+03  0.7546771E-02  0.1113308E+00
       21   -1    0    0  503  502  0.00000000000E+00  0.00000000000E+00  0.12354665006E+03  0.12354665006E+03  0.00000000000E+00 0. -1.
       21   -1    0    0  502  503 -0.00000000000E+00 -0.00000000000E+00 -0.12646544720E+03  0.12646544720E+03  0.00000000000E+00 0. -1.
       25    2    1    2    0    0  0.35527136788E-14  0.00000000000E+00 -0.29187971340E+01  0.25001209726E+03  0.24999505875E+03 0.  0.
       24    2    3    3    0    0  0.20419222386E+02  0.81539599826E+02 -0.44611215977E+02  0.12548593565E+03  0.81797973525E+02 0.  0.
      -24    2    3    3    0    0 -0.20419222386E+02 -0.81539599826E+02  0.41692418843E+02  0.12452616161E+03  0.81870972596E+02 0.  0.
      -13    1    4    4    0    0  0.28812262483E+02  0.36425397444E+02 -0.61080363423E+02  0.76731785097E+02  0.00000000000E+00 0.  1.
       14    1    4    4    0    0 -0.83930400970E+01  0.45114202382E+02  0.16469147446E+02  0.48754150554E+02  0.00000000000E+00 0. -1.
        3    1    5    5  501    0 -0.34553806712E+02 -0.89378054173E+02  0.20704423046E+02  0.98036091618E+02  0.00000000000E+00 0. -1.
       -4    1    5    5    0  501  0.14134584327E+02  0.78384543470E+01  0.20987995797E+02  0.26490069992E+02  0.00000000000E+00 0.  1.
</event>
<event>
 9   1  0.7570500E-01  0.2499964E+03  0.7546771E-02  0.1113307E+00
       21   -1    0    0  503  502  0.00000000000E+00  0.00000000000E+00  0.18851085344E+03  0.18851085344E+03  0.00000000000E+00 0. -1.
       21   -1    0    0  502  503 -0.00000000000E+00 -0.00000000000E+00 -0.82884069013E+02  0.82884069013E+02  0.00000000000E+00 0. -1.
       25    2    1    2    0    0  0.35527136788E-14  0.00000000000E+00  0.10562678443E+03  0.27139492245E+03  0.24999637266E+03 0.  0.
       24    2    3    3    0    0 -0.12262906679E+02  0.68980022848E+02  0.12393788389E+03  0.16351272041E+03  0.80418830144E+02 0.  0.
      -24    2    3    3    0    0  0.12262906679E+02 -0.68980022848E+02 -0.18311099457E+02  0.10788220204E+03  0.79966560025E+02 0.  0.
      -13    1    4    4    0    0  0.12017246293E+02  0.74474721838E+02  0.65169942362E+02  0.99689617257E+02  0.00000000000E+00 0.  1.
       14    1    4    4    0    0 -0.24280152972E+02 -0.54946989899E+01  0.58767941523E+02  0.63823103154E+02  0.00000000000E+00 0. -1.
        3    1    5    5  501    0  0.20707196207E+02 -0.61094588961E+02  0.20262193364E+02  0.67615776672E+02  0.00000000000E+00 0. -1.
       -4    1    5    5    0  501 -0.84442895278E+01 -0.78854338867E+01 -0.38573292821E+02  0.40266425372E+02  0.00000000000E+00 0.  1.
</event>
<event>
 9   1  0.7570500E-01  0.2500022E+03  0.7546771E-02  0.1113303E+00
       21   -1    0    0  503  502  0.00000000000E+00  0.00000000000E+00  0.34574770084E+02  0.34574770084E+02  0.00000000000E+00 0. -1.
       21   -1    0    0  502  503 -0.00000000000E+00 -0.00000000000E+00 -0.45192694288E+03  0.45192694288E+03  0.00000000000E+00 0. -1.
       25    2    1    2    0    0  0.00000000000E+00  0.00000000000E+00 -0.41735217279E+03  0.48650171296E+03  0.25000216115E+03 0.  0.
       24    2    3    3    0    0  0.32340216879E+02 -0.78316686696E+02 -0.12768794809E+03  0.17427367321E+03  0.82992216753E+02 0.  0.
      -24    2    3    3    0    0 -0.32340216879E+02  0.78316686696E+02 -0.28966422470E+03  0.31222803976E+03  0.80009953728E+02 0.  0.
      -13    1    4    4    0    0  0.23619672272E+01 -0.44819029640E+02 -0.12070806516E+03  0.12878183607E+03  0.00000000000E+00 0.  1.
       14    1    4    4    0    0  0.29978249652E+02 -0.33497657056E+02 -0.69798829366E+01  0.45491837138E+02  0.00000000000E+00 0. -1.
        1    1    5    5  501    0 -0.97128002669E+01  0.46641129028E+02 -0.48656898709E+02  0.68097189355E+02  0.00000000000E+00 0. -1.
       -2    1    5    5    0  501 -0.22627416612E+02  0.31675557668E+02 -0.24100732599E+03  0.24413085040E+03  0.00000000000E+00 0.  1.
</event>
<event>
 9   1  0.7570500E-01  0.2499912E+03  0.7546771E-02  0.1113310E+00
       21   -1    0    0  503  502  0.00000000000E+00  0.00000000000E+00  0.12656646040E+02  0.12656646040E+02  0.00000000000E+00 0.  1.
       21   -1    0    0  502  503 -0.00000000000E+00 -0.00000000000E+00 -0.12344422961E+04  0.12344422961E+04  0.00000000000E+00 0.  1.
       25    2    1    2    0    0 -0.71054273576E-14  0.00000000000E+00 -0.12217856501E+04  0.12470989422E+04  0.24999119344E+03 0.  0.
       24    2    3    3    0    0  0.34914141829E+02 -0.83575524171E+02 -0.46082219346E+03  0.47656020136E+03  0.80923828340E+02 0.  0.
      -24    2    3    3    0    0 -0.34914141829E+02  0.83575524171E+02 -0.76096345663E+03  0.77053874082E+03  0.80378499773E+02 0.  0.
      -13    1    4    4    0    0  0.22510305306E+01 -0.59685605557E+02 -0.12757026889E+03  0.14086025754E+03  0.00000000000E+00 0.  1.
       14    1    4    4    0    0  0.32663111298E+02 -0.23889918614E+02 -0.33325192457E+03  0.33569994382E+03  0.00000000000E+00 0. -1.
        1    1    5    5  501    0 -0.15176684819E+02  0.95496225830E+01 -0.25945059870E+02  0.31538439803E+02  0.00000000000E+00 0. -1.
       -2    1    5    5    0  501 -0.19737457010E+02  0.74025901588E+02 -0.73501839676E+03  0.73900030101E+03  0.00000000000E+00 0.  1.
</event>
<event>
 9   1  0.7570500E-01  0.2500013E+03  0.7546771E-02  0.1113304E+00
       21   -1    0    0  503  502  0.00000000000E+00  0.00000000000E+00  0.75198496154E+03  0.75198496154E+03  0.00000000000E+00 0.  1.
       21   -1    0    0  502  503 -0.00000000000E+00 -0.00000000000E+00 -0.20778553581E+02  0.20778553581E+02  0.00000000000E+00 0.  1.
       25    2    1    2    0    0  0.00000000000E+00  0.71054273576E-14  0.73120640796E+03  0.77276351512E+03  0.25000127852E+03 0.  0.
       24    2    3    3    0    0  0.88385724777E+02  0.33410126546E+02  0.31486491684E+03  0.33863310578E+03  0.81266177310E+02 0.  0.
      -24    2    3    3    0    0 -0.88385724777E+02 -0.33410126546E+02  0.41634149112E+03  0.43413040934E+03  0.78744537493E+02 0.  0.
      -13    1    4    4    0    0  0.13024698372E+02 -0.13006603335E+00 -0.12051172844E+00  0.13025905263E+02  0.00000000000E+00 0.  1.
       14    1    4    4    0    0  0.75361026405E+02  0.33540192580E+02  0.31498542857E+03  0.32560720052E+03  0.00000000000E+00 0. -1.
        1    1    5    5  501    0 -0.19535812428E+02 -0.39154105735E+02  0.25334513626E+03  0.25709618828E+03  0.00000000000E+00 0. -1.
       -2    1    5    5    0  501 -0.68849912348E+02  0.57439791887E+01  0.16299635486E+03  0.17703422105E+03  0.00000000000E+00 0.  1.
</event>
<event>
 9   1  0.7570500E-01  0.2499975E+03  0.7546771E-02  0.1113306E+00
       21   -1    0    0  503  502  0.00000000000E+00  0.00000000000E+00  0.32623100135E+03  0.32623100135E+03  0.00000000000E+00 0. -1.
       21   -1    0    0  502  503 -0.00000000000E+00 -0.00000000000E+00 -0.47894556254E+02  0.47894556254E+02  0.00000000000E+00 0. -1.
       25    2    1    2    0    0  0.00000000000E+00  0.00000000000E+00  0.27833644509E+03  0.37412555760E+03  0.24999751235E+03 0.  0.
       24    2    3    3    0    0  0.86007410873E+02 -0.22315217512E+02  0.99226968440E+02  0.15719067869E+03  0.83472597569E+02 0.  0.
      -24    2    3    3    0    0 -0.86007410873E+02  0.22315217512E+02  0.17910947665E+03  0.21693487891E+03  0.84174184887E+02 0.  0.
      -13    1    4    4    0    0  0.64644152795E+02 -0.56372251335E+01  0.11025306602E+03  0.12793116651E+03  0.00000000000E+00 0.  1.
       14    1    4    4    0    0  0.21363258078E+02 -0.16677992379E+02 -0.11026097579E+02  0.29259512185E+02  0.00000000000E+00 0. -1.
        1    1    5    5  501    0 -0.11884258936E+02 -0.31913178529E+00  0.11703796734E+03  0.11764022804E+03  0.00000000000E+00 0. -1.
       -2    1    5    5    0  501 -0.74123151937E+02  0.22634349297E+02  0.62071509314E+02  0.99294650862E+02  0.00000000000E+00 0.  1.
</event>
<event>
 9   1  0.7570500E-01  0.2500000E+03  0.7546771E-02  0.1113305E+00
       21   -1    0    0  503  502  0.00000000000E+00  0.00000000000E+00  0.49859796237E+02  0.49859796237E+02  0.00000000000E+00 0.  1.
       21   -1    0    0  502  503 -0.00000000000E+00 -0.00000000000E+00 -0.31337870478E+03  0.31337870478E+03  0.00000000000E+00 0.  1.
       25    2    1    2    0    0  0.71054273576E-14  0.00000000000E+00 -0.26351890854E+03  0.36323850101E+03  0.24999998692E+03 0.  0.
       24    2    3    3    0    0 -0.53422950949E+02  0.75086782565E+02 -0.16820465717E+03  0.20814256104E+03  0.80860883099E+02 0.  0.
      -24    2    3    3    0    0  0.53422950949E+02 -0.75086782565E+02 -0.95314251365E+02  0.15509593998E+03  0.80485448872E+02 0.  0.
      -13    1    4    4    0    0 -0.61872206646E+02  0.20018217190E+02 -0.72408727829E+02  0.97323804080E+02  0.00000000000E+00 0.  1.
       14    1    4    4    0    0  0.84492556970E+01  0.55068565375E+02 -0.95795929345E+02  0.11081875696E+03  0.00000000000E+00 0. -1.
        1    1    5    5  501    0  0.73827808512E+01  0.10146136334E+02 -0.43424392036E+02  0.45200966353E+02  0.00000000000E+00 0. -1.
       -2    1    5    5    0  501  0.46040170098E+02 -0.85232918899E+02 -0.51889859329E+02  0.10989497362E+03  0.00000000000E+00 0.  1.
</event>
<event>
 9   1  0.7570500E-01  0.2499893E+03  0.7546771E-02  0.1113312E+00
       21   -1    0    0  503  502  0.00000000000E+00  0.00000000000E+00  0.93442745953E+03  0.93442745953E+03  0.00000000000E+00 0.  1.
       21   -1    0    0  502  503 -0.00000000000E+00 -0.00000000000E+00 -0.16720032672E+02  0.16720032672E+02  0.00000000000E+00 0.  1.
       25    2    1    2    0    0  0.00000000000E+00  0.00000000000E+00  0.91770742686E+03  0.95114749220E+03  0.24998926099E+03 0.  0.
       24    2    3    3    0    0 -0.59343451940E+02  0.68133781857E+02  0.58813898656E+03  0.60028668096E+03  0.79200847914E+02 0.  0.
      -24    2    3    3    0    0  0.59343451940E+02 -0.68133781857E+02  0.32956844030E+03  0.35086081124E+03  0.79524175601E+02 0.  0.
      -13    1    4    4    0    0 -0.37805439627E+02  0.55151305540E+02  0.55326608288E+03  0.55729191295E+03  0.00000000000E+00 0.  1.
       14    1    4    4    0    0 -0.21538012313E+02  0.12982476316E+02  0.34872903674E+02  0.42994768012E+02  0.00000000000E+00 0. -1.
        3    1    5    5  501    0  0.55464254393E+02 -0.55800665332E+02  0.32860923630E+03  0.33789647519E+03  0.00000000000E+00 0. -1.
       -4    1    5    5    0  501  0.38791975474E+01 -0.12333116525E+02  0.95920399925E+00  0.12964336047E+02  0.00000000000E+00 0.  1.
</event>
<event>
 9   1  0.7570500E-01  0.2499819E+03  0.7546771E-02  0.1113316E+00
       21   -1    0    0  503  502  0.00000000000E+00  0.00000000000E+00  0.60059953219E+02  0.60059953219E+02  0.00000000000E+00 0. -1.
       21   -1    0    0  502  503 -0.00000000000E+00 -0.00000000000E+00 -0.26011906955E+03  0.26011906955E+03  0.00000000000E+00 0. -1.
       25    2    1    2    0    0  0.71054273576E-14 -0.14210854715E-13 -0.20005911634E+03  0.32017902277E+03  0.24998191254E+03 0.  0.
       24    2    3    3    0    0  0.61997975004E+02 -0.71780473392E+02 -0.85738283393E+02  0.15131411911E+03  0.80924187594E+02 0.  0.
      -24    2    3    3    0    0 -0.61997975004E+02  0.71780473392E+02 -0.11432083294E+03  0.16886490366E+03  0.80311378892E+02 0.  0.
      -13    1    4    4    0    0  0.63378463451E+02 -0.54359540270E+02 -0.98902366090E+02  0.12943518558E+03  0.00000000000E+00 0.  1.
       14    1    4    4    0    0 -0.13804884469E+01 -0.17420933122E+02  0.13164082697E+02  0.21878933531E+02  0.00000000000E+00 0. -1.
        1    1    5    5  501    0  0.48466529071E+01  0.55199163102E+02 -0.50775962650E+02  0.75157408381E+02  0.00000000000E+00 0. -1.
       -2    1    5    5    0  501 -0.66844627911E+02  0.16581310290E+02 -0.63544870292E+02  0.93707495282E+02  0.00000000000E+00 0.  1.
</event>
<event>
 9   1  0.7570500E-01  0.2500014E+03  0.7546771E-02  0.1113304E+00
       21   -1    0    0  503  502  0.00000000000E+00  0.00000000000E+00  0.66600126457E+03  0.66600126457E+03  0.00000000000E+00 0. -1.
       21   -1    0    0  502  503 -0.00000000000E+00 -0.00000000000E+00 -0.23461183332E+02  0.23461183332E+02  0.00000000000E+00 0. -1.
       25    2    1    2    0    0 -0.14210854715E-13 -0.71054273576E-14  0.64254008123E+03  0.68946244790E+03  0.25000142213E+03 0.  0.
       24    2    3    3    0    0  0.53430215360E+02  0.59369506583E+02  0.18117475194E+03  0.21421814330E+03  0.81765493661E+02 0.  0.
      -24    2    3    3    0    0 -0.53430215360E+02 -0.59369506583E+02  0.46136532929E+03  0.47524430459E+03  0.81361266901E+02 0.  0.
      -13    1    4    4    0    0  0.11650195455E+01  0.60934456476E+02  0.11195356396E+03  0.12746750857E+03  0.00000000000E+00 0.  1.
       14    1    4    4    0    0  0.52265195814E+02 -0.15649498932E+01  0.69221187979E+02  0.86750634734E+02  0.00000000000E+00 0. -1.
        3    1    5    5  501    0 -0.80407973012E+01 -0.30370284983E+02  0.35134530120E+03  0.35274711807E+03  0.00000000000E+00 0. -1.
       -4    1    5    5    0  501 -0.45389418058E+02 -0.28999221601E+02  0.11002002809E+03  0.12249718652E+03  0.00000000000E+00 0.  1.
</event>
<event>
 9   1  0.7570500E-01  0.2500007E+03  0.7546771E-02  0.1113304E+00
       21   -1    0    0  503  502  0.00000000000E+00  0.00000000000E+00  0.32357802319E+04  0.32357802319E+04  0.00000000000E+00 0.  1.
       21   -1    0    0  502  503 -0.00000000000E+00 -0.00000000000E+00 -0.48288473131E+01  0.48288473131E+01  0.00000000000E+00 0.  1.
       25    2    1    2    0    0 -0.35527136788E-14  0.35527136788E-14  0.32309513846E+04  0.32406090792E+04  0.25000070943E+03 0.  0.
       24    2    3    3    0    0 -0.31650290858E+02 -0.18970818441E+02  0.46124422334E+03  0.46947314565E+03  0.79354697755E+02 0.  0.
      -24    2    3    3    0    0  0.31650290858E+02  0.18970818441E+02  0.27697071613E+04  0.27711359336E+04  0.80962771526E+02 0.  0.
      -13    1    4    4    0    0  0.23950208687E+02 -0.37715411800E+01  0.22483525159E+03  0.22613873480E+03  0.00000000000E+00 0.  1.
       14    1    4    4    0    0 -0.55600499545E+02 -0.15199277261E+02  0.23640897175E+03  0.24333441085E+03  0.00000000000E+00 0. -1.
        3    1    5    5  501    0 -0.16219147167E+02  0.34419648919E+02  0.10331229308E+04  0.10338233713E+04  0.00000000000E+00 0. -1.
       -4    1    5    5    0  501  0.47869438025E+02 -0.15448830477E+02  0.17365842305E+04  0.17373125623E+04  0.00000000000E+00 0.  1.
</event>
<event>
 9   1  0.7570500E-01  0.2499994E+03  0.7546771E-02  0.1113305E+00
       21   -1    0    0  503  502  0.00000000000E+00  0.00000000000E+00  0.15331753431E+03  0.15331753431E+03  0.00000000000E+00 0.  1.
       21   -1    0    0  502  503 -0.00000000000E+00 -0.00000000000E+00 -0.10191221269E+03  0.10191221269E+03  0.00000000000E+00 0.  1.
       25    2    1    2    0    0  0.14210854715E-13  0.00000000000E+00  0.51405321620E+02  0.25522974699E+03  0.24999943331E+03 0.  0.
       24    2    3    3    0    0 -0.69972674210E+02 -0.45302771602E+02 -0.22794515479E+02  0.11821919600E+03  0.80670143894E+02 0.  0.
      -24    2    3    3    0    0  0.69972674210E+02  0.45302771602E+02  0.74199837099E+02  0.13701055099E+03  0.79484331829E+02 0.  0.
      -13    1    4    4    0    0 -0.56346151629E+01 -0.49997015516E+02 -0.16765871436E+01  0.50341448062E+02  0.00000000000E+00 0.  1.
       14    1    4    4    0    0 -0.64338059047E+02  0.46942439144E+01 -0.21117928336E+02  0.67877747937E+02  0.00000000000E+00 0. -1.
        3    1    5    5  501    0  0.73650313083E+02  0.62052948269E+01  0.60180772327E+02  0.95313166242E+02  0.00000000000E+00 0. -1.
       -4    1    5    5    0  501 -0.36776388730E+01  0.39097476775E+02  0.14019064772E+02  0.41697384749E+02  0.00000000000E+00 0.  1.
</event>
<event>
 9   1  0.7570500E-01  0.2499989E+03  0.7546771E-02  0.1113306E+00
       21   -1    0    0  503  502  0.00000000000E+00  0.00000000000E+00  0.10724952753E+03  0.10724952753E+03  0.00000000000E+00 0.  1.
       21   -1    0    0  502  503 -0.00000000000E+00 -0.00000000000E+00 -0.14568701040E+03  0.14568701040E+03  0.00000000000E+00 0.  1.
       25    2    1    2    0    0 -0.35527136788E-14  0.00000000000E+00 -0.38437482874E+02  0.25293653793E+03  0.24999890426E+03 0.  0.
       24    2    3    3    0    0  0.95021584442E+01  0.89498062382E+01 -0.11785885701E+03  0.14016713524E+03  0.74737711882E+02 0.  0.
      -24    2    3    3    0    0 -0.95021584442E+01 -0.89498062382E+01  0.79421374139E+02  0.11276940269E+03  0.78986033360E+02 0.  0.
      -13    1    4    4    0    0 -0.24859160153E+02 -0.41310769258E+01 -0.11627731315E+02  0.27753338098E+02  0.00000000000E+00 0.  1.
       14    1    4    4    0    0  0.34361318597E+02  0.13080883164E+02 -0.10623112570E+03  0.11241379714E+03  0.00000000000E+00 0. -1.
        3    1    5    5  501    0 -0.39531122054E+02 -0.23845887472E+02  0.51303660878E+02  0.69017400557E+02  0.00000000000E+00 0. -1.
       -4    1    5    5    0  501  0.30028963609E+02  0.14896081233E+02  0.28117713262E+02  0.43752002133E+02  0.00000000000E+00 0.  1.
</event>
<event>
 9   1  0.7570500E-01  0.2500058E+03  0.7546771E-02  0.1113301E+00
       21   -1    0    0  503  502  0.00000000000E+00  0.00000000000E+00  0.52675795146E+02  0.52675795146E+02  0.00000000000E+00 0. -1.
       21   -1    0    0  502  503 -0.00000000000E+00 -0.00000000000E+00 -0.29663962348E+03  0.29663962348E+03  0.00000000000E+00 0. -1.
       25    2    1    2    0    0 -0.35527136788E-14  0.00000000000E+00 -0.24396382833E+03  0.34931541862E+03  0.25000582424E+03 0.  0.
       24    2    3    3    0    0  0.15373724840E+02  0.68223917043E+02 -0.33427646418E+02  0.11315491549E+03  0.82436479069E+02 0.  0.
      -24    2    3    3    0    0 -0.15373724840E+02 -0.68223917043E+02 -0.21053618191E+03  0.23616050314E+03  0.80965703082E+02 0.  0.
      -13    1    4    4    0    0 -0.21509070017E+02  0.60992386112E+02 -0.38442885218E+02  0.75236737572E+02  0.00000000000E+00 0.  1.
       14    1    4    4    0    0  0.36882794857E+02  0.72315309310E+01  0.50152387999E+01  0.37918177913E+02  0.00000000000E+00 0. -1.
        1    1    5    5  501    0 -0.26182489520E+01 -0.75774791407E+02 -0.10458241818E+03  0.12917490635E+03  0.00000000000E+00 0. -1.
       -2    1    5    5    0  501 -0.12755475888E+02  0.75508743643E+01 -0.10595376374E+03  0.10698559678E+03  0.00000000000E+00 0.  1.
</event>
<event>
 9   1  0.7570500E-01  0.2500004E+03  0.7546771E-02  0.1113305E+00
       21   -1    0    0  503  502  0.00000000000E+00  0.00000000000E+00  0.11718417006E+02  0.11718417006E+02  0.00000000000E+00 0. -1.
       21   -1    0    0  502  503 -0.00000000000E+00 -0.00000000000E+00 -0.13333751938E+04  0.13333751938E+04  0.00000000000E+00 0. -1.
       25    2    1    2    0    0 -0.71054273576E-14  0.71054273576E-14 -0.13216567768E+04  0.13450936108E+04  0.25000037237E+03 0.  0.
       24    2    3    3    0    0 -0.10241097714E+02  0.47029182584E+02 -0.10999084736E+04  0.11038445696E+04  0.79734305074E+02 0.  0.
      -24    2    3    3    0    0  0.10241097714E+02 -0.47029182584E+02 -0.22174830311E+03  0.24124904114E+03  0.81927808595E+02 0.  0.
      -13    1    4    4    0    0 -0.31469995723E+02 -0.36491960474E+01 -0.61846870292E+03  0.61927959255E+03  0.00000000000E+00 0.  1.
       14    1    4    4    0    0  0.21228898009E+02  0.50678378631E+02 -0.48143977073E+03  0.48456497708E+03  0.00000000000E+00 0. -1.
        3    1    5    5  501    0 -0.35107433322E+02 -0.27992538577E+02 -0.89050301634E+02  0.99729987022E+02  0.00000000000E+00 0. -1.
       -4    1    5    5    0  501  0.45348531036E+02 -0.19036644007E+02 -0.13269800148E+03  0.14151905412E+03  0.00000000000E+00 0.  1.
</event>
<event>
 9   1  0.7570500E-01  0.2499951E+03  0.7546771E-02  0.1113308E+00
       21   -1    0    0  503  502  0.00000000000E+00  0.00000000000E+00  0.54804888273E+02  0.54804888273E+02  0.00000000000E+00 0. -1.
       21   -1    0    0  502  503 -0.00000000000E+00 -0.00000000000E+00 -0.28509118442E+03  0.28509118442E+03  0.00000000000E+00 0. -1.
       25    2    1    2    0    0  0.14210854715E-13  0.00000000000E+00 -0.23028629615E+03  0.33989607270E+03  0.24999512403E+03 0.  0.
       24    2    3    3    0    0  0.61187070263E+02 -0.71054732231E+02 -0.13887179263E+03  0.18586274888E+03  0.80417374319E+02 0.  0.
      -24    2    3    3    0    0 -0.61187070263E+02  0.71054732231E+02 -0.91414503518E+02  0.15403332382E+03  0.81098833857E+02 0.  0.
      -13    1    4    4    0    0  0.37099226349E+02 -0.20122962148E+02 -0.11876571980E+03  0.12604198666E+03  0.00000000000E+00 0.  1.
       14    1    4    4    0    0  0.24087843914E+02 -0.50931770083E+02 -0.20106072836E+02  0.59820762224E+02  0.00000000000E+00 0. -1.
        3    1    5    5  501    0 -0.37972766029E+02  0.69449649363E+02 -0.23993434963E+02  0.82709550101E+02  0.00000000000E+00 0. -1.
       -4    1    5    5    0  501 -0.23214304234E+02  0.16050828684E+01 -0.67421068555E+02  0.71323773717E+02  0.00000000000E+00 0.  1.
</event>
<event>
 9   1  0.7570500E-01  0.2500010E+03  0.7546771E-02  0.1113304E+00
       21   -1    0    0  503  502  0.00000000000E+00  0.00000000000E+00  0.14199122395E+03  0.14199122395E+03  0.00000000000E+00 0.  1.
       21   -1    0    0  502  503 -0.00000000000E+00 -0.00000000000E+00 -0.11004287071E+03  0.11004287071E+03  0.00000000000E+00 0.  1.
       25    2    1    2    0    0  0.14210854715E-13  0.00000000000E+00  0.31948353236E+02  0.25203409466E+03  0.25000097519E+03 0.  0.
       24    2    3    3    0    0  0.76542492762E+02 -0.24475429375E+02 -0.51726088325E+02  0.12507003139E+03  0.80679146611E+02 0.  0.
      -24    2    3    3    0    0 -0.76542492762E+02  0.24475429375E+02  0.83674441561E+02  0.12696406327E+03  0.51581598943E+02 0.  0.
      -13    1    4    4    0    0  0.54451840806E+01 -0.21691393205E+02 -0.49004076294E+02  0.53866186633E+02  0.00000000000E+00 0.  1.
       14    1    4    4    0    0  0.71097308681E+02 -0.27840361692E+01 -0.27220120304E+01  0.71203844760E+02  0.00000000000E+00 0. -1.
        3    1    5    5  501    0 -0.54138204375E+02  0.42052534753E+01  0.79772312515E+02  0.96500006082E+02  0.00000000000E+00 0. -1.
       -4    1    5    5    0  501 -0.22404288386E+02  0.20270175899E+02  0.39021290456E+01  0.30464057185E+02  0.00000000000E+00 0.  1.
</event>
<event>
 9   1  0.7570500E-01  0.2500222E+03  0.7546771E-02  0.1113291E+00
       21   -1    0    0  503  502  0.00000000000E+00  0.00000000000E+00  0.20173568895E+02  0.20173568895E+02  0.00000000000E+00 0.  1.
       21   -1    0    0  502  503 -0.00000000000E+00 -0.00000000000E+00 -0.77466577727E+03  0.77466577727E+03  0.00000000000E+00 0.  1.
       25    2    1    2    0    0  0.00000000000E+00  0.00000000000E+00 -0.75449220838E+03  0.79483934617E+03  0.25002218644E+03 0.  0.
       24    2    3    3    0    0 -0.90700307255E+02 -0.26265115286E+02 -0.41787537233E+03  0.43604220688E+03  0.81219316471E+02 0.  0.
      -24    2    3    3    0    0  0.90700307255E+02  0.26265115286E+02 -0.33661683605E+03  0.35879713928E+03  0.80672739073E+02 0.  0.
      -13    1    4    4    0    0  0.21319491740E+01 -0.18731504885E+02 -0.17347785755E+03  0.17449923078E+03  0.00000000000E+00 0.  1.
       14    1    4    4    0    0 -0.92832256429E+02 -0.75336104010E+01 -0.24439751478E+03  0.26154297610E+03  0.00000000000E+00 0. -1.
        1    1    5    5  501    0  0.43286418566E+02  0.54043821595E+02 -0.18849642239E+03  0.20081172759E+03  0.00000000000E+00 0. -1.
       -2    1    5    5    0  501  0.47413888689E+02 -0.27778706309E+02 -0.14812041366E+03  0.15798541169E+03  0.00000000000E+00 0.  1.
</event>
<event>
 9   1  0.7570500E-01  0.2500017E+03  0.7546771E-02  0.1113304E+00
       21   -1    0    0  503  502  0.00000000000E+00  0.00000000000E+00  0.89018157772E+02  0.89018157772E+02  0.00000000000E+00 0.  1.
       21   -1    0    0  502  503 -0.00000000000E+00 -0.00000000000E+00 -0.17552843782E+03  0.17552843782E+03  0.00000000000E+00 0.  1.
       25    2    1    2    0    0  0.35527136788E-14  0.00000000000E+00 -0.86510280051E+02  0.26454659560E+03  0.25000174537E+03 0.  0.
       24    2    3    3    0    0 -0.21040652969E+02 -0.62195273549E+02  0.31984881049E+02  0.10824595649E+03  0.79894889395E+02 0.  0.
      -24    2    3    3    0    0  0.21040652969E+02  0.62195273549E+02 -0.11849516110E+03  0.15630063911E+03  0.77960409514E+02 0.  0.
      -13    1    4    4    0    0  0.77765364403E+01 -0.60677928236E+02 -0.49505742307E+01  0.61374210213E+02  0.00000000000E+00 0.  1.
       14    1    4    4    0    0 -0.28817189409E+02 -0.15173453126E+01  0.36935455280E+02  0.46871746276E+02  0.00000000000E+00 0. -1.
        1    1    5    5  501    0 -0.20837535128E+02  0.10673100704E+02 -0.70744341418E+02  0.74517647517E+02  0.00000000000E+00 0. -1.
       -2    1    5    5    0  501  0.41878188097E+02  0.51522172844E+02 -0.47750819683E+02  0.81782991589E+02  0.00000000000E+00 0.  1.
</event>
<event>
 9   1  0.7570500E-01  0.2500004E+03  0.7546771E-02  0.1113305E+00
       21   -1    0    0  503  502  0.00000000000E+00  0.00000000000E+00  0.49080005658E+02  0.49080005658E+02  0.00000000000E+00 0.  1.
       21   -1    0    0  502  503 -0.00000000000E+00 -0.00000000000E+00 -0.31835865523E+03  0.31835865523E+03  0.00000000000E+00 0.  1.
       25    2    1    2    0    0  0.00000000000E+00  0.14210854715E-13 -0.26927864957E+03  0.36743866089E+03  0.25000035680E+03 0.  0.
       24    2    3    3    0    0  0.49788723203E+02  0.81276915441E+02 -0.15001149269E+03  0.19479945877E+03  0.79740374052E+02 0.  0.
      -24    2    3    3    0    0 -0.49788723203E+02 -0.81276915441E+02 -0.11926715688E+03  0.17263920212E+03  0.80590231774E+02 0.  0.
      -13    1    4    4    0    0  0.48337398068E+02  0.79461472247E+02 -0.74273933738E+02  0.11902624440E+03  0.00000000000E+00 0.  1.
       14    1    4    4    0    0  0.14513251356E+01  0.18154431941E+01 -0.75737558954E+02  0.75773214363E+02  0.00000000000E+00 0. -1.
        1    1    5    5  501    0 -0.30175800257E+02 -0.17892778362E+02  0.12073969312E+01  0.35102539025E+02  0.00000000000E+00 0. -1.
       -2    1    5    5    0  501 -0.19612922946E+02 -0.63384137079E+02 -0.12047455381E+03  0.13753666310E+03  0.00000000000E+00 0.  1.
</event>
<event>
 9   1  0.7570500E-01  0.2500065E+03  0.7546771E-02  0.1113301E+00
       21   -1    0    0  503  502  0.00000000000E+00  0.00000000000E+00  0.89853716906E+03  0.89853716906E+03  0.00000000000E+00 0. -1.
       21   -1    0    0  502  503 -0.00000000000E+00 -0.00000000000E+00 -0.17390286212E+02  0.17390286212E+02  0.00000000000E+00 0. -1.
       25    2    1    2    0    0  0.00000000000E+00  0.00000000000E+00  0.88114688284E+03  0.91592745527E+03  0.25000654825E+03 0.  0.
       24    2    3    3    0    0  0.51712337648E+02  0.58732962957E+02  0.64341333289E+03  0.65311178405E+03  0.80315370470E+02 0.  0.
      -24    2    3    3    0    0 -0.51712337648E+02 -0.58732962957E+02  0.23773354996E+03  0.26281567121E+03  0.80194198400E+02 0.  0.
      -13    1    4    4    0    0  0.51596998434E+02  0.21043613399E+01  0.39281636667E+03  0.39619613388E+03  0.00000000000E+00 0.  1.
       14    1    4    4    0    0  0.11533921377E+00  0.56628601617E+02  0.25059696622E+03  0.25691565017E+03  0.00000000000E+00 0. -1.
        1    1    5    5  501    0  0.41742575461E+01 -0.55212219208E+02  0.13267275546E+03  0.14376325545E+03  0.00000000000E+00 0. -1.
       -2    1    5    5    0  501 -0.55886595194E+02 -0.35207437493E+01  0.10506079450E+03  0.11905241577E+03  0.00000000000E+00 0.  1.
</event>
<event>
 9   1  0.7570500E-01  0.2500171E+03  0.7546771E-02  0.1113294E+00
       21   -1    0    0  503  502  0.00000000000E+00  0.00000000000E+00  0.16754222420E+02  0.16754222420E+02  0.00000000000E+00 0. -1.
       21   -1    0    0  502  503 -0.00000000000E+00 -0.00000000000E+00 -0.93272812452E+03  0.93272812452E+03  0.00000000000E+00 0. -1.
       25    2    1    2    0    0  0.00000000000E+00  0.35527136788E-14 -0.91597390210E+03  0.94948234694E+03  0.25001707506E+03 0.  0.
       24    2    3    3    0    0  0.49573006060E+02  0.27833408058E+02 -0.74331269076E+03  0.75025108370E+03  0.84443773034E+02 0.  0.
      -24    2    3    3    0    0 -0.49573006060E+02 -0.27833408058E+02 -0.17266121133E+03  0.19923126324E+03  0.81541528188E+02 0.  0.
      -13    1    4    4    0    0 -0.41872488996E+01  0.43813314806E+02 -0.39611786574E+03  0.39855552081E+03  0.00000000000E+00 0.  1.
       14    1    4    4    0    0  0.53760254960E+02 -0.15979906748E+02 -0.34719482502E+03  0.35169556289E+03  0.00000000000E+00 0. -1.
        3    1    5    5  501    0 -0.70146453101E+02 -0.26055587564E+02 -0.15476321493E+03  0.17190425015E+03  0.00000000000E+00 0. -1.
       -4    1    5    5    0  501  0.20573447041E+02 -0.17778204942E+01 -0.17897996403E+02  0.27327013084E+02  0.00000000000E+00 0.  1.
</event>
<event>
 9   1  0.7570500E-01  0.2500106E+03  0.7546771E-02  0.1113298E+00
       21   -1    0    0  503  502  0.00000000000E+00  0.00000000000E+00  0.89489265988E+02  0.89489265988E+02  0.00000000000E+00 0. -1.
       21   -1    0    0  502  503 -0.00000000000E+00 -0.00000000000E+00 -0.17461677204E+03  0.17461677204E+03  0.00000000000E+00 0. -1.
       25    2    1    2    0    0  0.00000000000E+00  0.71054273576E-14 -0.85127506054E+02  0.26410603803E+03  0.25001061385E+03 0.  0.
       24    2    3    3    0    0 -0.66930357554E+02 -0.44079519435E+02 -0.16564370306E+01  0.11771796234E+03  0.86209617078E+02 0.  0.
      -24    2    3    3    0    0  0.66930357554E+02  0.44079519435E+02 -0.83471069024E+02  0.14638807570E+03  0.89662548178E+02 0.  0.
      -13    1    4    4    0    0 -0.20940344799E+02 -0.10424597214E+02 -0.41875706761E+02  0.47966082643E+02  0.00000000000E+00 0.  1.
       14    1    4    4    0    0 -0.45990012756E+02 -0.33654922221E+02  0.40219269730E+02  0.69751879693E+02  0.00000000000E+00 0. -1.
        1    1    5    5  501    0  0.66908214024E+02 -0.24520849330E+00 -0.76309589388E+02  0.10148853464E+03  0.00000000000E+00 0. -1.
       -2    1    5    5    0  501  0.22143530245E-01  0.44324727929E+02 -0.71614796357E+01  0.44899541054E+02  0.00000000000E+00 0.  1.
</event>
<event>
 9   1  0.7570500E-01  0.2499984E+03  0.7546771E-02  0.1113306E+00
       21   -1    0    0  503  502  0.00000000000E+00  0.00000000000E+00  0.77455203342E+03  0.77455203342E+03  0.00000000000E+00 0. -1.
       21   -1    0    0  502  503 -0.00000000000E+00 -0.00000000000E+00 -0.20172695166E+02  0.20172695166E+02  0.00000000000E+00 0. -1.
       25    2    1    2    0    0 -0.14210854715E-13 -0.35527136788E-14  0.75437933825E+03  0.79472472859E+03  0.24999841648E+03 0.  0.
       24    2    3    3    0    0 -0.46670735037E+02 -0.29250385312E+02  0.12565823593E+03  0.15855737237E+03  0.79477704583E+02 0.  0.
      -24    2    3    3    0    0  0.46670735037E+02  0.29250385312E+02  0.62872110232E+03  0.63616735622E+03  0.79905807415E+02 0.  0.
      -13    1    4    4    0    0 -0.52649482289E+01  0.70769019708E+01 -0.92838553632E+01  0.12805943611E+02  0.00000000000E+00 0.  1.
       14    1    4    4    0    0 -0.41405786808E+02 -0.36327287283E+02  0.13494209129E+03  0.14575142876E+03  0.00000000000E+00 0. -1.
        1    1    5    5  501    0  0.28826194720E+01  0.76906016741E+01  0.33106045085E+01  0.88552216992E+01  0.00000000000E+00 0. -1.
       -2    1    5    5    0  501  0.43788115565E+02  0.21559783638E+02  0.62541049781E+03  0.62731213452E+03  0.00000000000E+00 0.  1.
</event>
<event>
 9   1  0.7570500E-01  0.2500029E+03  0.7546771E-02  0.1113303E+00
       21   -1    0    0  503  502  0.00000000000E+00  0.00000000000E+00  0.17902929409E+02  0.17902929409E+02  0.00000000000E+00 0.  1.
       21   -1    0    0  502  503 -0.00000000000E+00 -0.00000000000E+00 -0.87278210505E+03  0.87278210505E+03  0.00000000000E+00 0.  1.
       25    2    1    2    0    0 -0.71054273576E-14  0.00000000000E+00 -0.85487917564E+03  0.89068503446E+03  0.25000285131E+03 0.  0.
       24    2    3    3    0    0 -0.22639574716E+02  0.85862694812E+02 -0.52009540757E+03  0.53443490148E+03  0.85067492287E+02 0.  0.
      -24    2    3    3    0    0  0.22639574716E+02 -0.85862694812E+02 -0.33478376808E+03  0.35625013298E+03  0.83360861185E+02 0.  0.
      -13    1    4    4    0    0 -0.35683798905E+02  0.96127458560E+02 -0.48347061334E+03  0.49422429702E+03  0.00000000000E+00 0.  1.
       14    1    4    4    0    0  0.13044224189E+02 -0.10264763748E+02 -0.36624794221E+02  0.40210604462E+02  0.00000000000E+00 0. -1.
        3    1    5    5  501    0 -0.65130730943E+01  0.14336007461E+02 -0.26988112789E+02  0.31245791124E+02  0.00000000000E+00 0. -1.
       -4    1    5    5    0  501  0.29152647810E+02 -0.10019870227E+03 -0.30779565529E+03  0.32500434186E+03  0.00000000000E+00 0.  1.
</event>
<event>
 9   1  0.7570500E-01  0.2499990E+03  0.7546771E-02  0.1113305E+00
       21   -1    0    0  503  502  0.00000000000E+00  0.00000000000E+00  0.25595699594E+03  0.25595699594E+03  0.00000000000E+00 0. -1.
       21   -1    0    0  502  503 -0.00000000000E+00 -0.00000000000E+00 -0.61044903105E+02  0.61044903105E+02  0.00000000000E+00 0. -1.
       25    2    1    2    0    0 -0.14210854715E-13 -0.71054273576E-14  0.19491209283E+03  0.31700189904E+03  0.24999896013E+03 0.  0.
       24    2    3    3    0    0 -0.59182837483E+02 -0.60743125591E+02  0.13586335525E+03  0.18671779597E+03  0.95980979739E+02 0.  0.
      -24    2    3    3    0    0  0.59182837483E+02  0.60743125591E+02  0.59048737582E+02  0.13028410308E+03  0.79340144601E+02 0.  0.
      -13    1    4    4    0    0 -0.75244295777E+02 -0.21554434034E+02  0.11600497350E+03  0.13994088591E+03  0.00000000000E+00 0.  1.
       14    1    4    4    0    0  0.16061458294E+02 -0.39188691557E+02  0.19858381753E+02  0.46776910056E+02  0.00000000000E+00 0. -1.
        3    1    5    5  501    0  0.26301555357E+02  0.18071419299E+02  0.68520471423E+02  0.75587055861E+02  0.00000000000E+00 0. -1.
       -4    1    5    5    0  501  0.32881282126E+02  0.42671706293E+02 -0.94717338409E+01  0.54697047216E+02  0.00000000000E+00 0.  1.
</event>
<event>
 9   1  0.7570500E-01  0.2500004E+03  0.7546771E-02  0.1113305E+00
       21   -1    0    0  503  502  0.00000000000E+00  0.00000000000E+00  0.21252995857E+02  0.21252995857E+02  0.00000000000E+00 0.  1.
       21   -1    0    0  502  503 -0.00000000000E+00 -0.00000000000E+00 -0.73519293581E+03  0.73519293581E+03  0.00000000000E+00 0.  1.
       25    2    1    2    0    0  0.00000000000E+00  0.00000000000E+00 -0.71393993995E+03  0.75644593166E+03  0.25000041935E+03 0.  0.
       24    2    3    3    0    0  0.71761474960E+02  0.63004747026E+02 -0.35972879098E+03  0.38083896962E+03  0.80710657836E+02 0.  0.
      -24    2    3    3    0    0 -0.71761474960E+02 -0.63004747026E+02 -0.35421114897E+03  0.37560696204E+03  0.80596181314E+02 0.  0.
      -13    1    4    4    0    0  0.50931899769E+02  0.24281806719E+02 -0.30718877503E+03  0.31232772540E+03  0.00000000000E+00 0.  1.
       14    1    4    4    0    0  0.20829575191E+02  0.38722940307E+02 -0.52540015953E+02  0.68511244223E+02  0.00000000000E+00 0. -1.
        1    1    5    5  501    0 -0.32222267475E+02 -0.76022835147E+02 -0.25436206936E+03  0.26742813673E+03  0.00000000000E+00 0. -1.
       -2    1    5    5    0  501 -0.39539207485E+02  0.13018088121E+02 -0.99849079609E+02  0.10817882531E+03  0.00000000000E+00 0.  1.
</event>
<event>
 9   1  0.7570500E-01  0.2500000E+03  0.7546771E-02  0.1113305E+00
       21   -1    0    0  503  502  0.00000000000E+00  0.00000000000E+00  0.11790704703E+03  0.11790704703E+03  0.00000000000E+00 0.  1.
       21   -1    0    0  502  503 -0.00000000000E+00 -0.00000000000E+00 -0.13251959678E+03  0.13251959678E+03  0.00000000000E+00 0.  1.
       25    2    1    2    0    0  0.71054273576E-14  0.00000000000E+00 -0.14612549748E+02  0.25042664382E+03  0.24999995465E+03 0.  0.
       24    2    3    3    0    0 -0.54506607769E+02  0.79856091970E+02 -0.10478290832E+02  0.12499992155E+03  0.78531650270E+02 0.  0.
      -24    2    3    3    0    0  0.54506607769E+02 -0.79856091970E+02 -0.41342589158E+01  0.12542672226E+03  0.79792260564E+02 0.  0.
      -13    1    4    4    0    0 -0.54024216784E+02  0.24945983007E+02  0.19269288249E+02  0.62547770039E+02  0.00000000000E+00 0.  1.
       14    1    4    4    0    0 -0.48239098561E+00  0.54910108963E+02 -0.29747579081E+02  0.62452151513E+02  0.00000000000E+00 0. -1.
        1    1    5    5  501    0  0.35411428889E+02 -0.92422326052E+02 -0.15021416383E+02  0.10010743528E+03  0.00000000000E+00 0. -1.
       -2    1    5    5    0  501  0.19095178881E+02  0.12566234082E+02  0.10887157468E+02  0.25319286981E+02  0.00000000000E+00 0.  1.
</event>
<event>
 9   1  0.7570500E-01  0.2500001E+03  0.7546771E-02  0.1113305E+00
       21   -1    0    0  503  502  0.00000000000E+00  0.00000000000E+00  0.35349209716E+03  0.35349209716E+03  0.00000000000E+00 0. -1.
       21   -1    0    0  502  503 -0.00000000000E+00 -0.00000000000E+00 -0.44201881204E+02  0.44201881204E+02  0.00000000000E+00 0. -1.
       25    2    1    2    0    0  0.00000000000E+00  0.00000000000E+00  0.30929021596E+03  0.39769397836E+03  0.25000012548E+03 0.  0.
       24    2    3    3    0    0  0.52009576167E+02  0.79089803250E+02  0.12925990279E+03  0.17887540777E+03  0.79549330877E+02 0.  0.
      -24    2    3    3    0    0 -0.52009576167E+02 -0.79089803250E+02  0.18003031317E+03  0.21881857060E+03  0.80687422739E+02 0.  0.
      -13    1    4    4    0    0  0.40746307832E+02  0.94705378501E+02  0.98515380005E+02  0.14259961577E+03  0.00000000000E+00 0.  1.
       14    1    4    4    0    0  0.11263268336E+02 -0.15615575251E+02  0.30744522787E+02  0.36275792002E+02  0.00000000000E+00 0. -1.
        1    1    5    5  501    0 -0.42481666871E+02 -0.34445243900E+02  0.15977557730E+03  0.16887688400E+03  0.00000000000E+00 0. -1.
       -2    1    5    5    0  501 -0.95279092962E+01 -0.44644559350E+02  0.20254735862E+02  0.49941686595E+02  0.00000000000E+00 0.  1.
</event>
<event>
 9   1  0.7570500E-01  0.2499935E+03  0.7546771E-02  0.1113309E+00
       21   -1    0    0  503  502  0.00000000000E+00  0.00000000000E+00  0.41274062554E+03  0.41274062554E+03  0.00000000000E+00 0. -1.
       21   -1    0    0  502  503 -0.00000000000E+00 -0.00000000000E+00 -0.37854726215E+02  0.37854726215E+02  0.00000000000E+00 0. -1.
       25    2    1    2    0    0  0.00000000000E+00  0.14210854715E-13  0.37488589932E+03  0.45059535175E+03  0.24999346693E+03 0.  0.
       24    2    3    3    0    0 -0.69956649400E+02 -0.60620175995E+02  0.14571859512E+03  0.19057184866E+03  0.80715438469E+02 0.  0.
      -24    2    3    3    0    0  0.69956649400E+02  0.60620175995E+02  0.22916730420E+03  0.26002350309E+03  0.80782611428E+02 0.  0.
      -13    1    4    4    0    0 -0.77847217942E+02 -0.19695461655E+02  0.85071132973E+02  0.11698375193E+03  0.00000000000E+00 0.  1.
       14    1    4    4    0    0  0.78905685429E+01 -0.40924714341E+02  0.60647462146E+02  0.73588096731E+02  0.00000000000E+00 0. -1.
        3    1    5    5  501    0  0.51828533003E+02  0.78999734491E+02  0.15539411427E+03  0.18186392065E+03  0.00000000000E+00 0. -1.
       -4    1    5    5    0  501  0.18128116397E+02 -0.18379558495E+02  0.73773189929E+02  0.78159582438E+02  0.00000000000E+00 0.  1.
</event>
<event>
 9   1  0.7570500E-01  0.2500018E+03  0.7546771E-02  0.1113304E+00
       21   -1    0    0  503  502  0.00000000000E+00  0.00000000000E+00  0.42327941191E+03  0.42327941191E+03  0.00000000000E+00 0.  1.
       21   -1    0    0  502  503 -0.00000000000E+00 -0.00000000000E+00 -0.36914696900E+02  0.36914696900E+02  0.00000000000E+00 0.  1.
       25    2    1    2    0    0  0.00000000000E+00  0.14210854715E-13  0.38636471501E+03  0.46019410881E+03  0.25000184955E+03 0.  0.
       24    2    3    3    0    0  0.36246811267E+02  0.87527932970E+02  0.17676666627E+03  0.21583949791E+03  0.79782605747E+02 0.  0.
      -24    2    3    3    0    0 -0.36246811267E+02 -0.87527932970E+02  0.20959804874E+03  0.24435461089E+03  0.82479472909E+02 0.  0.
      -13    1    4    4    0    0 -0.12372310500E+02  0.59384726438E+02  0.55610892669E+02  0.82293324059E+02  0.00000000000E+00 0.  1.
       14    1    4    4    0    0  0.48619121767E+02  0.28143206532E+02  0.12115577360E+03  0.13354617385E+03  0.00000000000E+00 0. -1.
        3    1    5    5  501    0 -0.25230728532E+02 -0.12141718196E+02  0.13447703096E+03  0.13736114021E+03  0.00000000000E+00 0. -1.
       -4    1    5    5    0  501 -0.11016082734E+02 -0.75386214774E+02  0.75121017779E+02  0.10699347068E+03  0.00000000000E+00 0.  1.
</event>
<event>
 9   1  0.7570500E-01  0.2499939E+03  0.7546771E-02  0.1113309E+00
       21   -1    0    0  503  502  0.00000000000E+00  0.00000000000E+00  0.13415385400E+03  0.13415385400E+03  0.00000000000E+00 0.  1.
       21   -1    0    0  502  503 -0.00000000000E+00 -0.00000000000E+00 -0.11646507523E+03  0.11646507523E+03  0.00000000000E+00 0.  1.
       25    2    1    2    0    0 -0.14210854715E-13  0.14210854715E-13  0.17688778768E+02  0.25061892922E+03  0.24999390951E+03 0.  0.
       24    2    3    3    0    0 -0.71524540593E+02  0.50581647480E+02  0.48665101851E+02  0.12783810420E+03  0.79372701715E+02 0.  0.
      -24    2    3    3    0    0  0.71524540593E+02 -0.50581647480E+02 -0.30976323082E+02  0.12278082503E+03  0.80257930660E+02 0.  0.
      -13    1    4    4    0    0 -0.86833452444E+02  0.37578290899E+02  0.27215925160E+02  0.98452440257E+02  0.00000000000E+00 0.  1.
       14    1    4    4    0    0  0.15308911851E+02  0.13003356582E+02  0.21449176691E+02  0.29385663940E+02  0.00000000000E+00 0. -1.
        1    1    5    5  501    0  0.51407861687E+02  0.67315567481E+01 -0.33939434436E+02  0.61967469767E+02  0.00000000000E+00 0. -1.
       -2    1    5    5    0  501  0.20116678906E+02 -0.57313204228E+02  0.29631113531E+01  0.60813355260E+02  0.00000000000E+00 0.  1.
</event>
<event>
 8   1  0.7570500E-01  0.2498588E+03  0.7546771E-02  0.1113394E+00
       21   -1    0    0  503  502  0.00000000000E+00  0.00000000000E+00  0.75304083693E+02  0.75304083693E+02  0.00000000000E+00 0. -1.
       21   -1    0    0  502  503 -0.00000000000E+00 -0.00000000000E+00 -0.20725779688E+03  0.20725779688E+03  0.00000000000E+00 0. -1.
       24    2    1    2    0    0  0.95292010744E+02 -0.56222701665E+01 -0.68670027236E+02  0.14202660374E+03  0.79648015018E+02 0.  0.
      -24    2    1    2    0    0 -0.95292010744E+02  0.56222701665E+01 -0.63283685950E+02  0.14053527683E+03  0.81444225658E+02 0.  0.
      -13    1    3    3    0    0  0.17415740928E+02 -0.36446042471E+02 -0.18853998617E+02  0.44576847216E+02  0.00000000000E+00 0.  1.
       14    1    3    3    0    0  0.77876269816E+02  0.30823772305E+02 -0.49816028619E+02  0.97449756526E+02  0.00000000000E+00 0. -1.
        1    1    4    4  501    0  0.57233486151E+01 -0.13213247682E+02 -0.28709481357E+02  0.32118233972E+02  0.00000000000E+00 0. -1.
       -2    1    4    4    0  501 -0.10101535936E+03  0.18835517848E+02 -0.34574204593E+02  0.10841704286E+03  0.00000000000E+00 0.  1.
</event>
<event>
 9   1  0.7570500E-01  0.2500127E+03  0.7546771E-02  0.1113297E+00
       21   -1    0    0  503  502  0.00000000000E+00  0.00000000000E+00  0.23772498986E+04  0.23772498986E+04  0.00000000000E+00 0.  1.
       21   -1    0    0  502  503 -0.00000000000E+00 -0.00000000000E+00 -0.65733865904E+01  0.65733865904E+01  0.00000000000E+00 0.  1.
       25    2    1    2    0    0  0.35527136788E-14  0.00000000000E+00  0.23706765120E+04  0.23838232851E+04  0.25001266052E+03 0.  0.
       24    2    3    3    0    0 -0.16975697471E+02  0.66122156880E+02  0.55484170216E+03  0.56477409943E+03  0.80375089382E+02 0.  0.
      -24    2    3    3    0    0  0.16975697471E+02 -0.66122156880E+02  0.18158348098E+04  0.18190491857E+04  0.83806739753E+02 0.  0.
      -13    1    4    4    0    0 -0.43180305850E+02  0.11513205088E+02  0.25264283805E+03  0.25656479946E+03  0.00000000000E+00 0.  1.
       14    1    4    4    0    0  0.26204608380E+02  0.54608951792E+02  0.30219886411E+03  0.30820929997E+03  0.00000000000E+00 0. -1.
        1    1    5    5  501    0 -0.87774363535E+01 -0.15130525878E+02  0.12903212081E+04  0.12904397686E+04  0.00000000000E+00 0. -1.
       -2    1    5    5    0  501  0.25753133824E+02 -0.50991631002E+02  0.52551360169E+03  0.52860941714E+03  0.00000000000E+00 0.  1.
</event>
<event>
 9   1  0.7570500E-01  0.2500199E+03  0.7546771E-02  0.1113292E+00
       21   -1    0    0  503  502  0.00000000000E+00  0.00000000000E+00  0.56207789353E+02  0.56207789353E+02  0.00000000000E+00 0. -1.
       21   -1    0    0  502  503 -0.00000000000E+00 -0.00000000000E+00 -0.27803059090E+03  0.27803059090E+03  0.00000000000E+00 0. -1.
       25    2    1    2    0    0  0.00000000000E+00  0.17763568394E-14 -0.22182280154E+03  0.33423838025E+03  0.25001987830E+03 0.  0.
       24    2    3    3    0    0 -0.85487655374E+02  0.58258292579E+01 -0.54538276242E+02  0.12947850617E+03  0.80300563359E+02 0.  0.
      -24    2    3    3    0    0  0.85487655374E+02 -0.58258292579E+01 -0.16728452530E+03  0.20475987408E+03  0.81242932745E+02 0.  0.
      -13    1    4    4    0    0 -0.35072955264E+02 -0.20467998953E+02 -0.59899113945E+02  0.72366808853E+02  0.00000000000E+00 0.  1.
       14    1    4    4    0    0 -0.50414700110E+02  0.26293828211E+02  0.53608377028E+01  0.57111697314E+02  0.00000000000E+00 0. -1.
        1    1    5    5  501    0  0.17519430591E+02  0.14877042128E+02  0.30242207451E-01  0.22983858364E+02  0.00000000000E+00 0. -1.
       -2    1    5    5    0  501  0.67968224784E+02 -0.20702871386E+02 -0.16731476751E+03  0.18177601572E+03  0.00000000000E+00 0.  1.
</event>
<event>
 9   1  0.7570500E-01  0.2499992E+03  0.7546771E-02  0.1113305E+00
       21   -1    0    0  503  502  0.00000000000E+00  0.00000000000E+00  0.28382456287E+03  0.28382456287E+03  0.00000000000E+00 0.  1.
       21   -1    0    0  502  503 -0.00000000000E+00 -0.00000000000E+00 -0.55051279110E+02  0.55051279110E+02  0.00000000000E+00 0.  1.
       25    2    1    2    0    0  0.00000000000E+00  0.00000000000E+00  0.22877328376E+03  0.33887584198E+03  0.24999924183E+03 0.  0.
       24    2    3    3    0    0  0.53010929323E+02  0.65960632375E+02  0.17631822888E+03  0.21156529318E+03  0.80689477585E+02 0.  0.
      -24    2    3    3    0    0 -0.53010929323E+02 -0.65960632375E+02  0.52455054876E+02  0.12731054879E+03  0.79344057127E+02 0.  0.
      -13    1    4    4    0    0  0.74474596877E+02  0.49431450188E+02  0.12710855052E+03  0.15539149739E+03  0.00000000000E+00 0.  1.
       14    1    4    4    0    0 -0.21463667555E+02  0.16529182187E+02  0.49209678364E+02  0.56173795789E+02  0.00000000000E+00 0. -1.
        3    1    5    5  501    0  0.78409762294E+01 -0.34137733930E+02  0.46732405665E+02  0.58401913713E+02  0.00000000000E+00 0. -1.
       -4    1    5    5    0  501 -0.60851905552E+02 -0.31822898446E+02  0.57226492106E+01  0.68908635081E+02  0.00000000000E+00 0.  1.
</event>
<event>
 9   1  0.7570500E-01  0.2500006E+03  0.7546771E-02  0.1113304E+00
       21   -1    0    0  503  502  0.00000000000E+00  0.00000000000E+00  0.50135478583E+03  0.50135478583E+03  0.00000000000E+00 0.  1.
       21   -1    0    0  502  503 -0.00000000000E+00 -0.00000000000E+00 -0.31165695662E+02  0.31165695662E+02  0.00000000000E+00 0.  1.
       25    2    1    2    0    0  0.00000000000E+00  0.00000000000E+00  0.47018909017E+03  0.53252048150E+03  0.25000056539E+03 0.  0.
       24    2    3    3    0    0  0.86033414255E+02 -0.29892213650E+02  0.17085482797E+03  0.20965957372E+03  0.80439242931E+02 0.  0.
      -24    2    3    3    0    0 -0.86033414255E+02  0.29892213650E+02  0.29933426220E+03  0.32286090778E+03  0.79642152416E+02 0.  0.
      -13    1    4    4    0    0  0.40053453074E+02  0.13690584992E+02  0.12353326947E+03  0.13058399552E+03  0.00000000000E+00 0.  1.
       14    1    4    4    0    0  0.45979961181E+02 -0.43582798642E+02  0.47321558509E+02  0.79075578198E+02  0.00000000000E+00 0. -1.
        1    1    5    5  501    0 -0.23670128383E+02  0.19054037631E+02  0.21644086541E+03  0.21856344513E+03  0.00000000000E+00 0. -1.
       -2    1    5    5    0  501 -0.62363285872E+02  0.10838176019E+02  0.82893396789E+02  0.10429746265E+03  0.00000000000E+00 0.  1.
</event>
<event>
 9   1  0.7570500E-01  0.2500026E+03  0.7546771E-02  0.1113303E+00
       21   -1    0    0  503  502  0.00000000000E+00  0.00000000000E+00  0.17041240029E+02  0.17041240029E+02  0.00000000000E+00 0.  1.
       21   -1    0    0  502  503 -0.00000000000E+00 -0.00000000000E+00 -0.91691252381E+03  0.91691252381E+03  0.00000000000E+00 0.  1.
       25    2    1    2    0    0  0.00000000000E+00  0.00000000000E+00 -0.89987128379E+03  0.93395376384E+03  0.25000261122E+03 0.  0.
       24    2    3    3    0    0  0.59989627471E+02  0.74266948284E+02 -0.56274143805E+03  0.57447495506E+03  0.65032398759E+02 0.  0.
      -24    2    3    3    0    0 -0.59989627471E+02 -0.74266948284E+02 -0.33712984574E+03  0.35947880878E+03  0.80337700129E+02 0.  0.
      -13    1    4    4    0    0  0.42812561087E+02  0.56502704257E+02 -0.22668372755E+03  0.23750996466E+03  0.00000000000E+00 0.  1.
       14    1    4    4    0    0  0.17177066385E+02  0.17764244027E+02 -0.33605771050E+03  0.33696499041E+03  0.00000000000E+00 0. -1.
        3    1    5    5  501    0 -0.50647203582E+02 -0.33631038106E+02 -0.88460666378E+02  0.10733813605E+03  0.00000000000E+00 0. -1.
       -4    1    5    5    0  501 -0.93424238890E+01 -0.40635910179E+02 -0.24866917936E+03  0.25214067273E+03  0.00000000000E+00 0.  1.
</event>
<event>
 9   1  0.7570500E-01  0.2500167E+03  0.7546771E-02  0.1113294E+00
       21   -1    0    0  503  502  0.00000000000E+00  0.00000000000E+00  0.13324641694E+03  0.13324641694E+03  0.00000000000E+00 0. -1.
       21   -1    0    0  502  503 -0.00000000000E+00 -0.00000000000E+00 -0.11727959692E+03  0.11727959692E+03  0.00000000000E+00 0. -1.
       25    2    1    2    0    0 -0.28421709430E-13  0.00000000000E+00  0.15966820018E+02  0.25052601386E+03  0.25001668800E+03 0.  0.
       24    2    3    3    0    0  0.92009829887E+02 -0.11195045680E+02  0.30967956892E+02  0.12589444367E+03  0.79367869759E+02 0.  0.
      -24    2    3    3    0    0 -0.92009829887E+02  0.11195045680E+02 -0.15001136874E+02  0.12463157019E+03  0.81956429503E+02 0.  0.
      -13    1    4    4    0    0  0.14480594068E+02  0.28914489791E+02 -0.24399931686E+01  0.32429753177E+02  0.00000000000E+00 0.  1.
       14    1    4    4    0    0  0.77529235819E+02 -0.40109535471E+02  0.33407950061E+02  0.93464690496E+02  0.00000000000E+00 0. -1.
        3    1    5    5  501    0 -0.28099188138E+02 -0.12278761874E+01  0.33282176319E+02  0.43574939064E+02  0.00000000000E+00 0. -1.
       -4    1    5    5    0  501 -0.63910641749E+02  0.12422921867E+02 -0.48283313193E+02  0.81056631125E+02  0.00000000000E+00 0.  1.
</event>
<event>
 9   1  0.7570500E-01  0.2499982E+03  0.7546771E-02  0.1113306E+00
       21   -1    0    0  503  502  0.00000000000E+00  0.00000000000E+00  0.43236010370E+03  0.43236010370E+03  0.00000000000E+00 0. -1.
       21   -1    0    0  502  503 -0.00000000000E+00 -0.00000000000E+00 -0.36138346931E+02  0.36138346931E+02  0.00000000000E+00 0. -1.
       25    2    1    2    0    0  0.00000000000E+00 -0.71054273576E-14  0.39622175677E+03  0.46849845063E+03  0.24999823541E+03 0.  0.
       24    2    3    3    0    0 -0.71226820809E+02 -0.62705729758E+02  0.23663116767E+03  0.26731858976E+03  0.80371950131E+02 0.  0.
      -24    2    3    3    0    0  0.71226820809E+02  0.62705729758E+02  0.15959058909E+03  0.20117986087E+03  0.77452641961E+02 0.  0.
      -13    1    4    4    0    0 -0.85264553848E+02 -0.44208340791E+02  0.15407281344E+03  0.18155674975E+03  0.00000000000E+00 0.  1.
       14    1    4    4    0    0  0.14037733039E+02 -0.18497388966E+02  0.82558354237E+02  0.85761840010E+02  0.00000000000E+00 0. -1.
        1    1    5    5  501    0  0.22463337655E+02  0.35506478889E+02  0.12480969682E+02  0.43830197192E+02  0.00000000000E+00 0. -1.
       -2    1    5    5    0  501  0.48763483154E+02  0.27199250869E+02  0.14710961941E+03  0.15734966368E+03  0.00000000000E+00 0.  1.
</event>
<event>
 9   1  0.7570500E-01  0.2499985E+03  0.7546771E-02  0.1113306E+00
       21   -1    0    0  503  502  0.00000000000E+00  0.00000000000E+00  0.74883679539E+02  0.74883679539E+02  0.00000000000E+00 0.  1.
       21   -1    0    0  502  503 -0.00000000000E+00 -0.00000000000E+00 -0.20865438118E+03  0.20865438118E+03  0.00000000000E+00 0.  1.
       25    2    1    2    0    0  0.71054273576E-14  0.00000000000E+00 -0.13377070164E+03  0.28353806072E+03  0.24999846251E+03 0.  0.
       24    2    3    3    0    0  0.74421570552E+01  0.11198709008E+02 -0.17454657629E+03  0.19220073287E+03  0.79333584543E+02 0.  0.
      -24    2    3    3    0    0 -0.74421570552E+01 -0.11198709008E+02  0.40775874643E+02  0.91337327853E+02  0.80616615666E+02 0.  0.
      -13    1    4    4    0    0  0.40316373082E+02 -0.23271638820E+01 -0.60478418374E+02  0.72721831105E+02  0.00000000000E+00 0.  1.
       14    1    4    4    0    0 -0.32874216027E+02  0.13525872890E+02 -0.11406815791E+03  0.11947890176E+03  0.00000000000E+00 0. -1.
        1    1    5    5  501    0  0.33007096751E+02 -0.16387200062E+02  0.51931060121E+01  0.37215280623E+02  0.00000000000E+00 0. -1.
       -2    1    5    5    0  501 -0.40449253807E+02  0.51884910538E+01  0.35582768631E+02  0.54122047230E+02  0.00000000000E+00 0.  1.
</event>
<event>
 9   1  0.7570500E-01  0.2499989E+03  0.7546771E-02  0.1113306E+00
       21   -1    0    0  503  502  0.00000000000E+00  0.00000000000E+00  0.58945868157E+02  0.58945868157E+02  0.00000000000E+00 0. -1.
       21   -1    0    0  502  503 -0.00000000000E+00 -0.00000000000E+00 -0.26507140559E+03  0.26507140559E+03  0.00000000000E+00 0. -1.
       25    2    1    2    0    0  0.00000000000E+00 -0.35527136788E-14 -0.20612553743E+03  0.32401727375E+03  0.24999891301E+03 0.  0.
       24    2    3    3    0    0  0.79360952009E+02  0.15489793846E+02 -0.36633291586E+02  0.11971049856E+03  0.80315073282E+02 0.  0.
      -24    2    3    3    0    0 -0.79360952009E+02 -0.15489793846E+02 -0.16949224585E+03  0.20430677518E+03  0.80470755976E+02 0.  0.
      -13    1    4    4    0    0  0.22668600616E+02 -0.73217353705E+01 -0.51566278625E+02  0.56802767133E+02  0.00000000000E+00 0.  1.
       14    1    4    4    0    0  0.56692351393E+02  0.22811529216E+02  0.14932987039E+02  0.62907731429E+02  0.00000000000E+00 0. -1.
        1    1    5    5  501    0 -0.63476110217E+02 -0.46203645933E+02 -0.12947965708E+03  0.15142316555E+03  0.00000000000E+00 0. -1.
       -2    1    5    5    0  501 -0.15884841792E+02  0.30713852088E+02 -0.40012588761E+02  0.52883609636E+02  0.00000000000E+00 0.  1.
</event>
<event>
 9   1  0.7570500E-01  0.2500027E+03  0.7546771E-02  0.1113303E+00
       21   -1    0    0  503  502  0.00000000000E+00  0.00000000000E+00  0.16988300028E+03  0.16988300028E+03  0.00000000000E+00 0. -1.
       21   -1    0    0  502  503 -0.00000000000E+00 -0.00000000000E+00 -0.91977054102E+02  0.91977054102E+02  0.00000000000E+00 0. -1.
       25    2    1    2    0    0  0.00000000000E+00  0.35527136788E-14  0.77905946175E+02  0.26186005438E+03  0.25000270325E+03 0.  0.
       24    2    3    3    0    0 -0.39347896709E+02  0.31125682334E+02 -0.31285993337E+02  0.11665699312E+03  0.10056329146E+03 0.  0.
      -24    2    3    3    0    0  0.39347896709E+02 -0.31125682334E+02  0.10919193951E+03  0.14520306126E+03  0.81510638986E+02 0.  0.
      -13    1    4    4    0    0 -0.68332726901E+02  0.29278681020E+02 -0.51342542374E+00  0.74342896995E+02  0.00000000000E+00 0.  1.
       14    1    4    4    0    0  0.28984830192E+02  0.18470013140E+01 -0.30772567913E+02  0.42314096127E+02  0.00000000000E+00 0. -1.
        3    1    5    5  501    0 -0.19615734900E+02 -0.31042969565E+02  0.43636332561E+02  0.57031329412E+02  0.00000000000E+00 0. -1.
       -4    1    5    5    0  501  0.58963631609E+02 -0.82712769109E-01  0.65555606951E+02  0.88171731846E+02  0.00000000000E+00 0.  1.
</event>
<event>
 9   1  0.7570500E-01  0.2500018E+03  0.7546771E-02  0.1113304E+00
       21   -1    0    0  503  502  0.00000000000E+00  0.00000000000E+00  0.42826443233E+03  0.42826443233E+03  0.00000000000E+00 0. -1.
       21   -1    0    0  502  503 -0.00000000000E+00 -0.00000000000E+00 -0.36484993266E+02  0.36484993266E+02  0.00000000000E+00 0. -1.
       25    2    1    2    0    0 -0.35527136788E-14  0.00000000000E+00  0.39177943907E+03  0.46474942560E+03  0.25000179943E+03 0.  0.
       24    2    3    3    0    0  0.27977769746E+02  0.30412174173E+02  0.35364907646E+03  0.36502886237E+03  0.80440941974E+02 0.  0.
      -24    2    3    3    0    0 -0.27977769746E+02 -0.30412174173E+02  0.38130362608E+02  0.99720563229E+02  0.82356604107E+02 0.  0.
      -13    1    4    4    0    0  0.32350217960E+02  0.98176484713E+01  0.33559741426E+03  0.33729593428E+03  0.00000000000E+00 0.  1.
       14    1    4    4    0    0 -0.43724482143E+01  0.20594525702E+02  0.18051662194E+02  0.27732928086E+02  0.00000000000E+00 0. -1.
        3    1    5    5  501    0  0.72900261396E+01 -0.50534785459E+02  0.26267192255E+02  0.57418415264E+02  0.00000000000E+00 0. -1.
       -4    1    5    5    0  501 -0.35267795885E+02  0.20122611286E+02  0.11863170353E+02  0.42302147964E+02  0.00000000000E+00 0.  1.
</event>
<event>
 9   1  0.7570500E-01  0.2499902E+03  0.7546771E-02  0.1113311E+00
       21   -1    0    0  503  502  0.00000000000E+00  0.00000000000E+00  0.18814437789E+03  0.18814437789E+03  0.00000000000E+00 0.  1.
       21   -1    0    0  502  503 -0.00000000000E+00 -0.00000000000E+00 -0.83041426580E+02  0.83041426580E+02  0.00000000000E+00 0.  1.
       25    2    1    2    0    0 -0.35527136788E-14  0.00000000000E+00  0.10510295131E+03  0.27118580447E+03  0.24999022015E+03 0.  0.
       24    2    3    3    0    0  0.31626936556E+02 -0.10343189089E+02 -0.45055913138E+02  0.98353621155E+02  0.80846489158E+02 0.  0.
      -24    2    3    3    0    0 -0.31626936556E+02  0.10343189089E+02  0.15015886444E+03  0.17283218331E+03  0.78841831159E+02 0.  0.
      -13    1    4    4    0    0  0.37164207067E+02  0.10774479502E+02  0.92835294785E+01  0.39792607543E+02  0.00000000000E+00 0.  1.
       14    1    4    4    0    0 -0.55372705111E+01 -0.21117668591E+02 -0.54339442616E+02  0.58561013612E+02  0.00000000000E+00 0. -1.
        3    1    5    5  501    0 -0.58106267753E+02  0.10316291587E+02  0.10709216664E+03  0.12227631161E+03  0.00000000000E+00 0. -1.
       -4    1    5    5    0  501  0.26479331197E+02  0.26897502163E-01  0.43066697803E+02  0.50555871704E+02  0.00000000000E+00 0.  1.
</event>
<event>
 9   1  0.7570500E-01  0.2500303E+03  0.7546771E-02  0.1113286E+00
       21   -1    0    0  503  502  0.00000000000E+00  0.00000000000E+00  0.19566989682E+03  0.19566989682E+03  0.00000000000E+00 0. -1.
       21   -1    0    0  502  503 -0.00000000000E+00 -0.00000000000E+00 -0.79873241486E+02  0.79873241486E+02  0.00000000000E+00 0. -1.
       25    2    1    2    0    0 -0.71054273576E-14  0.00000000000E+00  0.11579665533E+03  0.27554313830E+03  0.25003030952E+03 0.  0.
       24    2    3    3    0    0 -0.49005479503E+02  0.17320287273E+02  0.14633811933E+03  0.17575304055E+03  0.82296760088E+02 0.  0.
      -24    2    3    3    0    0  0.49005479503E+02 -0.17320287273E+02 -0.30541463999E+02  0.99790097753E+02  0.79522029739E+02 0.  0.
      -13    1    4    4    0    0  0.21838332586E+02 -0.16761144079E+01  0.50691722022E+02  0.55221126494E+02  0.00000000000E+00 0.  1.
       14    1    4    4    0    0 -0.70843812089E+02  0.18996401681E+02  0.95646397308E+02  0.12053191406E+03  0.00000000000E+00 0. -1.
        1    1    5    5  501    0  0.55766880158E+02 -0.14225038985E+02  0.10136186263E+02  0.58438334410E+02  0.00000000000E+00 0. -1.
       -2    1    5    5    0  501 -0.67614006552E+01 -0.30952482884E+01 -0.40677650261E+02  0.41351763343E+02  0.00000000000E+00 0.  1.
</event>
<event>
 9   1  0.7570500E-01  0.2500019E+03  0.7546771E-02  0.1113304E+00
       21   -1    0    0  503  502  0.00000000000E+00  0.00000000000E+00  0.92936871075E+03  0.92936871075E+03  0.00000000000E+00 0.  1.
       21   -1    0    0  502  503 -0.00000000000E+00 -0.00000000000E+00 -0.16812736766E+02  0.16812736766E+02  0.00000000000E+00 0.  1.
       25    2    1    2    0    0  0.14210854715E-13  0.00000000000E+00  0.91255597399E+03  0.94618144752E+03  0.25000185193E+03 0.  0.
       24    2    3    3    0    0  0.95296194221E+02  0.22463174230E+02  0.45062838347E+03  0.46735409093E+03  0.75947004434E+02 0.  0.
      -24    2    3    3    0    0 -0.95296194221E+02 -0.22463174230E+02  0.46192759051E+03  0.47882735659E+03  0.79451744572E+02 0.  0.
      -13    1    4    4    0    0  0.73085769865E+01 -0.22029772905E+02  0.12458308317E+03  0.12672675647E+03  0.00000000000E+00 0.  1.
       14    1    4    4    0    0  0.87987617234E+02  0.44492947135E+02  0.32604530030E+03  0.34062733446E+03  0.00000000000E+00 0. -1.
        3    1    5    5  501    0 -0.17291464417E+02 -0.25348540202E+02  0.43816920864E+02  0.53492670396E+02  0.00000000000E+00 0. -1.
       -4    1    5    5    0  501 -0.78004729804E+02  0.28853659720E+01  0.41811066965E+03  0.42533468620E+03  0.00000000000E+00 0.  1.
</event>
<event>
 9   1  0.7570500E-01  0.2499996E+03  0.7546771E-02  0.1113305E+00
       21   -1    0    0  503  502  0.00000000000E+00  0.00000000000E+00  0.69664098118E+02  0.69664098118E+02  0.00000000000E+00 0.  1.
       21   -1    0    0  502  503 -0.00000000000E+00 -0.00000000000E+00 -0.22428979402E+03  0.22428979402E+03  0.00000000000E+00 0.  1.
       25    2    1    2    0    0  0.00000000000E+00 -0.14210854715E-13 -0.15462569591E+03  0.29395389214E+03  0.24999956974E+03 0.  0.
       24    2    3    3    0    0  0.88789312722E+01  0.86259892133E+02 -0.26496313048E+02  0.12129294673E+03  0.80562521750E+02 0.  0.
      -24    2    3    3    0    0 -0.88789312722E+01 -0.86259892133E+02 -0.12812938286E+03  0.17266094541E+03  0.76648932845E+02 0.  0.
      -13    1    4    4    0    0 -0.26850535928E+02  0.52642741630E+02 -0.38826931624E+02  0.70708840644E+02  0.00000000000E+00 0.  1.
       14    1    4    4    0    0  0.35729467200E+02  0.33617150503E+02  0.12330618576E+02  0.50584106089E+02  0.00000000000E+00 0. -1.
        3    1    5    5  501    0 -0.33971658338E+02 -0.22250348419E+02 -0.76749621182E+02  0.86831192129E+02  0.00000000000E+00 0. -1.
       -4    1    5    5    0  501  0.25092727065E+02 -0.64009543714E+02 -0.51379761675E+02  0.85829753278E+02  0.00000000000E+00 0.  1.
</event>
<event>
 9   1  0.7570500E-01  0.2500014E+03  0.7546771E-02  0.1113304E+00
       21   -1    0    0  503  502  0.00000000000E+00  0.00000000000E+00  0.41799509000E+02  0.41799509000E+02  0.00000000000E+00 0. -1.
       21   -1    0    0  502  503 -0.00000000000E+00 -0.00000000000E+00 -0.37381252957E+03  0.37381252957E+03  0.00000000000E+00 0. -1.
       25    2    1    2    0    0  0.00000000000E+00  0.17763568394E-14 -0.33201302057E+03  0.41561203857E+03  0.25000144155E+03 0.  0.
       24    2    3    3    0    0  0.86180641928E+02  0.53870791954E+01 -0.86633130868E+02  0.14579809691E+03  0.79345208008E+02 0.  0.
      -24    2    3    3    0    0 -0.86180641928E+02 -0.53870791954E+01 -0.24537988970E+03  0.26981394166E+03  0.71639019935E+02 0.  0.
      -13    1    4    4    0    0  0.26265914576E+02  0.22709362712E+02 -0.74592514155E+02  0.82277922867E+02  0.00000000000E+00 0.  1.
       14    1    4    4    0    0  0.59914727353E+02 -0.17322283517E+02 -0.12040616713E+02  0.63520174046E+02  0.00000000000E+00 0. -1.
        1    1    5    5  501    0 -0.39177359063E+02  0.59502918350E+01 -0.19867741948E+03  0.20259069191E+03  0.00000000000E+00 0. -1.
       -2    1    5    5    0  501 -0.47003282866E+02 -0.11337371030E+02 -0.46702470216E+02  0.67223249745E+02  0.00000000000E+00 0.  1.
</event>
<event>
 9   1  0.7570500E-01  0.2499831E+03  0.7546771E-02  0.1113315E+00
       21   -1    0    0  503  502  0.00000000000E+00  0.00000000000E+00  0.10109122815E+03  0.10109122815E+03  0.00000000000E+00 0. -1.
       21   -1    0    0  502  503 -0.00000000000E+00 -0.00000000000E+00 -0.15454250620E+03  0.15454250620E+03  0.00000000000E+00 0. -1.
       25    2    1    2    0    0  0.00000000000E+00  0.10658141036E-13 -0.53451278055E+02  0.25563373435E+03  0.24998313346E+03 0.  0.
       24    2    3    3    0    0  0.82644784991E+02  0.29396420778E+02 -0.79064925080E+02  0.14072584442E+03  0.76538819355E+02 0.  0.
      -24    2    3    3    0    0 -0.82644784991E+02 -0.29396420778E+02  0.25613647025E+02  0.11490788994E+03  0.69666736790E+02 0.  0.
      -13    1    4    4    0    0  0.58474836445E+01  0.38581772597E+01 -0.56187164155E+02  0.56622221897E+02  0.00000000000E+00 0.  1.
       14    1    4    4    0    0  0.76797301346E+02  0.25538243519E+02 -0.22877760925E+02  0.84103622520E+02  0.00000000000E+00 0. -1.
        1    1    5    5  501    0 -0.84765873371E+01 -0.31797733488E+02 -0.73336687945E+01  0.33715442839E+02  0.00000000000E+00 0. -1.
       -2    1    5    5    0  501 -0.74168197654E+02  0.24013127097E+01  0.32947315820E+02  0.81192447097E+02  0.00000000000E+00 0.  1.
</event>
<event>
 9   1  0.7570500E-01  0.2500004E+03  0.7546771E-02  0.1113305E+00
       21   -1    0    0  503  502  0.00000000000E+00  0.00000000000E+00  0.98633171239E+02  0.98633171239E+02  0.00000000000E+00 0.  1.
       21   -1    0    0  502  503 -0.00000000000E+00 -0.00000000000E+00 -0.15841571011E+03  0.15841571011E+03  0.00000000000E+00 0.  1.
       25    2    1    2    0    0  0.00000000000E+00  0.00000000000E+00 -0.59782538870E+02  0.25704888135E+03  0.25000035090E+03 0.  0.
       24    2    3    3    0    0  0.91658611600E+01  0.82375437467E+02  0.15859339788E+02  0.11934172895E+03  0.84387225941E+02 0.  0.
      -24    2    3    3    0    0 -0.91658611600E+01 -0.82375437467E+02 -0.75641878658E+02  0.13770715240E+03  0.79823807887E+02 0.  0.
      -13    1    4    4    0    0 -0.37162081255E+02  0.29005303555E+02  0.11559966252E+02  0.48538239949E+02  0.00000000000E+00 0.  1.
       14    1    4    4    0    0  0.46327942415E+02  0.53370133912E+02  0.42993735351E+01  0.70803489003E+02  0.00000000000E+00 0. -1.
        3    1    5    5  501    0 -0.32891849350E+02 -0.47918809999E+02 -0.76239954690E+02  0.95867704659E+02  0.00000000000E+00 0. -1.
       -4    1    5    5    0  501  0.23725988190E+02 -0.34456627468E+02  0.59807603231E+00  0.41839447737E+02  0.00000000000E+00 0.  1.
</event>
<event>
 9   1  0.7570500E-01  0.2500005E+03  0.7546771E-02  0.1113305E+00
       21   -1    0    0  503  502  0.00000000000E+00  0.00000000000E+00  0.12332210550E+03  0.12332210550E+03  0.00000000000E+00 0. -1.
       21   -1    0    0  502  503 -0.00000000000E+00 -0.00000000000E+00 -0.12670119990E+03  0.12670119990E+03  0.00000000000E+00 0. -1.
       25    2    1    2    0    0  0.00000000000E+00  0.00000000000E+00 -0.33790944060E+01  0.25002330540E+03  0.25000046993E+03 0.  0.
       24    2    3    3    0    0  0.64898562344E+02 -0.58440609795E+02  0.30747471620E+02  0.12592617485E+03  0.85351427831E+02 0.  0.
      -24    2    3    3    0    0 -0.64898562344E+02  0.58440609795E+02 -0.34126566026E+02  0.12409713056E+03  0.81291740271E+02 0.  0.
      -13    1    4    4    0    0 -0.20564752376E+02 -0.18812900917E+02  0.83657266013E+01  0.29100166026E+02  0.00000000000E+00 0.  1.
       14    1    4    4    0    0  0.85463314720E+02 -0.39627708879E+02  0.22381745018E+02  0.96826008819E+02  0.00000000000E+00 0. -1.
        1    1    5    5  501    0 -0.43971924078E+02  0.86418567329E+00  0.14040745560E+02  0.46167298598E+02  0.00000000000E+00 0. -1.
       -2    1    5    5    0  501 -0.20926638266E+02  0.57576424122E+02 -0.48167311586E+02  0.77929831959E+02  0.00000000000E+00 0.  1.
</event>
<event>
 9   1  0.7570500E-01  0.2500051E+03  0.7546771E-02  0.1113302E+00
       21   -1    0    0  503  502  0.00000000000E+00  0.00000000000E+00  0.90235283861E+02  0.90235283861E+02  0.00000000000E+00 0. -1.
       21   -1    0    0  502  503 -0.00000000000E+00 -0.00000000000E+00 -0.17316544021E+03  0.17316544021E+03  0.00000000000E+00 0. -1.
       25    2    1    2    0    0 -0.71054273576E-14  0.00000000000E+00 -0.82930156348E+02  0.26340072407E+03  0.25000506117E+03 0.  0.
       24    2    3    3    0    0 -0.52918938022E+02 -0.17082372517E+02  0.40877184309E+02  0.10587110586E+03  0.80284029583E+02 0.  0.
      -24    2    3    3    0    0  0.52918938022E+02  0.17082372517E+02 -0.12380734066E+03  0.15752961821E+03  0.79969378898E+02 0.  0.
      -13    1    4    4    0    0 -0.14244414372E+02 -0.45658249434E+02  0.30351538857E+02  0.56646226645E+02  0.00000000000E+00 0.  1.
       14    1    4    4    0    0 -0.38674523651E+02  0.28575876917E+02  0.10525645453E+02  0.49224879212E+02  0.00000000000E+00 0. -1.
        3    1    5    5  501    0  0.55013863566E+02  0.19880489769E+02 -0.34009784801E+02  0.67664056338E+02  0.00000000000E+00 0. -1.
       -4    1    5    5    0  501 -0.20949255434E+01 -0.27981172518E+01 -0.89797555857E+02  0.89865561875E+02  0.00000000000E+00 0.  1.
</event>
<event>
 9   1  0.7570500E-01  0.2500021E+03  0.7546771E-02  0.1113304E+00
       21   -1    0    0  503  502  0.00000000000E+00  0.00000000000E+00  0.20501775237E+03  0.20501775237E+03  0.00000000000E+00 0.  1.
       21   -1    0    0  502  503 -0.00000000000E+00 -0.00000000000E+00 -0.76214162859E+02  0.76214162859E+02  0.00000000000E+00 0.  1.
       25    2    1    2    0    0 -0.14210854715E-13  0.44408920985E-15  0.12880358951E+03  0.28123191523E+03  0.25000205094E+03 0.  0.
       24    2    3    3    0    0  0.60949751076E+02 -0.39370050178E+01  0.14742309627E+03  0.17813419713E+03  0.79169758800E+02 0.  0.
      -24    2    3    3    0    0 -0.60949751076E+02  0.39370050178E+01 -0.18619506763E+02  0.10309771810E+03  0.80944927450E+02 0.  0.
      -13    1    4    4    0    0  0.78076473377E+02  0.76212855355E+01  0.10630367802E+03  0.13211544819E+03  0.00000000000E+00 0.  1.
       14    1    4    4    0    0 -0.17126722302E+02 -0.11558290553E+02  0.41119418250E+02  0.46018748946E+02  0.00000000000E+00 0. -1.
        3    1    5    5  501    0 -0.10056095444E+01 -0.30504595369E+01 -0.39202768591E+02  0.39334127919E+02  0.00000000000E+00 0. -1.
       -4    1    5    5    0  501 -0.59944141531E+02  0.69874645547E+01  0.20583261828E+02  0.63763590177E+02  0.00000000000E+00 0.  1.
</event>
<event>
 9   1  0.7570500E-01  0.2499959E+03  0.7546771E-02  0.1113307E+00
       21   -1    0    0  503  502  0.00000000000E+00  0.00000000000E+00  0.15020375828E+03  0.15020375828E+03  0.00000000000E+00 0. -1.
       21   -1    0    0  502  503 -0.00000000000E+00 -0.00000000000E+00 -0.10402198123E+03  0.10402198123E+03  0.00000000000E+00 0. -1.
       25    2    1    2    0    0  0.00000000000E+00  0.00000000000E+00  0.46181777053E+02  0.25422573951E+03  0.24999594017E+03 0.  0.
       24    2    3    3    0    0  0.38203243430E+02 -0.43405726653E+02 -0.54904818363E+02  0.11301181354E+03  0.80084867512E+02 0.  0.
      -24    2    3    3    0    0 -0.38203243430E+02  0.43405726653E+02  0.10108659542E+03  0.14121392598E+03  0.79870696767E+02 0.  0.
      -13    1    4    4    0    0 -0.35669666705E+01 -0.10049466986E+02  0.19008078442E+02  0.21795001353E+02  0.00000000000E+00 0.  1.
       14    1    4    4    0    0  0.41770210100E+02 -0.33356259667E+02 -0.73912896805E+02  0.91216812183E+02  0.00000000000E+00 0. -1.
        1    1    5    5  501    0  0.12433049830E+00 -0.18066166724E+02  0.48333881349E+02  0.51600057407E+02  0.00000000000E+00 0. -1.
       -2    1    5    5    0  501 -0.38327573928E+02  0.61471893377E+02  0.52752714068E+02  0.89613868570E+02  0.00000000000E+00 0.  1.
</event>
<event>
 9   1  0.7570500E-01  0.2499946E+03  0.7546771E-02  0.1113308E+00
       21   -1    0    0  503  502  0.00000000000E+00  0.00000000000E+00  0.59981139215E+02  0.59981139215E+02  0.00000000000E+00 0. -1.
       21   -1    0    0  502  503 -0.00000000000E+00 -0.00000000000E+00 -0.26048739108E+03  0.26048739108E+03  0.00000000000E+00 0. -1.
       25    2    1    2    0    0  0.00000000000E+00  0.44408920985E-14 -0.20050625186E+03  0.32046853029E+03  0.24999464369E+03 0.  0.
       24    2    3    3    0    0 -0.46120265000E+02 -0.49327396961E+01 -0.20632862408E+03  0.22695702932E+03  0.82380709404E+02 0.  0.
      -24    2    3    3    0    0  0.46120265000E+02  0.49327396961E+01  0.58223722126E+01  0.93511500969E+02  0.80988209208E+02 0.  0.
      -13    1    4    4    0    0 -0.51035458175E+02 -0.12200147975E+02 -0.57400426638E+02  0.77770628003E+02  0.00000000000E+00 0.  1.
       14    1    4    4    0    0  0.49151931750E+01  0.72674082785E+01 -0.14892819744E+03  0.14918640132E+03  0.00000000000E+00 0. -1.
        1    1    5    5  501    0 -0.10577186689E+02  0.28539443681E+02  0.97783187217E+01  0.31968613371E+02  0.00000000000E+00 0. -1.
       -2    1    5    5    0  501  0.56697451690E+02 -0.23606703984E+02 -0.39559465091E+01  0.61542887598E+02  0.00000000000E+00 0.  1.
</event>
<event>
 9   1  0.7570500E-01  0.2499896E+03  0.7546771E-02  0.1113311E+00
       21   -1    0    0  503  502  0.00000000000E+00  0.00000000000E+00  0.42323777969E+02  0.42323777969E+02  0.00000000000E+00 0. -1.
       21   -1    0    0  502  503 -0.00000000000E+00 -0.00000000000E+00 -0.36914699579E+03  0.36914699579E+03  0.00000000000E+00 0. -1.
       25    2    1    2    0    0 -0.35527136788E-14  0.71054273576E-14 -0.32682321782E+03  0.41147077376E+03  0.24998956369E+03 0.  0.
       24    2    3    3    0    0 -0.29593440940E+01 -0.55012091049E+02 -0.32667481541E+02  0.10154638828E+03  0.78799852427E+02 0.  0.
      -24    2    3    3    0    0  0.29593440940E+01  0.55012091049E+02 -0.29415573628E+03  0.30992438548E+03  0.80563264908E+02 0.  0.
      -13    1    4    4    0    0 -0.40026561865E+02 -0.24884033704E+02 -0.80657393645E+01  0.47816283206E+02  0.00000000000E+00 0.  1.
       14    1    4    4    0    0  0.37067217771E+02 -0.30128057344E+02 -0.24601742177E+02  0.53730105069E+02  0.00000000000E+00 0. -1.
        3    1    5    5  501    0  0.31665255728E+02  0.60572885127E+02 -0.20408766471E+03  0.21522903550E+03  0.00000000000E+00 0. -1.
       -4    1    5    5    0  501 -0.28705911634E+02 -0.55607940779E+01 -0.90068071566E+02  0.94695349987E+02  0.00000000000E+00 0.  1.
</event>
<event>
 9   1  0.7570500E-01  0.2499988E+03  0.7546771E-02  0.1113306E+00
       21   -1    0    0  503  502  0.00000000000E+00  0.00000000000E+00  0.21992954957E+03  0.21992954957E+03  0.00000000000E+00 0.  1.
       21   -1    0    0  502  503 -0.00000000000E+00 -0.00000000000E+00 -0.71044771307E+02  0.71044771307E+02  0.00000000000E+00 0.  1.
       25    2    1    2    0    0  0.00000000000E+00  0.14210854715E-13  0.14888477827E+03  0.29097432088E+03  0.24999875642E+03 0.  0.
       24    2    3    3    0    0  0.34612216509E+02  0.89839198912E+02  0.70482319749E+02  0.14485300150E+03  0.82131281821E+02 0.  0.
      -24    2    3    3    0    0 -0.34612216509E+02 -0.89839198912E+02  0.78402458519E+02  0.14612131938E+03  0.77041594499E+02 0.  0.
      -13    1    4    4    0    0  0.22538200712E+02  0.27544307036E+02 -0.14807653738E+02  0.38547710057E+02  0.00000000000E+00 0.  1.
       14    1    4    4    0    0  0.12074015797E+02  0.62294891876E+02  0.85289973487E+02  0.10630529144E+03  0.00000000000E+00 0. -1.
        1    1    5    5  501    0  0.19288100128E+02 -0.14994114600E+02 -0.95174842985E+00  0.24449132996E+02  0.00000000000E+00 0. -1.
       -2    1    5    5    0  501 -0.53900316637E+02 -0.74845084312E+02  0.79354206949E+02  0.12167218639E+03  0.00000000000E+00 0.  1.
</event>
<event>
 9   1  0.7570500E-01  0.2499994E+03  0.7546771E-02  0.1113305E+00
       21   -1    0    0  503  502  0.00000000000E+00  0.00000000000E+00  0.37023397996E+02  0.37023397996E+02  0.00000000000E+00 0. -1.
       21   -1    0    0  502  503 -0.00000000000E+00 -0.00000000000E+00 -0.42202848528E+03  0.42202848528E+03  0.00000000000E+00 0. -1.
       25    2    1    2    0    0  0.00000000000E+00  0.35527136788E-14 -0.38500508729E+03  0.45905188328E+03  0.24999942861E+03 0.  0.
       24    2    3    3    0    0 -0.92882450788E+02 -0.30906931976E+01 -0.14210989403E+03  0.18704914743E+03  0.78456736634E+02 0.  0.
      -24    2    3    3    0    0  0.92882450788E+02  0.30906931976E+01 -0.24289519326E+03  0.27200273585E+03  0.79691350563E+02 0.  0.
      -13    1    4    4    0    0 -0.22132851589E+01  0.25546657938E+02 -0.40090116912E+02  0.47589366848E+02  0.00000000000E+00 0.  1.
       14    1    4    4    0    0 -0.90669165629E+02 -0.28637351135E+02 -0.10201977712E+03  0.13945978058E+03  0.00000000000E+00 0. -1.
        3    1    5    5  501    0  0.14605738541E+02  0.34866442724E+02 -0.81218299042E+02  0.89584644476E+02  0.00000000000E+00 0. -1.
       -4    1    5    5    0  501  0.78276712248E+02 -0.31775749526E+02 -0.16167689422E+03  0.18241809138E+03  0.00000000000E+00 0.  1.
</event>
<event>
 9   1  0.7570500E-01  0.2500055E+03  0.7546771E-02  0.1113301E+00
       21   -1    0    0  503  502  0.00000000000E+00  0.00000000000E+00  0.53293894445E+02  0.53293894445E+02  0.00000000000E+00 0. -1.
       21   -1    0    0  502  503 -0.00000000000E+00 -0.00000000000E+00 -0.29319836675E+03  0.29319836675E+03  0.00000000000E+00 0. -1.
       25    2    1    2    0    0  0.00000000000E+00  0.00000000000E+00 -0.23990447230E+03  0.34649226119E+03  0.25000546241E+03 0.  0.
       24    2    3    3    0    0  0.78872692633E+02 -0.51796954743E+02 -0.94154904417E+02  0.15516182082E+03  0.79411702231E+02 0.  0.
      -24    2    3    3    0    0 -0.78872692633E+02  0.51796954743E+02 -0.14574956789E+03  0.19133044037E+03  0.80377700327E+02 0.  0.
      -13    1    4    4    0    0  0.32990098732E+02 -0.58128093164E+02 -0.23837937003E+02  0.70961039097E+02  0.00000000000E+00 0.  1.
       14    1    4    4    0    0  0.45882593901E+02  0.63311384202E+01 -0.70316967414E+02  0.84200781725E+02  0.00000000000E+00 0. -1.
        1    1    5    5  501    0 -0.55811815929E+02 -0.10883204242E+02 -0.73711237983E+02  0.93095378708E+02  0.00000000000E+00 0. -1.
       -2    1    5    5    0  501 -0.23060876704E+02  0.62680158985E+02 -0.72038329904E+02  0.98235061664E+02  0.00000000000E+00 0.  1.
</event>
<event>
 9   1  0.7570500E-01  0.2500009E+03  0.7546771E-02  0.1113304E+00
       21   -1    0    0  503  502  0.00000000000E+00  0.00000000000E+00  0.37312267808E+02  0.37312267808E+02  0.00000000000E+00 0.  1.
       21   -1    0    0  502  503 -0.00000000000E+00 -0.00000000000E+00 -0.41876621143E+03  0.41876621143E+03  0.00000000000E+00 0.  1.
       25    2    1    2    0    0  0.00000000000E+00  0.14210854715E-13 -0.38145394362E+03  0.45607847924E+03  0.25000093624E+03 0.  0.
       24    2    3    3    0    0 -0.72602350242E+02  0.60225534230E+02 -0.22271985135E+03  0.25474773030E+03  0.79962851824E+02 0.  0.
      -24    2    3    3    0    0  0.72602350242E+02 -0.60225534230E+02 -0.15873409227E+03  0.20133074894E+03  0.80245511938E+02 0.  0.
      -13    1    4    4    0    0 -0.97454189139E+01  0.35918558188E+02 -0.15424538590E+03  0.15867184717E+03  0.00000000000E+00 0.  1.
       14    1    4    4    0    0 -0.62856931328E+02  0.24306976042E+02 -0.68474465450E+02  0.96075883129E+02  0.00000000000E+00 0. -1.
        3    1    5    5  501    0  0.74979341158E+02 -0.14394220692E+02 -0.82981480789E+02  0.11276090344E+03  0.00000000000E+00 0. -1.
       -4    1    5    5    0  501 -0.23769909159E+01 -0.45831313538E+02 -0.75752611483E+02  0.88569845506E+02  0.00000000000E+00 0.  1.
</event>
<event>
 9   1  0.7570500E-01  0.2499981E+03  0.7546771E-02  0.1113306E+00
       21   -1    0    0  503  502  0.00000000000E+00  0.00000000000E+00  0.25727025897E+03  0.25727025897E+03  0.00000000000E+00 0. -1.
       21   -1    0    0  502  503 -0.00000000000E+00 -0.00000000000E+00 -0.60732874853E+02  0.60732874853E+02  0.00000000000E+00 0. -1.
       25    2    1    2    0    0 -0.26645352591E-14  0.14210854715E-13  0.19653738412E+03  0.31800313382E+03  0.24999809953E+03 0.  0.
       24    2    3    3    0    0  0.37737081462E+01  0.43959030777E+02  0.20730303000E+03  0.22670355735E+03  0.80456941314E+02 0.  0.
      -24    2    3    3    0    0 -0.37737081462E+01 -0.43959030777E+02 -0.10765645886E+02  0.91299576477E+02  0.79202754204E+02 0.  0.
      -13    1    4    4    0    0 -0.48356485096E+01 -0.21767009454E+02  0.81622434621E+02  0.84613285189E+02  0.00000000000E+00 0.  1.
       14    1    4    4    0    0  0.86093566558E+01  0.65726040231E+02  0.12568059538E+03  0.14209027216E+03  0.00000000000E+00 0. -1.
        1    1    5    5  501    0 -0.38056930473E+02 -0.19545704865E+02  0.10633469293E+02  0.44084409998E+02  0.00000000000E+00 0. -1.
       -2    1    5    5    0  501  0.34283222326E+02 -0.24413325912E+02 -0.21399115179E+02  0.47215166478E+02  0.00000000000E+00 0.  1.
</event>
<event>
 9   1  0.7570500E-01  0.2499995E+03  0.7546771E-02  0.1113305E+00
       21   -1    0    0  503  502  0.00000000000E+00  0.00000000000E+00  0.31924632065E+02  0.31924632065E+02  0.00000000000E+00 0. -1.
       21   -1    0    0  502  503 -0.00000000000E+00 -0.00000000000E+00 -0.48943215071E+03  0.48943215071E+03  0.00000000000E+00 0. -1.
       25    2    1    2    0    0  0.00000000000E+00  0.00000000000E+00 -0.45750751865E+03  0.52135678278E+03  0.24999953066E+03 0.  0.
       24    2    3    3    0    0  0.70655843366E+02 -0.62240971000E+00 -0.67462066964E+02  0.11698500670E+03  0.64356240716E+02 0.  0.
      -24    2    3    3    0    0 -0.70655843366E+02  0.62240971000E+00 -0.39004545168E+03  0.40437177607E+03  0.79927738049E+02 0.  0.
      -13    1    4    4    0    0  0.35622278652E+02 -0.32431592539E+02 -0.31643827059E+02  0.57637546113E+02  0.00000000000E+00 0.  1.
       14    1    4    4    0    0  0.35033564714E+02  0.31809182829E+02 -0.35818239905E+02  0.59347460592E+02  0.00000000000E+00 0. -1.
        1    1    5    5  501    0 -0.63899383170E+02  0.10114588096E+02 -0.14189011218E+03  0.15594306652E+03  0.00000000000E+00 0. -1.
       -2    1    5    5    0  501 -0.67564601953E+01 -0.94921783863E+01 -0.24815533950E+03  0.24842870955E+03  0.00000000000E+00 0.  1.
</event>
<event>
 9   1  0.7570500E-01  0.2499979E+03  0.7546771E-02  0.1113306E+00
       21   -1    0    0  503  502  0.00000000000E+00  0.00000000000E+00  0.36772943151E+02  0.36772943151E+02  0.00000000000E+00 0. -1.
       21   -1    0    0  502  503 -0.00000000000E+00 -0.00000000000E+00 -0.42489750389E+03  0.42489750389E+03  0.00000000000E+00 0. -1.
       25    2    1    2    0    0  0.00000000000E+00  0.00000000000E+00 -0.38812456074E+03  0.46167044704E+03  0.24999785403E+03 0.  0.
       24    2    3    3    0    0 -0.40304148350E+02 -0.34079682002E+02 -0.48870556768E+02  0.10887087936E+03  0.81723239982E+02 0.  0.
      -24    2    3    3    0    0  0.40304148350E+02  0.34079682002E+02 -0.33925400397E+03  0.35279956769E+03  0.81169000544E+02 0.  0.
      -13    1    4    4    0    0 -0.33940851167E+02 -0.47571302239E+02 -0.64656466064E+02  0.87151986659E+02  0.00000000000E+00 0.  1.
       14    1    4    4    0    0 -0.63632971828E+01  0.13491620237E+02  0.15785909296E+02  0.21718892696E+02  0.00000000000E+00 0. -1.
        1    1    5    5  501    0  0.22132917788E+02  0.32555542132E+02 -0.33002032654E+03  0.33235996345E+03  0.00000000000E+00 0. -1.
       -2    1    5    5    0  501  0.18171230563E+02  0.15241398700E+01 -0.92336774307E+01  0.20439604238E+02  0.00000000000E+00 0.  1.
</event>
<event>
 9   1  0.7570500E-01  0.2499993E+03  0.7546771E-02  0.1113305E+00
       21   -1    0    0  503  502  0.00000000000E+00  0.00000000000E+00  0.79393476304E+02  0.79393476304E+02  0.00000000000E+00 0.  1.
       21   -1    0    0  502  503 -0.00000000000E+00 -0.00000000000E+00 -0.19680353383E+03  0.19680353383E+03  0.00000000000E+00 0.  1.
       25    2    1    2    0    0  0.00000000000E+00  0.00000000000E+00 -0.11741005752E+03  0.27619701013E+03  0.24999933360E+03 0.  0.
       24    2    3    3    0    0 -0.27428676574E+01  0.96976016477E+02 -0.47515082592E+02  0.13276465965E+03  0.77180960626E+02 0.  0.
      -24    2    3    3    0    0  0.27428676574E+01 -0.96976016477E+02 -0.69894974932E+02  0.14343235048E+03  0.79219066834E+02 0.  0.
      -13    1    4    4    0    0  0.36123182825E+02  0.43062747987E+02 -0.31372886726E+02  0.64370355158E+02  0.00000000000E+00 0.  1.
       14    1    4    4    0    0 -0.38866050483E+02  0.53913268490E+02 -0.16142195866E+02  0.68394304491E+02  0.00000000000E+00 0. -1.
        1    1    5    5  501    0  0.39833580292E+02 -0.42389622567E+02 -0.23378359349E+02  0.62690843878E+02  0.00000000000E+00 0. -1.
       -2    1    5    5    0  501 -0.37090712634E+02 -0.54586393910E+02 -0.46516615583E+02  0.80741506606E+02  0.00000000000E+00 0.  1.
</event>
<event>
 9   1  0.7570500E-01  0.2499996E+03  0.7546771E-02  0.1113305E+00
       21   -1    0    0  503  502  0.00000000000E+00  0.00000000000E+00  0.42948891484E+03  0.42948891484E+03  0.00000000000E+00 0.  1.
       21   -1    0    0  502  503 -0.00000000000E+00 -0.00000000000E+00 -0.36380333003E+02  0.36380333003E+02  0.00000000000E+00 0.  1.
       25    2    1    2    0    0 -0.14210854715E-13  0.00000000000E+00  0.39310858183E+03  0.46586924784E+03  0.24999959794E+03 0.  0.
       24    2    3    3    0    0  0.76353421580E+02 -0.42985377256E+02  0.26010991745E+03  0.28390000176E+03  0.72556558614E+02 0.  0.
      -24    2    3    3    0    0 -0.76353421580E+02  0.42985377256E+02  0.13299866438E+03  0.18196924608E+03  0.88014624618E+02 0.  0.
      -13    1    4    4    0    0 -0.84473413714E-01  0.14727207400E+01  0.10759108521E+03  0.10760119729E+03  0.00000000000E+00 0.  1.
       14    1    4    4    0    0  0.76437894993E+02 -0.44458097996E+02  0.15251883224E+03  0.17629880447E+03  0.00000000000E+00 0. -1.
        3    1    5    5  501    0 -0.53629637197E+02  0.31243717701E+02  0.14190501821E+03  0.15488493172E+03  0.00000000000E+00 0. -1.
       -4    1    5    5    0  501 -0.22723784383E+02  0.11741659555E+02 -0.89063538260E+01  0.27084314358E+02  0.00000000000E+00 0.  1.
</event>
<event>
 9   1  0.7570500E-01  0.2500062E+03  0.7546771E-02  0.1113301E+00
       21   -1    0    0  503  502  0.00000000000E+00  0.00000000000E+00  0.19895092312E+02  0.19895092312E+02  0.00000000000E+00 0. -1.
       21   -1    0    0  502  503 -0.00000000000E+00 -0.00000000000E+00 -0.78540875854E+03  0.78540875854E+03  0.00000000000E+00 0. -1.
       25    2    1    2    0    0  0.00000000000E+00  0.71054273576E-14 -0.76551366623E+03  0.80530385086E+03  0.25000623795E+03 0.  0.
       24    2    3    3    0    0 -0.83903474538E+02 -0.45925222378E+02 -0.36378041967E+03  0.38462647307E+03  0.80326900575E+02 0.  0.
      -24    2    3    3    0    0  0.83903474538E+02  0.45925222378E+02 -0.40173324656E+03  0.42067737779E+03  0.80193115058E+02 0.  0.
      -13    1    4    4    0    0 -0.68496582999E+02 -0.37716507439E+02 -0.35769018845E+03  0.36613738915E+03  0.00000000000E+00 0.  1.
       14    1    4    4    0    0 -0.15406891540E+02 -0.82087149381E+01 -0.60902312196E+01  0.18489083919E+02  0.00000000000E+00 0. -1.
        3    1    5    5  501    0 -0.90787789472E+01  0.17824033026E+02 -0.14149128953E+03  0.14289823440E+03  0.00000000000E+00 0. -1.
       -4    1    5    5    0  501  0.92982253486E+02  0.28101189352E+02 -0.26024195703E+03  0.27777914339E+03  0.00000000000E+00 0.  1.
</event>
<event>
 9   1  0.7570500E-01  0.2499776E+03  0.7546771E-02  0.1113319E+00
       21   -1    0    0  503  502  0.00000000000E+00  0.00000000000E+00  0.24219453861E+03  0.24219453861E+03  0.00000000000E+00 0. -1.
       21   -1    0    0  502  503 -0.00000000000E+00 -0.00000000000E+00 -0.64502681996E+02  0.64502681996E+02  0.00000000000E+00 0. -1.
       25    2    1    2    0    0 -0.71054273576E-14 -0.14210854715E-13  0.17769185662E+03  0.30669722061E+03  0.24997757744E+03 0.  0.
       24    2    3    3    0    0  0.34719604734E+02  0.84374274965E+02  0.41117328429E+02  0.12405971789E+03  0.73319231287E+02 0.  0.
      -24    2    3    3    0    0 -0.34719604734E+02 -0.84374274965E+02  0.13657452819E+03  0.18263750272E+03  0.79871061227E+02 0.  0.
      -13    1    4    4    0    0  0.12600300624E+01  0.76145670620E+02  0.85268604420E+01  0.76631965778E+02  0.00000000000E+00 0.  1.
       14    1    4    4    0    0  0.33459574671E+02  0.82286043452E+01  0.32590467987E+02  0.47427752110E+02  0.00000000000E+00 0. -1.
        3    1    5    5  501    0 -0.25825597144E+02 -0.52301696124E+02  0.20408518507E+02  0.61797544554E+02  0.00000000000E+00 0. -1.
       -4    1    5    5    0  501 -0.88940075898E+01 -0.32072578841E+02  0.11616600968E+03  0.12083995817E+03  0.00000000000E+00 0.  1.
</event>
<event>
 9   1  0.7570500E-01  0.2500006E+03  0.7546771E-02  0.1113304E+00
       21   -1    0    0  503  502  0.00000000000E+00  0.00000000000E+00  0.32119848502E+02  0.32119848502E+02  0.00000000000E+00 0.  1.
       21   -1    0    0  502  503 -0.00000000000E+00 -0.00000000000E+00 -0.48646154472E+03  0.48646154472E+03  0.00000000000E+00 0.  1.
       25    2    1    2    0    0  0.35527136788E-14  0.17763568394E-14 -0.45434169622E+03  0.51858139322E+03  0.25000056895E+03 0.  0.
       24    2    3    3    0    0  0.14369410108E+02  0.98886626245E+00 -0.42203678767E+03  0.43028918357E+03  0.82621265712E+02 0.  0.
      -24    2    3    3    0    0 -0.14369410108E+02 -0.98886626245E+00 -0.32304908549E+02  0.88292209651E+02  0.80897771078E+02 0.  0.
      -13    1    4    4    0    0  0.47358473525E+02  0.75503202535E+01 -0.29511970968E+03  0.29899076138E+03  0.00000000000E+00 0.  1.
       14    1    4    4    0    0 -0.32989063417E+02 -0.65614539911E+01 -0.12691707799E+03  0.13129842219E+03  0.00000000000E+00 0. -1.
        3    1    5    5  501    0  0.27135271669E+02 -0.21706287491E+02 -0.69854403955E+01  0.35444072321E+02  0.00000000000E+00 0. -1.
       -4    1    5    5    0  501 -0.41504681777E+02  0.20717421229E+02 -0.25319468153E+02  0.52848137330E+02  0.00000000000E+00 0.  1.
</event>
<event>
 9   1  0.7570500E-01  0.2499985E+03  0.7546771E-02  0.1113306E+00
       21   -1    0    0  503  502  0.00000000000E+00  0.00000000000E+00  0.18341982800E+02  0.18341982800E+02  0.00000000000E+00 0. -1.
       21   -1    0    0  502  503 -0.00000000000E+00 -0.00000000000E+00 -0.85186072703E+03  0.85186072703E+03  0.00000000000E+00 0. -1.
       25    2    1    2    0    0  0.00000000000E+00 -0.71054273576E-14 -0.83351874423E+03  0.87020270983E+03  0.24999851842E+03 0.  0.
       24    2    3    3    0    0  0.26616097927E+02 -0.23479274557E+02 -0.10804796793E+03  0.13947209325E+03  0.80736660942E+02 0.  0.
      -24    2    3    3    0    0 -0.26616097927E+02  0.23479274557E+02 -0.72547077630E+03  0.73073061658E+03  0.79998085821E+02 0.  0.
      -13    1    4    4    0    0  0.36504195229E+02 -0.48246612979E+02 -0.64717578639E+02  0.88592645960E+02  0.00000000000E+00 0.  1.
       14    1    4    4    0    0 -0.98880973017E+01  0.24767338422E+02 -0.43330389293E+02  0.50879447295E+02  0.00000000000E+00 0. -1.
        1    1    5    5  501    0 -0.45955937492E+01 -0.23839487420E+02 -0.43006272753E+03  0.43074747853E+03  0.00000000000E+00 0. -1.
       -2    1    5    5    0  501 -0.22020504178E+02  0.47318761977E+02 -0.29540804877E+03  0.29998313805E+03  0.00000000000E+00 0.  1.
</event>
<event>
 9   1  0.7570500E-01  0.2500213E+03  0.7546771E-02  0.1113291E+00
       21   -1    0    0  503  502  0.00000000000E+00  0.00000000000E+00  0.68801154568E+02  0.68801154568E+02  0.00000000000E+00 0. -1.
       21   -1    0    0  502  503 -0.00000000000E+00 -0.00000000000E+00 -0.22714251682E+03  0.22714251682E+03  0.00000000000E+00 0. -1.
       25    2    1    2    0    0  0.00000000000E+00  0.00000000000E+00 -0.15834136225E+03  0.29594367139E+03  0.25002133836E+03 0.  0.
       24    2    3    3    0    0  0.26015080931E+00  0.81653404005E+01 -0.19156041577E+03  0.20819841979E+03  0.81144615656E+02 0.  0.
      -24    2    3    3    0    0 -0.26015080931E+00 -0.81653404005E+01  0.33219053517E+02  0.87745251602E+02  0.80802123733E+02 0.  0.
      -13    1    4    4    0    0 -0.17986681146E+02 -0.30860479657E+02 -0.60710835119E+02  0.70439302979E+02  0.00000000000E+00 0.  1.
       14    1    4    4    0    0  0.18246831955E+02  0.39025820057E+02 -0.13084958065E+03  0.13775911681E+03  0.00000000000E+00 0. -1.
        1    1    5    5  501    0 -0.19921970469E+02  0.24098434017E+02  0.38497951057E+02  0.49595480289E+02  0.00000000000E+00 0. -1.
       -2    1    5    5    0  501  0.19661819660E+02 -0.32263774418E+02 -0.52788975403E+01  0.38149771313E+02  0.00000000000E+00 0.  1.
</event>
<event>
 9   1  0.7570500E-01  0.2500071E+03  0.7546771E-02  0.1113300E+00
       21   -1    0    0  503  502  0.00000000000E+00  0.00000000000E+00  0.31731237241E+03  0.31731237241E+03  0.00000000000E+00 0. -1.
       21   -1    0    0  502  503 -0.00000000000E+00 -0.00000000000E+00 -0.49244484683E+02  0.49244484683E+02  0.00000000000E+00 0. -1.
       25    2    1    2    0    0  0.00000000000E+00  0.00000000000E+00  0.26806788772E+03  0.36655685709E+03  0.25000707400E+03 0.  0.
       24    2    3    3    0    0 -0.18665205771E+02 -0.98854644742E+02  0.12560500796E+03  0.17559404783E+03  0.70256821120E+02 0.  0.
      -24    2    3    3    0    0  0.18665205771E+02  0.98854644742E+02  0.14246287976E+03  0.19096280926E+03  0.77784906749E+02 0.  0.
      -13    1    4    4    0    0 -0.36905520283E+02 -0.33950687162E+02  0.29436618119E+02  0.58147924060E+02  0.00000000000E+00 0.  1.
       14    1    4    4    0    0  0.18240314513E+02 -0.64903957579E+02  0.96168389846E+02  0.11744612377E+03  0.00000000000E+00 0. -1.
        1    1    5    5  501    0 -0.26726201530E+02  0.25087392397E+02  0.65671730960E+02  0.75209330224E+02  0.00000000000E+00 0. -1.
       -2    1    5    5    0  501  0.45391407300E+02  0.73767252344E+02  0.76791148800E+02  0.11575347904E+03  0.00000000000E+00 0.  1.
</event>
<event>
 9   1  0.7570500E-01  0.2499956E+03  0.7546771E-02  0.1113308E+00
       21   -1    0    0  503  502  0.00000000000E+00  0.00000000000E+00  0.15747266266E+03  0.15747266266E+03  0.00000000000E+00 0. -1.
       21   -1    0    0  502  503 -0.00000000000E+00 -0.00000000000E+00 -0.99220081630E+02  0.99220081630E+02  0.00000000000E+00 0. -1.
       25    2    1    2    0    0 -0.14210854715E-13  0.71054273576E-14  0.58252581030E+02  0.25669274429E+03  0.24999560351E+03 0.  0.
       24    2    3    3    0    0 -0.63137729211E+02  0.60845030480E+02 -0.97497948429E+01  0.11915502732E+03  0.80089771210E+02 0.  0.
      -24    2    3    3    0    0  0.63137729211E+02 -0.60845030480E+02  0.68002375873E+02  0.13753771697E+03  0.81263828858E+02 0.  0.
      -13    1    4    4    0    0  0.40263866311E+01  0.43992928714E+02  0.13362865877E+02  0.46153610374E+02  0.00000000000E+00 0.  1.
       14    1    4    4    0    0 -0.67164115842E+02  0.16852101766E+02 -0.23112660720E+02  0.73001416947E+02  0.00000000000E+00 0. -1.
        1    1    5    5  501    0  0.22862102312E+01 -0.19966050170E+02 -0.16259509586E+02  0.25850368829E+02  0.00000000000E+00 0. -1.
       -2    1    5    5    0  501  0.60851518980E+02 -0.40878980311E+02  0.84261885460E+02  0.11168734814E+03  0.00000000000E+00 0.  1.
</event>
<event>
 9   1  0.7570500E-01  0.2499966E+03  0.7546771E-02  0.1113307E+00
       21   -1    0    0  503  502  0.00000000000E+00  0.00000000000E+00  0.77584909317E+03  0.77584909317E+03  0.00000000000E+00 0. -1.
       21   -1    0    0  502  503 -0.00000000000E+00 -0.00000000000E+00 -0.20138682498E+02  0.20138682498E+02  0.00000000000E+00 0. -1.
       25    2    1    2    0    0 -0.14210854715E-13  0.00000000000E+00  0.75571041068E+03  0.79598777567E+03  0.24999662841E+03 0.  0.
       24    2    3    3    0    0  0.92491518721E+02 -0.19003891201E+02  0.32786790103E+03  0.35052969324E+03  0.80360913390E+02 0.  0.
      -24    2    3    3    0    0 -0.92491518721E+02  0.19003891201E+02  0.42784250965E+03  0.44545808244E+03  0.80423014297E+02 0.  0.
      -13    1    4    4    0    0  0.47758560447E+02 -0.20932014912E+02  0.62430546237E+02  0.81342500870E+02  0.00000000000E+00 0.  1.
       14    1    4    4    0    0  0.44732958274E+02  0.19281237103E+01  0.26543735479E+03  0.26918719237E+03  0.00000000000E+00 0. -1.
        1    1    5    5  501    0 -0.52536406655E+02 -0.27143686058E+01  0.87542670911E+02  0.10213305563E+03  0.00000000000E+00 0. -1.
       -2    1    5    5    0  501 -0.39955112066E+02  0.21718259807E+02  0.34029983874E+03  0.34332502681E+03  0.00000000000E+00 0.  1.
</event>
<event>
 9   1  0.7570500E-01  0.2500005E+03  0.7546771E-02  0.1113304E+00
       21   -1    0    0  503  502  0.00000000000E+00  0.00000000000E+00  0.29349026858E+02  0.29349026858E+02  0.00000000000E+00 0.  1.
       21   -1    0    0  502  503 -0.00000000000E+00 -0.00000000000E+00 -0.53238789315E+03  0.53238789315E+03  0.00000000000E+00 0.  1.
       25    2    1    2    0    0  0.00000000000E+00  0.00000000000E+00 -0.50303886630E+03  0.56173692001E+03  0.25000053260E+03 0.  0.
       24    2    3    3    0    0  0.72758810881E+02 -0.33765665341E+02 -0.13229650039E+03  0.17443579568E+03  0.80569957699E+02 0.  0.
      -24    2    3    3    0    0 -0.72758810881E+02  0.33765665341E+02 -0.37074236591E+03  0.38730112433E+03  0.78219526404E+02 0.  0.
      -13    1    4    4    0    0  0.22044773615E+02  0.18180707688E+02 -0.80038092474E+02  0.84985918966E+02  0.00000000000E+00 0.  1.
       14    1    4    4    0    0  0.50714037266E+02 -0.51946373029E+02 -0.52258407914E+02  0.89449876716E+02  0.00000000000E+00 0. -1.
        3    1    5    5  501    0 -0.60187572056E+02  0.86310087946E+01 -0.34101275717E+03  0.34639101994E+03  0.00000000000E+00 0. -1.
       -4    1    5    5    0  501 -0.12571238825E+02  0.25134656547E+02 -0.29729608736E+02  0.40910104386E+02  0.00000000000E+00 0.  1.
</event>
<event>
 8   1  0.7570500E-01  0.2501463E+03  0.7546771E-02  0.1113212E+00
       21   -1    0    0  503  502  0.00000000000E+00  0.00000000000E+00  0.12170001764E+02  0.12170001764E+02  0.00000000000E+00 0.  1.
       21   -1    0    0  502  503 -0.00000000000E+00 -0.00000000000E+00 -0.12853973687E+04  0.12853973687E+04  0.00000000000E+00 0.  1.
       24    2    1    2    0    0 -0.76711092006E+02 -0.43062538355E+02 -0.46410655731E+03  0.47938470503E+03  0.81705722119E+02 0.  0.
      -24    2    1    2    0    0  0.76711092006E+02  0.43062538355E+02 -0.80912080959E+03  0.81818266540E+03  0.83710307658E+02 0.  0.
      -13    1    3    3    0    0 -0.14197509245E+02 -0.43685576946E+02 -0.30494912390E+03  0.30838931089E+03  0.00000000000E+00 0.  1.
       14    1    3    3    0    0 -0.62513582761E+02  0.62303859104E+00 -0.15915743341E+03  0.17099539414E+03  0.00000000000E+00 0. -1.
        3    1    4    4  501    0  0.36615553321E+02  0.26815041407E+02 -0.13016958940E+03  0.13785451460E+03  0.00000000000E+00 0. -1.
       -4    1    4    4    0  501  0.40095538685E+02  0.16247496948E+02 -0.67895122019E+03  0.68032815080E+03  0.00000000000E+00 0.  1.
</event>
<event>
 9   1  0.7570500E-01  0.2500006E+03  0.7546771E-02  0.1113304E+00
       21   -1    0    0  503  502  0.00000000000E+00  0.00000000000E+00  0.38440539388E+03  0.38440539388E+03  0.00000000000E+00 0.  1.
       21   -1    0    0  502  503 -0.00000000000E+00 -0.00000000000E+00 -0.40647388804E+02  0.40647388804E+02  0.00000000000E+00 0.  1.
       25    2    1    2    0    0  0.00000000000E+00  0.22204460493E-14  0.34375800507E+03  0.42505278268E+03  0.25000060403E+03 0.  0.
       24    2    3    3    0    0 -0.63157712589E+02 -0.36121505219E+01  0.48042478550E+02  0.11250191793E+03  0.79665911796E+02 0.  0.
      -24    2    3    3    0    0  0.63157712589E+02  0.36121505219E+01  0.29571552652E+03  0.31255086475E+03  0.78983708050E+02 0.  0.
      -13    1    4    4    0    0 -0.35480015163E+02  0.16398984306E+02  0.63852647738E+02  0.74866005539E+02  0.00000000000E+00 0.  1.
       14    1    4    4    0    0 -0.27677697426E+02 -0.20011134828E+02 -0.15810169188E+02  0.37635912393E+02  0.00000000000E+00 0. -1.
        3    1    5    5  501    0  0.25401389904E+02  0.65386247253E+01  0.25720895935E+03  0.25854290358E+03  0.00000000000E+00 0. -1.
       -4    1    5    5    0  501  0.37756322686E+02 -0.29264742034E+01  0.38506567173E+02  0.54007961168E+02  0.00000000000E+00 0.  1.
</event>
<event>
 9   1  0.7570500E-01  0.2499755E+03  0.7546771E-02  0.1113320E+00
       21   -1    0    0  503  502  0.00000000000E+00  0.00000000000E+00  0.10487573240E+03  0.10487573240E+03  0.00000000000E+00 0. -1.
       21   -1    0    0  502  503 -0.00000000000E+00 -0.00000000000E+00 -0.14895668810E+03  0.14895668810E+03  0.00000000000E+00 0. -1.
       25    2    1    2    0    0  0.71054273576E-14  0.00000000000E+00 -0.44080955695E+02  0.25383242050E+03  0.24997553289E+03 0.  0.
       24    2    3    3    0    0 -0.35832387471E+02  0.85639784657E+02  0.79995020180E+01  0.12000386339E+03  0.75622764345E+02 0.  0.
      -24    2    3    3    0    0  0.35832387471E+02 -0.85639784657E+02 -0.52080457713E+02  0.13382855712E+03  0.81114585104E+02 0.  0.
      -13    1    4    4    0    0 -0.70387655836E+01  0.10793202891E+02 -0.28964081323E+02  0.31701032419E+02  0.00000000000E+00 0.  1.
       14    1    4    4    0    0 -0.28793621888E+02  0.74846581766E+02  0.36963583340E+02  0.88302830968E+02  0.00000000000E+00 0. -1.
        1    1    5    5  501    0 -0.33510100642E+01 -0.60017454719E+02 -0.61582891105E+02  0.86056822020E+02  0.00000000000E+00 0. -1.
       -2    1    5    5    0  501  0.39183397536E+02 -0.25622329938E+02  0.95024333914E+01  0.47771735098E+02  0.00000000000E+00 0.  1.
</event>
<event>
 9   1  0.7570500E-01  0.2500006E+03  0.7546771E-02  0.1113304E+00
       21   -1    0    0  503  502  0.00000000000E+00  0.00000000000E+00  0.21165912873E+03  0.21165912873E+03  0.00000000000E+00 0. -1.
       21   -1    0    0  502  503 -0.00000000000E+00 -0.00000000000E+00 -0.73821879205E+02  0.73821879205E+02  0.00000000000E+00 0. -1.
       25    2    1    2    0    0 -0.35527136788E-14 -0.14210854715E-13  0.13783724952E+03  0.28548100793E+03  0.25000059707E+03 0.  0.
       24    2    3    3    0    0  0.16952426361E+02  0.93704748712E+02  0.47703495418E+02  0.13383773066E+03  0.81049059114E+02 0.  0.
      -24    2    3    3    0    0 -0.16952426361E+02 -0.93704748712E+02  0.90133754106E+02  0.15164327727E+03  0.76181528085E+02 0.  0.
      -13    1    4    4    0    0 -0.64600662909E+01  0.13792078219E+02 -0.20959227209E+02  0.25908359332E+02  0.00000000000E+00 0.  1.
       14    1    4    4    0    0  0.23412492652E+02  0.79912670493E+02  0.68662722627E+02  0.10792937133E+03  0.00000000000E+00 0. -1.
        3    1    5    5  501    0  0.24487354820E+02 -0.42767623616E+02  0.64454134931E+02  0.81135908731E+02  0.00000000000E+00 0. -1.
       -4    1    5    5    0  501 -0.41439781181E+02 -0.50937125096E+02  0.25679619175E+02  0.70507368540E+02  0.00000000000E+00 0.  1.
</event>
<event>
 9   1  0.7570500E-01  0.2499984E+03  0.7546771E-02  0.1113306E+00
       21   -1    0    0  503  502  0.00000000000E+00  0.00000000000E+00  0.12189213254E+02  0.12189213254E+02  0.00000000000E+00 0. -1.
       21   -1    0    0  502  503 -0.00000000000E+00 -0.00000000000E+00 -0.12818551222E+04  0.12818551222E+04  0.00000000000E+00 0. -1.
       25    2    1    2    0    0  0.00000000000E+00  0.00000000000E+00 -0.12696659090E+04  0.12940443355E+04  0.24999844356E+03 0.  0.
       24    2    3    3    0    0  0.48779983687E+02  0.46610178042E+02 -0.99903325542E+03  0.10045452885E+04  0.80571680793E+02 0.  0.
      -24    2    3    3    0    0 -0.48779983687E+02 -0.46610178042E+02 -0.27063265353E+03  0.28949904694E+03  0.77560747265E+02 0.  0.
      -13    1    4    4    0    0  0.43711391904E+02  0.38440920868E+02 -0.30841754120E+03  0.31386266089E+03  0.00000000000E+00 0.  1.
       14    1    4    4    0    0  0.50685917835E+01  0.81692571739E+01 -0.69061571422E+03  0.69068262763E+03  0.00000000000E+00 0. -1.
        1    1    5    5  501    0 -0.10402394238E+02 -0.58206019641E+02 -0.19671341184E+03  0.20540768468E+03  0.00000000000E+00 0. -1.
       -2    1    5    5    0  501 -0.38377589450E+02  0.11595841600E+02 -0.73919241693E+02  0.84091362260E+02  0.00000000000E+00 0.  1.
</event>
<event>
 9   1  0.7570500E-01  0.2500112E+03  0.7546771E-02  0.1113298E+00
       21   -1    0    0  503  502  0.00000000000E+00  0.00000000000E+00  0.10539954894E+03  0.10539954894E+03  0.00000000000E+00 0. -1.
       21   -1    0    0  502  503 -0.00000000000E+00 -0.00000000000E+00 -0.14825869221E+03  0.14825869221E+03  0.00000000000E+00 0. -1.
       25    2    1    2    0    0  0.00000000000E+00  0.00000000000E+00 -0.42859143266E+02  0.25365824115E+03  0.25001119403E+03 0.  0.
       24    2    3    3    0    0  0.32065398971E+02  0.78602572867E+02 -0.65121127007E+02  0.13446757772E+03  0.81450684491E+02 0.  0.
      -24    2    3    3    0    0 -0.32065398971E+02 -0.78602572867E+02  0.22261983741E+02  0.11919066342E+03  0.80649017693E+02 0.  0.
      -13    1    4    4    0    0  0.16387191048E+01  0.84636583733E+02 -0.36236030594E+02  0.92081955993E+02  0.00000000000E+00 0.  1.
       14    1    4    4    0    0  0.30426679866E+02 -0.60340108661E+01 -0.28885096413E+02  0.42385621732E+02  0.00000000000E+00 0. -1.
        1    1    5    5  501    0 -0.49607669479E+02 -0.60305590125E+02 -0.93786060022E+01  0.78648860907E+02  0.00000000000E+00 0. -1.
       -2    1    5    5    0  501  0.17542270508E+02 -0.18296982742E+02  0.31640589743E+02  0.40541802517E+02  0.00000000000E+00 0.  1.
</event>
<event>
 9   1  0.7570500E-01  0.2500017E+03  0.7546771E-02  0.1113304E+00
       21   -1    0    0  503  502  0.00000000000E+00  0.00000000000E+00  0.28280982941E+03  0.28280982941E+03  0.00000000000E+00 0. -1.
       21   -1    0    0  502  503 -0.00000000000E+00 -0.00000000000E+00 -0.55249884848E+02  0.55249884848E+02  0.00000000000E+00 0. -1.
       25    2    1    2    0    0  0.14210854715E-13  0.71054273576E-14  0.22755994456E+03  0.33805971426E+03  0.25000168406E+03 0.  0.
       24    2    3    3    0    0 -0.92383666071E+02  0.27751947665E+02  0.12345262957E+03  0.17571408547E+03  0.79561144598E+02 0.  0.
      -24    2    3    3    0    0  0.92383666071E+02 -0.27751947665E+02  0.10410731499E+03  0.16234562879E+03  0.78821683533E+02 0.  0.
      -13    1    4    4    0    0 -0.37768770952E+02  0.48650023403E+02  0.38678366486E+02  0.72727717346E+02  0.00000000000E+00 0.  1.
       14    1    4    4    0    0 -0.54614895119E+02 -0.20898075738E+02  0.84774263081E+02  0.10298636812E+03  0.00000000000E+00 0. -1.
        1    1    5    5  501    0  0.37611687347E+02  0.27068237706E+01  0.90741407553E+02  0.98264790056E+02  0.00000000000E+00 0. -1.
       -2    1    5    5    0  501  0.54771978724E+02 -0.30458771435E+02  0.13365907440E+02  0.64080838730E+02  0.00000000000E+00 0.  1.
</event>
<event>
 9   1  0.7570500E-01  0.2500019E+03  0.7546771E-02  0.1113304E+00
       21   -1    0    0  503  502  0.00000000000E+00  0.00000000000E+00  0.49601519213E+02  0.49601519213E+02  0.00000000000E+00 0.  1.
       21   -1    0    0  502  503 -0.00000000000E+00 -0.00000000000E+00 -0.31501526452E+03  0.31501526452E+03  0.00000000000E+00 0.  1.
       25    2    1    2    0    0  0.00000000000E+00  0.14210854715E-13 -0.26541374531E+03  0.36461678373E+03  0.25000188556E+03 0.  0.
       24    2    3    3    0    0 -0.60693202583E+02  0.73226742128E+02 -0.11659743040E+03  0.16978025884E+03  0.78641941183E+02 0.  0.
      -24    2    3    3    0    0  0.60693202583E+02 -0.73226742128E+02 -0.14881631490E+03  0.19483652489E+03  0.82274876163E+02 0.  0.
      -13    1    4    4    0    0 -0.62012094356E+02  0.32158481289E+02 -0.34357076865E+02  0.77846493151E+02  0.00000000000E+00 0.  1.
       14    1    4    4    0    0  0.13188917723E+01  0.41068260839E+02 -0.82240353539E+02  0.91933765691E+02  0.00000000000E+00 0. -1.
        1    1    5    5  501    0  0.13263490098E+02 -0.68724972279E+02 -0.12067142408E+03  0.13950137840E+03  0.00000000000E+00 0. -1.
       -2    1    5    5    0  501  0.47429712485E+02 -0.45017698486E+01 -0.28144890820E+02  0.55335146494E+02  0.00000000000E+00 0.  1.
</event>
<event>
 9   1  0.7570500E-01  0.2499997E+03  0.7546771E-02  0.1113305E+00
       21   -1    0    0  503  502  0.00000000000E+00  0.00000000000E+00  0.18549545815E+03  0.18549545815E+03  0.00000000000E+00 0.  1.
       21   -1    0    0  502  503 -0.00000000000E+00 -0.00000000000E+00 -0.84233679331E+02  0.84233679331E+02  0.00000000000E+00 0.  1.
       25    2    1    2    0    0  0.00000000000E+00  0.00000000000E+00  0.10126177882E+03  0.26972913749E+03  0.24999971952E+03 0.  0.
       24    2    3    3    0    0  0.44961297254E+02  0.59483506676E+02 -0.15109189890E+02  0.10882101489E+03  0.77806939565E+02 0.  0.
      -24    2    3    3    0    0 -0.44961297254E+02 -0.59483506676E+02  0.11637096871E+03  0.16090812260E+03  0.82397911028E+02 0.  0.
      -13    1    4    4    0    0 -0.46486109488E+00  0.62060542714E+02 -0.53946852359E+01  0.62296305561E+02  0.00000000000E+00 0.  1.
       14    1    4    4    0    0  0.45426158349E+02 -0.25770360376E+01 -0.97145046536E+01  0.46524709325E+02  0.00000000000E+00 0. -1.
        3    1    5    5  501    0  0.97064440776E+01 -0.34047790046E+02  0.86818464065E+02  0.93759867567E+02  0.00000000000E+00 0. -1.
       -4    1    5    5    0  501 -0.54667741332E+02 -0.25435716631E+02  0.29552504648E+02  0.67148255032E+02  0.00000000000E+00 0.  1.
</event>
<event>
 9   1  0.7570500E-01  0.2500007E+03  0.7546771E-02  0.1113304E+00
       21   -1    0    0  503  502  0.00000000000E+00  0.00000000000E+00  0.23882588310E+03  0.23882588310E+03  0.00000000000E+00 0. -1.
       21   -1    0    0  502  503 -0.00000000000E+00 -0.00000000000E+00 -0.65424573109E+02  0.65424573109E+02  0.00000000000E+00 0. -1.
       25    2    1    2    0    0  0.00000000000E+00  0.00000000000E+00  0.17340130999E+03  0.30425045621E+03  0.25000065159E+03 0.  0.
       24    2    3    3    0    0  0.36143572932E+02  0.29525140713E+02  0.19345500690E+03  0.21486638701E+03  0.81022421412E+02 0.  0.
      -24    2    3    3    0    0 -0.36143572932E+02 -0.29525140713E+02 -0.20053696908E+02  0.89384069205E+02  0.73547734633E+02 0.  0.
      -13    1    4    4    0    0  0.31428341602E+02  0.76449141089E+01  0.18937212517E+03  0.19211451574E+03  0.00000000000E+00 0.  1.
       14    1    4    4    0    0  0.47152313300E+01  0.21880226604E+02  0.40828817306E+01  0.22751871263E+02  0.00000000000E+00 0. -1.
        1    1    5    5  501    0 -0.46684461850E+02 -0.43385853823E+02 -0.28753776879E+02  0.69918173424E+02  0.00000000000E+00 0. -1.
       -2    1    5    5    0  501  0.10540888918E+02  0.13860713109E+02  0.87000799706E+01  0.19465895782E+02  0.00000000000E+00 0.  1.
</event>
<event>
 9   1  0.7570500E-01  0.2500040E+03  0.7546771E-02  0.1113302E+00
       21   -1    0    0  503  502  0.00000000000E+00  0.00000000000E+00  0.40316890059E+03  0.40316890059E+03  0.00000000000E+00 0.  1.
       21   -1    0    0  502  503 -0.00000000000E+00 -0.00000000000E+00 -0.38756716111E+02  0.38756716111E+02  0.00000000000E+00 0.  1.
       25    2    1    2    0    0  0.00000000000E+00 -0.35527136788E-14  0.36441218448E+03  0.44192561670E+03  0.25000402097E+03 0.  0.
       24    2    3    3    0    0 -0.22816762603E+02  0.86043637978E+01  0.14382072197E+02  0.82608993156E+02  0.77606456029E+02 0.  0.
      -24    2    3    3    0    0  0.22816762603E+02 -0.86043637978E+01  0.35003011228E+03  0.35931662355E+03  0.77412639281E+02 0.  0.
      -13    1    4    4    0    0 -0.16728108055E+01 -0.33857735667E+02  0.52610663405E+01  0.34304859415E+02  0.00000000000E+00 0.  1.
       14    1    4    4    0    0 -0.21143951798E+02  0.42462099465E+02  0.91210058566E+01  0.48304133740E+02  0.00000000000E+00 0. -1.
        3    1    5    5  501    0  0.42334813090E+02 -0.21265162280E+02  0.30474001987E+03  0.30840058890E+03  0.00000000000E+00 0. -1.
       -4    1    5    5    0  501 -0.19518050486E+02  0.12660798482E+02  0.45290092415E+02  0.50916034645E+02  0.00000000000E+00 0.  1.
</event>
<event>
 9   1  0.7570500E-01  0.2499881E+03  0.7546771E-02  0.1113312E+00
       21   -1    0    0  503  502  0.00000000000E+00  0.00000000000E+00  0.29358155695E+02  0.29358155695E+02  0.00000000000E+00 0.  1.
       21   -1    0    0  502  503 -0.00000000000E+00 -0.00000000000E+00 -0.53216937529E+03  0.53216937529E+03  0.00000000000E+00 0.  1.
       25    2    1    2    0    0  0.71054273576E-14 -0.35527136788E-14 -0.50281121959E+03  0.56152753098E+03  0.24998809072E+03 0.  0.
       24    2    3    3    0    0  0.36710337298E+02 -0.11951318821E+02 -0.53926794570E+02  0.10406161091E+03  0.80188757353E+02 0.  0.
      -24    2    3    3    0    0 -0.36710337298E+02  0.11951318821E+02 -0.44888442502E+03  0.45746592008E+03  0.79292862967E+02 0.  0.
      -13    1    4    4    0    0  0.18723874162E+02 -0.46238873340E+02 -0.35180688422E+02  0.61043408401E+02  0.00000000000E+00 0.  1.
       14    1    4    4    0    0  0.17986463136E+02  0.34287554519E+02 -0.18746106147E+02  0.43018202505E+02  0.00000000000E+00 0. -1.
        1    1    5    5  501    0 -0.35193753716E+02  0.43348125298E+02 -0.25418422773E+03  0.26024465777E+03  0.00000000000E+00 0. -1.
       -2    1    5    5    0  501 -0.15165835815E+01 -0.31396806478E+02 -0.19470019729E+03  0.19722126231E+03  0.00000000000E+00 0.  1.
</event>
<event>
 9   1  0.7570500E-01  0.2500045E+03  0.7546771E-02  0.1113302E+00
       21   -1    0    0  503  502  0.00000000000E+00  0.00000000000E+00  0.25960170332E+03  0.25960170332E+03  0.00000000000E+00 0.  1.
       21   -1    0    0  502  503 -0.00000000000E+00 -0.00000000000E+00 -0.60190518338E+02  0.60190518338E+02  0.00000000000E+00 0.  1.
       25    2    1    2    0    0 -0.14210854715E-13  0.71054273576E-14  0.19941118498E+03  0.31979222166E+03  0.25000448863E+03 0.  0.
       24    2    3    3    0    0  0.66339303086E+02 -0.59168278031E+02  0.52107685756E+02  0.13092435784E+03  0.80772447668E+02 0.  0.
      -24    2    3    3    0    0 -0.66339303086E+02  0.59168278031E+02  0.14730349922E+03  0.18886786381E+03  0.77916370804E+02 0.  0.
      -13    1    4    4    0    0  0.89208025050E+01  0.75551137689E+01 -0.15865507516E+02  0.19707226851E+02  0.00000000000E+00 0.  1.
       14    1    4    4    0    0  0.57418500581E+02 -0.66723391800E+02  0.67973193273E+02  0.11121713099E+03  0.00000000000E+00 0. -1.
        1    1    5    5  501    0 -0.96011230017E+01  0.30452936857E+02  0.11130547940E+03  0.11579495961E+03  0.00000000000E+00 0. -1.
       -2    1    5    5    0  501 -0.56738180084E+02  0.28715341174E+02  0.35998019824E+02  0.73072904207E+02  0.00000000000E+00 0.  1.
</event>
<event>
 9   1  0.7570500E-01  0.2500023E+03  0.7546771E-02  0.1113303E+00
       21   -1    0    0  503  502  0.00000000000E+00  0.00000000000E+00  0.21382646612E+03  0.21382646612E+03  0.00000000000E+00 0. -1.
       21   -1    0    0  502  503 -0.00000000000E+00 -0.00000000000E+00 -0.73074615137E+02  0.73074615137E+02  0.00000000000E+00 0. -1.
       25    2    1    2    0    0  0.00000000000E+00  0.14210854715E-13  0.14075185098E+03  0.28690108126E+03  0.25000229373E+03 0.  0.
       24    2    3    3    0    0  0.36308116153E+02  0.52725848763E+02 -0.11248590862E+02  0.10357440269E+03  0.80640136844E+02 0.  0.
      -24    2    3    3    0    0 -0.36308116153E+02 -0.52725848763E+02  0.15200044185E+03  0.18332667857E+03  0.80039005030E+02 0.  0.
      -13    1    4    4    0    0  0.44537081775E+01  0.45800813058E+02  0.26973039264E+02  0.53339430447E+02  0.00000000000E+00 0.  1.
       14    1    4    4    0    0  0.31854407975E+02  0.69250357054E+01 -0.38221630126E+02  0.50234972245E+02  0.00000000000E+00 0. -1.
        1    1    5    5  501    0 -0.56775670694E+02 -0.15378772656E+02  0.74793495546E+02  0.95152774038E+02  0.00000000000E+00 0. -1.
       -2    1    5    5    0  501  0.20467554542E+02 -0.37347076107E+02  0.77206946300E+02  0.88173904527E+02  0.00000000000E+00 0.  1.
</event>
<event>
 9   1  0.7570500E-01  0.2499992E+03  0.7546771E-02  0.1113305E+00
       21   -1    0    0  503  502  0.00000000000E+00  0.00000000000E+00  0.25814242311E+02  0.25814242311E+02  0.00000000000E+00 0. -1.
       21   -1    0    0  502  503 -0.00000000000E+00 -0.00000000000E+00 -0.60528221014E+03  0.60528221014E+03  0.00000000000E+00 0. -1.
       25    2    1    2    0    0  0.00000000000E+00  0.00000000000E+00 -0.57946796783E+03  0.63109645245E+03  0.24999921311E+03 0.  0.
       24    2    3    3    0    0  0.73021495156E+02 -0.40381338154E+02 -0.18040828138E+03  0.21554020599E+03  0.83352511546E+02 0.  0.
      -24    2    3    3    0    0 -0.73021495156E+02  0.40381338154E+02 -0.39905968645E+03  0.41555624646E+03  0.80470922696E+02 0.  0.
      -13    1    4    4    0    0  0.74697314390E+02 -0.61188057237E+02 -0.15551184865E+03  0.18305081862E+03  0.00000000000E+00 0.  1.
       14    1    4    4    0    0 -0.16758192333E+01  0.20806719084E+02 -0.24896432731E+02  0.32489387373E+02  0.00000000000E+00 0. -1.
        3    1    5    5  501    0 -0.48879066665E+02 -0.70902879165E+00 -0.86275295833E+02  0.99161951125E+02  0.00000000000E+00 0. -1.
       -4    1    5    5    0  501 -0.24142428491E+02  0.41090366945E+02 -0.31278439061E+03  0.31639429533E+03  0.00000000000E+00 0.  1.
</event>
<event>
 9   1  0.7570500E-01  0.2499797E+03  0.7546771E-02  0.1113318E+00
       21   -1    0    0  503  502  0.00000000000E+00  0.00000000000E+00  0.71569836970E+03  0.71569836970E+03  0.00000000000E+00 0. -1.
       21   -1    0    0  502  503 -0.00000000000E+00 -0.00000000000E+00 -0.21828282049E+02  0.21828282049E+02  0.00000000000E+00 0. -1.
       25    2    1    2    0    0  0.00000000000E+00  0.00000000000E+00  0.69387008765E+03  0.73752665175E+03  0.24997972618E+03 0.  0.
       24    2    3    3    0    0 -0.75619345639E+02  0.49468288982E+02  0.43924192987E+03  0.45568634032E+03  0.80939302858E+02 0.  0.
      -24    2    3    3    0    0  0.75619345639E+02 -0.49468288982E+02  0.25462815777E+03  0.28184031142E+03  0.80206392275E+02 0.  0.
      -13    1    4    4    0    0 -0.54371367264E+02  0.70498177203E+02  0.36384084217E+03  0.37457495512E+03  0.00000000000E+00 0.  1.
       14    1    4    4    0    0 -0.21247978375E+02 -0.21029888220E+02  0.75401087701E+02  0.81111385206E+02  0.00000000000E+00 0. -1.
        1    1    5    5  501    0  0.35212366886E+02  0.92927898732E+01  0.15561165632E+03  0.15981631427E+03  0.00000000000E+00 0. -1.
       -2    1    5    5    0  501  0.40406978753E+02 -0.58761078856E+02  0.99016501457E+02  0.12202399715E+03  0.00000000000E+00 0.  1.
</event>
<event>
 9   1  0.7570500E-01  0.2499974E+03  0.7546771E-02  0.1113306E+00
       21   -1    0    0  503  502  0.00000000000E+00  0.00000000000E+00  0.13729652639E+03  0.13729652639E+03  0.00000000000E+00 0. -1.
       21   -1    0    0  502  503 -0.00000000000E+00 -0.00000000000E+00 -0.11380242017E+03  0.11380242017E+03  0.00000000000E+00 0. -1.
       25    2    1    2    0    0  0.00000000000E+00  0.28421709430E-13  0.23494106215E+02  0.25109894656E+03  0.24999741586E+03 0.  0.
       24    2    3    3    0    0  0.51063558893E+02  0.78074631095E+02  0.56037684265E+02  0.13543023454E+03  0.80610119099E+02 0.  0.
      -24    2    3    3    0    0 -0.51063558893E+02 -0.78074631095E+02 -0.32543578050E+02  0.11566871202E+03  0.60141760871E+02 0.  0.
      -13    1    4    4    0    0  0.49184114003E+02  0.14297104218E+02  0.49602345656E+02  0.71301311024E+02  0.00000000000E+00 0.  1.
       14    1    4    4    0    0  0.18794448904E+01  0.63777526877E+02  0.64353386097E+01  0.64128923511E+02  0.00000000000E+00 0. -1.
        1    1    5    5  501    0 -0.15816259981E+02 -0.30039579955E+02 -0.43407515774E+02  0.55106649956E+02  0.00000000000E+00 0. -1.
       -2    1    5    5    0  501 -0.35247298912E+02 -0.48035051140E+02  0.10863937724E+02  0.60562062065E+02  0.00000000000E+00 0.  1.
</event>
<event>
 9   1  0.7570500E-01  0.2499997E+03  0.7546771E-02  0.1113305E+00
       21   -1    0    0  503  502  0.00000000000E+00  0.00000000000E+00  0.15101850555E+03  0.15101850555E+03  0.00000000000E+00 0.  1.
       21   -1    0    0  502  503 -0.00000000000E+00 -0.00000000000E+00 -0.10346390492E+03  0.10346390492E+03  0.00000000000E+00 0.  1.
       25    2    1    2    0    0  0.00000000000E+00  0.00000000000E+00  0.47554600630E+02  0.25448241048E+03  0.24999971440E+03 0.  0.
       24    2    3    3    0    0  0.40423681730E+01 -0.62461948125E+02 -0.57957262617E+02  0.10410118644E+03  0.59667219011E+02 0.  0.
      -24    2    3    3    0    0 -0.40423681730E+01  0.62461948125E+02  0.10551186325E+03  0.15038122404E+03  0.86970820122E+02 0.  0.
      -13    1    4    4    0    0  0.26685594132E+02 -0.10487041844E+02 -0.11844192311E+02  0.31022312492E+02  0.00000000000E+00 0.  1.
       14    1    4    4    0    0 -0.22643225959E+02 -0.51974906281E+02 -0.46113070307E+02  0.73078873950E+02  0.00000000000E+00 0. -1.
        3    1    5    5  501    0 -0.10113262069E+01  0.66765545729E+02  0.27536268268E+02  0.72228158964E+02  0.00000000000E+00 0. -1.
       -4    1    5    5    0  501 -0.30310419661E+01 -0.43035976041E+01  0.77975594980E+02  0.78153065072E+02  0.00000000000E+00 0.  1.
</event>
<event>
 9   1  0.7570500E-01  0.2500035E+03  0.7546771E-02  0.1113303E+00
       21   -1    0    0  503  502  0.00000000000E+00  0.00000000000E+00  0.17980280454E+02  0.17980280454E+02  0.00000000000E+00 0. -1.
       21   -1    0    0  502  503 -0.00000000000E+00 -0.00000000000E+00 -0.86903173056E+03  0.86903173056E+03  0.00000000000E+00 0. -1.
       25    2    1    2    0    0  0.71054273576E-14  0.00000000000E+00 -0.85105145011E+03  0.88701201102E+03  0.25000347389E+03 0.  0.
       24    2    3    3    0    0  0.63372073431E+02 -0.71330007593E+02 -0.46919420038E+03  0.48517765979E+03  0.78423046443E+02 0.  0.
      -24    2    3    3    0    0 -0.63372073431E+02  0.71330007593E+02 -0.38185724973E+03  0.40183435123E+03  0.80943789031E+02 0.  0.
      -13    1    4    4    0    0 -0.14817352133E+01 -0.35781244707E+02 -0.64443802931E+02  0.73725821448E+02  0.00000000000E+00 0.  1.
       14    1    4    4    0    0  0.64853808645E+02 -0.35548762886E+02 -0.40475039745E+03  0.41145183834E+03  0.00000000000E+00 0. -1.
        3    1    5    5  501    0 -0.24646905765E+02 -0.45956802933E+01 -0.26835723139E+02  0.36725281176E+02  0.00000000000E+00 0. -1.
       -4    1    5    5    0  501 -0.38725167667E+02  0.75925687886E+02 -0.35502152659E+03  0.36510907005E+03  0.00000000000E+00 0.  1.
</event>
<event>
 9   1  0.7570500E-01  0.2499828E+03  0.7546771E-02  0.1113316E+00
       21   -1    0    0  503  502  0.00000000000E+00  0.00000000000E+00  0.37585269702E+03  0.37585269702E+03  0.00000000000E+00 0.  1.
       21   -1    0    0  502  503 -0.00000000000E+00 -0.00000000000E+00 -0.41566420650E+02  0.41566420650E+02  0.00000000000E+00 0.  1.
       25    2    1    2    0    0  0.00000000000E+00  0.71054273576E-14  0.33428627637E+03  0.41741911767E+03  0.24998280986E+03 0.  0.
       24    2    3    3    0    0  0.45670534320E+02  0.52775473439E+02  0.59204515193E+02  0.12177257388E+03  0.80326439167E+02 0.  0.
      -24    2    3    3    0    0 -0.45670534320E+02 -0.52775473439E+02  0.27508176118E+03  0.29564654379E+03  0.82860456303E+02 0.  0.
      -13    1    4    4    0    0  0.12692029233E+02  0.44518934175E+02 -0.75075969817E+01  0.46897623806E+02  0.00000000000E+00 0.  1.
       14    1    4    4    0    0  0.32978505087E+02  0.82565392632E+01  0.66712112175E+02  0.74874950078E+02  0.00000000000E+00 0. -1.
        1    1    5    5  501    0 -0.45575479246E+02 -0.48875915897E+02  0.98550344788E+02  0.11907203669E+03  0.00000000000E+00 0. -1.
       -2    1    5    5    0  501 -0.95055073918E-01 -0.38995575420E+01  0.17653141639E+03  0.17657450710E+03  0.00000000000E+00 0.  1.
</event>
<event>
 9   1  0.7570500E-01  0.2499998E+03  0.7546771E-02  0.1113305E+00
       21   -1    0    0  503  502  0.00000000000E+00  0.00000000000E+00  0.24877781445E+03  0.24877781445E+03  0.00000000000E+00 0.  1.
       21   -1    0    0  502  503 -0.00000000000E+00 -0.00000000000E+00 -0.62806926828E+02  0.62806926828E+02  0.00000000000E+00 0.  1.
       25    2    1    2    0    0  0.00000000000E+00  0.00000000000E+00  0.18597088762E+03  0.31158474128E+03  0.24999975991E+03 0.  0.
       24    2    3    3    0    0 -0.87372887135E+02  0.13066455856E+02  0.44824600736E+02  0.12665703600E+03  0.78917718300E+02 0.  0.
      -24    2    3    3    0    0  0.87372887135E+02 -0.13066455856E+02  0.14114628689E+03  0.18492770528E+03  0.80443944480E+02 0.  0.
      -13    1    4    4    0    0 -0.52480748044E+02 -0.29089251241E+02  0.39138888579E+02  0.71639835651E+02  0.00000000000E+00 0.  1.
       14    1    4    4    0    0 -0.34892139091E+02  0.42155707097E+02  0.56857121568E+01  0.55017200346E+02  0.00000000000E+00 0. -1.
        3    1    5    5  501    0  0.43908151711E+02 -0.40206361769E+01  0.13257108035E+03  0.13971106845E+03  0.00000000000E+00 0. -1.
       -4    1    5    5    0  501  0.43464735424E+02 -0.90458196792E+01  0.85752065353E+01  0.45216636831E+02  0.00000000000E+00 0.  1.
</event>
<event>
 9   1  0.7570500E-01  0.2499979E+03  0.7546771E-02  0.1113306E+00
       21   -1    0    0  503  502  0.00000000000E+00  0.00000000000E+00  0.23738636673E+02  0.23738636673E+02  0.00000000000E+00 0.  1.
       21   -1    0    0  502  503 -0.00000000000E+00 -0.00000000000E+00 -0.65819881185E+03  0.65819881185E+03  0.00000000000E+00 0.  1.
       25    2    1    2    0    0  0.00000000000E+00  0.00000000000E+00 -0.63446017517E+03  0.68193744852E+03  0.24999793962E+03 0.  0.
       24    2    3    3    0    0  0.28071240271E+02 -0.92414845326E+02 -0.31671724573E+03  0.34070362692E+03  0.80253657144E+02 0.  0.
      -24    2    3    3    0    0 -0.28071240271E+02  0.92414845326E+02 -0.31774292944E+03  0.34123382160E+03  0.78431203145E+02 0.  0.
      -13    1    4    4    0    0  0.56128407280E+02 -0.61397082441E+02 -0.19505667714E+03  0.21205449095E+03  0.00000000000E+00 0.  1.
       14    1    4    4    0    0 -0.28057167009E+02 -0.31017762884E+02 -0.12166056860E+03  0.12864913597E+03  0.00000000000E+00 0. -1.
        1    1    5    5  501    0  0.15194434881E+02  0.51993391838E+01 -0.11734061158E+03  0.11843446756E+03  0.00000000000E+00 0. -1.
       -2    1    5    5    0  501 -0.43265675153E+02  0.87215506142E+02 -0.20040231786E+03  0.22279935404E+03  0.00000000000E+00 0.  1.
</event>
<event>
 9   1  0.7570500E-01  0.2500048E+03  0.7546771E-02  0.1113302E+00
       21   -1    0    0  503  502  0.00000000000E+00  0.00000000000E+00  0.16865805752E+02  0.16865805752E+02  0.00000000000E+00 0. -1.
       21   -1    0    0  502  503 -0.00000000000E+00 -0.00000000000E+00 -0.92646594370E+03  0.92646594370E+03  0.00000000000E+00 0. -1.
       25    2    1    2    0    0  0.71054273576E-14  0.17763568394E-14 -0.90960013795E+03  0.94333174946E+03  0.25000475709E+03 0.  0.
       24    2    3    3    0    0 -0.48523326006E+02 -0.89959701020E+01 -0.76074444142E+03  0.76653199741E+03  0.80023479416E+02 0.  0.
      -24    2    3    3    0    0  0.48523326006E+02  0.89959701020E+01 -0.14885569653E+03  0.17679975204E+03  0.81637572775E+02 0.  0.
      -13    1    4    4    0    0 -0.47026474304E+02  0.28275071293E+02 -0.37587012218E+03  0.37985433747E+03  0.00000000000E+00 0.  1.
       14    1    4    4    0    0 -0.14968517015E+01 -0.37271041395E+02 -0.38487431924E+03  0.38667765995E+03  0.00000000000E+00 0. -1.
        1    1    5    5  501    0 -0.18084629187E+02 -0.14194897354E+02 -0.22946389952E+02  0.32482083301E+02  0.00000000000E+00 0. -1.
       -2    1    5    5    0  501  0.66607955193E+02  0.23190867456E+02 -0.12590930658E+03  0.14431766874E+03  0.00000000000E+00 0.  1.
</event>
<event>
 9   1  0.7570500E-01  0.2500014E+03  0.7546771E-02  0.1113304E+00
       21   -1    0    0  503  502  0.00000000000E+00  0.00000000000E+00  0.20461350925E+03  0.20461350925E+03  0.00000000000E+00 0.  1.
       21   -1    0    0  502  503 -0.00000000000E+00 -0.00000000000E+00 -0.76364327207E+02  0.76364327207E+02  0.00000000000E+00 0.  1.
       25    2    1    2    0    0  0.00000000000E+00 -0.71054273576E-14  0.12824918204E+03  0.28097783645E+03  0.25000138376E+03 0.  0.
       24    2    3    3    0    0  0.23467247479E+02  0.46575700086E+02  0.15418104091E+03  0.18202700238E+03  0.81498642167E+02 0.  0.
      -24    2    3    3    0    0 -0.23467247479E+02 -0.46575700086E+02 -0.25931858869E+02  0.98950834078E+02  0.79992491632E+02 0.  0.
      -13    1    4    4    0    0 -0.80399871856E+01 -0.20407286805E+02  0.45778079839E+02  0.50761514383E+02  0.00000000000E+00 0.  1.
       14    1    4    4    0    0  0.31507234664E+02  0.66982986891E+02  0.10840296107E+03  0.13126548799E+03  0.00000000000E+00 0. -1.
        1    1    5    5  501    0 -0.25816314664E+01 -0.57783712896E+02  0.71204148035E+01  0.58277977007E+02  0.00000000000E+00 0. -1.
       -2    1    5    5    0  501 -0.20885616012E+02  0.11208012810E+02 -0.33052273673E+02  0.40672857071E+02  0.00000000000E+00 0.  1.
</event>
<event>
 9   1  0.7570500E-01  0.2499559E+03  0.7546771E-02  0.1113333E+00
       21   -1    0    0  503  502  0.00000000000E+00  0.00000000000E+00  0.52902114683E+03  0.52902114683E+03  0.00000000000E+00 0. -1.
       21   -1    0    0  502  503 -0.00000000000E+00 -0.00000000000E+00 -0.29525267569E+02  0.29525267569E+02  0.00000000000E+00 0. -1.
       25    2    1    2    0    0 -0.35527136788E-14 -0.14210854715E-13  0.49949587926E+03  0.55854641440E+03  0.24995592339E+03 0.  0.
       24    2    3    3    0    0 -0.74053930704E+01 -0.87363106544E+02  0.33880171329E+03  0.35863186466E+03  0.78377683000E+02 0.  0.
      -24    2    3    3    0    0  0.74053930704E+01  0.87363106544E+02  0.16069416597E+03  0.19991454973E+03  0.80349610993E+02 0.  0.
      -13    1    4    4    0    0 -0.41382668794E+02 -0.33887592854E+02  0.13502402205E+03  0.14523216157E+03  0.00000000000E+00 0.  1.
       14    1    4    4    0    0  0.33977275724E+02 -0.53475513691E+02  0.20377769124E+03  0.21339970309E+03  0.00000000000E+00 0. -1.
        1    1    5    5  501    0 -0.20164928074E+02  0.74318706861E+02  0.69414206523E+02  0.10367365423E+03  0.00000000000E+00 0. -1.
       -2    1    5    5    0  501  0.27570321145E+02  0.13044399684E+02  0.91279959445E+02  0.96240895504E+02  0.00000000000E+00 0.  1.
</event>
<event>
 9   1  0.7570500E-01  0.2499980E+03  0.7546771E-02  0.1113306E+00
       21   -1    0    0  503  502  0.00000000000E+00  0.00000000000E+00  0.14607070773E+03  0.14607070773E+03  0.00000000000E+00 0. -1.
       21   -1    0    0  502  503 -0.00000000000E+00 -0.00000000000E+00 -0.10696703703E+03  0.10696703703E+03  0.00000000000E+00 0. -1.
       25    2    1    2    0    0  0.00000000000E+00 -0.35527136788E-14  0.39103670707E+02  0.25303774476E+03  0.24999800641E+03 0.  0.
       24    2    3    3    0    0 -0.90342825812E+02  0.17914527440E+02 -0.52597632352E+01  0.12272181578E+03  0.80933444817E+02 0.  0.
      -24    2    3    3    0    0  0.90342825812E+02 -0.17914527440E+02  0.44363433942E+02  0.13031592898E+03  0.80816895546E+02 0.  0.
      -13    1    4    4    0    0 -0.39785167278E+02 -0.29919994029E+02  0.11588382580E+02  0.51111213925E+02  0.00000000000E+00 0.  1.
       14    1    4    4    0    0 -0.50557658533E+02  0.47834521470E+02 -0.16848145815E+02  0.71610601855E+02  0.00000000000E+00 0. -1.
        3    1    5    5  501    0  0.51288573292E+01 -0.33794089123E+02  0.22494785070E+02  0.40918956396E+02  0.00000000000E+00 0. -1.
       -4    1    5    5    0  501  0.85213968482E+02  0.15879561683E+02  0.21868648872E+02  0.89396972584E+02  0.00000000000E+00 0.  1.
</event>
<event>
 9   1  0.7570500E-01  0.2499993E+03  0.7546771E-02  0.1113305E+00
       21   -1    0    0  503  502  0.00000000000E+00  0.00000000000E+00  0.19992953507E+03  0.19992953507E+03  0.00000000000E+00 0.  1.
       21   -1    0    0  502  503 -0.00000000000E+00 -0.00000000000E+00 -0.78152118498E+02  0.78152118498E+02  0.00000000000E+00 0.  1.
       25    2    1    2    0    0  0.00000000000E+00  0.00000000000E+00  0.12177741657E+03  0.27808165356E+03  0.24999933373E+03 0.  0.
       24    2    3    3    0    0  0.70017863278E+02 -0.62115144443E+02  0.85339337732E+02  0.15005305114E+03  0.80450750421E+02 0.  0.
      -24    2    3    3    0    0 -0.70017863278E+02  0.62115144443E+02  0.36438078835E+02  0.12802860243E+03  0.79390157472E+02 0.  0.
      -13    1    4    4    0    0  0.75760671584E+02 -0.56683306366E+02  0.37846684443E+02  0.10190705620E+03  0.00000000000E+00 0.  1.
       14    1    4    4    0    0 -0.57428083060E+01 -0.54318380774E+01  0.47492653290E+02  0.48145994939E+02  0.00000000000E+00 0. -1.
        1    1    5    5  501    0 -0.20521775456E+01  0.73045457668E+01 -0.21795065414E+02  0.23077969970E+02  0.00000000000E+00 0. -1.
       -2    1    5    5    0  501 -0.67965685733E+02  0.54810598676E+02  0.58233144249E+02  0.10495063246E+03  0.00000000000E+00 0.  1.
</event>
<event>
 9   1  0.7570500E-01  0.2500083E+03  0.7546771E-02  0.1113300E+00
       21   -1    0    0  503  502  0.00000000000E+00  0.00000000000E+00  0.21947688171E+02  0.21947688171E+02  0.00000000000E+00 0.  1.
       21   -1    0    0  502  503 -0.00000000000E+00 -0.00000000000E+00 -0.71196748245E+03  0.71196748245E+03  0.00000000000E+00 0.  1.
       25    2    1    2    0    0  0.00000000000E+00 -0.14210854715E-13 -0.69001979428E+03  0.73391517063E+03  0.25000832220E+03 0.  0.
       24    2    3    3    0    0  0.17916961190E+02  0.85600374818E+02 -0.21305306571E+03  0.24266214440E+03  0.76451722345E+02 0.  0.
      -24    2    3    3    0    0 -0.17916961190E+02 -0.85600374818E+02 -0.47696672857E+03  0.49125302622E+03  0.78637357165E+02 0.  0.
      -13    1    4    4    0    0  0.38319053406E+02  0.12750688338E+02 -0.79542705306E+02  0.89207465351E+02  0.00000000000E+00 0.  1.
       14    1    4    4    0    0 -0.20402092215E+02  0.72849686480E+02 -0.13351036041E+03  0.15345467905E+03  0.00000000000E+00 0. -1.
        1    1    5    5  501    0 -0.10858615392E+02 -0.65405060317E+02 -0.45765543764E+03  0.46243294762E+03  0.00000000000E+00 0. -1.
       -2    1    5    5    0  501 -0.70583457982E+01 -0.20195314501E+02 -0.19311290929E+02  0.28820078600E+02  0.00000000000E+00 0.  1.
</event>
<event>
 9   1  0.7570500E-01  0.2500263E+03  0.7546771E-02  0.1113288E+00
       21   -1    0    0  503  502  0.00000000000E+00  0.00000000000E+00  0.10413382491E+03  0.10413382491E+03  0.00000000000E+00 0. -1.
       21   -1    0    0  502  503 -0.00000000000E+00 -0.00000000000E+00 -0.15007882727E+03  0.15007882727E+03  0.00000000000E+00 0. -1.
       25    2    1    2    0    0 -0.14210854715E-13 -0.71054273576E-14 -0.45945002365E+02  0.25421265218E+03  0.25002625720E+03 0.  0.
       24    2    3    3    0    0  0.74076739698E+02  0.60271253454E+02 -0.14923804873E+02  0.12520304316E+03  0.79580743320E+02 0.  0.
      -24    2    3    3    0    0 -0.74076739698E+02 -0.60271253454E+02 -0.31021197492E+02  0.12900960903E+03  0.81001093633E+02 0.  0.
      -13    1    4    4    0    0  0.51103689778E+02 -0.83975270996E+01 -0.36088449434E+01  0.51914635048E+02  0.00000000000E+00 0.  1.
       14    1    4    4    0    0  0.22973049920E+02  0.68668780554E+02 -0.11314959930E+02  0.73288408112E+02  0.00000000000E+00 0. -1.
        1    1    5    5  501    0  0.25324785425E+00 -0.44985825172E+02 -0.28153942455E+02  0.53070077036E+02  0.00000000000E+00 0. -1.
       -2    1    5    5    0  501 -0.74329987552E+02 -0.15285428283E+02 -0.28672550369E+01  0.75939531989E+02  0.00000000000E+00 0.  1.
</event>
<event>
 9   1  0.7570500E-01  0.2499915E+03  0.7546771E-02  0.1113310E+00
       21   -1    0    0  503  502  0.00000000000E+00  0.00000000000E+00  0.69718564477E+03  0.69718564477E+03  0.00000000000E+00 0.  1.
       21   -1    0    0  502  503 -0.00000000000E+00 -0.00000000000E+00 -0.22410007935E+02  0.22410007935E+02  0.00000000000E+00 0.  1.
       25    2    1    2    0    0 -0.71054273576E-14 -0.17763568394E-14  0.67477563683E+03  0.71959565270E+03  0.24999148651E+03 0.  0.
       24    2    3    3    0    0 -0.43339931074E+02  0.15884082551E+02  0.98391110266E+02  0.13574722727E+03  0.81337847445E+02 0.  0.
      -24    2    3    3    0    0  0.43339931074E+02 -0.15884082551E+02  0.57638452656E+03  0.58384842543E+03  0.80803513014E+02 0.  0.
      -13    1    4    4    0    0 -0.87630524268E+01 -0.28583315009E+02  0.11163086344E+02  0.31912559933E+02  0.00000000000E+00 0.  1.
       14    1    4    4    0    0 -0.34576878648E+02  0.44467397561E+02  0.87228023922E+02  0.10383466733E+03  0.00000000000E+00 0. -1.
        3    1    5    5  501    0 -0.19444342897E+02 -0.17225124213E+02  0.99006953161E+02  0.10235801947E+03  0.00000000000E+00 0. -1.
       -4    1    5    5    0  501  0.62784273971E+02  0.13410416619E+01  0.47737757340E+03  0.48149040597E+03  0.00000000000E+00 0.  1.
</event>
<event>
 9   1  0.7570500E-01  0.2499154E+03  0.7546771E-02  0.1113358E+00
       21   -1    0    0  503  502  0.00000000000E+00  0.00000000000E+00  0.86593248459E+02  0.86593248459E+02  0.00000000000E+00 0. -1.
       21   -1    0    0  502  503 -0.00000000000E+00 -0.00000000000E+00 -0.18031918431E+03  0.18031918431E+03  0.00000000000E+00 0. -1.
       25    2    1    2    0    0 -0.71054273576E-14 -0.14210854715E-13 -0.93725935853E+02  0.26691243277E+03  0.24991537711E+03 0.  0.
       24    2    3    3    0    0  0.56341761642E+02 -0.48784198928E+02  0.19657509028E+02  0.10961563320E+03  0.77941498639E+02 0.  0.
      -24    2    3    3    0    0 -0.56341761642E+02  0.48784198928E+02 -0.11338344488E+03  0.15729679957E+03  0.79575030086E+02 0.  0.
      -13    1    4    4    0    0  0.61968264245E+02 -0.37200494290E+01  0.15669336608E+02  0.64026811970E+02  0.00000000000E+00 0.  1.
       14    1    4    4    0    0 -0.56265026028E+01 -0.45064149499E+02  0.39881724196E+01  0.45588821227E+02  0.00000000000E+00 0. -1.
        3    1    5    5  501    0 -0.53649555102E+02 -0.53100008699E+01 -0.66935355341E+02  0.85946568672E+02  0.00000000000E+00 0. -1.
       -4    1    5    5    0  501 -0.26922065409E+01  0.54094199798E+02 -0.46448089539E+02  0.71350230902E+02  0.00000000000E+00 0.  1.
</event>
<event>
 9   1  0.7570500E-01  0.2500249E+03  0.7546771E-02  0.1113289E+00
       21   -1    0    0  503  502  0.00000000000E+00  0.00000000000E+00  0.15947018345E+03  0.15947018345E+03  0.00000000000E+00 0. -1.
       21   -1    0    0  502  503 -0.00000000000E+00 -0.00000000000E+00 -0.98000207601E+02  0.98000207601E+02  0.00000000000E+00 0. -1.
       25    2    1    2    0    0  0.71054273576E-14  0.00000000000E+00  0.61469975851E+02  0.25747039105E+03  0.25002488744E+03 0.  0.
       24    2    3    3    0    0  0.33712672774E+02  0.72763976448E+02 -0.21240926802E+02  0.11626323358E+03  0.81454416309E+02 0.  0.
      -24    2    3    3    0    0 -0.33712672774E+02 -0.72763976448E+02  0.82710902653E+02  0.14120715748E+03  0.81653091372E+02 0.  0.
      -13    1    4    4    0    0 -0.12247207790E+02  0.35772629544E+02 -0.39327674491E+02  0.54555853068E+02  0.00000000000E+00 0.  1.
       14    1    4    4    0    0  0.45959880564E+02  0.36991346904E+02  0.18086747689E+02  0.61707380508E+02  0.00000000000E+00 0. -1.
        3    1    5    5  501    0 -0.51164942991E+02 -0.53811808996E+02  0.25580390560E+02  0.78536097178E+02  0.00000000000E+00 0. -1.
       -4    1    5    5    0  501  0.17452270217E+02 -0.18952167451E+02  0.57130512093E+02  0.62671060298E+02  0.00000000000E+00 0.  1.
</event>
<event>
 9   1  0.7570500E-01  0.2500011E+03  0.7546771E-02  0.1113304E+00
       21   -1    0    0  503  502  0.00000000000E+00  0.00000000000E+00  0.11020431255E+04  0.11020431255E+04  0.00000000000E+00 0.  1.
       21   -1    0    0  502  503 -0.00000000000E+00 -0.00000000000E+00 -0.14178339990E+02  0.14178339990E+02  0.00000000000E+00 0.  1.
       25    2    1    2    0    0 -0.14210854715E-13 -0.35527136788E-14  0.10878647855E+04  0.11162214655E+04  0.25000113694E+03 0.  0.
       24    2    3    3    0    0 -0.73017938617E+02 -0.29044620616E+02  0.30175330283E+03  0.32189433454E+03  0.79910559325E+02 0.  0.
      -24    2    3    3    0    0  0.73017938617E+02  0.29044620616E+02  0.78611148267E+03  0.79432713095E+03  0.82517382544E+02 0.  0.
      -13    1    4    4    0    0 -0.57158842902E+02  0.19896134931E+02  0.15608732597E+03  0.16741040241E+03  0.00000000000E+00 0.  1.
       14    1    4    4    0    0 -0.15859095714E+02 -0.48940755547E+02  0.14566597686E+03  0.15448393213E+03  0.00000000000E+00 0. -1.
        3    1    5    5  501    0  0.79321661193E+02  0.11974199242E+01  0.44442570990E+03  0.45145051929E+03  0.00000000000E+00 0. -1.
       -4    1    5    5    0  501 -0.63037225763E+01  0.27847200692E+02  0.34168577277E+03  0.34287661165E+03  0.00000000000E+00 0.  1.
</event>
<event>
 9   1  0.7570500E-01  0.2500065E+03  0.7546771E-02  0.1113301E+00
       21   -1    0    0  503  502  0.00000000000E+00  0.00000000000E+00  0.10678932625E+03  0.10678932625E+03  0.00000000000E+00 0.  1.
       21   -1    0    0  502  503 -0.00000000000E+00 -0.00000000000E+00 -0.14632368030E+03  0.14632368030E+03  0.00000000000E+00 0.  1.
       25    2    1    2    0    0 -0.71054273576E-14  0.00000000000E+00 -0.39534354056E+02  0.25311300655E+03  0.25000645778E+03 0.  0.
       24    2    3    3    0    0 -0.57815727806E+02 -0.49268790994E+02  0.38189204713E+02  0.11641064762E+03  0.79516987963E+02 0.  0.
      -24    2    3    3    0    0  0.57815727806E+02  0.49268790994E+02 -0.77723558769E+02  0.13670235893E+03  0.82924732146E+02 0.  0.
      -13    1    4    4    0    0  0.53849237054E+00  0.14129448159E+02  0.25715635681E+02  0.29346638611E+02  0.00000000000E+00 0.  1.
       14    1    4    4    0    0 -0.58354220177E+02 -0.63398239152E+02  0.12473569032E+02  0.87064009008E+02  0.00000000000E+00 0. -1.
        1    1    5    5  501    0  0.46591675839E+02  0.90525432684E+01  0.11303701635E+01  0.47476420819E+02  0.00000000000E+00 0. -1.
       -2    1    5    5    0  501  0.11224051968E+02  0.40216247725E+02 -0.78853928932E+02  0.89225938111E+02  0.00000000000E+00 0.  1.
</event>
<event>
 9   1  0.7570500E-01  0.2500201E+03  0.7546771E-02  0.1113292E+00
       21   -1    0    0  503  502  0.00000000000E+00  0.00000000000E+00  0.15716992480E+03  0.15716992480E+03  0.00000000000E+00 0.  1.
       21   -1    0    0  502  503 -0.00000000000E+00 -0.00000000000E+00 -0.99430686872E+02  0.99430686872E+02  0.00000000000E+00 0.  1.
       25    2    1    2    0    0  0.53290705182E-14  0.00000000000E+00  0.57739237931E+02  0.25660061167E+03  0.25002010782E+03 0.  0.
       24    2    3    3    0    0  0.36663032904E+01 -0.34099258419E+02  0.12110758508E+03  0.14851433796E+03  0.78824236195E+02 0.  0.
      -24    2    3    3    0    0 -0.36663032904E+01  0.34099258419E+02 -0.63368347149E+02  0.10808627371E+03  0.80566084303E+02 0.  0.
      -13    1    4    4    0    0  0.39305388711E+01 -0.57360989466E+02  0.59869938182E+02  0.83006877705E+02  0.00000000000E+00 0.  1.
       14    1    4    4    0    0 -0.26423558066E+00  0.23261731047E+02  0.61237646899E+02  0.65507460258E+02  0.00000000000E+00 0. -1.
        3    1    5    5  501    0 -0.32267590693E+02 -0.10933171440E+02 -0.21687844419E+02  0.40386807776E+02  0.00000000000E+00 0. -1.
       -4    1    5    5    0  501  0.28601287402E+02  0.45032429859E+02 -0.41680502731E+02  0.67699465936E+02  0.00000000000E+00 0.  1.
</event>
<event>
 9   1  0.7570500E-01  0.2499932E+03  0.7546771E-02  0.1113309E+00
       21   -1    0    0  503  502  0.00000000000E+00  0.00000000000E+00  0.13853396287E+03  0.13853396287E+03  0.00000000000E+00 0. -1.
       21   -1    0    0  502  503 -0.00000000000E+00 -0.00000000000E+00 -0.11278206891E+03  0.11278206891E+03  0.00000000000E+00 0. -1.
       25    2    1    2    0    0 -0.71054273576E-14  0.00000000000E+00  0.25751893965E+02  0.25131603178E+03  0.24999317548E+03 0.  0.
       24    2    3    3    0    0 -0.62795560991E+02 -0.67957372936E+02  0.26563235887E+02  0.13480317848E+03  0.94365271216E+02 0.  0.
      -24    2    3    3    0    0  0.62795560991E+02  0.67957372936E+02 -0.81134192193E+00  0.11651285330E+03  0.70803246332E+02 0.  0.
      -13    1    4    4    0    0 -0.48536502743E+02 -0.90600072095E+02  0.98475478477E+01  0.10325279348E+03  0.00000000000E+00 0.  1.
       14    1    4    4    0    0 -0.14259058249E+02  0.22642699159E+02  0.16715688039E+02  0.31550385006E+02  0.00000000000E+00 0. -1.
        3    1    5    5  501    0  0.50406639667E+02  0.37441446405E+01 -0.60482141043E+01  0.50906078571E+02  0.00000000000E+00 0. -1.
       -4    1    5    5    0  501  0.12388921324E+02  0.64213228295E+02  0.52368721824E+01  0.65606774726E+02  0.00000000000E+00 0.  1.
</event>
<event>
 9   1  0.7570500E-01  0.2500007E+03  0.7546771E-02  0.1113304E+00
       21   -1    0    0  503  502  0.00000000000E+00  0.00000000000E+00  0.18738789931E+03  0.18738789931E+03  0.00000000000E+00 0.  1.
       21   -1    0    0  502  503 -0.00000000000E+00 -0.00000000000E+00 -0.83383663309E+02  0.83383663309E+02  0.00000000000E+00 0.  1.
       25    2    1    2    0    0  0.00000000000E+00  0.00000000000E+00  0.10400423600E+03  0.27077156262E+03  0.25000071604E+03 0.  0.
       24    2    3    3    0    0 -0.72994426531E+02 -0.55574446033E+01 -0.15582917395E+02  0.10875824758E+03  0.78907905856E+02 0.  0.
      -24    2    3    3    0    0  0.72994426531E+02  0.55574446033E+01  0.11958715340E+03  0.16201331504E+03  0.81167453445E+02 0.  0.
      -13    1    4    4    0    0 -0.80669363342E+02 -0.13709312745E+01  0.10395731576E+02  0.81347998559E+02  0.00000000000E+00 0.  1.
       14    1    4    4    0    0  0.76749368109E+01 -0.41865133288E+01 -0.25978648971E+02  0.27410249019E+02  0.00000000000E+00 0. -1.
        3    1    5    5  501    0 -0.13400731135E+01  0.12851438637E+01  0.75418081362E+02  0.75440933100E+02  0.00000000000E+00 0. -1.
       -4    1    5    5    0  501  0.74334499645E+02  0.42723007397E+01  0.44169072037E+02  0.86572381945E+02  0.00000000000E+00 0.  1.
</event>
<event>
 9   1  0.7570500E-01  0.2499988E+03  0.7546771E-02  0.1113306E+00
       21   -1    0    0  503  502  0.00000000000E+00  0.00000000000E+00  0.48996134328E+03  0.48996134328E+03  0.00000000000E+00 0. -1.
       21   -1    0    0  502  503 -0.00000000000E+00 -0.00000000000E+00 -0.31889953766E+02  0.31889953766E+02  0.00000000000E+00 0. -1.
       25    2    1    2    0    0  0.00000000000E+00 -0.71054273576E-14  0.45807138951E+03  0.52185129704E+03  0.24999875667E+03 0.  0.
       24    2    3    3    0    0 -0.26373471750E+02  0.47130564008E+02  0.39306081831E+03  0.40491108342E+03  0.80866114695E+02 0.  0.
      -24    2    3    3    0    0  0.26373471750E+02 -0.47130564008E+02  0.65010571196E+02  0.11694021362E+03  0.80819484776E+02 0.  0.
      -13    1    4    4    0    0  0.78490284938E+00  0.76652015807E+01  0.30128775754E+03  0.30138627081E+03  0.00000000000E+00 0.  1.
       14    1    4    4    0    0 -0.27158374600E+02  0.39465362427E+02  0.91773060774E+02  0.10352481261E+03  0.00000000000E+00 0. -1.
        3    1    5    5  501    0 -0.22126285222E+02 -0.16221988396E+02 -0.33112157267E+01  0.27634933596E+02  0.00000000000E+00 0. -1.
       -4    1    5    5    0  501  0.48499756972E+02 -0.30908575611E+02  0.68321786923E+02  0.89305280029E+02  0.00000000000E+00 0.  1.
</event>
<event>
 9   1  0.7570500E-01  0.2499989E+03  0.7546771E-02  0.1113306E+00
       21   -1    0    0  503  502  0.00000000000E+00  0.00000000000E+00  0.44483352779E+02  0.44483352779E+02  0.00000000000E+00 0.  1.
       21   -1    0    0  502  503 -0.00000000000E+00 -0.00000000000E+00 -0.35125179821E+03  0.35125179821E+03  0.00000000000E+00 0.  1.
       25    2    1    2    0    0  0.53290705182E-14 -0.71054273576E-14 -0.30676844543E+03  0.39573515098E+03  0.24999886123E+03 0.  0.
       24    2    3    3    0    0  0.14660459274E+02 -0.36783526493E+02 -0.23493818376E+02  0.98386269171E+02  0.86947924484E+02 0.  0.
      -24    2    3    3    0    0 -0.14660459274E+02  0.36783526493E+02 -0.28327462705E+03  0.29734888181E+03  0.81264299036E+02 0.  0.
      -13    1    4    4    0    0 -0.32286233084E+02 -0.72196238333E+01 -0.27133306550E+02  0.42787149231E+02  0.00000000000E+00 0.  1.
       14    1    4    4    0    0  0.46946692358E+02 -0.29563902660E+02  0.36394881735E+01  0.55599119939E+02  0.00000000000E+00 0. -1.
        3    1    5    5  501    0 -0.29042234249E+02  0.18454512306E+02 -0.39179939930E+02  0.52144875948E+02  0.00000000000E+00 0. -1.
       -4    1    5    5    0  501  0.14381774975E+02  0.18329014187E+02 -0.24409468712E+03  0.24520400587E+03  0.00000000000E+00 0.  1.
</event>
<event>
 9   1  0.7570500E-01  0.2499979E+03  0.7546771E-02  0.1113306E+00
       21   -1    0    0  503  502  0.00000000000E+00  0.00000000000E+00  0.54705188661E+02  0.54705188661E+02  0.00000000000E+00 0. -1.
       21   -1    0    0  502  503 -0.00000000000E+00 -0.00000000000E+00 -0.28561702915E+03  0.28561702915E+03  0.00000000000E+00 0. -1.
       25    2    1    2    0    0  0.28421709430E-13  0.00000000000E+00 -0.23091184049E+03  0.34032221781E+03  0.24999786771E+03 0.  0.
       24    2    3    3    0    0  0.69897186943E+02  0.13298963250E+02 -0.29272377252E+02  0.11164989831E+03  0.80909508444E+02 0.  0.
      -24    2    3    3    0    0 -0.69897186943E+02 -0.13298963250E+02 -0.20163946323E+03  0.22867231950E+03  0.81056013997E+02 0.  0.
      -13    1    4    4    0    0  0.11072380055E+01  0.25932117179E+02 -0.32551238069E+02  0.41632724836E+02  0.00000000000E+00 0.  1.
       14    1    4    4    0    0  0.68789948938E+02 -0.12633153929E+02  0.32788608179E+01  0.70017173474E+02  0.00000000000E+00 0. -1.
        1    1    5    5  501    0 -0.82645791635E+02  0.49560843037E+01 -0.17733520366E+03  0.19571066426E+03  0.00000000000E+00 0. -1.
       -2    1    5    5    0  501  0.12748604691E+02 -0.18255047554E+02 -0.24304259571E+02  0.32961655239E+02  0.00000000000E+00 0.  1.
</event>
<event>
 9   1  0.7570500E-01  0.2499997E+03  0.7546771E-02  0.1113305E+00
       21   -1    0    0  503  502  0.00000000000E+00  0.00000000000E+00  0.11315746221E+03  0.11315746221E+03  0.00000000000E+00 0.  1.
       21   -1    0    0  502  503 -0.00000000000E+00 -0.00000000000E+00 -0.13808157757E+03  0.13808157757E+03  0.00000000000E+00 0.  1.
       25    2    1    2    0    0 -0.71054273576E-14  0.00000000000E+00 -0.24924115359E+02  0.25123903977E+03  0.24999968716E+03 0.  0.
       24    2    3    3    0    0 -0.58191431649E+02 -0.10513318046E+02  0.61640394622E+02  0.11863924469E+03  0.82334437259E+02 0.  0.
      -24    2    3    3    0    0  0.58191431649E+02  0.10513318046E+02 -0.86564509981E+02  0.13259979508E+03  0.81194326728E+02 0.  0.
      -13    1    4    4    0    0 -0.38376403059E+02 -0.44155348414E+02  0.20674218849E+02  0.62047291886E+02  0.00000000000E+00 0.  1.
       14    1    4    4    0    0 -0.19815028590E+02  0.33642030367E+02  0.40966175773E+02  0.56591952809E+02  0.00000000000E+00 0. -1.
        1    1    5    5  501    0  0.50476869348E+02  0.37979206860E+02 -0.31508319734E+02  0.70591137584E+02  0.00000000000E+00 0. -1.
       -2    1    5    5    0  501  0.77145623019E+01 -0.27465888814E+02 -0.55056190246E+02  0.62008657494E+02  0.00000000000E+00 0.  1.
</event>
<event>
 9   1  0.7570500E-01  0.2499988E+03  0.7546771E-02  0.1113306E+00
       21   -1    0    0  503  502  0.00000000000E+00  0.00000000000E+00  0.17070786185E+02  0.17070786185E+02  0.00000000000E+00 0.  1.
       21   -1    0    0  502  503 -0.00000000000E+00 -0.00000000000E+00 -0.91529759986E+03  0.91529759986E+03  0.00000000000E+00 0.  1.
       25    2    1    2    0    0 -0.35527136788E-14  0.00000000000E+00 -0.89822681367E+03  0.93236838604E+03  0.24999879698E+03 0.  0.
       24    2    3    3    0    0 -0.65538088018E+01  0.44937305902E+02 -0.76684927434E+03  0.77208522318E+03  0.77430410300E+02 0.  0.
      -24    2    3    3    0    0  0.65538088018E+01 -0.44937305902E+02 -0.13137753934E+03  0.16028316286E+03  0.79801758015E+02 0.  0.
      -13    1    4    4    0    0 -0.34341424256E+02  0.31076590472E+02 -0.24670391275E+03  0.25101376150E+03  0.00000000000E+00 0.  1.
       14    1    4    4    0    0  0.27787615454E+02  0.13860715430E+02 -0.52014536158E+03  0.52107146168E+03  0.00000000000E+00 0. -1.
        3    1    5    5  501    0 -0.30001402669E+02 -0.31172687057E+02 -0.10383642955E+03  0.11248922030E+03  0.00000000000E+00 0. -1.
       -4    1    5    5    0  501  0.36555211470E+02 -0.13764618846E+02 -0.27541109784E+02  0.47793942563E+02  0.00000000000E+00 0.  1.
</event>
<event>
 9   1  0.7570500E-01  0.2500160E+03  0.7546771E-02  0.1113295E+00
       21   -1    0    0  503  502  0.00000000000E+00  0.00000000000E+00  0.16517180966E+03  0.16517180966E+03  0.00000000000E+00 0.  1.
       21   -1    0    0  502  503 -0.00000000000E+00 -0.00000000000E+00 -0.94610604402E+02  0.94610604402E+02  0.00000000000E+00 0.  1.
       25    2    1    2    0    0  0.00000000000E+00  0.00000000000E+00  0.70561205256E+02  0.25978241406E+03  0.25001603742E+03 0.  0.
       24    2    3    3    0    0 -0.98707691087E+01 -0.33864568217E+02  0.12713117580E+03  0.15506141556E+03  0.81470643008E+02 0.  0.
      -24    2    3    3    0    0  0.98707691087E+01  0.33864568217E+02 -0.56569970549E+02  0.10472099850E+03  0.80759426043E+02 0.  0.
      -13    1    4    4    0    0  0.16610370440E+01 -0.60006843840E+02  0.81475784027E+02  0.10120219234E+03  0.00000000000E+00 0.  1.
       14    1    4    4    0    0 -0.11531806153E+02  0.26142275623E+02  0.45655391777E+02  0.53859223223E+02  0.00000000000E+00 0. -1.
        3    1    5    5  501    0  0.89179021595E+01 -0.14092372776E+02  0.12350211947E+02  0.20752148914E+02  0.00000000000E+00 0. -1.
       -4    1    5    5    0  501  0.95286694917E+00  0.47956940993E+02 -0.68920182496E+02  0.83968849582E+02  0.00000000000E+00 0.  1.
</event>
<event>
 9   1  0.7570500E-01  0.2499935E+03  0.7546771E-02  0.1113309E+00
       21   -1    0    0  503  502  0.00000000000E+00  0.00000000000E+00  0.68619470428E+03  0.68619470428E+03  0.00000000000E+00 0. -1.
       21   -1    0    0  502  503 -0.00000000000E+00 -0.00000000000E+00 -0.22769312266E+02  0.22769312266E+02  0.00000000000E+00 0. -1.
       25    2    1    2    0    0  0.00000000000E+00  0.17763568394E-14  0.66342539201E+03  0.70896401654E+03  0.24999345189E+03 0.  0.
       24    2    3    3    0    0 -0.94622335618E+02 -0.35634980132E+01  0.36639478961E+03  0.38679202898E+03  0.79980290790E+02 0.  0.
      -24    2    3    3    0    0  0.94622335618E+02  0.35634980132E+01  0.29703060240E+03  0.32217198756E+03  0.81249774708E+02 0.  0.
      -13    1    4    4    0    0 -0.29324252679E+02 -0.37907533389E+02  0.18149154101E+03  0.18771273889E+03  0.00000000000E+00 0.  1.
       14    1    4    4    0    0 -0.65298082939E+02  0.34344035376E+02  0.18490324860E+03  0.19907929009E+03  0.00000000000E+00 0. -1.
        1    1    5    5  501    0  0.56689955105E+02 -0.96564319987E+01  0.26392692562E+03  0.27011926950E+03  0.00000000000E+00 0. -1.
       -2    1    5    5    0  501  0.37932380513E+02  0.13219930012E+02  0.33103676780E+02  0.52052718058E+02  0.00000000000E+00 0.  1.
</event>
<event>
 9   1  0.7570500E-01  0.2500052E+03  0.7546771E-02  0.1113302E+00
       21   -1    0    0  503  502  0.00000000000E+00  0.00000000000E+00  0.17741150020E+02  0.17741150020E+02  0.00000000000E+00 0. -1.
       21   -1    0    0  502  503 -0.00000000000E+00 -0.00000000000E+00 -0.88075763219E+03  0.88075763219E+03  0.00000000000E+00 0. -1.
       25    2    1    2    0    0 -0.71054273576E-14  0.00000000000E+00 -0.86301648217E+03  0.89849878221E+03  0.25000522622E+03 0.  0.
       24    2    3    3    0    0  0.38489314714E+02 -0.74342537994E+02 -0.56719660303E+03  0.57906445828E+03  0.81212191533E+02 0.  0.
      -24    2    3    3    0    0 -0.38489314714E+02  0.74342537994E+02 -0.29581987914E+03  0.31943432393E+03  0.86721658811E+02 0.  0.
      -13    1    4    4    0    0  0.49594341377E+02 -0.15179381755E+02 -0.34420949429E+03  0.34809508512E+03  0.00000000000E+00 0.  1.
       14    1    4    4    0    0 -0.11105026663E+02 -0.59163156238E+02 -0.22298710874E+03  0.23096937316E+03  0.00000000000E+00 0. -1.
        1    1    5    5  501    0 -0.12623753115E+02  0.89309264665E+02 -0.23364775207E+03  0.25045314122E+03  0.00000000000E+00 0. -1.
       -2    1    5    5    0  501 -0.25865561598E+02 -0.14966726671E+02 -0.62172127075E+02  0.68981182718E+02  0.00000000000E+00 0.  1.
</event>
<event>
 9   1  0.7570500E-01  0.2500051E+03  0.7546771E-02  0.1113302E+00
       21   -1    0    0  503  502  0.00000000000E+00  0.00000000000E+00  0.32328235052E+02  0.32328235052E+02  0.00000000000E+00 0. -1.
       21   -1    0    0  502  503 -0.00000000000E+00 -0.00000000000E+00 -0.48334346990E+03  0.48334346990E+03  0.00000000000E+00 0. -1.
       25    2    1    2    0    0 -0.35527136788E-14  0.71054273576E-14 -0.45101523485E+03  0.51567170495E+03  0.25000513039E+03 0.  0.
       24    2    3    3    0    0  0.30934147748E+02 -0.44607321184E+02 -0.64256855185E+02  0.11706647500E+03  0.81417943536E+02 0.  0.
      -24    2    3    3    0    0 -0.30934147748E+02  0.44607321184E+02 -0.38675837966E+03  0.39860522996E+03  0.79732995107E+02 0.  0.
      -13    1    4    4    0    0  0.17484513745E+02 -0.67105821314E+02 -0.57274394490E+02  0.89940289856E+02  0.00000000000E+00 0.  1.
       14    1    4    4    0    0  0.13449634003E+02  0.22498500130E+02 -0.69824606949E+01  0.27126185140E+02  0.00000000000E+00 0. -1.
        3    1    5    5  501    0 -0.38992674291E+02 -0.10783596119E+02 -0.16695869657E+03  0.17179034011E+03  0.00000000000E+00 0. -1.
       -4    1    5    5    0  501  0.80585265430E+01  0.55390917303E+02 -0.21979968309E+03  0.22681488984E+03  0.00000000000E+00 0.  1.
</event>
<event>
 9   1  0.7570500E-01  0.2500003E+03  0.7546771E-02  0.1113305E+00
       21   -1    0    0  503  502  0.00000000000E+00  0.00000000000E+00  0.36582028935E+03  0.36582028935E+03  0.00000000000E+00 0. -1.
       21   -1    0    0  502  503 -0.00000000000E+00 -0.00000000000E+00 -0.42712338896E+02  0.42712338896E+02  0.00000000000E+00 0. -1.
       25    2    1    2    0    0  0.35527136788E-14  0.00000000000E+00  0.32310795046E+03  0.40853262825E+03  0.25000032139E+03 0.  0.
       24    2    3    3    0    0  0.31745814474E+02 -0.90018854847E+02  0.18375174238E+03  0.22189430175E+03  0.79757052090E+02 0.  0.
      -24    2    3    3    0    0 -0.31745814474E+02  0.90018854847E+02  0.13935620808E+03  0.18663832650E+03  0.79388419959E+02 0.  0.
      -13    1    4    4    0    0  0.36715319111E+02 -0.61642411570E+02  0.17880681527E+03  0.19266467956E+03  0.00000000000E+00 0.  1.
       14    1    4    4    0    0 -0.49695046364E+01 -0.28376443277E+02  0.49449271041E+01  0.29229622191E+02  0.00000000000E+00 0. -1.
        1    1    5    5  501    0 -0.56877346218E+02  0.57677037948E+02  0.75241001690E+02  0.11055714158E+03  0.00000000000E+00 0. -1.
       -2    1    5    5    0  501  0.25131531744E+02  0.32341816899E+02  0.64115206390E+02  0.76081184918E+02  0.00000000000E+00 0.  1.
</event>
<event>
 9   1  0.7570500E-01  0.2500036E+03  0.7546771E-02  0.1113303E+00
       21   -1    0    0  503  502  0.00000000000E+00  0.00000000000E+00  0.12038433281E+03  0.12038433281E+03  0.00000000000E+00 0.  1.
       21   -1    0    0  502  503 -0.00000000000E+00 -0.00000000000E+00 -0.12979632846E+03  0.12979632846E+03  0.00000000000E+00 0.  1.
       25    2    1    2    0    0  0.00000000000E+00  0.88817841970E-15 -0.94119956521E+01  0.25018066127E+03  0.25000355519E+03 0.  0.
       24    2    3    3    0    0 -0.97617473824E+02  0.10835528912E+00  0.23990127480E+02  0.12606315511E+03  0.76073713743E+02 0.  0.
      -24    2    3    3    0    0  0.97617473824E+02 -0.10835528912E+00 -0.33402123132E+02  0.12411750616E+03  0.68994714062E+02 0.  0.
      -13    1    4    4    0    0 -0.48128953536E+02 -0.19696786830E+02 -0.21221843063E+02  0.56166949382E+02  0.00000000000E+00 0.  1.
       14    1    4    4    0    0 -0.49488520288E+02  0.19805142119E+02  0.45211970542E+02  0.69896205726E+02  0.00000000000E+00 0. -1.
        1    1    5    5  501    0  0.15247382369E+01 -0.59313412065E+01  0.15118834649E+02  0.16312105822E+02  0.00000000000E+00 0. -1.
       -2    1    5    5    0  501  0.96092735587E+02  0.58229859174E+01 -0.48520957781E+02  0.10780540034E+03  0.00000000000E+00 0.  1.
</event>
<event>
 9   1  0.7570500E-01  0.2499605E+03  0.7546771E-02  0.1113330E+00
       21   -1    0    0  503  502  0.00000000000E+00  0.00000000000E+00  0.11847588993E+03  0.11847588993E+03  0.00000000000E+00 0. -1.
       21   -1    0    0  502  503 -0.00000000000E+00 -0.00000000000E+00 -0.13184170401E+03  0.13184170401E+03  0.00000000000E+00 0. -1.
       25    2    1    2    0    0 -0.71054273576E-14  0.00000000000E+00 -0.13365814085E+02  0.25031759394E+03  0.24996050258E+03 0.  0.
       24    2    3    3    0    0  0.32893499986E+02  0.83632710088E+02  0.24936174388E+02  0.12322880342E+03  0.80542613949E+02 0.  0.
      -24    2    3    3    0    0 -0.32893499986E+02 -0.83632710088E+02 -0.38301988473E+02  0.12708879052E+03  0.81290256588E+02 0.  0.
      -13    1    4    4    0    0  0.94557585585E+01  0.56606353072E+02  0.52722452166E+02  0.77931685086E+02  0.00000000000E+00 0.  1.
       14    1    4    4    0    0  0.23437741428E+02  0.27026357016E+02 -0.27786277778E+02  0.45297118335E+02  0.00000000000E+00 0. -1.
        3    1    5    5  501    0  0.99208943883E+01 -0.45290745856E+02  0.14972336783E+02  0.48722137416E+02  0.00000000000E+00 0. -1.
       -4    1    5    5    0  501 -0.42814394375E+02 -0.38341964232E+02 -0.53274325256E+02  0.78366653102E+02  0.00000000000E+00 0.  1.
</event>
<event>
 9   1  0.7570500E-01  0.2500003E+03  0.7546771E-02  0.1113305E+00
       21   -1    0    0  503  502  0.00000000000E+00  0.00000000000E+00  0.89745504037E+03  0.89745504037E+03  0.00000000000E+00 0.  1.
       21   -1    0    0  502  503 -0.00000000000E+00 -0.00000000000E+00 -0.17410389306E+02  0.17410389306E+02  0.00000000000E+00 0.  1.
       25    2    1    2    0    0  0.00000000000E+00  0.35527136788E-14  0.88004465106E+03  0.91486542967E+03  0.25000033310E+03 0.  0.
       24    2    3    3    0    0 -0.23524677589E+02 -0.23343347873E+02  0.76704631470E+03  0.77217987999E+03  0.82482700109E+02 0.  0.
      -24    2    3    3    0    0  0.23524677589E+02  0.23343347873E+02  0.11299833636E+03  0.14268554969E+03  0.80574311808E+02 0.  0.
      -13    1    4    4    0    0 -0.19048279197E+02 -0.51138775056E+02  0.35467951055E+03  0.35885312658E+03  0.00000000000E+00 0.  1.
       14    1    4    4    0    0 -0.44763983916E+01  0.27795427183E+02  0.41236680415E+03  0.41332675340E+03  0.00000000000E+00 0. -1.
        3    1    5    5  501    0 -0.23457383480E+02 -0.93586477503E+01  0.15521666814E+02  0.29643806573E+02  0.00000000000E+00 0. -1.
       -4    1    5    5    0  501  0.46982061069E+02  0.32701995624E+02  0.97476669550E+02  0.11304174312E+03  0.00000000000E+00 0.  1.
</event>
<event>
 9   1  0.7570500E-01  0.2499901E+03  0.7546771E-02  0.1113311E+00
       21   -1    0    0  503  502  0.00000000000E+00  0.00000000000E+00  0.11991108650E+03  0.11991108650E+03  0.00000000000E+00 0.  1.
       21   -1    0    0  502  503 -0.00000000000E+00 -0.00000000000E+00 -0.13029452388E+03  0.13029452388E+03  0.00000000000E+00 0.  1.
       25    2    1    2    0    0  0.00000000000E+00  0.00000000000E+00 -0.10383437387E+02  0.25020561038E+03  0.24999006319E+03 0.  0.
       24    2    3    3    0    0 -0.20698309930E+02 -0.36206764529E+02  0.81059606395E+02  0.12315443945E+03  0.82807042787E+02 0.  0.
      -24    2    3    3    0    0  0.20698309930E+02  0.36206764529E+02 -0.91443043781E+02  0.12705117093E+03  0.77722711915E+02 0.  0.
      -13    1    4    4    0    0  0.20520962234E+02 -0.39507585303E+01  0.65195692668E+02  0.68463104855E+02  0.00000000000E+00 0.  1.
       14    1    4    4    0    0 -0.41219272165E+02 -0.32256005998E+02  0.15863913727E+02  0.54691334592E+02  0.00000000000E+00 0. -1.
        3    1    5    5  501    0  0.36219799404E+02  0.52369324462E+01 -0.83990136736E+02  0.91616823779E+02  0.00000000000E+00 0. -1.
       -4    1    5    5    0  501 -0.15521489474E+02  0.30969832083E+02 -0.74529070451E+01  0.35434347153E+02  0.00000000000E+00 0.  1.
</event>
<event>
 9   1  0.7570500E-01  0.2499922E+03  0.7546771E-02  0.1113310E+00
       21   -1    0    0  503  502  0.00000000000E+00  0.00000000000E+00  0.42940635033E+02  0.42940635033E+02  0.00000000000E+00 0.  1.
       21   -1    0    0  502  503 -0.00000000000E+00 -0.00000000000E+00 -0.36385184483E+03  0.36385184483E+03  0.00000000000E+00 0.  1.
       25    2    1    2    0    0 -0.35527136788E-14  0.00000000000E+00 -0.32091120980E+03  0.40679247987E+03  0.24999223408E+03 0.  0.
       24    2    3    3    0    0  0.10590142309E+02  0.78807766626E+02 -0.24617168717E+03  0.27080125542E+03  0.80062507955E+02 0.  0.
      -24    2    3    3    0    0 -0.10590142309E+02 -0.78807766626E+02 -0.74739522633E+02  0.13599122445E+03  0.81146790991E+02 0.  0.
      -13    1    4    4    0    0  0.36842034696E+02  0.75456831549E+02 -0.20839711801E+03  0.22467849862E+03  0.00000000000E+00 0.  1.
       14    1    4    4    0    0 -0.26251892387E+02  0.33509350764E+01 -0.37774569160E+02  0.46122756802E+02  0.00000000000E+00 0. -1.
        3    1    5    5  501    0 -0.19808409784E+02 -0.55919935864E+02 -0.89397840293E+02  0.10729112812E+03  0.00000000000E+00 0. -1.
       -4    1    5    5    0  501  0.92182674746E+01 -0.22887830762E+02  0.14658317660E+02  0.28700096321E+02  0.00000000000E+00 0.  1.
</event>
<event>
 9   1  0.7570500E-01  0.2499951E+03  0.7546771E-02  0.1113308E+00
       21   -1    0    0  503  502  0.00000000000E+00  0.00000000000E+00  0.13852792421E+03  0.13852792421E+03  0.00000000000E+00 0.  1.
       21   -1    0    0  502  503 -0.00000000000E+00 -0.00000000000E+00 -0.11278869972E+03  0.11278869972E+03  0.00000000000E+00 0.  1.
       25    2    1    2    0    0  0.00000000000E+00  0.71054273576E-14  0.25739224490E+02  0.25131662393E+03  0.24999507553E+03 0.  0.
       24    2    3    3    0    0 -0.58983084681E+02 -0.59267920384E+02 -0.34078675881E+02  0.12067428292E+03  0.80057702593E+02 0.  0.
      -24    2    3    3    0    0  0.58983084681E+02  0.59267920384E+02  0.59817900371E+02  0.13064234101E+03  0.80607378042E+02 0.  0.
      -13    1    4    4    0    0 -0.65977394115E+01 -0.46780919260E+02 -0.45535503359E+02  0.65616054730E+02  0.00000000000E+00 0.  1.
       14    1    4    4    0    0 -0.52385345269E+02 -0.12487001124E+02  0.11456827478E+02  0.55058228195E+02  0.00000000000E+00 0. -1.
        3    1    5    5  501    0  0.66944702140E+02  0.12473183091E+02  0.28783125856E+02  0.73929978865E+02  0.00000000000E+00 0. -1.
       -4    1    5    5    0  501 -0.79616174588E+01  0.46794737293E+02  0.31034774514E+02  0.56712362145E+02  0.00000000000E+00 0.  1.
</event>
<event>
 9   1  0.7570500E-01  0.2500026E+03  0.7546771E-02  0.1113303E+00
       21   -1    0    0  503  502  0.00000000000E+00  0.00000000000E+00  0.59922311759E+02  0.59922311759E+02  0.00000000000E+00 0. -1.
       21   -1    0    0  502  503 -0.00000000000E+00 -0.00000000000E+00 -0.26075981111E+03  0.26075981111E+03  0.00000000000E+00 0. -1.
       25    2    1    2    0    0 -0.71054273576E-14  0.00000000000E+00 -0.20083749935E+03  0.32068212286E+03  0.25000264555E+03 0.  0.
       24    2    3    3    0    0 -0.51600399856E+02 -0.68240723730E+02 -0.15341909403E+03  0.19334770891E+03  0.80786883137E+02 0.  0.
      -24    2    3    3    0    0  0.51600399856E+02  0.68240723730E+02 -0.47418405312E+02  0.12733441395E+03  0.81523923933E+02 0.  0.
      -13    1    4    4    0    0 -0.68514938199E+02 -0.72980264438E+02 -0.13028841365E+03  0.16430303249E+03  0.00000000000E+00 0.  1.
       14    1    4    4    0    0  0.16914538343E+02  0.47395407076E+01 -0.23130680380E+02  0.29044676420E+02  0.00000000000E+00 0. -1.
        3    1    5    5  501    0 -0.18760253115E+02  0.16826191572E+02  0.49268253202E+01  0.25677644508E+02  0.00000000000E+00 0. -1.
       -4    1    5    5    0  501  0.70360652971E+02  0.51414532158E+02 -0.52345230632E+02  0.10165676944E+03  0.00000000000E+00 0.  1.
</event>
<event>
 9   1  0.7570500E-01  0.2499989E+03  0.7546771E-02  0.1113306E+00
       21   -1    0    0  503  502  0.00000000000E+00  0.00000000000E+00  0.44857512713E+03  0.44857512713E+03  0.00000000000E+00 0. -1.
       21   -1    0    0  502  503 -0.00000000000E+00 -0.00000000000E+00 -0.34832203285E+02  0.34832203285E+02  0.00000000000E+00 0. -1.
       25    2    1    2    0    0  0.00000000000E+00  0.14210854715E-13  0.41374292384E+03  0.48340733041E+03  0.24999888013E+03 0.  0.
       24    2    3    3    0    0 -0.25010816220E+02  0.92803547392E+02  0.24392669928E+03  0.27420357884E+03  0.80307712507E+02 0.  0.
      -24    2    3    3    0    0  0.25010816220E+02 -0.92803547392E+02  0.16981622456E+03  0.20920375157E+03  0.75436199614E+02 0.  0.
      -13    1    4    4    0    0 -0.27361757318E+01  0.81415895542E+01  0.13117749851E+03  0.13145838982E+03  0.00000000000E+00 0.  1.
       14    1    4    4    0    0 -0.22274640488E+02  0.84661957838E+02  0.11274920078E+03  0.14274518902E+03  0.00000000000E+00 0. -1.
        1    1    5    5  501    0 -0.16520484983E+02 -0.41456454896E+02  0.11507416304E+03  0.12342458052E+03  0.00000000000E+00 0. -1.
       -2    1    5    5    0  501  0.41531301203E+02 -0.51347092496E+02  0.54742061515E+02  0.85779171052E+02  0.00000000000E+00 0.  1.
</event>
<event>
 9   1  0.7570500E-01  0.2499974E+03  0.7546771E-02  0.1113306E+00
       21   -1    0    0  503  502  0.00000000000E+00  0.00000000000E+00  0.19056733662E+03  0.19056733662E+03  0.00000000000E+00 0. -1.
       21   -1    0    0  502  503 -0.00000000000E+00 -0.00000000000E+00 -0.81990314451E+02  0.81990314451E+02  0.00000000000E+00 0. -1.
       25    2    1    2    0    0  0.00000000000E+00  0.00000000000E+00  0.10857702217E+03  0.27255765107E+03  0.24999740682E+03 0.  0.
       24    2    3    3    0    0  0.83637383092E+02 -0.45586408552E+02  0.55552148508E+02  0.13693956042E+03  0.81197718624E+02 0.  0.
      -24    2    3    3    0    0 -0.83637383092E+02  0.45586408552E+02  0.53024873662E+02  0.13561809065E+03  0.80667817558E+02 0.  0.
      -13    1    4    4    0    0  0.84560139633E+02 -0.56410258528E+01  0.32194937066E+02  0.90657334838E+02  0.00000000000E+00 0.  1.
       14    1    4    4    0    0 -0.92275654092E+00 -0.39945382700E+02  0.23357211442E+02  0.46282225584E+02  0.00000000000E+00 0. -1.
        1    1    5    5  501    0 -0.36916777063E+02 -0.13644903009E+02 -0.60246260909E+01  0.39816176692E+02  0.00000000000E+00 0. -1.
       -2    1    5    5    0  501 -0.46720606029E+02  0.59231311562E+02  0.59049499753E+02  0.95801913958E+02  0.00000000000E+00 0.  1.
</event>
<event>
 9   1  0.7570500E-01  0.2500117E+03  0.7546771E-02  0.1113297E+00
       21   -1    0    0  503  502  0.00000000000E+00  0.00000000000E+00  0.17186873252E+03  0.17186873252E+03  0.00000000000E+00 0. -1.
       21   -1    0    0  502  503 -0.00000000000E+00 -0.00000000000E+00 -0.90920889086E+02  0.90920889086E+02  0.00000000000E+00 0. -1.
       25    2    1    2    0    0  0.00000000000E+00  0.00000000000E+00  0.80947843430E+02  0.26278962160E+03  0.25001166346E+03 0.  0.
       24    2    3    3    0    0 -0.51749533333E+02  0.12781609550E+02 -0.46309155990E+02  0.10306127274E+03  0.75071327868E+02 0.  0.
      -24    2    3    3    0    0  0.51749533333E+02 -0.12781609550E+02  0.12725699942E+03  0.15972834886E+03  0.80482406680E+02 0.  0.
      -13    1    4    4    0    0 -0.48848772852E+02 -0.22947139101E+02 -0.16488540958E+02  0.56432665939E+02  0.00000000000E+00 0.  1.
       14    1    4    4    0    0 -0.29007604808E+01  0.35728748651E+02 -0.29820615032E+02  0.46628606803E+02  0.00000000000E+00 0. -1.
        1    1    5    5  501    0  0.37753685140E+02 -0.41171442088E+02  0.45461047058E+02  0.72021768826E+02  0.00000000000E+00 0. -1.
       -2    1    5    5    0  501  0.13995848192E+02  0.28389832538E+02  0.81795952363E+02  0.87706580033E+02  0.00000000000E+00 0.  1.
</event>
<event>
 9   1  0.7570500E-01  0.2500179E+03  0.7546771E-02  0.1113293E+00
       21   -1    0    0  503  502  0.00000000000E+00  0.00000000000E+00  0.29673458829E+03  0.29673458829E+03  0.00000000000E+00 0. -1.
       21   -1    0    0  502  503 -0.00000000000E+00 -0.00000000000E+00 -0.52664033109E+02  0.52664033109E+02  0.00000000000E+00 0. -1.
       25    2    1    2    0    0  0.71054273576E-14  0.00000000000E+00  0.24407055518E+03  0.34939862140E+03  0.25001792082E+03 0.  0.
       24    2    3    3    0    0 -0.43746665470E+02  0.69660981677E+02  0.18793644820E+03  0.22041151881E+03  0.80589738504E+02 0.  0.
      -24    2    3    3    0    0  0.43746665470E+02 -0.69660981677E+02  0.56134106981E+02  0.12898710259E+03  0.81976896508E+02 0.  0.
      -13    1    4    4    0    0  0.90248378957E+01  0.60408710390E+02  0.11031479432E+03  0.12609525699E+03  0.00000000000E+00 0.  1.
       14    1    4    4    0    0 -0.52771503366E+02  0.92522712875E+01  0.77621653884E+02  0.94316261818E+02  0.00000000000E+00 0. -1.
        3    1    5    5  501    0  0.21972581245E+02  0.45537187392E+01 -0.12409476432E+02  0.25642265622E+02  0.00000000000E+00 0. -1.
       -4    1    5    5    0  501  0.21774084226E+02 -0.74214700416E+02  0.68543583413E+02  0.10334483697E+03  0.00000000000E+00 0.  1.
</event>
<event>
 9   1  0.7570500E-01  0.2499970E+03  0.7546771E-02  0.1113307E+00
       21   -1    0    0  503  502  0.00000000000E+00  0.00000000000E+00  0.70236523891E+03  0.70236523891E+03  0.00000000000E+00 0.  1.
       21   -1    0    0  502  503 -0.00000000000E+00 -0.00000000000E+00 -0.22245723142E+02  0.22245723142E+02  0.00000000000E+00 0.  1.
       25    2    1    2    0    0  0.00000000000E+00  0.17763568394E-14  0.68011951577E+03  0.72461096205E+03  0.24999698118E+03 0.  0.
       24    2    3    3    0    0 -0.94911807213E+02  0.13453218683E+02  0.34073224055E+03  0.36224329120E+03  0.77022737099E+02 0.  0.
      -24    2    3    3    0    0  0.94911807213E+02 -0.13453218683E+02  0.33938727522E+03  0.36236767085E+03  0.83290852169E+02 0.  0.
      -13    1    4    4    0    0 -0.44804714393E+02 -0.13762262063E+02  0.25505498511E+03  0.25932587168E+03  0.00000000000E+00 0.  1.
       14    1    4    4    0    0 -0.50107092820E+02  0.27215480746E+02  0.85677255434E+02  0.10291741953E+03  0.00000000000E+00 0. -1.
        1    1    5    5  501    0  0.77799255617E+02 -0.17237377038E+02  0.33493674637E+03  0.34428545629E+03  0.00000000000E+00 0. -1.
       -2    1    5    5    0  501  0.17112551596E+02  0.37841583544E+01  0.44505288538E+01  0.18082214567E+02  0.00000000000E+00 0.  1.
</event>
<event>
 9   1  0.7570500E-01  0.2499990E+03  0.7546771E-02  0.1113305E+00
       21   -1    0    0  503  502  0.00000000000E+00  0.00000000000E+00  0.17762625380E+03  0.17762625380E+03  0.00000000000E+00 0. -1.
       21   -1    0    0  502  503 -0.00000000000E+00 -0.00000000000E+00 -0.87964876406E+02  0.87964876406E+02  0.00000000000E+00 0. -1.
       25    2    1    2    0    0  0.71054273576E-14  0.00000000000E+00  0.89661377398E+02  0.26559113021E+03  0.24999897170E+03 0.  0.
       24    2    3    3    0    0 -0.53171202248E+02  0.53631281923E+01 -0.40050507895E+02  0.10377823547E+03  0.79435124993E+02 0.  0.
      -24    2    3    3    0    0  0.53171202248E+02 -0.53631281923E+01  0.12971188529E+03  0.16181289474E+03  0.80636839127E+02 0.  0.
      -13    1    4    4    0    0 -0.35325689813E+02 -0.31839224965E+02 -0.19187148680E+01  0.47595399713E+02  0.00000000000E+00 0.  1.
       14    1    4    4    0    0 -0.17845512435E+02  0.37202353157E+02 -0.38131793027E+02  0.56182835759E+02  0.00000000000E+00 0. -1.
        3    1    5    5  501    0 -0.20086313946E+02  0.85818358502E+01  0.24090047546E+02  0.32518276480E+02  0.00000000000E+00 0. -1.
       -4    1    5    5    0  501  0.73257516194E+02 -0.13944964042E+02  0.10562183775E+03  0.12929461826E+03  0.00000000000E+00 0.  1.
</event>
<event>
 9   1  0.7570500E-01  0.2500057E+03  0.7546771E-02  0.1113301E+00
       21   -1    0    0  503  502  0.00000000000E+00  0.00000000000E+00  0.81635319853E+02  0.81635319853E+02  0.00000000000E+00 0. -1.
       21   -1    0    0  502  503 -0.00000000000E+00 -0.00000000000E+00 -0.19140880022E+03  0.19140880022E+03  0.00000000000E+00 0. -1.
       25    2    1    2    0    0  0.00000000000E+00  0.71054273576E-14 -0.10977348037E+03  0.27304412007E+03  0.25000574896E+03 0.  0.
       24    2    3    3    0    0 -0.61817687542E+02 -0.54450447592E+02 -0.10811839737E+03  0.15795195133E+03  0.80454666389E+02 0.  0.
      -24    2    3    3    0    0  0.61817687542E+02  0.54450447592E+02 -0.16550829957E+01  0.11509216874E+03  0.80356644214E+02 0.  0.
      -13    1    4    4    0    0 -0.25695537261E+02 -0.49965301308E+02 -0.15269761482E+02  0.58223342275E+02  0.00000000000E+00 0.  1.
       14    1    4    4    0    0 -0.36122150281E+02 -0.44851462840E+01 -0.92848635889E+02  0.99728609058E+02  0.00000000000E+00 0. -1.
        1    1    5    5  501    0  0.50148218606E+02 -0.70601525184E+01  0.94227354676E+01  0.51511916356E+02  0.00000000000E+00 0. -1.
       -2    1    5    5    0  501  0.11669468936E+02  0.61510600111E+02 -0.11077818463E+02  0.63580252383E+02  0.00000000000E+00 0.  1.
</event>
<event>
 9   1  0.7570500E-01  0.2500268E+03  0.7546771E-02  0.1113288E+00
       21   -1    0    0  503  502  0.00000000000E+00  0.00000000000E+00  0.24924994277E+02  0.24924994277E+02  0.00000000000E+00 0. -1.
       21   -1    0    0  502  503 -0.00000000000E+00 -0.00000000000E+00 -0.62701500510E+03  0.62701500510E+03  0.00000000000E+00 0. -1.
       25    2    1    2    0    0  0.71054273576E-14 -0.71054273576E-14 -0.60209001083E+03  0.65193999938E+03  0.25002676188E+03 0.  0.
       24    2    3    3    0    0 -0.44755697861E+02  0.59465701807E+02 -0.45363053440E+03  0.46669464355E+03  0.80523204109E+02 0.  0.
      -24    2    3    3    0    0  0.44755697861E+02 -0.59465701807E+02 -0.14845947643E+03  0.18524535583E+03  0.82075474605E+02 0.  0.
      -13    1    4    4    0    0  0.12272261461E+02  0.38148270376E+02 -0.27659708739E+03  0.27948496863E+03  0.00000000000E+00 0.  1.
       14    1    4    4    0    0 -0.57027959322E+02  0.21317431431E+02 -0.17703344700E+03  0.18720967492E+03  0.00000000000E+00 0. -1.
        1    1    5    5  501    0 -0.11673622501E+00 -0.60155253458E+02 -0.54733150667E+02  0.81328875118E+02  0.00000000000E+00 0. -1.
       -2    1    5    5    0  501  0.44872434086E+02  0.68955165118E+00 -0.93726325762E+02  0.10391648071E+03  0.00000000000E+00 0.  1.
</event>
<event>
 9   1  0.7570500E-01  0.2500064E+03  0.7546771E-02  0.1113301E+00
       21   -1    0    0  503  502  0.00000000000E+00  0.00000000000E+00  0.74907720641E+02  0.74907720641E+02  0.00000000000E+00 0. -1.
       21   -1    0    0  502  503 -0.00000000000E+00 -0.00000000000E+00 -0.20860068207E+03  0.20860068207E+03  0.00000000000E+00 0. -1.
       25    2    1    2    0    0  0.14210854715E-13  0.00000000000E+00 -0.13369296143E+03  0.28350840271E+03  0.25000641286E+03 0.  0.
       24    2    3    3    0    0 -0.81735669320E+02 -0.25810955016E+02 -0.19702165092E+02  0.11888946147E+03  0.79997523098E+02 0.  0.
      -24    2    3    3    0    0  0.81735669320E+02  0.25810955016E+02 -0.11399079634E+03  0.16461894124E+03  0.82210517133E+02 0.  0.
      -13    1    4    4    0    0 -0.68595852955E+02  0.15874818509E+02  0.12487604931E+01  0.70419885743E+02  0.00000000000E+00 0.  1.
       14    1    4    4    0    0 -0.13139816364E+02 -0.41685773524E+02 -0.20950925585E+02  0.48469575728E+02  0.00000000000E+00 0. -1.
        1    1    5    5  501    0  0.83403908174E+02 -0.17260863981E-01 -0.54203165062E+02  0.99469569715E+02  0.00000000000E+00 0. -1.
       -2    1    5    5    0  501 -0.16682388544E+01  0.25828215880E+02 -0.59787631278E+02  0.65149371526E+02  0.00000000000E+00 0.  1.
</event>
<event>
 9   1  0.7570500E-01  0.2500047E+03  0.7546771E-02  0.1113302E+00
       21   -1    0    0  503  502  0.00000000000E+00  0.00000000000E+00  0.64960138248E+03  0.64960138248E+03  0.00000000000E+00 0. -1.
       21   -1    0    0  502  503 -0.00000000000E+00 -0.00000000000E+00 -0.24054125415E+02  0.24054125415E+02  0.00000000000E+00 0. -1.
       25    2    1    2    0    0 -0.14210854715E-13  0.00000000000E+00  0.62554725706E+03  0.67365550789E+03  0.25000474495E+03 0.  0.
       24    2    3    3    0    0 -0.82295874848E+02  0.22916897649E+01  0.17837380421E+03  0.21168466327E+03  0.78837299416E+02 0.  0.
      -24    2    3    3    0    0  0.82295874848E+02 -0.22916897649E+01  0.44717345286E+03  0.46197084462E+03  0.81701294239E+02 0.  0.
      -13    1    4    4    0    0 -0.13943927500E+01 -0.21407320960E+02  0.76515054852E+02  0.79465535553E+02  0.00000000000E+00 0.  1.
       14    1    4    4    0    0 -0.80901482098E+02  0.23699010725E+02  0.10185874935E+03  0.13221912772E+03  0.00000000000E+00 0. -1.
        3    1    5    5  501    0 -0.54733482628E+01 -0.16817949519E+02  0.16888067468E+03  0.16980424979E+03  0.00000000000E+00 0. -1.
       -4    1    5    5    0  501  0.87769223111E+02  0.14526259754E+02  0.27829277818E+03  0.29216659483E+03  0.00000000000E+00 0.  1.
</event>
<event>
 9   1  0.7570500E-01  0.2500123E+03  0.7546771E-02  0.1113297E+00
       21   -1    0    0  503  502  0.00000000000E+00  0.00000000000E+00  0.14691531174E+03  0.14691531174E+03  0.00000000000E+00 0. -1.
       21   -1    0    0  502  503 -0.00000000000E+00 -0.00000000000E+00 -0.10636421791E+03  0.10636421791E+03  0.00000000000E+00 0. -1.
       25    2    1    2    0    0  0.35527136788E-14  0.14210854715E-13  0.40551093830E+02  0.25327952966E+03  0.25001225757E+03 0.  0.
       24    2    3    3    0    0  0.12460649914E+02  0.83854334689E+02  0.67631529211E+02  0.13395088378E+03  0.78625684609E+02 0.  0.
      -24    2    3    3    0    0 -0.12460649914E+02 -0.83854334689E+02 -0.27080435381E+02  0.11932864588E+03  0.79493134949E+02 0.  0.
      -13    1    4    4    0    0  0.31933814386E+01  0.99921533255E+01 -0.17785045799E+02  0.20648212202E+02  0.00000000000E+00 0.  1.
       14    1    4    4    0    0  0.92672684751E+01  0.73862181363E+02  0.85416575010E+02  0.11330267158E+03  0.00000000000E+00 0. -1.
        1    1    5    5  501    0  0.27817467825E+02 -0.46690243620E+02 -0.33972116877E+02  0.64092863024E+02  0.00000000000E+00 0. -1.
       -2    1    5    5    0  501 -0.40278117739E+02 -0.37164091069E+02  0.68916814964E+01  0.55235782853E+02  0.00000000000E+00 0.  1.
</event>
<event>
 9   1  0.7570500E-01  0.2500077E+03  0.7546771E-02  0.1113300E+00
       21   -1    0    0  503  502  0.00000000000E+00  0.00000000000E+00  0.86469724901E+03  0.86469724901E+03  0.00000000000E+00 0.  1.
       21   -1    0    0  502  503 -0.00000000000E+00 -0.00000000000E+00 -0.18071019957E+02  0.18071019957E+02  0.00000000000E+00 0.  1.
       25    2    1    2    0    0 -0.71054273576E-14  0.00000000000E+00  0.84662622905E+03  0.88276826896E+03  0.25000768983E+03 0.  0.
       24    2    3    3    0    0  0.49214018430E+02  0.77103929278E+02  0.51690795817E+03  0.53112202384E+03  0.80806753849E+02 0.  0.
      -24    2    3    3    0    0 -0.49214018430E+02 -0.77103929278E+02  0.32971827088E+03  0.35164624512E+03  0.81079640095E+02 0.  0.
      -13    1    4    4    0    0 -0.16545299272E+02  0.23404748719E+02  0.61281233466E+02  0.67652928730E+02  0.00000000000E+00 0.  1.
       14    1    4    4    0    0  0.65759317702E+02  0.53699180559E+02  0.45562672471E+03  0.46346909511E+03  0.00000000000E+00 0. -1.
        1    1    5    5  501    0 -0.38993940810E+02 -0.53083021973E+02  0.31472254457E+03  0.32154100003E+03  0.00000000000E+00 0. -1.
       -2    1    5    5    0  501 -0.10220077619E+02 -0.24020907305E+02  0.14995726305E+02  0.30105245086E+02  0.00000000000E+00 0.  1.
</event>
<event>
 9   1  0.7570500E-01  0.2499986E+03  0.7546771E-02  0.1113306E+00
       21   -1    0    0  503  502  0.00000000000E+00  0.00000000000E+00  0.54516011271E+03  0.54516011271E+03  0.00000000000E+00 0.  1.
       21   -1    0    0  502  503 -0.00000000000E+00 -0.00000000000E+00 -0.28660985685E+02  0.28660985685E+02  0.00000000000E+00 0.  1.
       25    2    1    2    0    0  0.00000000000E+00  0.14210854715E-13  0.51649912703E+03  0.57382109840E+03  0.24999860949E+03 0.  0.
       24    2    3    3    0    0  0.48229692678E+02 -0.77400290298E+02  0.32853021595E+03  0.34976259371E+03  0.78005518865E+02 0.  0.
      -24    2    3    3    0    0 -0.48229692678E+02  0.77400290298E+02  0.18796891108E+03  0.22405850468E+03  0.80950563906E+02 0.  0.
      -13    1    4    4    0    0  0.69025354464E+02 -0.56539863676E+02  0.26765675027E+03  0.28213718597E+03  0.00000000000E+00 0.  1.
       14    1    4    4    0    0 -0.20795661786E+02 -0.20860426622E+02  0.60873465686E+02  0.67625407744E+02  0.00000000000E+00 0. -1.
        1    1    5    5  501    0 -0.12535755655E+02  0.43341568577E+02  0.16227949975E+03  0.16843477306E+03  0.00000000000E+00 0. -1.
       -2    1    5    5    0  501 -0.35693937023E+02  0.34058721721E+02  0.25689411322E+02  0.55623731622E+02  0.00000000000E+00 0.  1.
</event>
<event>
 9   1  0.7570500E-01  0.2500036E+03  0.7546771E-02  0.1113303E+00
       21   -1    0    0  503  502  0.00000000000E+00  0.00000000000E+00  0.13474907355E+04  0.13474907355E+04  0.00000000000E+00 0. -1.
       21   -1    0    0  502  503 -0.00000000000E+00 -0.00000000000E+00 -0.11595964660E+02  0.11595964660E+02  0.00000000000E+00 0. -1.
       25    2    1    2    0    0 -0.71054273576E-14  0.00000000000E+00  0.13358947708E+04  0.13590867002E+04  0.25000363956E+03 0.  0.
       24    2    3    3    0    0 -0.45545165889E+02  0.67728623225E+02  0.97155062781E+03  0.97820644789E+03  0.79471402042E+02 0.  0.
      -24    2    3    3    0    0  0.45545165889E+02 -0.67728623225E+02  0.36434414303E+03  0.38088025228E+03  0.75243494565E+02 0.  0.
      -13    1    4    4    0    0 -0.66292902419E+01  0.54914392650E+02  0.79677918350E+03  0.79869681686E+03  0.00000000000E+00 0.  1.
       14    1    4    4    0    0 -0.38915875648E+02  0.12814230575E+02  0.17477144432E+03  0.17950963103E+03  0.00000000000E+00 0. -1.
        1    1    5    5  501    0  0.64718742060E+02 -0.48402341930E+02  0.22945240647E+03  0.24326880012E+03  0.00000000000E+00 0. -1.
       -2    1    5    5    0  501 -0.19173576170E+02 -0.19326281295E+02  0.13489173657E+03  0.13761145216E+03  0.00000000000E+00 0.  1.
</event>
<event>
 9   1  0.7570500E-01  0.2499880E+03  0.7546771E-02  0.1113312E+00
       21   -1    0    0  503  502  0.00000000000E+00  0.00000000000E+00  0.22399950351E+03  0.22399950351E+03  0.00000000000E+00 0.  1.
       21   -1    0    0  502  503 -0.00000000000E+00 -0.00000000000E+00 -0.69747906253E+02  0.69747906253E+02  0.00000000000E+00 0.  1.
       25    2    1    2    0    0  0.00000000000E+00 -0.71054273576E-14  0.15425159726E+03  0.29374740977E+03  0.24998797068E+03 0.  0.
       24    2    3    3    0    0  0.73340178229E+02 -0.40589207293E+02  0.13097465219E+03  0.17522868687E+03  0.80774177157E+02 0.  0.
      -24    2    3    3    0    0 -0.73340178229E+02  0.40589207293E+02  0.23276945068E+02  0.11851872289E+03  0.80489788253E+02 0.  0.
      -13    1    4    4    0    0  0.23700285670E+02 -0.58573765928E+02  0.78746063349E+02  0.10096302337E+03  0.00000000000E+00 0.  1.
       14    1    4    4    0    0  0.49639892559E+02  0.17984558635E+02  0.52228588844E+02  0.74265663500E+02  0.00000000000E+00 0. -1.
        3    1    5    5  501    0 -0.79448823514E+02  0.44202573534E+02  0.40770366007E+02  0.99640382422E+02  0.00000000000E+00 0. -1.
       -4    1    5    5    0  501  0.61086452852E+01 -0.36133662412E+01 -0.17493420938E+02  0.18878340471E+02  0.00000000000E+00 0.  1.
</event>
<event>
 9   1  0.7570500E-01  0.2500079E+03  0.7546771E-02  0.1113300E+00
       21   -1    0    0  503  502  0.00000000000E+00  0.00000000000E+00  0.97635205820E+01  0.97635205820E+01  0.00000000000E+00 0. -1.
       21   -1    0    0  502  503 -0.00000000000E+00 -0.00000000000E+00 -0.16004461469E+04  0.16004461469E+04  0.00000000000E+00 0. -1.
       25    2    1    2    0    0 -0.28421709430E-13  0.00000000000E+00 -0.15906826263E+04  0.16102096675E+04  0.25000791104E+03 0.  0.
       24    2    3    3    0    0 -0.80393476293E+02  0.18962195775E+02 -0.11224349579E+04  0.11282709202E+04  0.79450354482E+02 0.  0.
      -24    2    3    3    0    0  0.80393476293E+02 -0.18962195775E+02 -0.46824766839E+03  0.48193874722E+03  0.78653679009E+02 0.  0.
      -13    1    4    4    0    0 -0.52911911328E+02  0.16893832208E+02 -0.28385318263E+03  0.28923641059E+03  0.00000000000E+00 0.  1.
       14    1    4    4    0    0 -0.27481564965E+02  0.20683635676E+01 -0.83858177529E+03  0.83903450965E+03  0.00000000000E+00 0. -1.
        3    1    5    5  501    0  0.95778534481E+02 -0.11951883870E+02 -0.41474316911E+03  0.42582657446E+03  0.00000000000E+00 0. -1.
       -4    1    5    5    0  501 -0.15385058189E+02 -0.70103119052E+01 -0.53504499280E+02  0.56112172758E+02  0.00000000000E+00 0.  1.
</event>
<event>
 9   1  0.7570500E-01  0.2500052E+03  0.7546771E-02  0.1113302E+00
       21   -1    0    0  503  502  0.00000000000E+00  0.00000000000E+00  0.10287778215E+03  0.10287778215E+03  0.00000000000E+00 0. -1.
       21   -1    0    0  502  503 -0.00000000000E+00 -0.00000000000E+00 -0.15188551268E+03  0.15188551268E+03  0.00000000000E+00 0. -1.
       25    2    1    2    0    0  0.00000000000E+00  0.00000000000E+00 -0.49007730533E+02  0.25476329483E+03  0.25000515743E+03 0.  0.
       24    2    3    3    0    0  0.82707809571E+02  0.37566648678E+02 -0.58482466527E+02  0.13351157158E+03  0.78443011146E+02 0.  0.
      -24    2    3    3    0    0 -0.82707809571E+02 -0.37566648678E+02  0.94747359934E+01  0.12125172325E+03  0.79751958676E+02 0.  0.
      -13    1    4    4    0    0  0.48175621357E+02  0.37555298174E+02  0.49543006016E+01  0.61284875854E+02  0.00000000000E+00 0.  1.
       14    1    4    4    0    0  0.34532188215E+02  0.11350503963E-01 -0.63436767128E+02  0.72226695725E+02  0.00000000000E+00 0. -1.
        1    1    5    5  501    0 -0.10956702238E+02  0.23748258168E+02 -0.17137712614E+01  0.26210038190E+02  0.00000000000E+00 0. -1.
       -2    1    5    5    0  501 -0.71751107333E+02 -0.61314906846E+02  0.11188507255E+02  0.95041685063E+02  0.00000000000E+00 0.  1.
</event>
<event>
 9   1  0.7570500E-01  0.2500040E+03  0.7546771E-02  0.1113302E+00
       21   -1    0    0  503  502  0.00000000000E+00  0.00000000000E+00  0.15751500208E+03  0.15751500208E+03  0.00000000000E+00 0. -1.
       21   -1    0    0  502  503 -0.00000000000E+00 -0.00000000000E+00 -0.99200104300E+02  0.99200104300E+02  0.00000000000E+00 0. -1.
       25    2    1    2    0    0  0.35527136788E-14  0.00000000000E+00  0.58314897778E+02  0.25671510638E+03  0.25000403705E+03 0.  0.
       24    2    3    3    0    0  0.18286117806E+02  0.10689132098E+02 -0.67634105577E+02  0.10584853380E+03  0.78618701475E+02 0.  0.
      -24    2    3    3    0    0 -0.18286117806E+02 -0.10689132098E+02  0.12594900336E+03  0.15086657257E+03  0.80305240333E+02 0.  0.
      -13    1    4    4    0    0 -0.20946146679E+02  0.29514121236E+02 -0.41602548806E+02  0.55141603896E+02  0.00000000000E+00 0.  1.
       14    1    4    4    0    0  0.39232264485E+02 -0.18824989139E+02 -0.26031556771E+02  0.50706929907E+02  0.00000000000E+00 0. -1.
        1    1    5    5  501    0  0.26471303776E+02 -0.14741338943E+01  0.86586266475E+02  0.90554318154E+02  0.00000000000E+00 0. -1.
       -2    1    5    5    0  501 -0.44757421582E+02 -0.92149982033E+01  0.39362736881E+02  0.60312254420E+02  0.00000000000E+00 0.  1.
</event>
<event>
 9   1  0.7570500E-01  0.2500030E+03  0.7546771E-02  0.1113303E+00
       21   -1    0    0  503  502  0.00000000000E+00  0.00000000000E+00  0.18126891789E+03  0.18126891789E+03  0.00000000000E+00 0. -1.
       21   -1    0    0  502  503 -0.00000000000E+00 -0.00000000000E+00 -0.86199959788E+02  0.86199959788E+02  0.00000000000E+00 0. -1.
       25    2    1    2    0    0 -0.14210854715E-13 -0.35527136788E-14  0.95068958107E+02  0.26746887768E+03  0.25000298745E+03 0.  0.
       24    2    3    3    0    0 -0.78534394657E+02 -0.29703999437E+02  0.93494981647E+02  0.15101208179E+03  0.83745797067E+02 0.  0.
      -24    2    3    3    0    0  0.78534394657E+02  0.29703999437E+02  0.15739764600E+01  0.11645679589E+03  0.80682892741E+02 0.  0.
      -13    1    4    4    0    0 -0.66559017014E+02 -0.57199083418E+02  0.61529305652E+02  0.10718065751E+03  0.00000000000E+00 0.  1.
       14    1    4    4    0    0 -0.11975377644E+02  0.27495083980E+02  0.31965675995E+02  0.43831424282E+02  0.00000000000E+00 0. -1.
        1    1    5    5  501    0  0.71135224996E+01 -0.24262653732E+02 -0.77756732558E+01  0.26452592748E+02  0.00000000000E+00 0. -1.
       -2    1    5    5    0  501  0.71420872158E+02  0.53966653170E+02  0.93496497158E+01  0.90004203146E+02  0.00000000000E+00 0.  1.
</event>
<event>
 9   1  0.7570500E-01  0.2500014E+03  0.7546771E-02  0.1113304E+00
       21   -1    0    0  503  502  0.00000000000E+00  0.00000000000E+00  0.12214506505E+03  0.12214506505E+03  0.00000000000E+00 0. -1.
       21   -1    0    0  502  503 -0.00000000000E+00 -0.00000000000E+00 -0.12792305968E+03  0.12792305968E+03  0.00000000000E+00 0. -1.
       25    2    1    2    0    0  0.00000000000E+00 -0.35527136788E-14 -0.57779946377E+01  0.25006812473E+03  0.25000136356E+03 0.  0.
       24    2    3    3    0    0 -0.75003465336E+02 -0.22759154943E+02  0.31076271262E+02  0.13189317814E+03  0.10142276301E+03 0.  0.
      -24    2    3    3    0    0  0.75003465336E+02  0.22759154943E+02 -0.36854265900E+02  0.11817494659E+03  0.80396406273E+02 0.  0.
      -13    1    4    4    0    0 -0.50748705157E+02 -0.35876946715E+02 -0.26878377706E+02  0.67712875946E+02  0.00000000000E+00 0.  1.
       14    1    4    4    0    0 -0.24254760179E+02  0.13117791773E+02  0.57954648967E+02  0.64180302190E+02  0.00000000000E+00 0. -1.
        1    1    5    5  501    0  0.14601154741E+02  0.16370708076E+02  0.23778917706E+02  0.32351672754E+02  0.00000000000E+00 0. -1.
       -2    1    5    5    0  501  0.60402310595E+02  0.63884468662E+01 -0.60633183606E+02  0.85823273841E+02  0.00000000000E+00 0.  1.
</event>
<event>
 9   1  0.7570500E-01  0.2499996E+03  0.7546771E-02  0.1113305E+00
       21   -1    0    0  503  502  0.00000000000E+00  0.00000000000E+00  0.25193786766E+02  0.25193786766E+02  0.00000000000E+00 0. -1.
       21   -1    0    0  502  503 -0.00000000000E+00 -0.00000000000E+00 -0.62019076059E+03  0.62019076059E+03  0.00000000000E+00 0. -1.
       25    2    1    2    0    0  0.00000000000E+00  0.71054273576E-14 -0.59499697383E+03  0.64538454736E+03  0.24999963021E+03 0.  0.
       24    2    3    3    0    0  0.22890492168E+02 -0.37079410406E+02 -0.77857820726E+02  0.12025379241E+03  0.80624295557E+02 0.  0.
      -24    2    3    3    0    0 -0.22890492168E+02  0.37079410406E+02 -0.51713915310E+03  0.52513075495E+03  0.80190702768E+02 0.  0.
      -13    1    4    4    0    0 -0.11843741091E+02 -0.49763600555E+02 -0.28424564474E+02  0.58520475124E+02  0.00000000000E+00 0.  1.
       14    1    4    4    0    0  0.34734233259E+02  0.12684190150E+02 -0.49433256252E+02  0.61733317289E+02  0.00000000000E+00 0. -1.
        1    1    5    5  501    0 -0.29989274530E+02 -0.14740922129E+02 -0.12013370314E+03  0.12469465908E+03  0.00000000000E+00 0. -1.
       -2    1    5    5    0  501  0.70987823615E+01  0.51820332535E+02 -0.39700544996E+03  0.40043609587E+03  0.00000000000E+00 0.  1.
</event>
<event>
 9   1  0.7570500E-01  0.2499999E+03  0.7546771E-02  0.1113305E+00
       21   -1    0    0  503  502  0.00000000000E+00  0.00000000000E+00  0.42451091116E+02  0.42451091116E+02  0.00000000000E+00 0.  1.
       21   -1    0    0  502  503 -0.00000000000E+00 -0.00000000000E+00 -0.36807022114E+03  0.36807022114E+03  0.00000000000E+00 0.  1.
       25    2    1    2    0    0  0.00000000000E+00 -0.14210854715E-13 -0.32561913002E+03  0.41052131226E+03  0.24999985996E+03 0.  0.
       24    2    3    3    0    0  0.23112845490E+01  0.54380489177E+02 -0.30523332662E+03  0.31837696907E+03  0.72345912914E+02 0.  0.
      -24    2    3    3    0    0 -0.23112845490E+01 -0.54380489177E+02 -0.20385803408E+02  0.92144343189E+02  0.71501184339E+02 0.  0.
      -13    1    4    4    0    0 -0.22239154337E+02  0.61125390629E+02 -0.21569267002E+03  0.22528697536E+03  0.00000000000E+00 0.  1.
       14    1    4    4    0    0  0.24550438886E+02 -0.67449014522E+01 -0.89540656592E+02  0.93089993705E+02  0.00000000000E+00 0. -1.
        3    1    5    5  501    0  0.26219177114E+02 -0.27172245656E+02  0.13558962468E+02  0.40120090301E+02  0.00000000000E+00 0. -1.
       -4    1    5    5    0  501 -0.28530461663E+02 -0.27208243521E+02 -0.33944765876E+02  0.52024252888E+02  0.00000000000E+00 0.  1.
</event>
<event>
 9   1  0.7570500E-01  0.2499951E+03  0.7546771E-02  0.1113308E+00
       21   -1    0    0  503  502  0.00000000000E+00  0.00000000000E+00  0.35780428605E+02  0.35780428605E+02  0.00000000000E+00 0. -1.
       21   -1    0    0  502  503 -0.00000000000E+00 -0.00000000000E+00 -0.43667414748E+03  0.43667414748E+03  0.00000000000E+00 0. -1.
       25    2    1    2    0    0  0.00000000000E+00 -0.35527136788E-14 -0.40089371888E+03  0.47245457609E+03  0.24999510521E+03 0.  0.
       24    2    3    3    0    0  0.49778395519E+01 -0.22927883702E+02 -0.37639177138E+03  0.38565453912E+03  0.80673361402E+02 0.  0.
      -24    2    3    3    0    0 -0.49778395519E+01  0.22927883702E+02 -0.24501947497E+02  0.86800036971E+02  0.79896396974E+02 0.  0.
      -13    1    4    4    0    0  0.29376108488E+02 -0.43179570180E+02 -0.24241087925E+03  0.24797271101E+03  0.00000000000E+00 0.  1.
       14    1    4    4    0    0 -0.24398268936E+02  0.20251686478E+02 -0.13398089214E+03  0.13768182810E+03  0.00000000000E+00 0. -1.
        3    1    5    5  501    0  0.36629494257E+02  0.17533621764E+02 -0.64206684328E+01  0.41114142637E+02  0.00000000000E+00 0. -1.
       -4    1    5    5    0  501 -0.41607333809E+02  0.53942619383E+01 -0.18081279064E+02  0.45685894334E+02  0.00000000000E+00 0.  1.
</event>
<event>
 9   1  0.7570500E-01  0.2499886E+03  0.7546771E-02  0.1113312E+00
       21   -1    0    0  503  502  0.00000000000E+00  0.00000000000E+00  0.14684566538E+02  0.14684566538E+02  0.00000000000E+00 0.  1.
       21   -1    0    0  502  503 -0.00000000000E+00 -0.00000000000E+00 -0.10639455175E+04  0.10639455175E+04  0.00000000000E+00 0.  1.
       25    2    1    2    0    0 -0.14210854715E-13  0.14210854715E-13 -0.10492609510E+04  0.10786300841E+04  0.24998862970E+03 0.  0.
       24    2    3    3    0    0  0.60820551386E+02 -0.77859827757E+02 -0.72177938877E+03  0.73292393350E+03  0.80316336968E+02 0.  0.
      -24    2    3    3    0    0 -0.60820551386E+02  0.77859827757E+02 -0.32748156221E+03  0.34570615057E+03  0.50072714136E+02 0.  0.
      -13    1    4    4    0    0  0.61717887296E+02 -0.38813222469E+02 -0.27704176743E+03  0.28647461450E+03  0.00000000000E+00 0.  1.
       14    1    4    4    0    0 -0.89733591020E+00 -0.39046605288E+02 -0.44473762134E+03  0.44644931899E+03  0.00000000000E+00 0. -1.
        3    1    5    5  501    0 -0.71838160385E+01  0.47247143028E+02 -0.11798522191E+03  0.12729655269E+03  0.00000000000E+00 0. -1.
       -4    1    5    5    0  501 -0.53636735347E+02  0.30612684730E+02 -0.20949634031E+03  0.21840959788E+03  0.00000000000E+00 0.  1.
</event>
<event>
 9   1  0.7570500E-01  0.2499980E+03  0.7546771E-02  0.1113306E+00
       21   -1    0    0  503  502  0.00000000000E+00  0.00000000000E+00  0.22694628299E+02  0.22694628299E+02  0.00000000000E+00 0. -1.
       21   -1    0    0  502  503 -0.00000000000E+00 -0.00000000000E+00 -0.68847777493E+03  0.68847777493E+03  0.00000000000E+00 0. -1.
       25    2    1    2    0    0  0.14210854715E-13 -0.71054273576E-14 -0.66578314663E+03  0.71117240323E+03  0.24999797754E+03 0.  0.
       24    2    3    3    0    0 -0.88410492050E+02  0.41042907433E+02 -0.30585934387E+03  0.33076248780E+03  0.79705393467E+02 0.  0.
      -24    2    3    3    0    0  0.88410492050E+02 -0.41042907433E+02 -0.35992380276E+03  0.38040991542E+03  0.75270343483E+02 0.  0.
      -13    1    4    4    0    0 -0.59365902312E+02 -0.16341589092E+02 -0.14650570483E+03  0.15891909715E+03  0.00000000000E+00 0.  1.
       14    1    4    4    0    0 -0.29044589737E+02  0.57384496525E+02 -0.15935363905E+03  0.17184339066E+03  0.00000000000E+00 0. -1.
        1    1    5    5  501    0 -0.11104615356E+02 -0.13872636176E+02 -0.31502008841E+02  0.36168205342E+02  0.00000000000E+00 0. -1.
       -2    1    5    5    0  501  0.99515107405E+02 -0.27170271257E+02 -0.32842179391E+03  0.34424171008E+03  0.00000000000E+00 0.  1.
</event>
<event>
 9   1  0.7570500E-01  0.2500082E+03  0.7546771E-02  0.1113300E+00
       21   -1    0    0  503  502  0.00000000000E+00  0.00000000000E+00  0.90352040040E+02  0.90352040040E+02  0.00000000000E+00 0. -1.
       21   -1    0    0  502  503 -0.00000000000E+00 -0.00000000000E+00 -0.17294596405E+03  0.17294596405E+03  0.00000000000E+00 0. -1.
       25    2    1    2    0    0  0.35527136788E-14  0.00000000000E+00 -0.82593924014E+02  0.26329800409E+03  0.25000816522E+03 0.  0.
       24    2    3    3    0    0  0.31059665018E+02 -0.54421224027E+02  0.34460741694E+02  0.10803120391E+03  0.80974229752E+02 0.  0.
      -24    2    3    3    0    0 -0.31059665018E+02  0.54421224027E+02 -0.11705466571E+03  0.15526680019E+03  0.80496037543E+02 0.  0.
      -13    1    4    4    0    0  0.28773986438E+02 -0.74694744999E+02  0.18570569764E+02  0.82171243677E+02  0.00000000000E+00 0.  1.
       14    1    4    4    0    0  0.22856785794E+01  0.20273520972E+02  0.15890171930E+02  0.25859960231E+02  0.00000000000E+00 0. -1.
        1    1    5    5  501    0  0.11955888803E+02 -0.14453484579E+02 -0.11178680060E+02  0.21835965319E+02  0.00000000000E+00 0. -1.
       -2    1    5    5    0  501 -0.43015553820E+02  0.68874708607E+02 -0.10587598565E+03  0.13343083487E+03  0.00000000000E+00 0.  1.
</event>
<event>
 8   1  0.7570500E-01  0.2507078E+03  0.7546771E-02  0.1112858E+00
       21   -1    0    0  503  502  0.00000000000E+00  0.00000000000E+00  0.20525708855E+03  0.20525708855E+03  0.00000000000E+00 0. -1.
       21   -1    0    0  502  503 -0.00000000000E+00 -0.00000000000E+00 -0.76555687156E+02  0.76555687156E+02  0.00000000000E+00 0. -1.
       24    2    1    2    0    0 -0.12636782712E+02  0.73289572719E+02  0.13296083753E+03  0.17245784271E+03  0.80821243795E+02 0.  0.
      -24    2    1    2    0    0  0.12636782712E+02 -0.73289572719E+02 -0.42594361395E+01  0.10935493299E+03  0.80058159030E+02 0.  0.
      -13    1    3    3    0    0  0.32069954654E+02  0.43088029512E+02  0.83384361341E+02  0.99186753122E+02  0.00000000000E+00 0.  1.
       14    1    3    3    0    0 -0.44706737366E+02  0.30201543207E+02  0.49576476190E+02  0.73271089588E+02  0.00000000000E+00 0. -1.
        3    1    4    4  501    0 -0.25497377453E+02 -0.28650239519E+02  0.22897418387E+02  0.44668157006E+02  0.00000000000E+00 0. -1.
       -4    1    4    4    0  501  0.38134160165E+02 -0.44639333200E+02 -0.27156854526E+02  0.64686775988E+02  0.00000000000E+00 0.  1.
</event>
<event>
 9   1  0.7570500E-01  0.2500000E+03  0.7546771E-02  0.1113305E+00
       21   -1    0    0  503  502  0.00000000000E+00  0.00000000000E+00  0.42152494425E+03  0.42152494425E+03  0.00000000000E+00 0. -1.
       21   -1    0    0  502  503 -0.00000000000E+00 -0.00000000000E+00 -0.37067785549E+02  0.37067785549E+02  0.00000000000E+00 0. -1.
       25    2    1    2    0    0  0.14210854715E-13 -0.35527136788E-14  0.38445715870E+03  0.45859272980E+03  0.24999996990E+03 0.  0.
       24    2    3    3    0    0  0.80929727202E+02 -0.12241896843E+02  0.95493212870E+02  0.14821269471E+03  0.78412782038E+02 0.  0.
      -24    2    3    3    0    0 -0.80929727202E+02  0.12241896843E+02  0.28896394583E+03  0.31038003508E+03  0.78333386280E+02 0.  0.
      -13    1    4    4    0    0  0.91881045015E+02  0.59228780492E+01  0.79564579423E+02  0.12168701334E+03  0.00000000000E+00 0.  1.
       14    1    4    4    0    0 -0.10951317813E+02 -0.18164774892E+02  0.15928633447E+02  0.26525681372E+02  0.00000000000E+00 0. -1.
        1    1    5    5  501    0 -0.25127769318E+01  0.32259922367E+02  0.81222929876E+02  0.87431006952E+02  0.00000000000E+00 0. -1.
       -2    1    5    5    0  501 -0.78416950270E+02 -0.20018025524E+02  0.20774101595E+03  0.22294902813E+03  0.00000000000E+00 0.  1.
</event>
<event>
 9   1  0.7570500E-01  0.2499902E+03  0.7546771E-02  0.1113311E+00
       21   -1    0    0  503  502  0.00000000000E+00  0.00000000000E+00  0.15213387109E+03  0.15213387109E+03  0.00000000000E+00 0. -1.
       21   -1    0    0  502  503 -0.00000000000E+00 -0.00000000000E+00 -0.10269755611E+03  0.10269755611E+03  0.00000000000E+00 0. -1.
       25    2    1    2    0    0  0.00000000000E+00  0.00000000000E+00  0.49436314970E+02  0.25483142720E+03  0.24999021391E+03 0.  0.
       24    2    3    3    0    0 -0.81165243279E+02  0.50186768856E+02  0.33164174598E+02  0.12941645959E+03  0.80884170587E+02 0.  0.
      -24    2    3    3    0    0  0.81165243279E+02 -0.50186768856E+02  0.16272140373E+02  0.12541496761E+03  0.79734704259E+02 0.  0.
      -13    1    4    4    0    0 -0.67225087610E+02  0.28753749032E+02  0.58336498941E+02  0.93536824814E+02  0.00000000000E+00 0.  1.
       14    1    4    4    0    0 -0.13940155669E+02  0.21433019824E+02 -0.25172324344E+02  0.35879634777E+02  0.00000000000E+00 0. -1.
        1    1    5    5  501    0  0.60405973973E+02  0.95070017064E+01  0.85590583920E+01  0.61745625380E+02  0.00000000000E+00 0. -1.
       -2    1    5    5    0  501  0.20759269306E+02 -0.59693770563E+02  0.77130819809E+01  0.63669342228E+02  0.00000000000E+00 0.  1.
</event>
<event>
 9   1  0.7570500E-01  0.2499979E+03  0.7546771E-02  0.1113306E+00
       21   -1    0    0  503  502  0.00000000000E+00  0.00000000000E+00  0.63882849667E+02  0.63882849667E+02  0.00000000000E+00 0. -1.
       21   -1    0    0  502  503 -0.00000000000E+00 -0.00000000000E+00 -0.24458427994E+03  0.24458427994E+03  0.00000000000E+00 0. -1.
       25    2    1    2    0    0 -0.14210854715E-13 -0.71054273576E-14 -0.18070143027E+03  0.30846712960E+03  0.24999792628E+03 0.  0.
       24    2    3    3    0    0 -0.65156418488E+02 -0.50571947416E+02 -0.14682880577E+03  0.18659082724E+03  0.80340263079E+02 0.  0.
      -24    2    3    3    0    0  0.65156418488E+02  0.50571947416E+02 -0.33872624500E+02  0.12187630236E+03  0.83087891123E+02 0.  0.
      -13    1    4    4    0    0 -0.35339028633E+01 -0.13964841541E+02 -0.99866948605E+02  0.10090050888E+03  0.00000000000E+00 0.  1.
       14    1    4    4    0    0 -0.61622515624E+02 -0.36607105876E+02 -0.46961857162E+02  0.85690318360E+02  0.00000000000E+00 0. -1.
        1    1    5    5  501    0  0.29873369324E+02  0.34853110159E+02 -0.59776531254E+02  0.75368369833E+02  0.00000000000E+00 0. -1.
       -2    1    5    5    0  501  0.35283049164E+02  0.15718837257E+02  0.25903906753E+02  0.46507932529E+02  0.00000000000E+00 0.  1.
</event>
<event>
 9   1  0.7570500E-01  0.2500002E+03  0.7546771E-02  0.1113305E+00
       21   -1    0    0  503  502  0.00000000000E+00  0.00000000000E+00  0.33808395884E+02  0.33808395884E+02  0.00000000000E+00 0. -1.
       21   -1    0    0  502  503 -0.00000000000E+00 -0.00000000000E+00 -0.46216417725E+03  0.46216417725E+03  0.00000000000E+00 0. -1.
       25    2    1    2    0    0  0.00000000000E+00 -0.35527136788E-14 -0.42835578137E+03  0.49597257314E+03  0.25000023574E+03 0.  0.
       24    2    3    3    0    0  0.72701859581E+02  0.11483488152E+02 -0.33681001189E+03  0.35352619063E+03  0.78245462897E+02 0.  0.
      -24    2    3    3    0    0 -0.72701859581E+02 -0.11483488152E+02 -0.91545769478E+02  0.14244638251E+03  0.80578614367E+02 0.  0.
      -13    1    4    4    0    0  0.10545778432E+02  0.38164060130E+02 -0.11440767555E+03  0.12106537553E+03  0.00000000000E+00 0.  1.
       14    1    4    4    0    0  0.62156081150E+02 -0.26680571978E+02 -0.22240233634E+03  0.23246081510E+03  0.00000000000E+00 0. -1.
        3    1    5    5  501    0 -0.17192397885E+02  0.14415193060E+02 -0.76011268148E+02  0.79253323094E+02  0.00000000000E+00 0. -1.
       -4    1    5    5    0  501 -0.55509461697E+02 -0.25898681213E+02 -0.15534501330E+02  0.63193059413E+02  0.00000000000E+00 0.  1.
</event>
<event>
 9   1  0.7570500E-01  0.2500014E+03  0.7546771E-02  0.1113304E+00
       21   -1    0    0  503  502  0.00000000000E+00  0.00000000000E+00  0.23627815165E+03  0.23627815165E+03  0.00000000000E+00 0.  1.
       21   -1    0    0  502  503 -0.00000000000E+00 -0.00000000000E+00 -0.66130412486E+02  0.66130412486E+02  0.00000000000E+00 0.  1.
       25    2    1    2    0    0  0.00000000000E+00 -0.53290705182E-14  0.17014773917E+03  0.30240856414E+03  0.25000137304E+03 0.  0.
       24    2    3    3    0    0 -0.43810745483E+02  0.39411774503E+01  0.18939473044E+03  0.21054496422E+03  0.80770686146E+02 0.  0.
      -24    2    3    3    0    0  0.43810745483E+02 -0.39411774503E+01 -0.19246991270E+02  0.91863599921E+02  0.78317048068E+02 0.  0.
      -13    1    4    4    0    0 -0.42858432944E+02 -0.32482305297E+02  0.92087297222E+02  0.10663965370E+03  0.00000000000E+00 0.  1.
       14    1    4    4    0    0 -0.95231253865E+00  0.36423482747E+02  0.97307433216E+02  0.10390531052E+03  0.00000000000E+00 0. -1.
        1    1    5    5  501    0 -0.20510102232E+02  0.10157380443E+02  0.11864610140E+01  0.22918210244E+02  0.00000000000E+00 0. -1.
       -2    1    5    5    0  501  0.64320847715E+02 -0.14098557893E+02 -0.20433452284E+02  0.68945389677E+02  0.00000000000E+00 0.  1.
</event>
<event>
 9   1  0.7570500E-01  0.2499988E+03  0.7546771E-02  0.1113306E+00
       21   -1    0    0  503  502  0.00000000000E+00  0.00000000000E+00  0.69467304673E+02  0.69467304673E+02  0.00000000000E+00 0. -1.
       21   -1    0    0  502  503 -0.00000000000E+00 -0.00000000000E+00 -0.22492388475E+03  0.22492388475E+03  0.00000000000E+00 0. -1.
       25    2    1    2    0    0  0.00000000000E+00  0.00000000000E+00 -0.15545658008E+03  0.29439118942E+03  0.24999884824E+03 0.  0.
       24    2    3    3    0    0 -0.73841194521E+02  0.25630440510E+01 -0.14752736598E+03  0.18480915049E+03  0.83252670760E+02 0.  0.
      -24    2    3    3    0    0  0.73841194521E+02 -0.25630440510E+01 -0.79292140969E+01  0.10958203893E+03  0.80537318167E+02 0.  0.
      -13    1    4    4    0    0 -0.22279156787E+02  0.20465295837E+02 -0.11985433046E+03  0.12361330709E+03  0.00000000000E+00 0.  1.
       14    1    4    4    0    0 -0.51562037734E+02 -0.17902251786E+02 -0.27673035524E+02  0.61195843399E+02  0.00000000000E+00 0. -1.
        3    1    5    5  501    0  0.59335397724E+02  0.11346844055E+02 -0.39484919830E+02  0.72169932708E+02  0.00000000000E+00 0. -1.
       -4    1    5    5    0  501  0.14505796796E+02 -0.13909888106E+02  0.31555705733E+02  0.37412106225E+02  0.00000000000E+00 0.  1.
</event>
<event>
 9   1  0.7570500E-01  0.2499999E+03  0.7546771E-02  0.1113305E+00
       21   -1    0    0  503  502  0.00000000000E+00  0.00000000000E+00  0.15118119020E+04  0.15118119020E+04  0.00000000000E+00 0. -1.
       21   -1    0    0  502  503 -0.00000000000E+00 -0.00000000000E+00 -0.10335271435E+02  0.10335271435E+02  0.00000000000E+00 0. -1.
       25    2    1    2    0    0  0.00000000000E+00  0.00000000000E+00  0.15014766306E+04  0.15221471735E+04  0.24999989093E+03 0.  0.
       24    2    3    3    0    0 -0.37268381315E+02  0.96592070209E+02  0.59805756899E+03  0.60921720263E+03  0.52476507867E+02 0.  0.
      -24    2    3    3    0    0  0.37268381315E+02 -0.96592070209E+02  0.90341906161E+03  0.91292997085E+03  0.80970182844E+02 0.  0.
      -13    1    4    4    0    0 -0.94305043621E+01  0.47051223590E+02  0.14797458925E+03  0.15556102056E+03  0.00000000000E+00 0.  1.
       14    1    4    4    0    0 -0.27837876953E+02  0.49540846619E+02  0.45008297974E+03  0.45365618207E+03  0.00000000000E+00 0. -1.
        1    1    5    5  501    0  0.15465213272E+02 -0.93363420367E+02  0.49799431001E+03  0.50690653368E+03  0.00000000000E+00 0. -1.
       -2    1    5    5    0  501  0.21803168043E+02 -0.32286498426E+01  0.40542475160E+03  0.40602343716E+03  0.00000000000E+00 0.  1.
</event>
<event>
 9   1  0.7570500E-01  0.2500009E+03  0.7546771E-02  0.1113304E+00
       21   -1    0    0  503  502  0.00000000000E+00  0.00000000000E+00  0.10934689143E+04  0.10934689143E+04  0.00000000000E+00 0. -1.
       21   -1    0    0  502  503 -0.00000000000E+00 -0.00000000000E+00 -0.14289491784E+02  0.14289491784E+02  0.00000000000E+00 0. -1.
       25    2    1    2    0    0  0.00000000000E+00  0.35527136788E-14  0.10791794225E+04  0.11077584061E+04  0.25000092054E+03 0.  0.
       24    2    3    3    0    0 -0.61412539611E+02  0.48602849438E+01  0.86098322037E+03  0.86706792057E+03  0.81972865869E+02 0.  0.
      -24    2    3    3    0    0  0.61412539611E+02 -0.48602849438E+01  0.21819620213E+03  0.24069048549E+03  0.80791118278E+02 0.  0.
      -13    1    4    4    0    0  0.16675612823E+01 -0.14929245441E+02  0.49065007606E+03  0.49087998561E+03  0.00000000000E+00 0.  1.
       14    1    4    4    0    0 -0.63080100893E+02  0.19789530384E+02  0.37033314430E+03  0.37618793496E+03  0.00000000000E+00 0. -1.
        1    1    5    5  501    0  0.42010762326E+02  0.22739886930E+01  0.30759701004E+02  0.52117505520E+02  0.00000000000E+00 0. -1.
       -2    1    5    5    0  501  0.19401777285E+02 -0.71342736368E+01  0.18743650113E+03  0.18857297997E+03  0.00000000000E+00 0.  1.
</event>
<event>
 9   1  0.7570500E-01  0.2499997E+03  0.7546771E-02  0.1113305E+00
       21   -1    0    0  503  502  0.00000000000E+00  0.00000000000E+00  0.14803433318E+02  0.14803433318E+02  0.00000000000E+00 0. -1.
       21   -1    0    0  502  503 -0.00000000000E+00 -0.00000000000E+00 -0.10554957956E+04  0.10554957956E+04  0.00000000000E+00 0. -1.
       25    2    1    2    0    0  0.00000000000E+00  0.00000000000E+00 -0.10406923622E+04  0.10702992289E+04  0.24999969301E+03 0.  0.
       24    2    3    3    0    0  0.76143656150E+02 -0.57438177920E+02 -0.57510973969E+03  0.58860463145E+03  0.81284677632E+02 0.  0.
      -24    2    3    3    0    0 -0.76143656150E+02  0.57438177920E+02 -0.46558262254E+03  0.48169459742E+03  0.78520736867E+02 0.  0.
      -13    1    4    4    0    0 -0.12025160790E+02 -0.25105984134E+02 -0.81003796355E+02  0.85653546075E+02  0.00000000000E+00 0.  1.
       14    1    4    4    0    0  0.88168816940E+02 -0.32332193786E+02 -0.49410594334E+03  0.50295108537E+03  0.00000000000E+00 0. -1.
        3    1    5    5  501    0 -0.29160567370E+02  0.13004583960E+02 -0.32933986876E+03  0.33088397823E+03  0.00000000000E+00 0. -1.
       -4    1    5    5    0  501 -0.46983088780E+02  0.44433593960E+02 -0.13624275378E+03  0.15081061919E+03  0.00000000000E+00 0.  1.
</event>
<event>
 9   1  0.7570500E-01  0.2500085E+03  0.7546771E-02  0.1113299E+00
       21   -1    0    0  503  502  0.00000000000E+00  0.00000000000E+00  0.14673007381E+03  0.14673007381E+03  0.00000000000E+00 0. -1.
       21   -1    0    0  502  503 -0.00000000000E+00 -0.00000000000E+00 -0.10649532456E+03  0.10649532456E+03  0.00000000000E+00 0. -1.
       25    2    1    2    0    0 -0.21316282073E-13  0.35527136788E-14  0.40234749252E+02  0.25322539837E+03  0.25000853451E+03 0.  0.
       24    2    3    3    0    0  0.62719664926E+02 -0.18920164968E+02  0.90274920918E+02  0.13858532922E+03  0.82247207357E+02 0.  0.
      -24    2    3    3    0    0 -0.62719664926E+02  0.18920164968E+02 -0.50040171666E+02  0.11464006914E+03  0.79665536226E+02 0.  0.
      -13    1    4    4    0    0  0.62186102456E+02 -0.20185621859E+02  0.20104504542E+02  0.68401474921E+02  0.00000000000E+00 0.  1.
       14    1    4    4    0    0  0.53356246972E+00  0.12654568911E+01  0.70170416377E+02  0.70183854301E+02  0.00000000000E+00 0. -1.
        1    1    5    5  501    0  0.11414806241E+02 -0.55112489925E+01 -0.32151553025E+02  0.34560006206E+02  0.00000000000E+00 0. -1.
       -2    1    5    5    0  501 -0.74134471167E+02  0.24431413961E+02 -0.17888618641E+02  0.80080062938E+02  0.00000000000E+00 0.  1.
</event>
<event>
 9   1  0.7570500E-01  0.2500013E+03  0.7546771E-02  0.1113304E+00
       21   -1    0    0  503  502  0.00000000000E+00  0.00000000000E+00  0.17924846544E+03  0.17924846544E+03  0.00000000000E+00 0. -1.
       21   -1    0    0  502  503 -0.00000000000E+00 -0.00000000000E+00 -0.87170411434E+02  0.87170411434E+02  0.00000000000E+00 0. -1.
       25    2    1    2    0    0  0.53290705182E-14  0.00000000000E+00  0.92078054006E+02  0.26641887687E+03  0.25000129985E+03 0.  0.
       24    2    3    3    0    0 -0.15604472571E+02  0.79353700171E+02 -0.24968198509E+02  0.10248373131E+03  0.57784037160E+02 0.  0.
      -24    2    3    3    0    0  0.15604472571E+02 -0.79353700171E+02  0.11704625251E+03  0.16393514557E+03  0.81451810474E+02 0.  0.
      -13    1    4    4    0    0  0.26744829813E+01  0.62973602336E+02  0.56028771697E+01  0.63278903933E+02  0.00000000000E+00 0.  1.
       14    1    4    4    0    0 -0.18278955552E+02  0.16380097835E+02 -0.30571075679E+02  0.39204827373E+02  0.00000000000E+00 0. -1.
        3    1    5    5  501    0 -0.23073074953E+02 -0.98259165560E+01  0.35477703944E+01  0.25327891715E+02  0.00000000000E+00 0. -1.
       -4    1    5    5    0  501  0.38677547524E+02 -0.69527783615E+02  0.11349848212E+03  0.13860725385E+03  0.00000000000E+00 0.  1.
</event>
<event>
 9   1  0.7570500E-01  0.2499967E+03  0.7546771E-02  0.1113307E+00
       21   -1    0    0  503  502  0.00000000000E+00  0.00000000000E+00  0.70375033030E+03  0.70375033030E+03  0.00000000000E+00 0. -1.
       21   -1    0    0  502  503 -0.00000000000E+00 -0.00000000000E+00 -0.22201891615E+02  0.22201891615E+02  0.00000000000E+00 0. -1.
       25    2    1    2    0    0 -0.14210854715E-13  0.00000000000E+00  0.68154843869E+03  0.72595222192E+03  0.24999670844E+03 0.  0.
       24    2    3    3    0    0 -0.81042931497E+02  0.89226412905E+01  0.48039918717E+03  0.49399871936E+03  0.81263678411E+02 0.  0.
      -24    2    3    3    0    0  0.81042931497E+02 -0.89226412905E+01  0.20114925152E+03  0.23195350256E+03  0.81815864515E+02 0.  0.
      -13    1    4    4    0    0 -0.69030399374E+02  0.21190188771E+02  0.46608360131E+03  0.47164408567E+03  0.00000000000E+00 0.  1.
       14    1    4    4    0    0 -0.12012532123E+02 -0.12267547481E+02  0.14315585863E+02  0.22354633699E+02  0.00000000000E+00 0. -1.
        1    1    5    5  501    0  0.89680407911E+02 -0.88389455015E+01  0.20386909610E+03  0.22289753445E+03  0.00000000000E+00 0. -1.
       -2    1    5    5    0  501 -0.86374764137E+01 -0.83695789078E-01 -0.27198445756E+01  0.90559681038E+01  0.00000000000E+00 0.  1.
</event>
<event>
 9   1  0.7570500E-01  0.2500023E+03  0.7546771E-02  0.1113303E+00
       21   -1    0    0  503  502  0.00000000000E+00  0.00000000000E+00  0.40252243524E+02  0.40252243524E+02  0.00000000000E+00 0.  1.
       21   -1    0    0  502  503 -0.00000000000E+00 -0.00000000000E+00 -0.38818414364E+03  0.38818414364E+03  0.00000000000E+00 0.  1.
       25    2    1    2    0    0 -0.71054273576E-14  0.00000000000E+00 -0.34793190011E+03  0.42843638716E+03  0.25000226144E+03 0.  0.
       24    2    3    3    0    0 -0.53164867748E+02  0.84199651626E+02 -0.16351315020E+03  0.20438615212E+03  0.71561612566E+02 0.  0.
      -24    2    3    3    0    0  0.53164867748E+02 -0.84199651626E+02 -0.18441874991E+03  0.22405023504E+03  0.79196893918E+02 0.  0.
      -13    1    4    4    0    0 -0.44294247810E+01  0.70953821866E+02 -0.10840209182E+03  0.12963440189E+03  0.00000000000E+00 0.  1.
       14    1    4    4    0    0 -0.48735442967E+02  0.13245829761E+02 -0.55111058384E+02  0.74751750237E+02  0.00000000000E+00 0. -1.
        1    1    5    5  501    0  0.22088574647E+02 -0.72015605911E+02 -0.17314070920E+03  0.18881699555E+03  0.00000000000E+00 0. -1.
       -2    1    5    5    0  501  0.31076293101E+02 -0.12184045715E+02 -0.11278040708E+02  0.35233239492E+02  0.00000000000E+00 0.  1.
</event>
<event>
 9   1  0.7570500E-01  0.2500014E+03  0.7546771E-02  0.1113304E+00
       21   -1    0    0  503  502  0.00000000000E+00  0.00000000000E+00  0.20575600989E+03  0.20575600989E+03  0.00000000000E+00 0. -1.
       21   -1    0    0  502  503 -0.00000000000E+00 -0.00000000000E+00 -0.75940317974E+02  0.75940317974E+02  0.00000000000E+00 0. -1.
       25    2    1    2    0    0 -0.14210854715E-13  0.14210854715E-13  0.12981569191E+03  0.28169632786E+03  0.25000141452E+03 0.  0.
       24    2    3    3    0    0 -0.70113144189E+02  0.64957449419E+02  0.70283382906E+02  0.14372298437E+03  0.81124713253E+02 0.  0.
      -24    2    3    3    0    0  0.70113144189E+02 -0.64957449419E+02  0.59532309008E+02  0.13797334349E+03  0.79732204758E+02 0.  0.
      -13    1    4    4    0    0 -0.59586484671E+02  0.49341799429E+01  0.54192045512E+02  0.80694938403E+02  0.00000000000E+00 0.  1.
       14    1    4    4    0    0 -0.10526659518E+02  0.60023269476E+02  0.16091337393E+02  0.63028045966E+02  0.00000000000E+00 0. -1.
        3    1    5    5  501    0  0.47743786699E+02 -0.69006312856E+02  0.11323165203E+02  0.84673221579E+02  0.00000000000E+00 0. -1.
       -4    1    5    5    0  501  0.22369357490E+02  0.40488634372E+01  0.48209143804E+02  0.53300121913E+02  0.00000000000E+00 0.  1.
</event>
<event>
 9   1  0.7570500E-01  0.2500223E+03  0.7546771E-02  0.1113291E+00
       21   -1    0    0  503  502  0.00000000000E+00  0.00000000000E+00  0.36835409325E+02  0.36835409325E+02  0.00000000000E+00 0.  1.
       21   -1    0    0  502  503 -0.00000000000E+00 -0.00000000000E+00 -0.42425976190E+03  0.42425976190E+03  0.00000000000E+00 0.  1.
       25    2    1    2    0    0  0.00000000000E+00 -0.14210854715E-13 -0.38742435257E+03  0.46109517122E+03  0.25002225493E+03 0.  0.
       24    2    3    3    0    0 -0.65872045719E+02  0.67771053098E+02 -0.16234261859E+03  0.20437334816E+03  0.80506506468E+02 0.  0.
      -24    2    3    3    0    0  0.65872045719E+02 -0.67771053098E+02 -0.22508173399E+03  0.25672182306E+03  0.79449766624E+02 0.  0.
      -13    1    4    4    0    0 -0.72040331001E+02  0.23739337002E+02 -0.76667334449E+02  0.10784825258E+03  0.00000000000E+00 0.  1.
       14    1    4    4    0    0  0.61682852825E+01  0.44031716096E+02 -0.85675284136E+02  0.96525095584E+02  0.00000000000E+00 0. -1.
        1    1    5    5  501    0 -0.93260060500E+01 -0.39864582997E+02 -0.53950728489E+02  0.67726217012E+02  0.00000000000E+00 0. -1.
       -2    1    5    5    0  501  0.75198051769E+02 -0.27906470102E+02 -0.17113100550E+03  0.18899560605E+03  0.00000000000E+00 0.  1.
</event>
<event>
 9   1  0.7570500E-01  0.2500001E+03  0.7546771E-02  0.1113305E+00
       21   -1    0    0  503  502  0.00000000000E+00  0.00000000000E+00  0.13567813728E+03  0.13567813728E+03  0.00000000000E+00 0. -1.
       21   -1    0    0  502  503 -0.00000000000E+00 -0.00000000000E+00 -0.11516232788E+03  0.11516232788E+03  0.00000000000E+00 0. -1.
       25    2    1    2    0    0  0.28421709430E-13  0.00000000000E+00  0.20515809401E+02  0.25084046516E+03  0.25000008105E+03 0.  0.
       24    2    3    3    0    0  0.79283120742E+02 -0.48137603608E+02  0.30622219104E+02  0.12756019125E+03  0.82041696556E+02 0.  0.
      -24    2    3    3    0    0 -0.79283120742E+02  0.48137603608E+02 -0.10106409703E+02  0.12328027390E+03  0.80578187501E+02 0.  0.
      -13    1    4    4    0    0  0.99422969615E+01  0.12782896325E+02  0.31317421821E+02  0.35256667693E+02  0.00000000000E+00 0.  1.
       14    1    4    4    0    0  0.69340823780E+02 -0.60920499933E+02 -0.69520271656E+00  0.92303523559E+02  0.00000000000E+00 0. -1.
        1    1    5    5  501    0 -0.79131118575E+02  0.73648976013E+01  0.54043452246E+01  0.79656654405E+02  0.00000000000E+00 0. -1.
       -2    1    5    5    0  501 -0.15200216658E+00  0.40772706006E+02 -0.15510754928E+02  0.43623619499E+02  0.00000000000E+00 0.  1.
</event>
<event>
 9   1  0.7570500E-01  0.2499911E+03  0.7546771E-02  0.1113310E+00
       21   -1    0    0  503  502  0.00000000000E+00  0.00000000000E+00  0.47141417492E+02  0.47141417492E+02  0.00000000000E+00 0. -1.
       21   -1    0    0  502  503 -0.00000000000E+00 -0.00000000000E+00 -0.33142593319E+03  0.33142593319E+03  0.00000000000E+00 0. -1.
       25    2    1    2    0    0 -0.35527136788E-14  0.00000000000E+00 -0.28428451570E+03  0.37856735068E+03  0.24999110612E+03 0.  0.
       24    2    3    3    0    0  0.13935974065E+02  0.85188555605E+02 -0.19512292334E+03  0.22991825209E+03  0.85662979456E+02 0.  0.
      -24    2    3    3    0    0 -0.13935974065E+02 -0.85188555605E+02 -0.89161592352E+02  0.14864909859E+03  0.81825812447E+02 0.  0.
      -13    1    4    4    0    0 -0.19994423935E+02  0.68998419237E+02 -0.74163494185E+02  0.10325106641E+03  0.00000000000E+00 0.  1.
       14    1    4    4    0    0  0.33930398001E+02  0.16190136368E+02 -0.12095942916E+03  0.12666718567E+03  0.00000000000E+00 0. -1.
        1    1    5    5  501    0 -0.24232921931E+02 -0.78530243274E+02 -0.28845744177E+02  0.87099429223E+02  0.00000000000E+00 0. -1.
       -2    1    5    5    0  501  0.10296947865E+02 -0.66583123317E+01 -0.60315848175E+02  0.61549669370E+02  0.00000000000E+00 0.  1.
</event>
<event>
 9   1  0.7570500E-01  0.2499733E+03  0.7546771E-02  0.1113322E+00
       21   -1    0    0  503  502  0.00000000000E+00  0.00000000000E+00  0.53769760862E+03  0.53769760862E+03  0.00000000000E+00 0.  1.
       21   -1    0    0  502  503 -0.00000000000E+00 -0.00000000000E+00 -0.29052878773E+02  0.29052878773E+02  0.00000000000E+00 0.  1.
       25    2    1    2    0    0 -0.71054273576E-14 -0.26645352591E-14  0.50864472984E+03  0.56675048739E+03  0.24997330609E+03 0.  0.
       24    2    3    3    0    0 -0.11665375428E+02  0.72390400862E+01  0.47272985415E+03  0.47947731578E+03  0.78971492690E+02 0.  0.
      -24    2    3    3    0    0  0.11665375428E+02 -0.72390400862E+01  0.35914875690E+02  0.87273171605E+02  0.78346943150E+02 0.  0.
      -13    1    4    4    0    0  0.23177736029E+02 -0.23795426808E+02  0.17720347668E+03  0.18029004945E+03  0.00000000000E+00 0.  1.
       14    1    4    4    0    0 -0.34843111457E+02  0.31034466894E+02  0.29552637748E+03  0.29918726633E+03  0.00000000000E+00 0. -1.
        3    1    5    5  501    0 -0.33317647681E+02 -0.87150017140E+01  0.13462139762E+02  0.36976291172E+02  0.00000000000E+00 0. -1.
       -4    1    5    5    0  501  0.44983023108E+02  0.14759616278E+01  0.22452735927E+02  0.50296880433E+02  0.00000000000E+00 0.  1.
</event>
<event>
 9   1  0.7570500E-01  0.2500111E+03  0.7546771E-02  0.1113298E+00
       21   -1    0    0  503  502  0.00000000000E+00  0.00000000000E+00  0.89071900341E+02  0.89071900341E+02  0.00000000000E+00 0. -1.
       21   -1    0    0  502  503 -0.00000000000E+00 -0.00000000000E+00 -0.17543570771E+03  0.17543570771E+03  0.00000000000E+00 0. -1.
       25    2    1    2    0    0  0.35527136788E-14  0.14210854715E-13 -0.86363807369E+02  0.26450760805E+03  0.25001113474E+03 0.  0.
       24    2    3    3    0    0 -0.21743321907E+02 -0.74750122282E+02  0.17585269007E+02  0.11349694315E+03  0.80696726012E+02 0.  0.
      -24    2    3    3    0    0  0.21743321907E+02  0.74750122282E+02 -0.10394907638E+03  0.15101066490E+03  0.77061388556E+02 0.  0.
      -13    1    4    4    0    0 -0.21376111608E+02 -0.92204280230E+02  0.15594517198E+02  0.95925785933E+02  0.00000000000E+00 0.  1.
       14    1    4    4    0    0 -0.36721029886E+00  0.17454157948E+02  0.19907518093E+01  0.17571157214E+02  0.00000000000E+00 0. -1.
        3    1    5    5  501    0 -0.14349927444E+02 -0.98874096976E+01 -0.18985338614E+02  0.25770610596E+02  0.00000000000E+00 0. -1.
       -4    1    5    5    0  501  0.36093249352E+02  0.84637531980E+02 -0.84963737762E+02  0.12524005431E+03  0.00000000000E+00 0.  1.
</event>
<event>
 9   1  0.7570500E-01  0.2499553E+03  0.7546771E-02  0.1113333E+00
       21   -1    0    0  503  502  0.00000000000E+00  0.00000000000E+00  0.58461396002E+02  0.58461396002E+02  0.00000000000E+00 0. -1.
       21   -1    0    0  502  503 -0.00000000000E+00 -0.00000000000E+00 -0.26717491487E+03  0.26717491487E+03  0.00000000000E+00 0. -1.
       25    2    1    2    0    0 -0.71054273576E-14  0.71054273576E-14 -0.20871351887E+03  0.32563631087E+03  0.24995534401E+03 0.  0.
       24    2    3    3    0    0 -0.45737690859E+00 -0.44757279280E+02 -0.21143368711E+03  0.22979235283E+03  0.78082636549E+02 0.  0.
      -24    2    3    3    0    0  0.45737690859E+00  0.44757279280E+02  0.27201682425E+01  0.95843958045E+02  0.84706798642E+02 0.  0.
      -13    1    4    4    0    0  0.34951158287E+02 -0.41748148271E+02 -0.13020118864E+03  0.14112703807E+03  0.00000000000E+00 0.  1.
       14    1    4    4    0    0 -0.35408535196E+02 -0.30091310096E+01 -0.81232498468E+02  0.88665314760E+02  0.00000000000E+00 0. -1.
        1    1    5    5  501    0 -0.33342117852E+02  0.94830502074E+01  0.24405161345E+02  0.42393831678E+02  0.00000000000E+00 0. -1.
       -2    1    5    5    0  501  0.33799494761E+02  0.35274229073E+02 -0.21684993102E+02  0.53450126367E+02  0.00000000000E+00 0.  1.
</event>
<event>
 9   1  0.7570500E-01  0.2500149E+03  0.7546771E-02  0.1113295E+00
       21   -1    0    0  503  502  0.00000000000E+00  0.00000000000E+00  0.39799683689E+03  0.39799683689E+03  0.00000000000E+00 0. -1.
       21   -1    0    0  502  503 -0.00000000000E+00 -0.00000000000E+00 -0.39263797364E+02  0.39263797364E+02  0.00000000000E+00 0. -1.
       25    2    1    2    0    0  0.00000000000E+00 -0.14210854715E-13  0.35873303953E+03  0.43726063426E+03  0.25001493680E+03 0.  0.
       24    2    3    3    0    0  0.50354238406E+02  0.51324340824E+02  0.28353857739E+03  0.30344097359E+03  0.80700447933E+02 0.  0.
      -24    2    3    3    0    0 -0.50354238406E+02 -0.51324340824E+02  0.75194462136E+02  0.13381966067E+03  0.84165059012E+02 0.  0.
      -13    1    4    4    0    0  0.68926094027E+02  0.44528850905E+02  0.26029276163E+03  0.27292113652E+03  0.00000000000E+00 0.  1.
       14    1    4    4    0    0 -0.18571855621E+02  0.67954899193E+01  0.23245815759E+02  0.30519837069E+02  0.00000000000E+00 0. -1.
        3    1    5    5  501    0  0.20517117510E+02  0.57854689635E+00  0.43824258460E+01  0.20987912800E+02  0.00000000000E+00 0. -1.
       -4    1    5    5    0  501 -0.70871355916E+02 -0.51902887720E+02  0.70812036290E+02  0.11283174787E+03  0.00000000000E+00 0.  1.
</event>
<event>
 9   1  0.7570500E-01  0.2500016E+03  0.7546771E-02  0.1113304E+00
       21   -1    0    0  503  502  0.00000000000E+00  0.00000000000E+00  0.43319703124E+02  0.43319703124E+02  0.00000000000E+00 0. -1.
       21   -1    0    0  502  503 -0.00000000000E+00 -0.00000000000E+00 -0.36069508835E+03  0.36069508835E+03  0.00000000000E+00 0. -1.
       25    2    1    2    0    0  0.00000000000E+00  0.00000000000E+00 -0.31737538522E+03  0.40401479147E+03  0.25000163316E+03 0.  0.
       24    2    3    3    0    0 -0.57810313235E+01 -0.23478654474E+02 -0.31276483719E+03  0.32023820658E+03  0.64389424855E+02 0.  0.
      -24    2    3    3    0    0  0.57810313235E+01  0.23478654474E+02 -0.46105480311E+01  0.83776584888E+02  0.80078658101E+02 0.  0.
      -13    1    4    4    0    0  0.83101501883E+01  0.19481628689E+02 -0.14282388777E+03  0.14438578659E+03  0.00000000000E+00 0.  1.
       14    1    4    4    0    0 -0.14091181512E+02 -0.42960283163E+02 -0.16994094942E+03  0.17585241999E+03  0.00000000000E+00 0. -1.
        1    1    5    5  501    0  0.31948326137E+02  0.22878442148E+02  0.23162153051E+02  0.45613638224E+02  0.00000000000E+00 0. -1.
       -2    1    5    5    0  501 -0.26167294813E+02  0.60021232559E+00 -0.27772701082E+02  0.38162946664E+02  0.00000000000E+00 0.  1.
</event>
<event>
 9   1  0.7570500E-01  0.2500106E+03  0.7546771E-02  0.1113298E+00
       21   -1    0    0  503  502  0.00000000000E+00  0.00000000000E+00  0.38912189475E+03  0.38912189475E+03  0.00000000000E+00 0. -1.
       21   -1    0    0  502  503 -0.00000000000E+00 -0.00000000000E+00 -0.40157932343E+02  0.40157932343E+02  0.00000000000E+00 0. -1.
       25    2    1    2    0    0  0.00000000000E+00 -0.35527136788E-14  0.34896396241E+03  0.42927982710E+03  0.25001064556E+03 0.  0.
       24    2    3    3    0    0  0.89607792943E+02  0.19824993165E+02  0.21428000807E+03  0.24735196806E+03  0.82731416854E+02 0.  0.
      -24    2    3    3    0    0 -0.89607792943E+02 -0.19824993165E+02  0.13468395434E+03  0.18192785904E+03  0.80841767839E+02 0.  0.
      -13    1    4    4    0    0 -0.52635940632E+01  0.27694370989E+02  0.43627283571E+02  0.51942501660E+02  0.00000000000E+00 0.  1.
       14    1    4    4    0    0  0.94871387006E+02 -0.78693778237E+01  0.17065272450E+03  0.19540946640E+03  0.00000000000E+00 0. -1.
        3    1    5    5  501    0 -0.86794867611E+02 -0.21143304105E+02  0.14546633196E+03  0.17070688939E+03  0.00000000000E+00 0. -1.
       -4    1    5    5    0  501 -0.28129253319E+01  0.13183109397E+01 -0.10782377619E+02  0.11220969645E+02  0.00000000000E+00 0.  1.
</event>
<event>
 9   1  0.7570500E-01  0.2500007E+03  0.7546771E-02  0.1113304E+00
       21   -1    0    0  503  502  0.00000000000E+00  0.00000000000E+00  0.18750960756E+03  0.18750960756E+03  0.00000000000E+00 0. -1.
       21   -1    0    0  502  503 -0.00000000000E+00 -0.00000000000E+00 -0.83329532326E+02  0.83329532326E+02  0.00000000000E+00 0. -1.
       25    2    1    2    0    0  0.00000000000E+00  0.71054273576E-14  0.10418007523E+03  0.27083913989E+03  0.25000070324E+03 0.  0.
       24    2    3    3    0    0  0.56996587582E+02  0.35201714095E+01 -0.33356935981E+02  0.10416923493E+03  0.80483176657E+02 0.  0.
      -24    2    3    3    0    0 -0.56996587582E+02 -0.35201714095E+01  0.13753701122E+03  0.16666990496E+03  0.74842669389E+02 0.  0.
      -13    1    4    4    0    0  0.21586608958E+02  0.40183734794E+02 -0.26458953394E+02  0.52733200576E+02  0.00000000000E+00 0.  1.
       14    1    4    4    0    0  0.35409978624E+02 -0.36663563384E+02 -0.68979825877E+01  0.51436034353E+02  0.00000000000E+00 0. -1.
        1    1    5    5  501    0 -0.44289765876E+02 -0.37210210032E+02  0.78342125255E+02  0.97384144918E+02  0.00000000000E+00 0. -1.
       -2    1    5    5    0  501 -0.12706821706E+02  0.33690038622E+02  0.59194885960E+02  0.69285760038E+02  0.00000000000E+00 0.  1.
</event>
<event>
 9   1  0.7570500E-01  0.2500032E+03  0.7546771E-02  0.1113303E+00
       21   -1    0    0  503  502  0.00000000000E+00  0.00000000000E+00  0.41238563974E+03  0.41238563974E+03  0.00000000000E+00 0.  1.
       21   -1    0    0  502  503 -0.00000000000E+00 -0.00000000000E+00 -0.37890267223E+02  0.37890267223E+02  0.00000000000E+00 0.  1.
       25    2    1    2    0    0  0.00000000000E+00  0.00000000000E+00  0.37449537252E+03  0.45027590697E+03  0.25000321669E+03 0.  0.
       24    2    3    3    0    0 -0.51489845202E+02  0.61814395455E+02  0.91766800420E+02  0.14597070764E+03  0.80087940316E+02 0.  0.
      -24    2    3    3    0    0  0.51489845202E+02 -0.61814395455E+02  0.28272857210E+03  0.30430519933E+03  0.78701875538E+02 0.  0.
      -13    1    4    4    0    0  0.12294200294E+02  0.39907856293E+02  0.16475877984E+02  0.44891412431E+02  0.00000000000E+00 0.  1.
       14    1    4    4    0    0 -0.63784045496E+02  0.21906539162E+02  0.75290922435E+02  0.10107929520E+03  0.00000000000E+00 0. -1.
        1    1    5    5  501    0  0.41976505884E+02  0.57496580265E+01  0.82027917355E+02  0.92323695979E+02  0.00000000000E+00 0. -1.
       -2    1    5    5    0  501  0.95133393182E+01 -0.67564053481E+02  0.20070065474E+03  0.21198150335E+03  0.00000000000E+00 0.  1.
</event>
<event>
 9   1  0.7570500E-01  0.2500000E+03  0.7546771E-02  0.1113305E+00
       21   -1    0    0  503  502  0.00000000000E+00  0.00000000000E+00  0.20128609609E+02  0.20128609609E+02  0.00000000000E+00 0. -1.
       21   -1    0    0  502  503 -0.00000000000E+00 -0.00000000000E+00 -0.77625853766E+03  0.77625853766E+03  0.00000000000E+00 0. -1.
       25    2    1    2    0    0 -0.71054273576E-14  0.71054273576E-14 -0.75612992805E+03  0.79638714727E+03  0.25000004048E+03 0.  0.
       24    2    3    3    0    0  0.62506897193E+02  0.58512017149E+02 -0.51893160890E+03  0.53206385920E+03  0.80443565315E+02 0.  0.
      -24    2    3    3    0    0 -0.62506897193E+02 -0.58512017149E+02 -0.23719831915E+03  0.26432328807E+03  0.79202207430E+02 0.  0.
      -13    1    4    4    0    0  0.46036985542E+01  0.59054563237E+02 -0.28267807431E+03  0.28881746688E+03  0.00000000000E+00 0.  1.
       14    1    4    4    0    0  0.57903198639E+02 -0.54254608792E+00 -0.23625353459E+03  0.24324639232E+03  0.00000000000E+00 0. -1.
        3    1    5    5  501    0 -0.29336361201E+02 -0.12258556172E+02 -0.18295644280E+03  0.18569855748E+03  0.00000000000E+00 0. -1.
       -4    1    5    5    0  501 -0.33170535993E+02 -0.46253460977E+02 -0.54241876342E+02  0.78624730585E+02  0.00000000000E+00 0.  1.
</event>
<event>
 9   1  0.7570500E-01  0.2500113E+03  0.7546771E-02  0.1113298E+00
       21   -1    0    0  503  502  0.00000000000E+00  0.00000000000E+00  0.10213310688E+03  0.10213310688E+03  0.00000000000E+00 0.  1.
       21   -1    0    0  502  503 -0.00000000000E+00 -0.00000000000E+00 -0.15300051086E+03  0.15300051086E+03  0.00000000000E+00 0.  1.
       25    2    1    2    0    0  0.00000000000E+00  0.00000000000E+00 -0.50867403980E+02  0.25513361774E+03  0.25001133997E+03 0.  0.
       24    2    3    3    0    0  0.15299785887E+02  0.94415391384E+02 -0.34466082828E+02  0.12933062749E+03  0.79938418567E+02 0.  0.
      -24    2    3    3    0    0 -0.15299785887E+02 -0.94415391384E+02 -0.16401321152E+02  0.12580299025E+03  0.80056476574E+02 0.  0.
      -13    1    4    4    0    0  0.19495451072E+02  0.60458642060E+02 -0.59419557043E+02  0.86982778591E+02  0.00000000000E+00 0.  1.
       14    1    4    4    0    0 -0.41956651855E+01  0.33956749324E+02  0.24953474215E+02  0.42347848899E+02  0.00000000000E+00 0. -1.
        1    1    5    5  501    0 -0.71272067214E+01 -0.39450400976E+02 -0.47474018433E+02  0.62136250603E+02  0.00000000000E+00 0. -1.
       -2    1    5    5    0  501 -0.81725791651E+01 -0.54964990408E+02  0.31072697281E+02  0.63666739645E+02  0.00000000000E+00 0.  1.
</event>
<event>
 9   1  0.7570500E-01  0.2500008E+03  0.7546771E-02  0.1113304E+00
       21   -1    0    0  503  502  0.00000000000E+00  0.00000000000E+00  0.48168860880E+03  0.48168860880E+03  0.00000000000E+00 0. -1.
       21   -1    0    0  502  503 -0.00000000000E+00 -0.00000000000E+00 -0.32438172872E+02  0.32438172872E+02  0.00000000000E+00 0. -1.
       25    2    1    2    0    0  0.35527136788E-14  0.00000000000E+00  0.44925043593E+03  0.51412678167E+03  0.25000078690E+03 0.  0.
       24    2    3    3    0    0 -0.91962529832E+01 -0.50056773214E+02  0.38964597003E+03  0.40115273930E+03  0.80680150422E+02 0.  0.
      -24    2    3    3    0    0  0.91962529832E+01  0.50056773214E+02  0.59604465900E+02  0.11297404238E+03  0.81364551752E+02 0.  0.
      -13    1    4    4    0    0 -0.44652218767E+02 -0.34618122553E+02  0.21776939143E+03  0.22497942771E+03  0.00000000000E+00 0.  1.
       14    1    4    4    0    0  0.35455965784E+02 -0.15438650662E+02  0.17187657860E+03  0.17617331159E+03  0.00000000000E+00 0. -1.
        3    1    5    5  501    0  0.16252602053E+02 -0.19876115290E+02  0.16596683448E+02  0.30572159459E+02  0.00000000000E+00 0. -1.
       -4    1    5    5    0  501 -0.70563490703E+01  0.69932888504E+02  0.43007782453E+02  0.82401882917E+02  0.00000000000E+00 0.  1.
</event>
<event>
 9   1  0.7570500E-01  0.2499902E+03  0.7546771E-02  0.1113311E+00
       21   -1    0    0  503  502  0.00000000000E+00  0.00000000000E+00  0.12198547825E+04  0.12198547825E+04  0.00000000000E+00 0.  1.
       21   -1    0    0  502  503 -0.00000000000E+00 -0.00000000000E+00 -0.12807900864E+02  0.12807900864E+02  0.00000000000E+00 0.  1.
       25    2    1    2    0    0  0.00000000000E+00 -0.71054273576E-14  0.12070468817E+04  0.12326626834E+04  0.24999023280E+03 0.  0.
       24    2    3    3    0    0 -0.29407889851E+02  0.49415429356E+02  0.22294197312E+03  0.24368532352E+03  0.79829223186E+02 0.  0.
      -24    2    3    3    0    0  0.29407889851E+02 -0.49415429356E+02  0.98410490856E+03  0.98897735989E+03  0.79416866506E+02 0.  0.
      -13    1    4    4    0    0 -0.17585332621E+02  0.70539153948E+02  0.14727448206E+03  0.16424003541E+03  0.00000000000E+00 0.  1.
       14    1    4    4    0    0 -0.11822557230E+02 -0.21123724592E+02  0.75667491056E+02  0.79445288109E+02  0.00000000000E+00 0. -1.
        1    1    5    5  501    0  0.32333737401E+01  0.16146598765E+02  0.44052490310E+03  0.44083257322E+03  0.00000000000E+00 0. -1.
       -2    1    5    5    0  501  0.26174516111E+02 -0.65562028121E+02  0.54358000546E+03  0.54814478667E+03  0.00000000000E+00 0.  1.
</event>
<event>
 9   1  0.7570500E-01  0.2499980E+03  0.7546771E-02  0.1113306E+00
       21   -1    0    0  503  502  0.00000000000E+00  0.00000000000E+00  0.25869734594E+03  0.25869734594E+03  0.00000000000E+00 0.  1.
       21   -1    0    0  502  503 -0.00000000000E+00 -0.00000000000E+00 -0.60397812886E+02  0.60397812886E+02  0.00000000000E+00 0.  1.
       25    2    1    2    0    0  0.00000000000E+00  0.71054273576E-14  0.19829953306E+03  0.31909515883E+03  0.24999803115E+03 0.  0.
       24    2    3    3    0    0 -0.66308472722E+02 -0.60222294665E+02  0.57607084881E+02  0.13349712362E+03  0.80494518176E+02 0.  0.
      -24    2    3    3    0    0  0.66308472722E+02  0.60222294665E+02  0.14069244817E+03  0.18559803521E+03  0.81416996817E+02 0.  0.
      -13    1    4    4    0    0 -0.39959449237E+02  0.64422906548E+01  0.45329737209E+02  0.60770434980E+02  0.00000000000E+00 0.  1.
       14    1    4    4    0    0 -0.26349023485E+02 -0.66664585319E+02  0.12277347672E+02  0.72726688638E+02  0.00000000000E+00 0. -1.
        3    1    5    5  501    0  0.37473524295E+02  0.55787813180E+02  0.14124557216E+03  0.15641885045E+03  0.00000000000E+00 0. -1.
       -4    1    5    5    0  501  0.28834948426E+02  0.44344814842E+01 -0.55312398614E+00  0.29179184754E+02  0.00000000000E+00 0.  1.
</event>
<event>
 9   1  0.7570500E-01  0.2499937E+03  0.7546771E-02  0.1113309E+00
       21   -1    0    0  503  502  0.00000000000E+00  0.00000000000E+00  0.11515754284E+02  0.11515754284E+02  0.00000000000E+00 0. -1.
       21   -1    0    0  502  503 -0.00000000000E+00 -0.00000000000E+00 -0.13567683943E+04  0.13567683943E+04  0.00000000000E+00 0. -1.
       25    2    1    2    0    0  0.00000000000E+00  0.00000000000E+00 -0.13452526400E+04  0.13682841486E+04  0.24999369151E+03 0.  0.
       24    2    3    3    0    0  0.65658580146E+02 -0.71465422529E+02 -0.68203551339E+03  0.69361693836E+03  0.80707248099E+02 0.  0.
      -24    2    3    3    0    0 -0.65658580146E+02  0.71465422529E+02 -0.66321712666E+03  0.67466721025E+03  0.76814918683E+02 0.  0.
      -13    1    4    4    0    0  0.30463839432E+01 -0.60043988205E+02 -0.39972923490E+03  0.40422521223E+03  0.00000000000E+00 0.  1.
       14    1    4    4    0    0  0.62612196203E+02 -0.11421434323E+02 -0.28230627849E+03  0.28939172613E+03  0.00000000000E+00 0. -1.
        3    1    5    5  501    0 -0.30336312029E+02  0.18522704302E+02 -0.74771894349E+02  0.82790208278E+02  0.00000000000E+00 0. -1.
       -4    1    5    5    0  501 -0.35322268118E+02  0.52942718227E+02 -0.58844523231E+03  0.59187700197E+03  0.00000000000E+00 0.  1.
</event>
<event>
 9   1  0.7570500E-01  0.2500004E+03  0.7546771E-02  0.1113305E+00
       21   -1    0    0  503  502  0.00000000000E+00  0.00000000000E+00  0.22268580059E+03  0.22268580059E+03  0.00000000000E+00 0.  1.
       21   -1    0    0  502  503 -0.00000000000E+00 -0.00000000000E+00 -0.70166349063E+02  0.70166349063E+02  0.00000000000E+00 0.  1.
       25    2    1    2    0    0  0.00000000000E+00  0.71054273576E-14  0.15251945153E+03  0.29285214966E+03  0.25000039693E+03 0.  0.
       24    2    3    3    0    0 -0.55668164305E+02 -0.34769970128E+02 -0.43533085554E+01  0.10416973799E+03  0.80774300847E+02 0.  0.
      -24    2    3    3    0    0  0.55668164305E+02  0.34769970128E+02  0.15687276009E+03  0.18868241167E+03  0.81756310315E+02 0.  0.
      -13    1    4    4    0    0 -0.22806024675E+02  0.12632459621E+02  0.27817815375E+02  0.38125118358E+02  0.00000000000E+00 0.  1.
       14    1    4    4    0    0 -0.32862139631E+02 -0.47402429749E+02 -0.32171123931E+02  0.66044619630E+02  0.00000000000E+00 0. -1.
        3    1    5    5  501    0  0.34538223961E+02  0.60650665328E+02  0.89660308330E+02  0.11362377836E+03  0.00000000000E+00 0. -1.
       -4    1    5    5    0  501  0.21129940344E+02 -0.25880695200E+02  0.67212451756E+02  0.75058633308E+02  0.00000000000E+00 0.  1.
</event>
<event>
 9   1  0.7570500E-01  0.2499845E+03  0.7546771E-02  0.1113315E+00
       21   -1    0    0  503  502  0.00000000000E+00  0.00000000000E+00  0.12126050771E+03  0.12126050771E+03  0.00000000000E+00 0. -1.
       21   -1    0    0  502  503 -0.00000000000E+00 -0.00000000000E+00 -0.12883882029E+03  0.12883882029E+03  0.00000000000E+00 0. -1.
       25    2    1    2    0    0 -0.35527136788E-14  0.35527136788E-14 -0.75783125771E+01  0.25009932800E+03  0.24998448561E+03 0.  0.
       24    2    3    3    0    0 -0.16431948550E+02  0.27940308651E+02  0.86066161751E+02  0.12274044307E+03  0.81284453532E+02 0.  0.
      -24    2    3    3    0    0  0.16431948550E+02 -0.27940308651E+02 -0.93644474328E+02  0.12735888493E+03  0.80002051336E+02 0.  0.
      -13    1    4    4    0    0  0.24657804337E+02  0.36063182537E+02  0.56737875312E+02  0.71608288237E+02  0.00000000000E+00 0.  1.
       14    1    4    4    0    0 -0.41089752887E+02 -0.81228738859E+01  0.29328286439E+02  0.51132154834E+02  0.00000000000E+00 0. -1.
        1    1    5    5  501    0  0.30257295062E+02 -0.12729560411E+02 -0.14040973847E+01  0.32856005573E+02  0.00000000000E+00 0. -1.
       -2    1    5    5    0  501 -0.13825346512E+02 -0.15210748240E+02 -0.92240376943E+02  0.94502879357E+02  0.00000000000E+00 0.  1.
</event>
<event>
 9   1  0.7570500E-01  0.2500120E+03  0.7546771E-02  0.1113297E+00
       21   -1    0    0  503  502  0.00000000000E+00  0.00000000000E+00  0.79921175260E+02  0.79921175260E+02  0.00000000000E+00 0.  1.
       21   -1    0    0  502  503 -0.00000000000E+00 -0.00000000000E+00 -0.19552397389E+03  0.19552397389E+03  0.00000000000E+00 0.  1.
       25    2    1    2    0    0 -0.44408920985E-15  0.17763568394E-14 -0.11560279863E+03  0.27544514915E+03  0.25001204599E+03 0.  0.
       24    2    3    3    0    0 -0.11893150692E+01 -0.11624914197E+02 -0.16150428487E+03  0.18137940545E+03  0.81720876099E+02 0.  0.
      -24    2    3    3    0    0  0.11893150692E+01  0.11624914197E+02  0.45901486242E+02  0.94065743695E+02  0.81270318058E+02 0.  0.
      -13    1    4    4    0    0 -0.21446530190E+01 -0.45367630280E+02 -0.66274822122E+02  0.80344094128E+02  0.00000000000E+00 0.  1.
       14    1    4    4    0    0  0.95533794977E+00  0.33742716083E+02 -0.95229462750E+02  0.10103531133E+03  0.00000000000E+00 0. -1.
        3    1    5    5  501    0 -0.30780087015E+02  0.11321254745E+02  0.52038803449E+02  0.61511150453E+02  0.00000000000E+00 0. -1.
       -4    1    5    5    0  501  0.31969402084E+02  0.30365945190E+00 -0.61373172070E+01  0.32554593242E+02  0.00000000000E+00 0.  1.
</event>
<event>
 9   1  0.7570500E-01  0.2499974E+03  0.7546771E-02  0.1113306E+00
       21   -1    0    0  503  502  0.00000000000E+00  0.00000000000E+00  0.83933510060E+03  0.83933510060E+03  0.00000000000E+00 0. -1.
       21   -1    0    0  502  503 -0.00000000000E+00 -0.00000000000E+00 -0.18615532245E+02  0.18615532245E+02  0.00000000000E+00 0. -1.
       25    2    1    2    0    0 -0.71054273576E-14  0.00000000000E+00  0.82071956836E+03  0.85795063285E+03  0.24999735702E+03 0.  0.
       24    2    3    3    0    0  0.49317300169E+02 -0.16133945559E+02  0.67960770444E+03  0.68631825596E+03  0.80458785957E+02 0.  0.
      -24    2    3    3    0    0 -0.49317300169E+02  0.16133945559E+02  0.14111186392E+03  0.17163237689E+03  0.82780519216E+02 0.  0.
      -13    1    4    4    0    0  0.16071994948E+02 -0.11390315269E+02  0.30286469610E+02  0.36129192421E+02  0.00000000000E+00 0.  1.
       14    1    4    4    0    0  0.33245305220E+02 -0.47436302894E+01  0.64932123483E+03  0.65018906354E+03  0.00000000000E+00 0. -1.
        1    1    5    5  501    0 -0.28622212046E+02 -0.14243866585E+02  0.72052690527E+01  0.32772468015E+02  0.00000000000E+00 0. -1.
       -2    1    5    5    0  501 -0.20695088123E+02  0.30377812143E+02  0.13390659487E+03  0.13885990887E+03  0.00000000000E+00 0.  1.
</event>
<event>
 9   1  0.7570500E-01  0.2500398E+03  0.7546771E-02  0.1113280E+00
       21   -1    0    0  503  502  0.00000000000E+00  0.00000000000E+00  0.59256879312E+02  0.59256879312E+02  0.00000000000E+00 0. -1.
       21   -1    0    0  502  503 -0.00000000000E+00 -0.00000000000E+00 -0.26376649389E+03  0.26376649389E+03  0.00000000000E+00 0. -1.
       25    2    1    2    0    0 -0.71054273576E-14  0.00000000000E+00 -0.20450961458E+03  0.32302337321E+03  0.25003983119E+03 0.  0.
       24    2    3    3    0    0  0.61699615355E+02  0.46642178805E+02 -0.29384401366E+02  0.11544274814E+03  0.80506208929E+02 0.  0.
      -24    2    3    3    0    0 -0.61699615355E+02 -0.46642178805E+02 -0.17512521321E+03  0.20758062506E+03  0.80240514827E+02 0.  0.
      -13    1    4    4    0    0  0.14233889820E+02  0.29015575775E+02 -0.51008778521E+02  0.60385451420E+02  0.00000000000E+00 0.  1.
       14    1    4    4    0    0  0.47465725536E+02  0.17626603030E+02  0.21624377155E+02  0.55057296722E+02  0.00000000000E+00 0. -1.
        1    1    5    5  501    0 -0.28013180516E+02  0.21522115892E+02 -0.59464339915E+02  0.69166086174E+02  0.00000000000E+00 0. -1.
       -2    1    5    5    0  501 -0.33686434839E+02 -0.68164294697E+02 -0.11566087330E+03  0.13841453889E+03  0.00000000000E+00 0.  1.
</event>
<event>
 9   1  0.7570500E-01  0.2499978E+03  0.7546771E-02  0.1113306E+00
       21   -1    0    0  503  502  0.00000000000E+00  0.00000000000E+00  0.27746904886E+02  0.27746904886E+02  0.00000000000E+00 0.  1.
       21   -1    0    0  502  503 -0.00000000000E+00 -0.00000000000E+00 -0.56311608185E+03  0.56311608185E+03  0.00000000000E+00 0.  1.
       25    2    1    2    0    0  0.71054273576E-14  0.00000000000E+00 -0.53536917697E+03  0.59086298674E+03  0.24999782689E+03 0.  0.
       24    2    3    3    0    0 -0.36061734845E+02  0.13739478921E+02 -0.56036238858E+02  0.10154708058E+03  0.75382541134E+02 0.  0.
      -24    2    3    3    0    0  0.36061734845E+02 -0.13739478921E+02 -0.47933293811E+03  0.48931590616E+03  0.90447600651E+02 0.  0.
      -13    1    4    4    0    0 -0.46578730942E+02  0.35167603785E+02 -0.50178465333E+02  0.76968934742E+02  0.00000000000E+00 0.  1.
       14    1    4    4    0    0  0.10516996097E+02 -0.21428124864E+02 -0.58577735247E+01  0.24578145837E+02  0.00000000000E+00 0. -1.
        1    1    5    5  501    0 -0.30632967407E+02 -0.54171377238E+01 -0.14759503026E+03  0.15083771753E+03  0.00000000000E+00 0. -1.
       -2    1    5    5    0  501  0.66694702252E+02 -0.83223411970E+01 -0.33173790785E+03  0.33847818863E+03  0.00000000000E+00 0.  1.
</event>
<event>
 9   1  0.7570500E-01  0.2499870E+03  0.7546771E-02  0.1113313E+00
       21   -1    0    0  503  502  0.00000000000E+00  0.00000000000E+00  0.14398080072E+04  0.14398080072E+04  0.00000000000E+00 0.  1.
       21   -1    0    0  502  503 -0.00000000000E+00 -0.00000000000E+00 -0.10851013345E+02  0.10851013345E+02  0.00000000000E+00 0.  1.
       25    2    1    2    0    0  0.00000000000E+00  0.00000000000E+00  0.14289569938E+04  0.14506590205E+04  0.24998700687E+03 0.  0.
       24    2    3    3    0    0 -0.79863153249E+02 -0.51769507341E+02  0.83427978080E+03  0.84352907703E+03  0.80376277627E+02 0.  0.
      -24    2    3    3    0    0  0.79863153249E+02  0.51769507341E+02  0.59467721302E+03  0.60712994349E+03  0.76860753634E+02 0.  0.
      -13    1    4    4    0    0 -0.17356178953E+01 -0.45512273920E+02  0.34929421502E+03  0.35225108672E+03  0.00000000000E+00 0.  1.
       14    1    4    4    0    0 -0.78127535353E+02 -0.62572334207E+01  0.48498556578E+03  0.49127799031E+03  0.00000000000E+00 0. -1.
        3    1    5    5  501    0  0.88344871698E+02  0.25912514036E+02  0.39386386583E+03  0.40448117329E+03  0.00000000000E+00 0. -1.
       -4    1    5    5    0  501 -0.84817184494E+01  0.25856993305E+02  0.20081334719E+03  0.20264877020E+03  0.00000000000E+00 0.  1.
</event>
<event>
 9   1  0.7570500E-01  0.2499962E+03  0.7546771E-02  0.1113307E+00
       21   -1    0    0  503  502  0.00000000000E+00  0.00000000000E+00  0.27721108453E+03  0.27721108453E+03  0.00000000000E+00 0.  1.
       21   -1    0    0  502  503 -0.00000000000E+00 -0.00000000000E+00 -0.56363270384E+02  0.56363270384E+02  0.00000000000E+00 0.  1.
       25    2    1    2    0    0  0.00000000000E+00  0.00000000000E+00  0.22084781415E+03  0.33357435491E+03  0.24999618646E+03 0.  0.
       24    2    3    3    0    0  0.69236519284E+02 -0.64904780262E+02  0.89648142129E+02  0.15373969841E+03  0.81195932013E+02 0.  0.
      -24    2    3    3    0    0 -0.69236519284E+02  0.64904780262E+02  0.13119967202E+03  0.17983465651E+03  0.78235692879E+02 0.  0.
      -13    1    4    4    0    0  0.81722766056E+02 -0.30284427116E+02  0.71370794306E+02  0.11264789078E+03  0.00000000000E+00 0.  1.
       14    1    4    4    0    0 -0.12486246772E+02 -0.34620353146E+02  0.18277347822E+02  0.41091807625E+02  0.00000000000E+00 0. -1.
        3    1    5    5  501    0 -0.23128858969E+02  0.18062997531E+02  0.10509128018E+03  0.10911183789E+03  0.00000000000E+00 0. -1.
       -4    1    5    5    0  501 -0.46107660315E+02  0.46841782731E+02  0.26108391834E+02  0.70722818618E+02  0.00000000000E+00 0.  1.
</event>
<event>
 9   1  0.7570500E-01  0.2500317E+03  0.7546771E-02  0.1113285E+00
       21   -1    0    0  503  502  0.00000000000E+00  0.00000000000E+00  0.11697195995E+03  0.11697195995E+03  0.00000000000E+00 0. -1.
       21   -1    0    0  502  503 -0.00000000000E+00 -0.00000000000E+00 -0.13361287977E+03  0.13361287977E+03  0.00000000000E+00 0. -1.
       25    2    1    2    0    0 -0.71054273576E-14 -0.14210854715E-13 -0.16640919827E+02  0.25058483972E+03  0.25003168136E+03 0.  0.
       24    2    3    3    0    0 -0.33946807223E+02 -0.76149906503E+02  0.40357590149E+02  0.11998846241E+03  0.76271239971E+02 0.  0.
      -24    2    3    3    0    0  0.33946807223E+02  0.76149906503E+02 -0.56998509976E+02  0.13059637731E+03  0.82797280431E+02 0.  0.
      -13    1    4    4    0    0 -0.35033685191E+02 -0.72581578458E+02  0.59695194842E+02  0.10029437131E+03  0.00000000000E+00 0.  1.
       14    1    4    4    0    0  0.10868779683E+01 -0.35683280457E+01 -0.19337604693E+02  0.19694091094E+02  0.00000000000E+00 0. -1.
        3    1    5    5  501    0  0.20965672217E+02  0.14785408746E+01  0.15186538498E+02  0.25930222640E+02  0.00000000000E+00 0. -1.
       -4    1    5    5    0  501  0.12981135006E+02  0.74671365629E+02 -0.72185048474E+02  0.10466615467E+03  0.00000000000E+00 0.  1.
</event>
<event>
 9   1  0.7570500E-01  0.2499999E+03  0.7546771E-02  0.1113305E+00
       21   -1    0    0  503  502  0.00000000000E+00  0.00000000000E+00  0.16960139786E+02  0.16960139786E+02  0.00000000000E+00 0.  1.
       21   -1    0    0  502  503 -0.00000000000E+00 -0.00000000000E+00 -0.92127736580E+03  0.92127736580E+03  0.00000000000E+00 0.  1.
       25    2    1    2    0    0 -0.17763568394E-14  0.00000000000E+00 -0.90431722601E+03  0.93823750559E+03  0.24999994325E+03 0.  0.
       24    2    3    3    0    0  0.12743926733E+02 -0.13773072100E+01 -0.81984838439E+03  0.82517377096E+03  0.92715016355E+02 0.  0.
      -24    2    3    3    0    0 -0.12743926733E+02  0.13773072100E+01 -0.84468841626E+02  0.11306373462E+03  0.74054832643E+02 0.  0.
      -13    1    4    4    0    0  0.48994037853E+02  0.12333480411E+02 -0.33619030762E+03  0.33996537091E+03  0.00000000000E+00 0.  1.
       14    1    4    4    0    0 -0.36250111120E+02 -0.13710787621E+02 -0.48365807677E+03  0.48520840005E+03  0.00000000000E+00 0. -1.
        1    1    5    5  501    0  0.74293460527E+01  0.11692059856E+02  0.92420050210E+01  0.16652750622E+02  0.00000000000E+00 0. -1.
       -2    1    5    5    0  501 -0.20173272786E+02 -0.10314752646E+02 -0.93710846647E+02  0.96410984003E+02  0.00000000000E+00 0.  1.
</event>
<event>
 9   1  0.7570500E-01  0.2500012E+03  0.7546771E-02  0.1113304E+00
       21   -1    0    0  503  502  0.00000000000E+00  0.00000000000E+00  0.18581798226E+02  0.18581798226E+02  0.00000000000E+00 0. -1.
       21   -1    0    0  502  503 -0.00000000000E+00 -0.00000000000E+00 -0.84088492249E+03  0.84088492249E+03  0.00000000000E+00 0. -1.
       25    2    1    2    0    0  0.00000000000E+00  0.00000000000E+00 -0.82230312426E+03  0.85946672071E+03  0.25000123169E+03 0.  0.
       24    2    3    3    0    0  0.86006086390E+02  0.37290005241E+02 -0.46784244397E+03  0.48409261200E+03  0.81740523793E+02 0.  0.
      -24    2    3    3    0    0 -0.86006086390E+02 -0.37290005241E+02 -0.35446068029E+03  0.37537410871E+03  0.80472083545E+02 0.  0.
      -13    1    4    4    0    0  0.73862259468E+02  0.61121005770E+02 -0.32839847228E+03  0.34210666073E+03  0.00000000000E+00 0.  1.
       14    1    4    4    0    0  0.12143826922E+02 -0.23831000529E+02 -0.13944397169E+03  0.14198595127E+03  0.00000000000E+00 0. -1.
        3    1    5    5  501    0 -0.53110876597E+02  0.20079483051E+02 -0.18281571298E+03  0.19143023733E+03  0.00000000000E+00 0. -1.
       -4    1    5    5    0  501 -0.32895209793E+02 -0.57369488292E+02 -0.17164496731E+03  0.18394387138E+03  0.00000000000E+00 0.  1.
</event>
<event>
 9   1  0.7570500E-01  0.2500015E+03  0.7546771E-02  0.1113304E+00
       21   -1    0    0  503  502  0.00000000000E+00  0.00000000000E+00  0.30816006236E+03  0.30816006236E+03  0.00000000000E+00 0. -1.
       21   -1    0    0  502  503 -0.00000000000E+00 -0.00000000000E+00 -0.50704791658E+02  0.50704791658E+02  0.00000000000E+00 0. -1.
       25    2    1    2    0    0  0.00000000000E+00  0.00000000000E+00  0.25745527070E+03  0.35886485402E+03  0.25000153407E+03 0.  0.
       24    2    3    3    0    0 -0.28974322654E+01  0.56656196352E+02  0.23665827124E+03  0.25637359403E+03  0.80634748526E+02 0.  0.
      -24    2    3    3    0    0  0.28974322654E+01 -0.56656196352E+02  0.20796999463E+02  0.10249125999E+03  0.82786614190E+02 0.  0.
      -13    1    4    4    0    0  0.38343546201E+02  0.22928817100E+02  0.12259111029E+03  0.13047811507E+03  0.00000000000E+00 0.  1.
       14    1    4    4    0    0 -0.41240978467E+02  0.33727379252E+02  0.11406716095E+03  0.12589547896E+03  0.00000000000E+00 0. -1.
        3    1    5    5  501    0 -0.32426881371E+02 -0.40889767954E+02 -0.98882075877E+01  0.53115462984E+02  0.00000000000E+00 0. -1.
       -4    1    5    5    0  501  0.35324313636E+02 -0.15766428398E+02  0.30685207051E+02  0.49375797007E+02  0.00000000000E+00 0.  1.
</event>
<event>
 9   1  0.7570500E-01  0.2500122E+03  0.7546771E-02  0.1113297E+00
       21   -1    0    0  503  502  0.00000000000E+00  0.00000000000E+00  0.33138284493E+02  0.33138284493E+02  0.00000000000E+00 0.  1.
       21   -1    0    0  502  503 -0.00000000000E+00 -0.00000000000E+00 -0.47155515028E+03  0.47155515028E+03  0.00000000000E+00 0.  1.
       25    2    1    2    0    0 -0.71054273576E-14 -0.14210854715E-13 -0.43841686579E+03  0.50469343477E+03  0.25001222950E+03 0.  0.
       24    2    3    3    0    0  0.17360588842E+02  0.61055908303E+02 -0.36703388703E+03  0.38082999188E+03  0.79299397902E+02 0.  0.
      -24    2    3    3    0    0 -0.17360588842E+02 -0.61055908303E+02 -0.71382978759E+02  0.12386344289E+03  0.78850547522E+02 0.  0.
      -13    1    4    4    0    0 -0.58683421381E+01  0.46372311424E+02 -0.81311229730E+02  0.93788830820E+02  0.00000000000E+00 0.  1.
       14    1    4    4    0    0  0.23228930980E+02  0.14683596879E+02 -0.28572265730E+03  0.28704116106E+03  0.00000000000E+00 0. -1.
        3    1    5    5  501    0 -0.47323976287E+02 -0.27563601574E+02 -0.28461309050E+02  0.61719988466E+02  0.00000000000E+00 0. -1.
       -4    1    5    5    0  501  0.29963387446E+02 -0.33492306728E+02 -0.42921669709E+02  0.62143454424E+02  0.00000000000E+00 0.  1.
</event>
<event>
 9   1  0.7570500E-01  0.2500075E+03  0.7546771E-02  0.1113300E+00
       21   -1    0    0  503  502  0.00000000000E+00  0.00000000000E+00  0.93220608689E+02  0.93220608689E+02  0.00000000000E+00 0. -1.
       21   -1    0    0  502  503 -0.00000000000E+00 -0.00000000000E+00 -0.16762316306E+03  0.16762316306E+03  0.00000000000E+00 0. -1.
       25    2    1    2    0    0  0.00000000000E+00  0.00000000000E+00 -0.74402554372E+02  0.26084377175E+03  0.25000746621E+03 0.  0.
       24    2    3    3    0    0  0.15327985251E+02  0.80087993311E+02  0.13885591518E+02  0.11728379198E+03  0.83148327730E+02 0.  0.
      -24    2    3    3    0    0 -0.15327985251E+02 -0.80087993311E+02 -0.88288145890E+02  0.14355997977E+03  0.78521572087E+02 0.  0.
      -13    1    4    4    0    0  0.22066362972E+02  0.19676620878E+02  0.41144791973E+02  0.50665448685E+02  0.00000000000E+00 0.  1.
       14    1    4    4    0    0 -0.67383777212E+01  0.60411372433E+02 -0.27259200455E+02  0.66618343292E+02  0.00000000000E+00 0. -1.
        1    1    5    5  501    0 -0.13258714002E+02 -0.44893943847E+02  0.17728890515E+01  0.46844453532E+02  0.00000000000E+00 0. -1.
       -2    1    5    5    0  501 -0.20692712487E+01 -0.35194049464E+02 -0.90061034941E+02  0.96715526240E+02  0.00000000000E+00 0.  1.
</event>
<event>
 9   1  0.7570500E-01  0.2500004E+03  0.7546771E-02  0.1113305E+00
       21   -1    0    0  503  502  0.00000000000E+00  0.00000000000E+00  0.20700964194E+03  0.20700964194E+03  0.00000000000E+00 0. -1.
       21   -1    0    0  502  503 -0.00000000000E+00 -0.00000000000E+00 -0.75479787884E+02  0.75479787884E+02  0.00000000000E+00 0. -1.
       25    2    1    2    0    0  0.00000000000E+00  0.00000000000E+00  0.13152985405E+03  0.28248942982E+03  0.25000035091E+03 0.  0.
       24    2    3    3    0    0  0.84087652493E+02  0.27878125187E+02  0.26428416580E+02  0.12252315855E+03  0.80408581715E+02 0.  0.
      -24    2    3    3    0    0 -0.84087652493E+02 -0.27878125187E+02  0.10510143747E+03  0.15996627127E+03  0.81822812335E+02 0.  0.
      -13    1    4    4    0    0 -0.85145207733E+01  0.38632681965E+01  0.25168829238E+02  0.26849429609E+02  0.00000000000E+00 0.  1.
       14    1    4    4    0    0  0.92602173267E+02  0.24014856990E+02  0.12595873428E+01  0.95673728945E+02  0.00000000000E+00 0. -1.
        1    1    5    5  501    0 -0.17686960533E+02  0.12075952001E+02  0.73016380426E+02  0.76092371498E+02  0.00000000000E+00 0. -1.
       -2    1    5    5    0  501 -0.66400691960E+02 -0.39954077188E+02  0.32085057045E+02  0.83873899768E+02  0.00000000000E+00 0.  1.
</event>
<event>
 9   1  0.7570500E-01  0.2499968E+03  0.7546771E-02  0.1113307E+00
       21   -1    0    0  503  502  0.00000000000E+00  0.00000000000E+00  0.37674246835E+03  0.37674246835E+03  0.00000000000E+00 0.  1.
       21   -1    0    0  502  503 -0.00000000000E+00 -0.00000000000E+00 -0.41472898159E+02  0.41472898159E+02  0.00000000000E+00 0.  1.
       25    2    1    2    0    0  0.00000000000E+00  0.00000000000E+00  0.33526957019E+03  0.41821536651E+03  0.24999681616E+03 0.  0.
       24    2    3    3    0    0 -0.42306058521E+02  0.60502176091E+02  0.26509706043E+03  0.28681907653E+03  0.80860468186E+02 0.  0.
      -24    2    3    3    0    0  0.42306058521E+02 -0.60502176091E+02  0.70172509766E+02  0.13139628998E+03  0.83008963339E+02 0.  0.
      -13    1    4    4    0    0 -0.16246367105E+02  0.17767850772E+02  0.87271079562E+01  0.25608658271E+02  0.00000000000E+00 0.  1.
       14    1    4    4    0    0 -0.26059691416E+02  0.42734325318E+02  0.25636995247E+03  0.26121041826E+03  0.00000000000E+00 0. -1.
        3    1    5    5  501    0  0.43923670651E+02 -0.22970823284E+02 -0.24551258870E+01  0.49628371008E+02  0.00000000000E+00 0. -1.
       -4    1    5    5    0  501 -0.16176121304E+01 -0.37531352806E+02  0.72627635653E+02  0.81767918972E+02  0.00000000000E+00 0.  1.
</event>
<event>
 9   1  0.7570500E-01  0.2500042E+03  0.7546771E-02  0.1113302E+00
       21   -1    0    0  503  502  0.00000000000E+00  0.00000000000E+00  0.17892874407E+04  0.17892874407E+04  0.00000000000E+00 0.  1.
       21   -1    0    0  502  503 -0.00000000000E+00 -0.00000000000E+00 -0.87328192292E+01  0.87328192292E+01  0.00000000000E+00 0.  1.
       25    2    1    2    0    0  0.28421709430E-13 -0.35527136788E-14  0.17805546214E+04  0.17980202599E+04  0.25000419011E+03 0.  0.
       24    2    3    3    0    0 -0.64539083516E+02  0.20347680882E+02  0.39884684490E+03  0.41227015785E+03  0.79426418461E+02 0.  0.
      -24    2    3    3    0    0  0.64539083516E+02 -0.20347680882E+02  0.13817077765E+04  0.13857501020E+04  0.81287416947E+02 0.  0.
      -13    1    4    4    0    0  0.18711829657E+01 -0.24255419555E+02  0.96371968499E+02  0.99395085472E+02  0.00000000000E+00 0.  1.
       14    1    4    4    0    0 -0.66410266482E+02  0.44603100438E+02  0.30247487640E+03  0.31287507238E+03  0.00000000000E+00 0. -1.
        1    1    5    5  501    0  0.82937210530E+02 -0.15102609759E+02  0.99305975802E+03  0.99663150297E+03  0.00000000000E+00 0. -1.
       -2    1    5    5    0  501 -0.18398127014E+02 -0.52450711233E+01  0.38864801851E+03  0.38911859907E+03  0.00000000000E+00 0.  1.
</event>
<event>
 9   1  0.7570500E-01  0.2499908E+03  0.7546771E-02  0.1113311E+00
       21   -1    0    0  503  502  0.00000000000E+00  0.00000000000E+00  0.59119569270E+03  0.59119569270E+03  0.00000000000E+00 0.  1.
       21   -1    0    0  502  503 -0.00000000000E+00 -0.00000000000E+00 -0.26427539133E+02  0.26427539133E+02  0.00000000000E+00 0.  1.
       25    2    1    2    0    0  0.00000000000E+00  0.71054273576E-14  0.56476815357E+03  0.61762323183E+03  0.24999077826E+03 0.  0.
       24    2    3    3    0    0 -0.86559407634E+02  0.40983351422E+02  0.30303703916E+03  0.32830492466E+03  0.82343854123E+02 0.  0.
      -24    2    3    3    0    0  0.86559407634E+02 -0.40983351422E+02  0.26173111441E+03  0.28931830717E+03  0.77651403533E+02 0.  0.
      -13    1    4    4    0    0 -0.71049411537E+02  0.34401634472E+02  0.11483686244E+03  0.13935205886E+03  0.00000000000E+00 0.  1.
       14    1    4    4    0    0 -0.15509996097E+02  0.65817169496E+01  0.18820017672E+03  0.18895286580E+03  0.00000000000E+00 0. -1.
        3    1    5    5  501    0  0.15367839939E+02 -0.49257997255E+02  0.10666076664E+03  0.11848645466E+03  0.00000000000E+00 0. -1.
       -4    1    5    5    0  501  0.71191567695E+02  0.82746458338E+01  0.15507034777E+03  0.17083185251E+03  0.00000000000E+00 0.  1.
</event>
<event>
 9   1  0.7570500E-01  0.2499832E+03  0.7546771E-02  0.1113315E+00
       21   -1    0    0  503  502  0.00000000000E+00  0.00000000000E+00  0.23755084091E+03  0.23755084091E+03  0.00000000000E+00 0. -1.
       21   -1    0    0  502  503 -0.00000000000E+00 -0.00000000000E+00 -0.65766533638E+02  0.65766533638E+02  0.00000000000E+00 0. -1.
       25    2    1    2    0    0  0.00000000000E+00  0.00000000000E+00  0.17178430727E+03  0.30331737455E+03  0.24998316239E+03 0.  0.
       24    2    3    3    0    0  0.45670480360E+02  0.52600953618E+02  0.64135464236E+01  0.10568839111E+03  0.79222782957E+02 0.  0.
      -24    2    3    3    0    0 -0.45670480360E+02 -0.52600953618E+02  0.16537076085E+03  0.19762898344E+03  0.82807448059E+02 0.  0.
      -13    1    4    4    0    0 -0.20147072504E+02  0.92296576278E+01 -0.11336381881E+02  0.24891859403E+02  0.00000000000E+00 0.  1.
       14    1    4    4    0    0  0.65817552863E+02  0.43371295990E+02  0.17749928305E+02  0.80796531705E+02  0.00000000000E+00 0. -1.
        1    1    5    5  501    0 -0.42214368658E+02 -0.12421466738E+00  0.12315972405E+03  0.13019364799E+03  0.00000000000E+00 0. -1.
       -2    1    5    5    0  501 -0.34561117015E+01 -0.52476738950E+02  0.42211036802E+02  0.67435335447E+02  0.00000000000E+00 0.  1.
</event>
<event>
 9   1  0.7570500E-01  0.2499999E+03  0.7546771E-02  0.1113305E+00
       21   -1    0    0  503  502  0.00000000000E+00  0.00000000000E+00  0.47775943573E+02  0.47775943573E+02  0.00000000000E+00 0. -1.
       21   -1    0    0  502  503 -0.00000000000E+00 -0.00000000000E+00 -0.32704727654E+03  0.32704727654E+03  0.00000000000E+00 0. -1.
       25    2    1    2    0    0  0.35527136788E-14  0.00000000000E+00 -0.27927133297E+03  0.37482322011E+03  0.24999993784E+03 0.  0.
       24    2    3    3    0    0 -0.19408881296E+02  0.77332262298E+02 -0.21924779179E+03  0.24627374928E+03  0.78893484613E+02 0.  0.
      -24    2    3    3    0    0  0.19408881296E+02 -0.77332262298E+02 -0.60023541173E+02  0.12854947083E+03  0.81025659457E+02 0.  0.
      -13    1    4    4    0    0 -0.32127994135E+02  0.29164348590E+02 -0.17278831689E+03  0.17815321970E+03  0.00000000000E+00 0.  1.
       14    1    4    4    0    0  0.12719112839E+02  0.48167913708E+02 -0.46459474904E+02  0.68120529584E+02  0.00000000000E+00 0. -1.
        3    1    5    5  501    0  0.41800417959E+02 -0.78852266943E+02 -0.37662250055E+02  0.96867951474E+02  0.00000000000E+00 0. -1.
       -4    1    5    5    0  501 -0.22391536663E+02  0.15200046441E+01 -0.22361291117E+02  0.31681519356E+02  0.00000000000E+00 0.  1.
</event>
<event>
 9   1  0.7570500E-01  0.2500022E+03  0.7546771E-02  0.1113303E+00
       21   -1    0    0  503  502  0.00000000000E+00  0.00000000000E+00  0.44981446438E+03  0.44981446438E+03  0.00000000000E+00 0. -1.
       21   -1    0    0  502  503 -0.00000000000E+00 -0.00000000000E+00 -0.34737160071E+02  0.34737160071E+02  0.00000000000E+00 0. -1.
       25    2    1    2    0    0  0.00000000000E+00  0.00000000000E+00  0.41507730430E+03  0.48455162445E+03  0.25000221640E+03 0.  0.
       24    2    3    3    0    0 -0.71357055490E+02  0.63325382328E+02  0.21524560428E+03  0.24893051854E+03  0.80831921186E+02 0.  0.
      -24    2    3    3    0    0  0.71357055490E+02 -0.63325382328E+02  0.19983170003E+03  0.23562110591E+03  0.80514991150E+02 0.  0.
      -13    1    4    4    0    0 -0.32668290165E+02  0.30348579335E+02  0.18385279845E+03  0.18918272899E+03  0.00000000000E+00 0.  1.
       14    1    4    4    0    0 -0.38688765325E+02  0.32976802993E+02  0.31392805827E+02  0.59747789547E+02  0.00000000000E+00 0. -1.
        3    1    5    5  501    0  0.37222417432E+02 -0.75691524906E+02  0.10916386567E+03  0.13795457539E+03  0.00000000000E+00 0. -1.
       -4    1    5    5    0  501  0.34134638059E+02  0.12366142578E+02  0.90667834360E+02  0.97666530527E+02  0.00000000000E+00 0.  1.
</event>
<event>
 9   1  0.7570500E-01  0.2499995E+03  0.7546771E-02  0.1113305E+00
       21   -1    0    0  503  502  0.00000000000E+00  0.00000000000E+00  0.44032503374E+03  0.44032503374E+03  0.00000000000E+00 0. -1.
       21   -1    0    0  502  503 -0.00000000000E+00 -0.00000000000E+00 -0.35485019133E+02  0.35485019133E+02  0.00000000000E+00 0. -1.
       25    2    1    2    0    0 -0.35527136788E-14  0.00000000000E+00  0.40484001461E+03  0.47581005287E+03  0.24999953798E+03 0.  0.
       24    2    3    3    0    0  0.19339153556E+02 -0.75599391723E+02  0.30896969995E+03  0.32886037655E+03  0.81225617181E+02 0.  0.
      -24    2    3    3    0    0 -0.19339153556E+02  0.75599391723E+02  0.95870314654E+02  0.14694967632E+03  0.79459544741E+02 0.  0.
      -13    1    4    4    0    0  0.42758401762E+02 -0.20459844310E+02  0.88480240411E+02  0.10037748300E+03  0.00000000000E+00 0.  1.
       14    1    4    4    0    0 -0.23419248206E+02 -0.55139547413E+02  0.22048945954E+03  0.22848289355E+03  0.00000000000E+00 0. -1.
        3    1    5    5  501    0  0.12947040993E+02  0.35489241065E+02 -0.39478978567E+00  0.37779200108E+02  0.00000000000E+00 0. -1.
       -4    1    5    5    0  501 -0.32286194549E+02  0.40110150659E+02  0.96265104440E+02  0.10917047622E+03  0.00000000000E+00 0.  1.
</event>
<event>
 9   1  0.7570500E-01  0.2499935E+03  0.7546771E-02  0.1113309E+00
       21   -1    0    0  503  502  0.00000000000E+00  0.00000000000E+00  0.21000608361E+02  0.21000608361E+02  0.00000000000E+00 0. -1.
       21   -1    0    0  502  503 -0.00000000000E+00 -0.00000000000E+00 -0.74398738137E+03  0.74398738137E+03  0.00000000000E+00 0. -1.
       25    2    1    2    0    0  0.00000000000E+00 -0.71054273576E-14 -0.72298677301E+03  0.76498798973E+03  0.24999350089E+03 0.  0.
       24    2    3    3    0    0 -0.76724211676E+02 -0.54984220122E+02 -0.41554011483E+03  0.43369003262E+03  0.80644827725E+02 0.  0.
      -24    2    3    3    0    0  0.76724211676E+02  0.54984220122E+02 -0.30744665817E+03  0.33129795711E+03  0.79529992096E+02 0.  0.
      -13    1    4    4    0    0 -0.12325565840E+02 -0.40692154246E+02 -0.27703174594E+03  0.28027550598E+03  0.00000000000E+00 0.  1.
       14    1    4    4    0    0 -0.64398645836E+02 -0.14292065876E+02 -0.13850836889E+03  0.15341452664E+03  0.00000000000E+00 0. -1.
        3    1    5    5  501    0  0.49298040181E+02 -0.79212790685E+01 -0.17692367873E+03  0.18383425014E+03  0.00000000000E+00 0. -1.
       -4    1    5    5    0  501  0.27426171495E+02  0.62905499191E+02 -0.13052297944E+03  0.14746370697E+03  0.00000000000E+00 0.  1.
</event>
<event>
 9   1  0.7570500E-01  0.2500038E+03  0.7546771E-02  0.1113302E+00
       21   -1    0    0  503  502  0.00000000000E+00  0.00000000000E+00  0.15555655726E+02  0.15555655726E+02  0.00000000000E+00 0. -1.
       21   -1    0    0  502  503 -0.00000000000E+00 -0.00000000000E+00 -0.10044882428E+04  0.10044882428E+04  0.00000000000E+00 0. -1.
       25    2    1    2    0    0  0.14210854715E-13  0.00000000000E+00 -0.98893258709E+03  0.10200438985E+04  0.25000378626E+03 0.  0.
       24    2    3    3    0    0  0.72839697010E+02  0.49288094698E+02 -0.39336217977E+03  0.41276238042E+03  0.88904670706E+02 0.  0.
      -24    2    3    3    0    0 -0.72839697010E+02 -0.49288094698E+02 -0.59557040732E+03  0.60728151812E+03  0.79698145793E+02 0.  0.
      -13    1    4    4    0    0  0.62405489262E+01  0.56778254997E+02 -0.15636204364E+03  0.16646862582E+03  0.00000000000E+00 0.  1.
       14    1    4    4    0    0  0.66599148084E+02 -0.74901602981E+01 -0.23700013613E+03  0.24629375460E+03  0.00000000000E+00 0. -1.
        1    1    5    5  501    0 -0.78122738213E+02 -0.12639391990E+02 -0.34299167420E+03  0.35200313213E+03  0.00000000000E+00 0. -1.
       -2    1    5    5    0  501  0.52830412026E+01 -0.36648702709E+02 -0.25257873312E+03  0.25527838600E+03  0.00000000000E+00 0.  1.
</event>
<event>
 9   1  0.7570500E-01  0.2499962E+03  0.7546771E-02  0.1113307E+00
       21   -1    0    0  503  502  0.00000000000E+00  0.00000000000E+00  0.21497297766E+02  0.21497297766E+02  0.00000000000E+00 0. -1.
       21   -1    0    0  502  503 -0.00000000000E+00 -0.00000000000E+00 -0.72681341761E+03  0.72681341761E+03  0.00000000000E+00 0. -1.
       25    2    1    2    0    0  0.00000000000E+00  0.00000000000E+00 -0.70531611984E+03  0.74831071537E+03  0.24999619564E+03 0.  0.
       24    2    3    3    0    0 -0.58605483293E+01  0.27807779338E+02 -0.62763988830E+03  0.63335219936E+03  0.79972247877E+02 0.  0.
      -24    2    3    3    0    0  0.58605483293E+01 -0.27807779338E+02 -0.77676231542E+02  0.11495851601E+03  0.79838867973E+02 0.  0.
      -13    1    4    4    0    0  0.16645762265E+02  0.19399165198E+02 -0.57409842725E+03  0.57466721951E+03  0.00000000000E+00 0.  1.
       14    1    4    4    0    0 -0.22506310594E+02  0.84086141402E+01 -0.53541461051E+02  0.58684979848E+02  0.00000000000E+00 0. -1.
        3    1    5    5  501    0  0.37950772298E+02 -0.33475013854E+02 -0.36236385185E+02  0.62240768647E+02  0.00000000000E+00 0. -1.
       -4    1    5    5    0  501 -0.32090223968E+02  0.56672345157E+01 -0.41439846357E+02  0.52717747368E+02  0.00000000000E+00 0.  1.
</event>
<event>
 9   1  0.7570500E-01  0.2500081E+03  0.7546771E-02  0.1113300E+00
       21   -1    0    0  503  502  0.00000000000E+00  0.00000000000E+00  0.20999859866E+02  0.20999859866E+02  0.00000000000E+00 0. -1.
       21   -1    0    0  502  503 -0.00000000000E+00 -0.00000000000E+00 -0.74410080124E+03  0.74410080124E+03  0.00000000000E+00 0. -1.
       25    2    1    2    0    0  0.00000000000E+00  0.00000000000E+00 -0.72310094137E+03  0.76510066110E+03  0.25000810028E+03 0.  0.
       24    2    3    3    0    0 -0.39052669862E+02 -0.63405689043E+02 -0.56043393021E+03  0.56928294876E+03  0.66719511334E+02 0.  0.
      -24    2    3    3    0    0  0.39052669862E+02  0.63405689043E+02 -0.16266701116E+03  0.19581771234E+03  0.79615497991E+02 0.  0.
      -13    1    4    4    0    0 -0.42938204039E+02 -0.52592002152E+02 -0.26283980902E+03  0.27146707584E+03  0.00000000000E+00 0.  1.
       14    1    4    4    0    0  0.38855341768E+01 -0.10813686891E+02 -0.29759412119E+03  0.29781587292E+03  0.00000000000E+00 0. -1.
        3    1    5    5  501    0  0.38655717072E+02 -0.59960256224E+01 -0.67775636054E+02  0.78254416030E+02  0.00000000000E+00 0. -1.
       -4    1    5    5    0  501  0.39695278970E+00  0.69401714666E+02 -0.94891375108E+02  0.11756329631E+03  0.00000000000E+00 0.  1.
</event>
<event>
 9   1  0.7570500E-01  0.2500040E+03  0.7546771E-02  0.1113302E+00
       21   -1    0    0  503  502  0.00000000000E+00  0.00000000000E+00  0.85785137875E+02  0.85785137875E+02  0.00000000000E+00 0.  1.
       21   -1    0    0  502  503 -0.00000000000E+00 -0.00000000000E+00 -0.18214698337E+03  0.18214698337E+03  0.00000000000E+00 0.  1.
       25    2    1    2    0    0  0.71054273576E-14 -0.35527136788E-14 -0.96361845497E+02  0.26793212125E+03  0.25000403262E+03 0.  0.
       24    2    3    3    0    0 -0.57833404978E+02  0.42094619026E+01  0.33325943063E+02  0.10456648825E+03  0.80381028124E+02 0.  0.
      -24    2    3    3    0    0  0.57833404978E+02 -0.42094619026E+01 -0.12968778856E+03  0.16336563300E+03  0.80665886490E+02 0.  0.
      -13    1    4    4    0    0 -0.67986402698E+01  0.33449350175E+02  0.30347734916E+02  0.45673466599E+02  0.00000000000E+00 0.  1.
       14    1    4    4    0    0 -0.51034764708E+02 -0.29239888272E+02  0.29782081467E+01  0.58893021647E+02  0.00000000000E+00 0. -1.
        3    1    5    5  501    0  0.70341726066E+02  0.18985161185E+02 -0.98902834860E+02  0.12284203480E+03  0.00000000000E+00 0. -1.
       -4    1    5    5    0  501 -0.12508321088E+02 -0.23194623087E+02 -0.30784953700E+02  0.40523598198E+02  0.00000000000E+00 0.  1.
</event>
<event>
 9   1  0.7570500E-01  0.2499944E+03  0.7546771E-02  0.1113308E+00
       21   -1    0    0  503  502  0.00000000000E+00  0.00000000000E+00  0.40672039489E+03  0.40672039489E+03  0.00000000000E+00 0. -1.
       21   -1    0    0  502  503 -0.00000000000E+00 -0.00000000000E+00 -0.38415329067E+02  0.38415329067E+02  0.00000000000E+00 0. -1.
       25    2    1    2    0    0 -0.71054273576E-14  0.00000000000E+00  0.36830506583E+03  0.44513572396E+03  0.24999438240E+03 0.  0.
       24    2    3    3    0    0  0.52447356413E+02  0.52556682927E+02  0.29064307032E+03  0.31031611416E+03  0.79434037227E+02 0.  0.
      -24    2    3    3    0    0 -0.52447356413E+02 -0.52556682927E+02  0.77661995506E+02  0.13481960980E+03  0.81437163043E+02 0.  0.
      -13    1    4    4    0    0  0.68249758008E+02  0.18645012850E+02  0.17455996243E+03  0.18835298366E+03  0.00000000000E+00 0.  1.
       14    1    4    4    0    0 -0.15802401595E+02  0.33911670077E+02  0.11608310789E+03  0.12196313050E+03  0.00000000000E+00 0. -1.
        1    1    5    5  501    0 -0.42099956197E+02 -0.28216531230E+02  0.91776790087E+02  0.10484063213E+03  0.00000000000E+00 0. -1.
       -2    1    5    5    0  501 -0.10347400216E+02 -0.24340151698E+02 -0.14114794582E+02  0.29978977667E+02  0.00000000000E+00 0.  1.
</event>
<event>
 9   1  0.7570500E-01  0.2500002E+03  0.7546771E-02  0.1113305E+00
       21   -1    0    0  503  502  0.00000000000E+00  0.00000000000E+00  0.13319386114E+03  0.13319386114E+03  0.00000000000E+00 0.  1.
       21   -1    0    0  502  503 -0.00000000000E+00 -0.00000000000E+00 -0.11731040954E+03  0.11731040954E+03  0.00000000000E+00 0.  1.
       25    2    1    2    0    0  0.35527136788E-14  0.35527136788E-14  0.15883451593E+02  0.25050427068E+03  0.25000021119E+03 0.  0.
       24    2    3    3    0    0  0.27180325870E+02 -0.23463213874E+02  0.98915285380E+02  0.13241750181E+03  0.80379528382E+02 0.  0.
      -24    2    3    3    0    0 -0.27180325870E+02  0.23463213874E+02 -0.83031833787E+02  0.11808676887E+03  0.75900639270E+02 0.  0.
      -13    1    4    4    0    0  0.10360940871E+02  0.10069696066E-01  0.10276406033E+03  0.10328504873E+03  0.00000000000E+00 0.  1.
       14    1    4    4    0    0  0.16819384999E+02 -0.23473283570E+02 -0.38487749480E+01  0.29132453070E+02  0.00000000000E+00 0. -1.
        3    1    5    5  501    0  0.62375098569E+01  0.44156456400E+02 -0.41817385070E+02  0.61134220083E+02  0.00000000000E+00 0. -1.
       -4    1    5    5    0  501 -0.33417835727E+02 -0.20693242526E+02 -0.41214448716E+02  0.56952548792E+02  0.00000000000E+00 0.  1.
</event>
<event>
 9   1  0.7570500E-01  0.2500045E+03  0.7546771E-02  0.1113302E+00
       21   -1    0    0  503  502  0.00000000000E+00  0.00000000000E+00  0.28263319451E+03  0.28263319451E+03  0.00000000000E+00 0.  1.
       21   -1    0    0  502  503 -0.00000000000E+00 -0.00000000000E+00 -0.55285669692E+02  0.55285669692E+02  0.00000000000E+00 0.  1.
       25    2    1    2    0    0  0.35527136788E-14 -0.14210854715E-13  0.22734752482E+03  0.33791886420E+03  0.25000452344E+03 0.  0.
       24    2    3    3    0    0 -0.23933778027E+02  0.91923406042E+02  0.13255144312E+03  0.18199111809E+03  0.80796928654E+02 0.  0.
      -24    2    3    3    0    0  0.23933778027E+02 -0.91923406042E+02  0.94796081699E+02  0.15592774612E+03  0.79400419360E+02 0.  0.
      -13    1    4    4    0    0  0.65408283620E+01  0.79260341460E+02  0.12497106988E+03  0.14813086266E+03  0.00000000000E+00 0.  1.
       14    1    4    4    0    0 -0.30474606389E+02  0.12663064582E+02  0.75803732347E+01  0.33860255427E+02  0.00000000000E+00 0. -1.
        1    1    5    5  501    0  0.40166396319E+02 -0.18120874973E+02  0.16336570505E+02  0.46995627870E+02  0.00000000000E+00 0. -1.
       -2    1    5    5    0  501 -0.16232618292E+02 -0.73802531070E+02  0.78459511194E+02  0.10893211825E+03  0.00000000000E+00 0.  1.
</event>
<event>
 9   1  0.7570500E-01  0.2499988E+03  0.7546771E-02  0.1113306E+00
       21   -1    0    0  503  502  0.00000000000E+00  0.00000000000E+00  0.47549947824E+02  0.47549947824E+02  0.00000000000E+00 0. -1.
       21   -1    0    0  502  503 -0.00000000000E+00 -0.00000000000E+00 -0.32859870092E+03  0.32859870092E+03  0.00000000000E+00 0. -1.
       25    2    1    2    0    0  0.00000000000E+00  0.71054273576E-14 -0.28104875309E+03  0.37614864874E+03  0.24999880867E+03 0.  0.
       24    2    3    3    0    0 -0.31689519281E+02  0.53727962388E+02 -0.24482786894E+03  0.26496377933E+03  0.79838583235E+02 0.  0.
      -24    2    3    3    0    0  0.31689519281E+02 -0.53727962388E+02 -0.36220884156E+02  0.11118486941E+03  0.84612074567E+02 0.  0.
      -13    1    4    4    0    0 -0.14434995204E+02  0.56990041549E+02 -0.23950463616E+03  0.24661448591E+03  0.00000000000E+00 0.  1.
       14    1    4    4    0    0 -0.17254524077E+02 -0.32620791613E+01 -0.53232327822E+01  0.18349293415E+02  0.00000000000E+00 0. -1.
        1    1    5    5  501    0  0.57017828663E+02 -0.16821747691E+02 -0.27848447855E+02  0.65647086978E+02  0.00000000000E+00 0. -1.
       -2    1    5    5    0  501 -0.25328309382E+02 -0.36906214697E+02 -0.83724363011E+01  0.45537782434E+02  0.00000000000E+00 0.  1.
</event>
<event>
 9   1  0.7570500E-01  0.2500042E+03  0.7546771E-02  0.1113302E+00
       21   -1    0    0  503  502  0.00000000000E+00  0.00000000000E+00  0.85516208776E+02  0.85516208776E+02  0.00000000000E+00 0.  1.
       21   -1    0    0  502  503 -0.00000000000E+00 -0.00000000000E+00 -0.18272007909E+03  0.18272007909E+03  0.00000000000E+00 0.  1.
       25    2    1    2    0    0  0.00000000000E+00  0.00000000000E+00 -0.97203870317E+02  0.26823628787E+03  0.25000422741E+03 0.  0.
       24    2    3    3    0    0 -0.61023045212E+02 -0.34227963603E+02 -0.11689586418E+03  0.15821937379E+03  0.80457203794E+02 0.  0.
      -24    2    3    3    0    0  0.61023045212E+02  0.34227963603E+02  0.19691993862E+02  0.11001691407E+03  0.82586810212E+02 0.  0.
      -13    1    4    4    0    0 -0.52469929217E+01  0.23270723527E+02 -0.13457461330E+02  0.27389063030E+02  0.00000000000E+00 0.  1.
       14    1    4    4    0    0 -0.55776052290E+02 -0.57498687130E+02 -0.10343840285E+03  0.13083031076E+03  0.00000000000E+00 0. -1.
        3    1    5    5  501    0  0.12074044010E+02  0.53536661503E+02  0.36336591560E+01  0.55001455822E+02  0.00000000000E+00 0. -1.
       -4    1    5    5    0  501  0.48949001202E+02 -0.19308697900E+02  0.16058334706E+02  0.55015458253E+02  0.00000000000E+00 0.  1.
</event>
<event>
 9   1  0.7570500E-01  0.2500017E+03  0.7546771E-02  0.1113304E+00
       21   -1    0    0  503  502  0.00000000000E+00  0.00000000000E+00  0.31208919830E+02  0.31208919830E+02  0.00000000000E+00 0.  1.
       21   -1    0    0  502  503 -0.00000000000E+00 -0.00000000000E+00 -0.50066510449E+03  0.50066510449E+03  0.00000000000E+00 0.  1.
       25    2    1    2    0    0 -0.71054273576E-14  0.00000000000E+00 -0.46945618466E+03  0.53187402432E+03  0.25000173686E+03 0.  0.
       24    2    3    3    0    0 -0.45839659854E+02  0.46712558303E+02 -0.86038321909E+02  0.13456042273E+03  0.80128503104E+02 0.  0.
      -24    2    3    3    0    0  0.45839659854E+02 -0.46712558303E+02 -0.38341786275E+03  0.39731360159E+03  0.81027791612E+02 0.  0.
      -13    1    4    4    0    0 -0.67597458935E+02  0.33221471964E+02 -0.76176009528E+02  0.10712547354E+03  0.00000000000E+00 0.  1.
       14    1    4    4    0    0  0.21757799082E+02  0.13491086339E+02 -0.98623123811E+01  0.27434949189E+02  0.00000000000E+00 0. -1.
        1    1    5    5  501    0  0.32400399055E+02  0.33377387034E+01 -0.27741906365E+03  0.27932465562E+03  0.00000000000E+00 0. -1.
       -2    1    5    5    0  501  0.13439260799E+02 -0.50050297006E+02 -0.10599879910E+03  0.11798894597E+03  0.00000000000E+00 0.  1.
</event>
<event>
 9   1  0.7570500E-01  0.2500013E+03  0.7546771E-02  0.1113304E+00
       21   -1    0    0  503  502  0.00000000000E+00  0.00000000000E+00  0.21315406302E+03  0.21315406302E+03  0.00000000000E+00 0.  1.
       21   -1    0    0  502  503 -0.00000000000E+00 -0.00000000000E+00 -0.73304559826E+02  0.73304559826E+02  0.00000000000E+00 0.  1.
       25    2    1    2    0    0  0.00000000000E+00  0.00000000000E+00  0.13984950320E+03  0.28645862285E+03  0.25000131812E+03 0.  0.
       24    2    3    3    0    0  0.10307101905E+02  0.32366340397E+01  0.18195544281E+03  0.19873070635E+03  0.79179532245E+02 0.  0.
      -24    2    3    3    0    0 -0.10307101905E+02 -0.32366340397E+01 -0.42105939615E+02  0.87727916503E+02  0.76200820425E+02 0.  0.
      -13    1    4    4    0    0 -0.24196426270E+02 -0.16537366171E+02  0.31150648876E+02  0.42770485729E+02  0.00000000000E+00 0.  1.
       14    1    4    4    0    0  0.34503528175E+02  0.19774000211E+02  0.15080479394E+03  0.15596022062E+03  0.00000000000E+00 0. -1.
        3    1    5    5  501    0 -0.10383898702E+02 -0.30803377717E+02  0.52548421980E+01  0.32928510406E+02  0.00000000000E+00 0. -1.
       -4    1    5    5    0  501  0.76796797388E-01  0.27566743677E+02 -0.47360781813E+02  0.54799406097E+02  0.00000000000E+00 0.  1.
</event>
<event>
 9   1  0.7570500E-01  0.2500028E+03  0.7546771E-02  0.1113303E+00
       21   -1    0    0  503  502  0.00000000000E+00  0.00000000000E+00  0.87845920430E+02  0.87845920430E+02  0.00000000000E+00 0. -1.
       21   -1    0    0  502  503 -0.00000000000E+00 -0.00000000000E+00 -0.17787217918E+03  0.17787217918E+03  0.00000000000E+00 0. -1.
       25    2    1    2    0    0 -0.35527136788E-14  0.14210854715E-13 -0.90026258749E+02  0.26571809961E+03  0.25000276237E+03 0.  0.
       24    2    3    3    0    0  0.14107973796E+02 -0.57909045649E+02 -0.12459200656E+03  0.15980161791E+03  0.80379702005E+02 0.  0.
      -24    2    3    3    0    0 -0.14107973796E+02  0.57909045649E+02  0.34565747811E+02  0.10591648170E+03  0.80442635970E+02 0.  0.
      -13    1    4    4    0    0  0.31295744318E+02  0.64325388174E+01 -0.28041748981E+02  0.42510479343E+02  0.00000000000E+00 0.  1.
       14    1    4    4    0    0 -0.17187770522E+02 -0.64341584466E+02 -0.96550257578E+02  0.11729113856E+03  0.00000000000E+00 0. -1.
        1    1    5    5  501    0 -0.15465668181E+02  0.60000794411E+02 -0.87080774863E+01  0.62570862514E+02  0.00000000000E+00 0. -1.
       -2    1    5    5    0  501  0.13576943847E+01 -0.20917487628E+01  0.43273825297E+02  0.43345619187E+02  0.00000000000E+00 0.  1.
</event>
<event>
 9   1  0.7570500E-01  0.2500090E+03  0.7546771E-02  0.1113299E+00
       21   -1    0    0  503  502  0.00000000000E+00  0.00000000000E+00  0.32166444268E+03  0.32166444268E+03  0.00000000000E+00 0. -1.
       21   -1    0    0  502  503 -0.00000000000E+00 -0.00000000000E+00 -0.48578965904E+02  0.48578965904E+02  0.00000000000E+00 0. -1.
       25    2    1    2    0    0  0.14210854715E-13  0.00000000000E+00  0.27308547678E+03  0.37024340859E+03  0.25000900779E+03 0.  0.
       24    2    3    3    0    0 -0.82432980705E+02  0.43537254628E+02  0.11666615848E+03  0.16991864776E+03  0.81059641464E+02 0.  0.
      -24    2    3    3    0    0  0.82432980705E+02 -0.43537254628E+02  0.15641931830E+03  0.20032476082E+03  0.83500406069E+02 0.  0.
      -13    1    4    4    0    0 -0.14481229715E+02  0.29333191437E+02  0.89640613252E+02  0.95423171599E+02  0.00000000000E+00 0.  1.
       14    1    4    4    0    0 -0.67951750990E+02  0.14204063191E+02  0.27025545228E+02  0.74495476162E+02  0.00000000000E+00 0. -1.
        1    1    5    5  501    0  0.33107414037E+02 -0.34826521375E+02  0.13935829597E+03  0.14741004752E+03  0.00000000000E+00 0. -1.
       -2    1    5    5    0  501  0.49325566668E+02 -0.87107332526E+01  0.17061022331E+02  0.52914713303E+02  0.00000000000E+00 0.  1.
</event>
<event>
 9   1  0.7570500E-01  0.2499790E+03  0.7546771E-02  0.1113318E+00
       21   -1    0    0  503  502  0.00000000000E+00  0.00000000000E+00  0.16430441270E+03  0.16430441270E+03  0.00000000000E+00 0.  1.
       21   -1    0    0  502  503 -0.00000000000E+00 -0.00000000000E+00 -0.95081901265E+02  0.95081901265E+02  0.00000000000E+00 0.  1.
       25    2    1    2    0    0  0.00000000000E+00  0.35527136788E-14  0.69222511435E+02  0.25938631396E+03  0.24997900668E+03 0.  0.
       24    2    3    3    0    0  0.83728824542E+02  0.24741827673E+02  0.71697975089E+02  0.14000900446E+03  0.82699743664E+02 0.  0.
      -24    2    3    3    0    0 -0.83728824542E+02 -0.24741827673E+02 -0.24754636538E+01  0.11937730950E+03  0.81376532295E+02 0.  0.
      -13    1    4    4    0    0  0.55832006449E+02 -0.21576786509E+02  0.15094831504E+02  0.61730256749E+02  0.00000000000E+00 0.  1.
       14    1    4    4    0    0  0.27896818093E+02  0.46318614182E+02  0.56603143584E+02  0.78278747711E+02  0.00000000000E+00 0. -1.
        3    1    5    5  501    0 -0.83450192501E+01 -0.47202632572E+01 -0.33943332187E+02  0.35271376943E+02  0.00000000000E+00 0. -1.
       -4    1    5    5    0  501 -0.75383805292E+02 -0.20021564416E+02  0.31467868533E+02  0.84105932561E+02  0.00000000000E+00 0.  1.
</event>
<event>
 9   1  0.7570500E-01  0.2500161E+03  0.7546771E-02  0.1113295E+00
       21   -1    0    0  503  502  0.00000000000E+00  0.00000000000E+00  0.14534914387E+03  0.14534914387E+03  0.00000000000E+00 0.  1.
       21   -1    0    0  502  503 -0.00000000000E+00 -0.00000000000E+00 -0.10751361722E+03  0.10751361722E+03  0.00000000000E+00 0.  1.
       25    2    1    2    0    0  0.00000000000E+00 -0.35527136788E-14  0.37835526648E+02  0.25286276108E+03  0.25001609721E+03 0.  0.
       24    2    3    3    0    0  0.83989683623E+02  0.87853478384E+01 -0.24844947792E+02  0.12045718049E+03  0.82226586991E+02 0.  0.
      -24    2    3    3    0    0 -0.83989683623E+02 -0.87853478384E+01  0.62680474440E+02  0.13240558060E+03  0.80442194188E+02 0.  0.
      -13    1    4    4    0    0  0.68115053436E+02  0.42625923169E+02 -0.19629850256E+02  0.82716146258E+02  0.00000000000E+00 0.  1.
       14    1    4    4    0    0  0.15874630187E+02 -0.33840575331E+02 -0.52150975356E+01  0.37741034228E+02  0.00000000000E+00 0. -1.
        3    1    5    5  501    0 -0.11574290806E+02  0.52892232937E+01  0.57014981427E+02  0.58417875670E+02  0.00000000000E+00 0. -1.
       -4    1    5    5    0  501 -0.72415392817E+02 -0.14074571132E+02  0.56654930125E+01  0.73987704928E+02  0.00000000000E+00 0.  1.
</event>
<event>
 9   1  0.7570500E-01  0.2500147E+03  0.7546771E-02  0.1113296E+00
       21   -1    0    0  503  502  0.00000000000E+00  0.00000000000E+00  0.29109140701E+03  0.29109140701E+03  0.00000000000E+00 0. -1.
       21   -1    0    0  502  503 -0.00000000000E+00 -0.00000000000E+00 -0.53683624149E+02  0.53683624149E+02  0.00000000000E+00 0. -1.
       25    2    1    2    0    0  0.14210854715E-13 -0.35527136788E-14  0.23740778286E+03  0.34477503115E+03  0.25001473306E+03 0.  0.
       24    2    3    3    0    0  0.76857708278E+02  0.31474227490E+02  0.20068418714E+03  0.22970814271E+03  0.74792737232E+02 0.  0.
      -24    2    3    3    0    0 -0.76857708278E+02 -0.31474227490E+02  0.36723595721E+02  0.11506688845E+03  0.70668465500E+02 0.  0.
      -13    1    4    4    0    0  0.21754996330E+02 -0.15556276265E+02  0.15625058838E+02  0.30974506619E+02  0.00000000000E+00 0.  1.
       14    1    4    4    0    0  0.55102711948E+02  0.47030503755E+02  0.18505912830E+03  0.19873363609E+03  0.00000000000E+00 0. -1.
        1    1    5    5  501    0  0.65481436459E+01 -0.23971906601E+02  0.12913591475E+02  0.28005201947E+02  0.00000000000E+00 0. -1.
       -2    1    5    5    0  501 -0.83405851924E+02 -0.75023208889E+01  0.23810004246E+02  0.87061686499E+02  0.00000000000E+00 0.  1.
</event>
<event>
 9   1  0.7570500E-01  0.2499967E+03  0.7546771E-02  0.1113307E+00
       21   -1    0    0  503  502  0.00000000000E+00  0.00000000000E+00  0.42161849457E+02  0.42161849457E+02  0.00000000000E+00 0. -1.
       21   -1    0    0  502  503 -0.00000000000E+00 -0.00000000000E+00 -0.37058604221E+03  0.37058604221E+03  0.00000000000E+00 0. -1.
       25    2    1    2    0    0  0.00000000000E+00  0.71054273576E-14 -0.32842419275E+03  0.41274789167E+03  0.24999674336E+03 0.  0.
       24    2    3    3    0    0  0.69181890383E+02  0.49154263890E+02 -0.83375421050E+02  0.14128383330E+03  0.76206201197E+02 0.  0.
      -24    2    3    3    0    0 -0.69181890383E+02 -0.49154263890E+02 -0.24504877170E+03  0.27146405837E+03  0.80259322553E+02 0.  0.
      -13    1    4    4    0    0  0.93481183298E+01 -0.14591446256E+02  0.38865161655E+01  0.17759578488E+02  0.00000000000E+00 0.  1.
       14    1    4    4    0    0  0.59833772053E+02  0.63745710146E+02 -0.87261937216E+02  0.12352425481E+03  0.00000000000E+00 0. -1.
        3    1    5    5  501    0 -0.17681076829E+01  0.36383692111E+01 -0.11908304242E+03  0.11915173069E+03  0.00000000000E+00 0. -1.
       -4    1    5    5    0  501 -0.67413782700E+02 -0.52792633101E+02 -0.12596572928E+03  0.15231232767E+03  0.00000000000E+00 0.  1.
</event>
<event>
 9   1  0.7570500E-01  0.2499950E+03  0.7546771E-02  0.1113308E+00
       21   -1    0    0  503  502  0.00000000000E+00  0.00000000000E+00  0.57534102407E+03  0.57534102407E+03  0.00000000000E+00 0. -1.
       21   -1    0    0  502  503 -0.00000000000E+00 -0.00000000000E+00 -0.27156724545E+02  0.27156724545E+02  0.00000000000E+00 0. -1.
       25    2    1    2    0    0  0.00000000000E+00  0.00000000000E+00  0.54818429953E+03  0.60249774861E+03  0.24999502163E+03 0.  0.
       24    2    3    3    0    0  0.69309268361E+02  0.56613649215E+02  0.37663411926E+03  0.39367138734E+03  0.71519378183E+02 0.  0.
      -24    2    3    3    0    0 -0.69309268361E+02 -0.56613649215E+02  0.17155018026E+03  0.20882636128E+03  0.78550015013E+02 0.  0.
      -13    1    4    4    0    0 -0.10126326026E+01  0.76652159360E+01  0.16733908072E+03  0.16751760772E+03  0.00000000000E+00 0.  1.
       14    1    4    4    0    0  0.70321900964E+02  0.48948433279E+02  0.20929503854E+03  0.22615377961E+03  0.00000000000E+00 0. -1.
        1    1    5    5  501    0 -0.57500412042E+02 -0.74937834746E+02  0.11897776618E+03  0.15191341385E+03  0.00000000000E+00 0. -1.
       -2    1    5    5    0  501 -0.11808856319E+02  0.18324185531E+02  0.52572414077E+02  0.56912947428E+02  0.00000000000E+00 0.  1.
</event>
<event>
 9   1  0.7570500E-01  0.2499997E+03  0.7546771E-02  0.1113305E+00
       21   -1    0    0  503  502  0.00000000000E+00  0.00000000000E+00  0.53579227023E+02  0.53579227023E+02  0.00000000000E+00 0. -1.
       21   -1    0    0  502  503 -0.00000000000E+00 -0.00000000000E+00 -0.29162341074E+03  0.29162341074E+03  0.00000000000E+00 0. -1.
       25    2    1    2    0    0  0.14210854715E-13  0.35527136788E-14 -0.23804418372E+03  0.34520263777E+03  0.24999965544E+03 0.  0.
       24    2    3    3    0    0 -0.82951459759E+02 -0.80889086068E+00 -0.18424650357E+03  0.21677946129E+03  0.78517270577E+02 0.  0.
      -24    2    3    3    0    0  0.82951459759E+02  0.80889086068E+00 -0.53797680147E+02  0.12842317647E+03  0.81955615340E+02 0.  0.
      -13    1    4    4    0    0  0.12302484855E+01  0.16095097634E+02 -0.32731559920E+01  0.16470556437E+02  0.00000000000E+00 0.  1.
       14    1    4    4    0    0 -0.84181708245E+02 -0.16903988495E+02 -0.18097334758E+03  0.20030890486E+03  0.00000000000E+00 0. -1.
        1    1    5    5  501    0  0.58851113271E+02  0.35001643386E+02 -0.52990580757E+02  0.86582736281E+02  0.00000000000E+00 0. -1.
       -2    1    5    5    0  501  0.24100346488E+02 -0.34192752525E+02 -0.80709939068E+00  0.41840440193E+02  0.00000000000E+00 0.  1.
</event>
<event>
 9   1  0.7570500E-01  0.2500003E+03  0.7546771E-02  0.1113305E+00
       21   -1    0    0  503  502  0.00000000000E+00  0.00000000000E+00  0.91882488348E+02  0.91882488348E+02  0.00000000000E+00 0. -1.
       21   -1    0    0  502  503 -0.00000000000E+00 -0.00000000000E+00 -0.17005452993E+03  0.17005452993E+03  0.00000000000E+00 0. -1.
       25    2    1    2    0    0  0.00000000000E+00  0.00000000000E+00 -0.78172041584E+02  0.26193701828E+03  0.25000026692E+03 0.  0.
       24    2    3    3    0    0  0.41273519185E+02  0.28050984269E+02  0.45638309296E+02  0.10618021122E+03  0.81859763474E+02 0.  0.
      -24    2    3    3    0    0 -0.41273519185E+02 -0.28050984269E+02 -0.12381035088E+03  0.15575680706E+03  0.80254712351E+02 0.  0.
      -13    1    4    4    0    0  0.39528008000E+02 -0.18141039643E+02  0.40918258817E+02  0.59714861135E+02  0.00000000000E+00 0.  1.
       14    1    4    4    0    0  0.17455111849E+01  0.46192023912E+02  0.47200504790E+01  0.46465350089E+02  0.00000000000E+00 0. -1.
        3    1    5    5  501    0 -0.47208033114E+02  0.76171460703E+01 -0.10414082644E+03  0.11459463790E+03  0.00000000000E+00 0. -1.
       -4    1    5    5    0  501  0.59345139294E+01 -0.35668130339E+02 -0.19669524440E+02  0.41162169151E+02  0.00000000000E+00 0.  1.
</event>
<event>
 9   1  0.7570500E-01  0.2499956E+03  0.7546771E-02  0.1113308E+00
       21   -1    0    0  503  502  0.00000000000E+00  0.00000000000E+00  0.28235075844E+03  0.28235075844E+03  0.00000000000E+00 0.  1.
       21   -1    0    0  502  503 -0.00000000000E+00 -0.00000000000E+00 -0.55337021293E+02  0.55337021293E+02  0.00000000000E+00 0.  1.
       25    2    1    2    0    0  0.35527136788E-14  0.00000000000E+00  0.22701373714E+03  0.33768777973E+03  0.24999559941E+03 0.  0.
       24    2    3    3    0    0 -0.20139754437E+02 -0.47702287872E+02  0.49157593623E+01  0.95972742115E+02  0.80656584121E+02 0.  0.
      -24    2    3    3    0    0  0.20139754437E+02  0.47702287872E+02  0.22209797778E+03  0.24171503761E+03  0.80109485686E+02 0.  0.
      -13    1    4    4    0    0 -0.15867766211E+02 -0.61839271870E+02  0.27072244219E+02  0.69345424917E+02  0.00000000000E+00 0.  1.
       14    1    4    4    0    0 -0.42719882263E+01  0.14136983998E+02 -0.22156484857E+02  0.26627317198E+02  0.00000000000E+00 0. -1.
        1    1    5    5  501    0  0.16089739372E+02 -0.22225922500E-01  0.17071245906E+03  0.17146901728E+03  0.00000000000E+00 0. -1.
       -2    1    5    5    0  501  0.40500150653E+01  0.47724513795E+02  0.51385518718E+02  0.70246020334E+02  0.00000000000E+00 0.  1.
</event>
<event>
 9   1  0.7570500E-01  0.2500027E+03  0.7546771E-02  0.1113303E+00
       21   -1    0    0  503  502  0.00000000000E+00  0.00000000000E+00  0.31314265229E+03  0.31314265229E+03  0.00000000000E+00 0.  1.
       21   -1    0    0  502  503 -0.00000000000E+00 -0.00000000000E+00 -0.49898473428E+02  0.49898473428E+02  0.00000000000E+00 0.  1.
       25    2    1    2    0    0  0.00000000000E+00  0.00000000000E+00  0.26324417887E+03  0.36304112572E+03  0.25000272250E+03 0.  0.
       24    2    3    3    0    0 -0.88352027399E+02 -0.36861247077E+02  0.12125981038E+03  0.17378187834E+03  0.79569889688E+02 0.  0.
      -24    2    3    3    0    0  0.88352027399E+02  0.36861247077E+02  0.14198436849E+03  0.18925924738E+03  0.80589512612E+02 0.  0.
      -13    1    4    4    0    0  0.12226641480E+02 -0.18555527491E+02  0.20180675905E+02  0.30017628859E+02  0.00000000000E+00 0.  1.
       14    1    4    4    0    0 -0.10057866888E+03 -0.18305719586E+02  0.10107913447E+03  0.14376424948E+03  0.00000000000E+00 0. -1.
        3    1    5    5  501    0  0.26588771475E+02  0.11309644504E+02  0.11259511346E+03  0.11624341014E+03  0.00000000000E+00 0. -1.
       -4    1    5    5    0  501  0.61763255924E+02  0.25551602573E+02  0.29389255032E+02  0.73015837239E+02  0.00000000000E+00 0.  1.
</event>
<event>
 9   1  0.7570500E-01  0.2500029E+03  0.7546771E-02  0.1113303E+00
       21   -1    0    0  503  502  0.00000000000E+00  0.00000000000E+00  0.33553076298E+03  0.33553076298E+03  0.00000000000E+00 0.  1.
       21   -1    0    0  502  503 -0.00000000000E+00 -0.00000000000E+00 -0.46569102449E+02  0.46569102449E+02  0.00000000000E+00 0.  1.
       25    2    1    2    0    0 -0.17763568394E-14  0.00000000000E+00  0.28896166053E+03  0.38209986542E+03  0.25000293179E+03 0.  0.
       24    2    3    3    0    0  0.72851154602E+01  0.62798553862E+02  0.25346533310E+03  0.27358031317E+03  0.81269806181E+02 0.  0.
      -24    2    3    3    0    0 -0.72851154602E+01 -0.62798553862E+02  0.35496327425E+02  0.10851955225E+03  0.80745109363E+02 0.  0.
      -13    1    4    4    0    0 -0.57418988692E+01 -0.18423505664E+02  0.68119021405E+02  0.70799689553E+02  0.00000000000E+00 0.  1.
       14    1    4    4    0    0  0.13027014329E+02  0.81222059526E+02  0.18534631170E+03  0.20278062362E+03  0.00000000000E+00 0. -1.
        3    1    5    5  501    0  0.11296746449E+02 -0.34131892915E+02  0.57549965313E+02  0.67857211126E+02  0.00000000000E+00 0. -1.
       -4    1    5    5    0  501 -0.18581861909E+02 -0.28666660947E+02 -0.22053637887E+02  0.40662341127E+02  0.00000000000E+00 0.  1.
</event>
<event>
 9   1  0.7570500E-01  0.2499972E+03  0.7546771E-02  0.1113307E+00
       21   -1    0    0  503  502  0.00000000000E+00  0.00000000000E+00  0.15048797292E+03  0.15048797292E+03  0.00000000000E+00 0.  1.
       21   -1    0    0  502  503 -0.00000000000E+00 -0.00000000000E+00 -0.10382659228E+03  0.10382659228E+03  0.00000000000E+00 0.  1.
       25    2    1    2    0    0  0.00000000000E+00  0.00000000000E+00  0.46661380643E+02  0.25431456519E+03  0.24999722724E+03 0.  0.
       24    2    3    3    0    0 -0.74776478495E+01  0.72892705044E+01 -0.72039078077E+02  0.10813755564E+03  0.79969078322E+02 0.  0.
      -24    2    3    3    0    0  0.74776478495E+01 -0.72892705044E+01  0.11870045872E+03  0.14617700955E+03  0.84669182942E+02 0.  0.
      -13    1    4    4    0    0 -0.29918065617E+02  0.23176996056E+02 -0.83337655323E+01  0.38751973426E+02  0.00000000000E+00 0.  1.
       14    1    4    4    0    0  0.22440417767E+02 -0.15887725552E+02 -0.63705312545E+02  0.69385582214E+02  0.00000000000E+00 0. -1.
        1    1    5    5  501    0 -0.29431061638E+02 -0.50850448052E+01  0.10218125246E+02  0.31566677896E+02  0.00000000000E+00 0. -1.
       -2    1    5    5    0  501  0.36908709488E+02 -0.22042256992E+01  0.10848233347E+03  0.11461033166E+03  0.00000000000E+00 0.  1.
</event>
<event>
 9   1  0.7570500E-01  0.2500080E+03  0.7546771E-02  0.1113300E+00
       21   -1    0    0  503  502  0.00000000000E+00  0.00000000000E+00  0.19107850671E+02  0.19107850671E+02  0.00000000000E+00 0. -1.
       21   -1    0    0  502  503 -0.00000000000E+00 -0.00000000000E+00 -0.81777928323E+03  0.81777928323E+03  0.00000000000E+00 0. -1.
       25    2    1    2    0    0  0.71054273576E-14  0.00000000000E+00 -0.79867143256E+03  0.83688713390E+03  0.25000803528E+03 0.  0.
       24    2    3    3    0    0  0.31287295625E+02  0.54525935578E+01 -0.70315491930E+03  0.70849275678E+03  0.80786881563E+02 0.  0.
      -24    2    3    3    0    0 -0.31287295625E+02 -0.54525935578E+01 -0.95516513260E+02  0.12839437712E+03  0.79706248983E+02 0.  0.
      -13    1    4    4    0    0  0.90931051263E+01  0.42221670147E+02 -0.39638768642E+03  0.39873368548E+03  0.00000000000E+00 0.  1.
       14    1    4    4    0    0  0.22194190499E+02 -0.36769076590E+02 -0.30676723288E+03  0.30975907130E+03  0.00000000000E+00 0. -1.
        1    1    5    5  501    0 -0.35540626588E+02  0.27375092587E+02 -0.80257664769E+02  0.91944682209E+02  0.00000000000E+00 0. -1.
       -2    1    5    5    0  501  0.42533309626E+01 -0.32827686144E+02 -0.15258848491E+02  0.36449694911E+02  0.00000000000E+00 0.  1.
</event>
<event>
 9   1  0.7570500E-01  0.2500030E+03  0.7546771E-02  0.1113303E+00
       21   -1    0    0  503  502  0.00000000000E+00  0.00000000000E+00  0.91430419593E+02  0.91430419593E+02  0.00000000000E+00 0.  1.
       21   -1    0    0  502  503 -0.00000000000E+00 -0.00000000000E+00 -0.17089912920E+03  0.17089912920E+03  0.00000000000E+00 0.  1.
       25    2    1    2    0    0  0.71054273576E-14  0.00000000000E+00 -0.79468709609E+02  0.26232954879E+03  0.25000303271E+03 0.  0.
       24    2    3    3    0    0  0.58794797393E+02  0.18216662242E+02 -0.11539129252E+03  0.15607281467E+03  0.85175689649E+02 0.  0.
      -24    2    3    3    0    0 -0.58794797393E+02 -0.18216662242E+02  0.35922582907E+02  0.10625673412E+03  0.78812350556E+02 0.  0.
      -13    1    4    4    0    0  0.14565426632E+02 -0.31061036307E+02 -0.19259369129E+02  0.39342889175E+02  0.00000000000E+00 0.  1.
       14    1    4    4    0    0  0.44229370761E+02  0.49277698549E+02 -0.96131923387E+02  0.11672992550E+03  0.00000000000E+00 0. -1.
        1    1    5    5  501    0 -0.51357281392E+01 -0.22741981898E+02 -0.18449625963E+02  0.29731500843E+02  0.00000000000E+00 0. -1.
       -2    1    5    5    0  501 -0.53659069254E+02  0.45253196567E+01  0.54372208870E+02  0.76525233280E+02  0.00000000000E+00 0.  1.
</event>
<event>
 9   1  0.7570500E-01  0.2500049E+03  0.7546771E-02  0.1113302E+00
       21   -1    0    0  503  502  0.00000000000E+00  0.00000000000E+00  0.96489542618E+02  0.96489542618E+02  0.00000000000E+00 0.  1.
       21   -1    0    0  502  503 -0.00000000000E+00 -0.00000000000E+00 -0.16194104660E+03  0.16194104660E+03  0.00000000000E+00 0.  1.
       25    2    1    2    0    0  0.00000000000E+00  0.00000000000E+00 -0.65451503980E+02  0.25843058922E+03  0.25000494009E+03 0.  0.
       24    2    3    3    0    0  0.22596042926E+01 -0.80385317201E+02 -0.10366094473E+02  0.11495893386E+03  0.81493530587E+02 0.  0.
      -24    2    3    3    0    0 -0.22596042926E+01  0.80385317201E+02 -0.55085409508E+02  0.14347165535E+03  0.10527491874E+03 0.  0.
      -13    1    4    4    0    0  0.36152096995E+02 -0.38401059648E+02 -0.25973547303E+02  0.58789800635E+02  0.00000000000E+00 0.  1.
       14    1    4    4    0    0 -0.33892492702E+02 -0.41984257553E+02  0.15607452830E+02  0.56169133229E+02  0.00000000000E+00 0. -1.
        1    1    5    5  501    0  0.24894379599E+02  0.51021841790E+02 -0.78689809974E+02  0.97031153085E+02  0.00000000000E+00 0. -1.
       -2    1    5    5    0  501 -0.27153983892E+02  0.29363475411E+02  0.23604400466E+02  0.46440502266E+02  0.00000000000E+00 0.  1.
</event>
<event>
 9   1  0.7570500E-01  0.2499976E+03  0.7546771E-02  0.1113306E+00
       21   -1    0    0  503  502  0.00000000000E+00  0.00000000000E+00  0.99861335911E+02  0.99861335911E+02  0.00000000000E+00 0. -1.
       21   -1    0    0  502  503 -0.00000000000E+00 -0.00000000000E+00 -0.15646400292E+03  0.15646400292E+03  0.00000000000E+00 0. -1.
       25    2    1    2    0    0  0.00000000000E+00  0.00000000000E+00 -0.56602667006E+02  0.25632533883E+03  0.24999763481E+03 0.  0.
       24    2    3    3    0    0  0.87907393925E+02 -0.36680307966E+02 -0.20654900280E+02  0.12658839188E+03  0.80776488871E+02 0.  0.
      -24    2    3    3    0    0 -0.87907393925E+02  0.36680307966E+02 -0.35947766726E+02  0.12973694695E+03  0.80413174116E+02 0.  0.
      -13    1    4    4    0    0  0.60476447632E+02  0.12217842964E+02 -0.31820487614E+02  0.69420600955E+02  0.00000000000E+00 0.  1.
       14    1    4    4    0    0  0.27430946292E+02 -0.48898150930E+02  0.11165587334E+02  0.57167790926E+02  0.00000000000E+00 0. -1.
        1    1    5    5  501    0 -0.49568134652E+02 -0.13330094307E+02 -0.42149108835E+02  0.66417157141E+02  0.00000000000E+00 0. -1.
       -2    1    5    5    0  501 -0.38339259273E+02  0.50010402273E+02  0.62013421091E+01  0.63319789805E+02  0.00000000000E+00 0.  1.
</event>
<event>
 9   1  0.7570500E-01  0.2499997E+03  0.7546771E-02  0.1113305E+00
       21   -1    0    0  503  502  0.00000000000E+00  0.00000000000E+00  0.42790478298E+03  0.42790478298E+03  0.00000000000E+00 0. -1.
       21   -1    0    0  502  503 -0.00000000000E+00 -0.00000000000E+00 -0.36515056526E+02  0.36515056526E+02  0.00000000000E+00 0. -1.
       25    2    1    2    0    0 -0.14210854715E-13 -0.35527136788E-14  0.39138972646E+03  0.46441983951E+03  0.24999973871E+03 0.  0.
       24    2    3    3    0    0 -0.85433692956E+02 -0.29414951383E+02  0.25084356387E+03  0.27872802375E+03  0.81256768508E+02 0.  0.
      -24    2    3    3    0    0  0.85433692956E+02  0.29414951383E+02  0.14054616259E+03  0.18569181576E+03  0.81018956838E+02 0.  0.
      -13    1    4    4    0    0 -0.34807628347E+02 -0.17622505703E+02  0.20723934238E+03  0.21087974945E+03  0.00000000000E+00 0.  1.
       14    1    4    4    0    0 -0.50626064609E+02 -0.11792445679E+02  0.43604221492E+02  0.67848274295E+02  0.00000000000E+00 0. -1.
        1    1    5    5  501    0  0.64617763704E+02  0.25819584238E+02  0.14779635482E+03  0.16335809993E+03  0.00000000000E+00 0. -1.
       -2    1    5    5    0  501  0.20815929251E+02  0.35953671447E+01 -0.72501922299E+01  0.22333715832E+02  0.00000000000E+00 0.  1.
</event>
<event>
 9   1  0.7570500E-01  0.2499891E+03  0.7546771E-02  0.1113312E+00
       21   -1    0    0  503  502  0.00000000000E+00  0.00000000000E+00  0.81120452324E+02  0.81120452324E+02  0.00000000000E+00 0.  1.
       21   -1    0    0  502  503 -0.00000000000E+00 -0.00000000000E+00 -0.19259793791E+03  0.19259793791E+03  0.00000000000E+00 0.  1.
       25    2    1    2    0    0  0.00000000000E+00 -0.14210854715E-13 -0.11147748559E+03  0.27371839024E+03  0.24998905448E+03 0.  0.
       24    2    3    3    0    0  0.20250423447E+02  0.55197263901E+02  0.28570689673E+02  0.10225198939E+03  0.78628032107E+02 0.  0.
      -24    2    3    3    0    0 -0.20250423447E+02 -0.55197263901E+02 -0.14004817526E+03  0.17146640085E+03  0.79563921690E+02 0.  0.
      -13    1    4    4    0    0  0.39393621466E+02  0.14689080351E+02  0.37765777754E+02  0.56514427035E+02  0.00000000000E+00 0.  1.
       14    1    4    4    0    0 -0.19143198019E+02  0.40508183550E+02 -0.91950880808E+01  0.45737562350E+02  0.00000000000E+00 0. -1.
        3    1    5    5  501    0  0.12578659728E+02 -0.40466522996E+02 -0.21382993024E+02  0.47465719784E+02  0.00000000000E+00 0. -1.
       -4    1    5    5    0  501 -0.32829083174E+02 -0.14730740905E+02 -0.11866518224E+03  0.12400068107E+03  0.00000000000E+00 0.  1.
</event>
<event>
 9   1  0.7570500E-01  0.2500149E+03  0.7546771E-02  0.1113295E+00
       21   -1    0    0  503  502  0.00000000000E+00  0.00000000000E+00  0.62083931331E+03  0.62083931331E+03  0.00000000000E+00 0. -1.
       21   -1    0    0  502  503 -0.00000000000E+00 -0.00000000000E+00 -0.25170536399E+02  0.25170536399E+02  0.00000000000E+00 0. -1.
       25    2    1    2    0    0 -0.71054273576E-14  0.00000000000E+00  0.59566877692E+03  0.64600984971E+03  0.25001486783E+03 0.  0.
       24    2    3    3    0    0 -0.34649363262E+02 -0.74956977479E+02  0.16768129283E+03  0.20290489346E+03  0.78957285782E+02 0.  0.
      -24    2    3    3    0    0  0.34649363262E+02  0.74956977479E+02  0.42798748409E+03  0.44310495625E+03  0.79684307584E+02 0.  0.
      -13    1    4    4    0    0 -0.10646495705E+02 -0.43760228099E+02  0.15521353628E+03  0.16161543020E+03  0.00000000000E+00 0.  1.
       14    1    4    4    0    0 -0.24002867557E+02 -0.31196749380E+02  0.12467756547E+02  0.41289463258E+02  0.00000000000E+00 0. -1.
        3    1    5    5  501    0 -0.20079268398E+02  0.51037794505E+02  0.19243686445E+03  0.20009992575E+03  0.00000000000E+00 0. -1.
       -4    1    5    5    0  501  0.54728631659E+02  0.23919182975E+02  0.23555061964E+03  0.24300503050E+03  0.00000000000E+00 0.  1.
</event>
<event>
 9   1  0.7570500E-01  0.2500002E+03  0.7546771E-02  0.1113305E+00
       21   -1    0    0  503  502  0.00000000000E+00  0.00000000000E+00  0.17000215818E+03  0.17000215818E+03  0.00000000000E+00 0.  1.
       21   -1    0    0  502  503 -0.00000000000E+00 -0.00000000000E+00 -0.91910712856E+02  0.91910712856E+02  0.00000000000E+00 0.  1.
       25    2    1    2    0    0  0.14210854715E-13  0.00000000000E+00  0.78091445329E+02  0.26191287104E+03  0.25000015637E+03 0.  0.
       24    2    3    3    0    0 -0.90378353499E+02 -0.18430547777E+02  0.42324614041E+02  0.13023649962E+03  0.81622552080E+02 0.  0.
      -24    2    3    3    0    0  0.90378353499E+02  0.18430547777E+02  0.35766831288E+02  0.13167637142E+03  0.86899186973E+02 0.  0.
      -13    1    4    4    0    0 -0.19545172459E+02  0.28536661600E+02 -0.14842820948E+01  0.34620195191E+02  0.00000000000E+00 0.  1.
       14    1    4    4    0    0 -0.70833181040E+02 -0.46967209376E+02  0.43808896136E+02  0.95616304433E+02  0.00000000000E+00 0. -1.
        3    1    5    5  501    0  0.18281400206E+02  0.46027161866E+02  0.14403415685E+02  0.51576812681E+02  0.00000000000E+00 0. -1.
       -4    1    5    5    0  501  0.72096953293E+02 -0.27596614090E+02  0.21363415603E+02  0.80099558735E+02  0.00000000000E+00 0.  1.
</event>
<event>
 9   1  0.7570500E-01  0.2499989E+03  0.7546771E-02  0.1113306E+00
       21   -1    0    0  503  502  0.00000000000E+00  0.00000000000E+00  0.90350449046E+03  0.90350449046E+03  0.00000000000E+00 0.  1.
       21   -1    0    0  502  503 -0.00000000000E+00 -0.00000000000E+00 -0.17293615271E+02  0.17293615271E+02  0.00000000000E+00 0.  1.
       25    2    1    2    0    0  0.00000000000E+00  0.00000000000E+00  0.88621087519E+03  0.92079810573E+03  0.24999887243E+03 0.  0.
       24    2    3    3    0    0 -0.85814901821E+02  0.21768963597E+02  0.63207341399E+03  0.64307969732E+03  0.78718557454E+02 0.  0.
      -24    2    3    3    0    0  0.85814901821E+02 -0.21768963597E+02  0.25413746120E+03  0.27771840841E+03  0.68582651102E+02 0.  0.
      -13    1    4    4    0    0 -0.27686650037E+02 -0.11492049807E+02  0.41082716510E+03  0.41191938214E+03  0.00000000000E+00 0.  1.
       14    1    4    4    0    0 -0.58128251784E+02  0.33261013405E+02  0.22124624889E+03  0.23116031519E+03  0.00000000000E+00 0. -1.
        1    1    5    5  501    0  0.20768844631E+02 -0.39442379221E+02  0.99447194014E+02  0.10898068904E+03  0.00000000000E+00 0. -1.
       -2    1    5    5    0  501  0.65046057190E+02  0.17673415624E+02  0.15469026719E+03  0.16873771937E+03  0.00000000000E+00 0.  1.
</event>
<event>
 9   1  0.7570500E-01  0.2500106E+03  0.7546771E-02  0.1113298E+00
       21   -1    0    0  503  502  0.00000000000E+00  0.00000000000E+00  0.46241065567E+03  0.46241065567E+03  0.00000000000E+00 0. -1.
       21   -1    0    0  502  503 -0.00000000000E+00 -0.00000000000E+00 -0.33793165936E+02  0.33793165936E+02  0.00000000000E+00 0. -1.
       25    2    1    2    0    0  0.00000000000E+00  0.00000000000E+00  0.42861748973E+03  0.49620382161E+03  0.25001055992E+03 0.  0.
       24    2    3    3    0    0  0.82097993057E+02 -0.33604169394E+02  0.28538269377E+03  0.30888233751E+03  0.78074937421E+02 0.  0.
      -24    2    3    3    0    0 -0.82097993057E+02  0.33604169394E+02  0.14323479596E+03  0.18732148410E+03  0.81876803592E+02 0.  0.
      -13    1    4    4    0    0  0.36997284194E+02 -0.56459981981E+02  0.15653009741E+03  0.17046465909E+03  0.00000000000E+00 0.  1.
       14    1    4    4    0    0  0.45100708863E+02  0.22855812586E+02  0.12885259636E+03  0.13841767841E+03  0.00000000000E+00 0. -1.
        3    1    5    5  501    0 -0.63157037823E+02 -0.16282366877E+02  0.95984830468E+02  0.11604746692E+03  0.00000000000E+00 0. -1.
       -4    1    5    5    0  501 -0.18940955234E+02  0.49886536271E+02  0.47249965493E+02  0.71274017183E+02  0.00000000000E+00 0.  1.
</event>
<event>
 9   1  0.7570500E-01  0.2500002E+03  0.7546771E-02  0.1113305E+00
       21   -1    0    0  503  502  0.00000000000E+00  0.00000000000E+00  0.12552088610E+03  0.12552088610E+03  0.00000000000E+00 0.  1.
       21   -1    0    0  502  503 -0.00000000000E+00 -0.00000000000E+00 -0.12448149101E+03  0.12448149101E+03  0.00000000000E+00 0.  1.
       25    2    1    2    0    0  0.00000000000E+00  0.00000000000E+00  0.10393950949E+01  0.25000237711E+03  0.25000021644E+03 0.  0.
       24    2    3    3    0    0 -0.18381841300E+02  0.73897181030E+02 -0.58880430722E+02  0.12409115218E+03  0.78313622524E+02 0.  0.
      -24    2    3    3    0    0  0.18381841300E+02 -0.73897181030E+02  0.59919825816E+02  0.12591122493E+03  0.80402522255E+02 0.  0.
      -13    1    4    4    0    0 -0.21144700193E+01  0.60865457184E+02 -0.75806718184E+02  0.97240595347E+02  0.00000000000E+00 0.  1.
       14    1    4    4    0    0 -0.16267371281E+02  0.13031723846E+02  0.16926287462E+02  0.26850556829E+02  0.00000000000E+00 0. -1.
        1    1    5    5  501    0 -0.10756801389E+02 -0.46709468314E+02 -0.65824859252E+01  0.48381942161E+02  0.00000000000E+00 0. -1.
       -2    1    5    5    0  501  0.29138642689E+02 -0.27187712716E+02  0.66502311742E+02  0.77529282774E+02  0.00000000000E+00 0.  1.
</event>
<event>
 9   1  0.7570500E-01  0.2500019E+03  0.7546771E-02  0.1113304E+00
       21   -1    0    0  503  502  0.00000000000E+00  0.00000000000E+00  0.11696728695E+03  0.11696728695E+03  0.00000000000E+00 0.  1.
       21   -1    0    0  502  503 -0.00000000000E+00 -0.00000000000E+00 -0.13358641054E+03  0.13358641054E+03  0.00000000000E+00 0.  1.
       25    2    1    2    0    0  0.00000000000E+00  0.00000000000E+00 -0.16619123594E+02  0.25055369749E+03  0.25000192011E+03 0.  0.
       24    2    3    3    0    0 -0.74857633586E+02  0.96226232773E+01 -0.68032288461E+02  0.12992299225E+03  0.80965001437E+02 0.  0.
      -24    2    3    3    0    0  0.74857633586E+02 -0.96226232773E+01  0.51413164868E+02  0.12063070524E+03  0.78817468496E+02 0.  0.
      -13    1    4    4    0    0 -0.71009888435E+02 -0.19434041238E+02 -0.68569901892E+02  0.10060774155E+03  0.00000000000E+00 0.  1.
       14    1    4    4    0    0 -0.38477451514E+01  0.29056664516E+02  0.53761343057E+00  0.29315250702E+02  0.00000000000E+00 0. -1.
        1    1    5    5  501    0 -0.97650145190E+01 -0.16055374004E+02  0.25924568589E+02  0.32018960000E+02  0.00000000000E+00 0. -1.
       -2    1    5    5    0  501  0.84622648105E+02  0.64327507266E+01  0.25488596279E+02  0.88611745240E+02  0.00000000000E+00 0.  1.
</event>
<event>
 9   1  0.7570500E-01  0.2500017E+03  0.7546771E-02  0.1113304E+00
       21   -1    0    0  503  502  0.00000000000E+00  0.00000000000E+00  0.74818655025E+02  0.74818655025E+02  0.00000000000E+00 0. -1.
       21   -1    0    0  502  503 -0.00000000000E+00 -0.00000000000E+00 -0.20884116035E+03  0.20884116035E+03  0.00000000000E+00 0. -1.
       25    2    1    2    0    0  0.00000000000E+00 -0.71054273576E-14 -0.13402250533E+03  0.28365981538E+03  0.25000171785E+03 0.  0.
       24    2    3    3    0    0 -0.69622728452E+02 -0.35263639520E+02  0.15125729330E+01  0.11217085169E+03  0.80555344349E+02 0.  0.
      -24    2    3    3    0    0  0.69622728452E+02  0.35263639520E+02 -0.13553507826E+03  0.17148896369E+03  0.70341016752E+02 0.  0.
      -13    1    4    4    0    0 -0.53162635825E+02 -0.61409634862E+02  0.24416974970E+01  0.81261128397E+02  0.00000000000E+00 0.  1.
       14    1    4    4    0    0 -0.16460092627E+02  0.26145995342E+02 -0.92912456398E+00  0.30909723295E+02  0.00000000000E+00 0. -1.
        3    1    5    5  501    0  0.59295352104E+02 -0.52415562401E+01 -0.10113595660E+03  0.11735371494E+03  0.00000000000E+00 0. -1.
       -4    1    5    5    0  501  0.10327376348E+02  0.40505195760E+02 -0.34399121663E+02  0.54135248748E+02  0.00000000000E+00 0.  1.
</event>
<event>
 9   1  0.7570500E-01  0.2499985E+03  0.7546771E-02  0.1113306E+00
       21   -1    0    0  503  502  0.00000000000E+00  0.00000000000E+00  0.20689383591E+03  0.20689383591E+03  0.00000000000E+00 0.  1.
       21   -1    0    0  502  503 -0.00000000000E+00 -0.00000000000E+00 -0.75520942667E+02  0.75520942667E+02  0.00000000000E+00 0.  1.
       25    2    1    2    0    0  0.71054273576E-14  0.00000000000E+00  0.13137289324E+03  0.28241477858E+03  0.24999854016E+03 0.  0.
       24    2    3    3    0    0  0.51496387738E+02 -0.64867380472E+02  0.11622275969E+03  0.16516141213E+03  0.83131866268E+02 0.  0.
      -24    2    3    3    0    0 -0.51496387738E+02  0.64867380472E+02  0.15150133555E+02  0.11725336644E+03  0.81603740087E+02 0.  0.
      -13    1    4    4    0    0 -0.16140149441E+02 -0.39061582801E+02  0.26539993401E+02  0.49906742276E+02  0.00000000000E+00 0.  1.
       14    1    4    4    0    0  0.67636537179E+02 -0.25805797671E+02  0.89682766289E+02  0.11525466986E+03  0.00000000000E+00 0. -1.
        1    1    5    5  501    0 -0.46633799641E+02  0.43246244124E+02  0.46553836079E+02  0.78817565006E+02  0.00000000000E+00 0. -1.
       -2    1    5    5    0  501 -0.48625880974E+01  0.21621136348E+02 -0.31403702523E+02  0.38435801438E+02  0.00000000000E+00 0.  1.
</event>
<event>
 9   1  0.7570500E-01  0.2499948E+03  0.7546771E-02  0.1113308E+00
       21   -1    0    0  503  502  0.00000000000E+00  0.00000000000E+00  0.93122602543E+02  0.93122602543E+02  0.00000000000E+00 0. -1.
       21   -1    0    0  502  503 -0.00000000000E+00 -0.00000000000E+00 -0.16778260766E+03  0.16778260766E+03  0.00000000000E+00 0. -1.
       25    2    1    2    0    0  0.00000000000E+00  0.00000000000E+00 -0.74660005117E+02  0.26090521020E+03  0.24999482464E+03 0.  0.
       24    2    3    3    0    0 -0.53659013504E+02 -0.70483141528E+02  0.59010626659E+01  0.11985692982E+03  0.80521414016E+02 0.  0.
      -24    2    3    3    0    0  0.53659013504E+02  0.70483141528E+02 -0.80561067783E+02  0.14104828039E+03  0.74547761787E+02 0.  0.
      -13    1    4    4    0    0  0.14327233581E+02  0.43273028347E+01  0.11103305840E+02  0.18635411787E+02  0.00000000000E+00 0.  1.
       14    1    4    4    0    0 -0.67986247085E+02 -0.74810444363E+02 -0.52022431738E+01  0.10122151803E+03  0.00000000000E+00 0. -1.
        3    1    5    5  501    0 -0.10081443308E+02  0.44842597744E+02 -0.22884246785E+02  0.51343771020E+02  0.00000000000E+00 0. -1.
       -4    1    5    5    0  501  0.63740456811E+02  0.25640543784E+02 -0.57676820998E+02  0.89704509365E+02  0.00000000000E+00 0.  1.
</event>
<event>
 9   1  0.7570500E-01  0.2500003E+03  0.7546771E-02  0.1113305E+00
       21   -1    0    0  503  502  0.00000000000E+00  0.00000000000E+00  0.23647720367E+03  0.23647720367E+03  0.00000000000E+00 0. -1.
       21   -1    0    0  502  503 -0.00000000000E+00 -0.00000000000E+00 -0.66074156369E+02  0.66074156369E+02  0.00000000000E+00 0. -1.
       25    2    1    2    0    0  0.00000000000E+00  0.71054273576E-14  0.17040304730E+03  0.30255136004E+03  0.25000025387E+03 0.  0.
       24    2    3    3    0    0 -0.84659011375E+02 -0.37874090322E+02  0.55546238950E+02  0.13460924115E+03  0.80203916461E+02 0.  0.
      -24    2    3    3    0    0  0.84659011375E+02  0.37874090322E+02  0.11485680835E+03  0.16794211890E+03  0.80067933342E+02 0.  0.
      -13    1    4    4    0    0 -0.37209277643E+02 -0.78804304144E+01 -0.18007614429E+02  0.42082130455E+02  0.00000000000E+00 0.  1.
       14    1    4    4    0    0 -0.47449733731E+02 -0.29993659908E+02  0.73553853379E+02  0.92527110691E+02  0.00000000000E+00 0. -1.
        1    1    5    5  501    0  0.17620604225E+02  0.50900910518E+02  0.44224091674E+02  0.69693318684E+02  0.00000000000E+00 0. -1.
       -2    1    5    5    0  501  0.67038407150E+02 -0.13026820196E+02  0.70632716681E+02  0.98248800213E+02  0.00000000000E+00 0.  1.
</event>
<event>
 9   1  0.7570500E-01  0.2500038E+03  0.7546771E-02  0.1113302E+00
       21   -1    0    0  503  502  0.00000000000E+00  0.00000000000E+00  0.44943795385E+02  0.44943795385E+02  0.00000000000E+00 0.  1.
       21   -1    0    0  502  503 -0.00000000000E+00 -0.00000000000E+00 -0.34766690725E+03  0.34766690725E+03  0.00000000000E+00 0.  1.
       25    2    1    2    0    0 -0.14210854715E-13  0.00000000000E+00 -0.30272311187E+03  0.39261070264E+03  0.25000376271E+03 0.  0.
       24    2    3    3    0    0 -0.86679314393E+02  0.43333607562E+02 -0.15962824546E+03  0.20296025867E+03  0.79502105417E+02 0.  0.
      -24    2    3    3    0    0  0.86679314393E+02 -0.43333607562E+02 -0.14309486641E+03  0.18965044396E+03  0.78102784934E+02 0.  0.
      -13    1    4    4    0    0 -0.82709400246E+02  0.61876233262E+01 -0.13422781764E+03  0.15778541948E+03  0.00000000000E+00 0.  1.
       14    1    4    4    0    0 -0.39699141468E+01  0.37145984236E+02 -0.25400427818E+02  0.45174839198E+02  0.00000000000E+00 0. -1.
        3    1    5    5  501    0  0.40727779290E+02 -0.45639273448E+02 -0.12690126062E+03  0.14087450172E+03  0.00000000000E+00 0. -1.
       -4    1    5    5    0  501  0.45951535102E+02  0.23056658856E+01 -0.16193605788E+02  0.48775942245E+02  0.00000000000E+00 0.  1.
</event>
<event>
 9   1  0.7570500E-01  0.2500011E+03  0.7546771E-02  0.1113304E+00
       21   -1    0    0  503  502  0.00000000000E+00  0.00000000000E+00  0.22220474868E+02  0.22220474868E+02  0.00000000000E+00 0.  1.
       21   -1    0    0  502  503 -0.00000000000E+00 -0.00000000000E+00 -0.70318621267E+03  0.70318621267E+03  0.00000000000E+00 0.  1.
       25    2    1    2    0    0  0.00000000000E+00 -0.88817841970E-15 -0.68096573780E+03  0.72540668753E+03  0.25000105253E+03 0.  0.
       24    2    3    3    0    0 -0.90233569880E+02 -0.64246465910E+01 -0.25336346422E+03  0.28082848063E+03  0.80549471219E+02 0.  0.
      -24    2    3    3    0    0  0.90233569880E+02  0.64246465910E+01 -0.42760227357E+03  0.44457820690E+03  0.81380000429E+02 0.  0.
      -13    1    4    4    0    0 -0.18663003905E+02  0.73447554007E+01 -0.32569737074E+01  0.20318981873E+02  0.00000000000E+00 0.  1.
       14    1    4    4    0    0 -0.71570565975E+02 -0.13769401992E+02 -0.25010649052E+03  0.26050949876E+03  0.00000000000E+00 0. -1.
        3    1    5    5  501    0  0.26548896585E+01  0.94958013400E+01 -0.20660909630E+03  0.20684423453E+03  0.00000000000E+00 0. -1.
       -4    1    5    5    0  501  0.87578680221E+02 -0.30711547489E+01 -0.22099317727E+03  0.23773397238E+03  0.00000000000E+00 0.  1.
</event>
<event>
 9   1  0.7570500E-01  0.2499970E+03  0.7546771E-02  0.1113307E+00
       21   -1    0    0  503  502  0.00000000000E+00  0.00000000000E+00  0.25290431396E+02  0.25290431396E+02  0.00000000000E+00 0.  1.
       21   -1    0    0  502  503 -0.00000000000E+00 -0.00000000000E+00 -0.61780757349E+03  0.61780757349E+03  0.00000000000E+00 0.  1.
       25    2    1    2    0    0 -0.71054273576E-14  0.00000000000E+00 -0.59251714210E+03  0.64309800489E+03  0.24999696041E+03 0.  0.
       24    2    3    3    0    0 -0.47301040765E+02  0.46100663125E+02 -0.47394414340E+03  0.48522259461E+03  0.80344605684E+02 0.  0.
      -24    2    3    3    0    0  0.47301040765E+02 -0.46100663125E+02 -0.11857299870E+03  0.15787541028E+03  0.80637643517E+02 0.  0.
      -13    1    4    4    0    0 -0.34651029568E+01  0.58178803837E+02 -0.24914837901E+03  0.25587437332E+03  0.00000000000E+00 0.  1.
       14    1    4    4    0    0 -0.43835937809E+02 -0.12078140713E+02 -0.22479576439E+03  0.22934822130E+03  0.00000000000E+00 0. -1.
        1    1    5    5  501    0  0.36704011341E+02  0.84802697900E+01 -0.84877980969E+02  0.92862107867E+02  0.00000000000E+00 0. -1.
       -2    1    5    5    0  501  0.10597029425E+02 -0.54580932915E+02 -0.33695017730E+02  0.65013302410E+02  0.00000000000E+00 0.  1.
</event>
<event>
 9   1  0.7570500E-01  0.2500156E+03  0.7546771E-02  0.1113295E+00
       21   -1    0    0  503  502  0.00000000000E+00  0.00000000000E+00  0.15479240954E+02  0.15479240954E+02  0.00000000000E+00 0.  1.
       21   -1    0    0  502  503 -0.00000000000E+00 -0.00000000000E+00 -0.10095426909E+04  0.10095426909E+04  0.00000000000E+00 0.  1.
       25    2    1    2    0    0  0.00000000000E+00  0.71054273576E-14 -0.99406344999E+03  0.10250219319E+04  0.25001563604E+03 0.  0.
       24    2    3    3    0    0  0.44474357222E+02  0.42755528021E+02 -0.17937943605E+03  0.20402134302E+03  0.75111401973E+02 0.  0.
      -24    2    3    3    0    0 -0.44474357222E+02 -0.42755528021E+02 -0.81468401394E+03  0.82100058887E+03  0.80783171083E+02 0.  0.
      -13    1    4    4    0    0  0.62785889141E+02  0.18261183691E+02 -0.13650032461E+03  0.15135348467E+03  0.00000000000E+00 0.  1.
       14    1    4    4    0    0 -0.18311531919E+02  0.24494344331E+02 -0.42879111439E+02  0.52667858350E+02  0.00000000000E+00 0. -1.
        1    1    5    5  501    0 -0.14915201135E+02 -0.16938485351E+01 -0.60901120362E+03  0.60919617406E+03  0.00000000000E+00 0. -1.
       -2    1    5    5    0  501 -0.29559156087E+02 -0.41061679486E+02 -0.20567281032E+03  0.21180441481E+03  0.00000000000E+00 0.  1.
</event>
<event>
 9   1  0.7570500E-01  0.2500361E+03  0.7546771E-02  0.1113282E+00
       21   -1    0    0  503  502  0.00000000000E+00  0.00000000000E+00  0.19108117730E+03  0.19108117730E+03  0.00000000000E+00 0. -1.
       21   -1    0    0  502  503 -0.00000000000E+00 -0.00000000000E+00 -0.81795122168E+02  0.81795122168E+02  0.00000000000E+00 0. -1.
       25    2    1    2    0    0  0.00000000000E+00  0.00000000000E+00  0.10928605513E+03  0.27287629946E+03  0.25003606333E+03 0.  0.
       24    2    3    3    0    0 -0.52108252641E+02 -0.27277716669E+02 -0.32339216472E+02  0.10396688890E+03  0.79397388151E+02 0.  0.
      -24    2    3    3    0    0  0.52108252641E+02  0.27277716669E+02  0.14162527160E+03  0.16890941057E+03  0.70804855777E+02 0.  0.
      -13    1    4    4    0    0 -0.58782050606E+02  0.65248762067E+01 -0.38660802636E+01  0.59269301156E+02  0.00000000000E+00 0.  1.
       14    1    4    4    0    0  0.66737979650E+01 -0.33802592876E+02 -0.28473136209E+02  0.44697587742E+02  0.00000000000E+00 0. -1.
        3    1    5    5  501    0  0.16331621702E+02  0.27617297843E+02  0.11705806187E+02  0.34153519673E+02  0.00000000000E+00 0. -1.
       -4    1    5    5    0  501  0.35776630939E+02 -0.33958117408E+00  0.12991946541E+03  0.13475589089E+03  0.00000000000E+00 0.  1.
</event>
<event>
 9   1  0.7570500E-01  0.2500206E+03  0.7546771E-02  0.1113292E+00
       21   -1    0    0  503  502  0.00000000000E+00  0.00000000000E+00  0.31591316657E+03  0.31591316657E+03  0.00000000000E+00 0. -1.
       21   -1    0    0  502  503 -0.00000000000E+00 -0.00000000000E+00 -0.49467947322E+02  0.49467947322E+02  0.00000000000E+00 0. -1.
       25    2    1    2    0    0  0.00000000000E+00  0.00000000000E+00  0.26644521925E+03  0.36538111390E+03  0.25002060621E+03 0.  0.
       24    2    3    3    0    0 -0.35544793869E+02  0.62168978892E+02  0.40768185153E+02  0.11543610013E+03  0.80839557053E+02 0.  0.
      -24    2    3    3    0    0  0.35544793869E+02 -0.62168978892E+02  0.22567703410E+03  0.24994501377E+03  0.80087276641E+02 0.  0.
      -13    1    4    4    0    0 -0.13934849424E+02  0.78570183067E+02  0.37308288195E+02  0.88087241208E+02  0.00000000000E+00 0.  1.
       14    1    4    4    0    0 -0.21609944445E+02 -0.16401204174E+02  0.34598969587E+01  0.27348858921E+02  0.00000000000E+00 0. -1.
        1    1    5    5  501    0  0.14530702106E+02  0.40511041649E+01  0.13951383123E+01  0.15149229669E+02  0.00000000000E+00 0. -1.
       -2    1    5    5    0  501  0.21014091763E+02 -0.66220083057E+02  0.22428189579E+03  0.23479578410E+03  0.00000000000E+00 0.  1.
</event>
<event>
 9   1  0.7570500E-01  0.2499998E+03  0.7546771E-02  0.1113305E+00
       21   -1    0    0  503  502  0.00000000000E+00  0.00000000000E+00  0.20287882175E+03  0.20287882175E+03  0.00000000000E+00 0.  1.
       21   -1    0    0  502  503 -0.00000000000E+00 -0.00000000000E+00 -0.77016287597E+02  0.77016287597E+02  0.00000000000E+00 0.  1.
       25    2    1    2    0    0  0.14210854715E-13  0.00000000000E+00  0.12586253416E+03  0.27989510935E+03  0.24999978947E+03 0.  0.
       24    2    3    3    0    0  0.66483274757E+02 -0.68159289013E+02  0.81113696264E+02  0.14753648739E+03  0.78242372723E+02 0.  0.
      -24    2    3    3    0    0 -0.66483274757E+02  0.68159289013E+02  0.44748837892E+02  0.13235862196E+03  0.80315825419E+02 0.  0.
      -13    1    4    4    0    0 -0.13073556555E+02 -0.31810218479E+02  0.13355275243E+02  0.36894054501E+02  0.00000000000E+00 0.  1.
       14    1    4    4    0    0  0.79556831311E+02 -0.36349070534E+02  0.67758421020E+02  0.11064243289E+03  0.00000000000E+00 0. -1.
        1    1    5    5  501    0 -0.73734346022E+02  0.21721821643E+02  0.34496809834E+02  0.84253315706E+02  0.00000000000E+00 0. -1.
       -2    1    5    5    0  501  0.72510712651E+01  0.46437467370E+02  0.10252028058E+02  0.48105306251E+02  0.00000000000E+00 0.  1.
</event>
<event>
 9   1  0.7570500E-01  0.2499983E+03  0.7546771E-02  0.1113306E+00
       21   -1    0    0  503  502  0.00000000000E+00  0.00000000000E+00  0.25252915445E+03  0.25252915445E+03  0.00000000000E+00 0. -1.
       21   -1    0    0  502  503 -0.00000000000E+00 -0.00000000000E+00 -0.61873222113E+02  0.61873222113E+02  0.00000000000E+00 0. -1.
       25    2    1    2    0    0  0.00000000000E+00  0.71054273576E-14  0.19065593233E+03  0.31440237656E+03  0.24999833970E+03 0.  0.
       24    2    3    3    0    0 -0.87999261689E+02  0.34857634100E+02  0.90035562017E+02  0.15379940736E+03  0.81172227787E+02 0.  0.
      -24    2    3    3    0    0  0.87999261689E+02 -0.34857634100E+02  0.10062037032E+03  0.16060296920E+03  0.81914162877E+02 0.  0.
      -13    1    4    4    0    0 -0.64543965275E+02  0.49344152600E+02  0.28035086729E+02  0.85946116475E+02  0.00000000000E+00 0.  1.
       14    1    4    4    0    0 -0.23455296414E+02 -0.14486518500E+02  0.62000475288E+02  0.67853290886E+02  0.00000000000E+00 0. -1.
        1    1    5    5  501    0  0.82899653608E+02 -0.75737253009E+01  0.36816019028E+02  0.91022706730E+02  0.00000000000E+00 0. -1.
       -2    1    5    5    0  501  0.50996080805E+01 -0.27283908799E+02  0.63804351288E+02  0.69580262469E+02  0.00000000000E+00 0.  1.
</event>
<event>
 9   1  0.7570500E-01  0.2500022E+03  0.7546771E-02  0.1113303E+00
       21   -1    0    0  503  502  0.00000000000E+00  0.00000000000E+00  0.19487204519E+04  0.19487204519E+04  0.00000000000E+00 0. -1.
       21   -1    0    0  502  503 -0.00000000000E+00 -0.00000000000E+00 -0.80182207757E+01  0.80182207757E+01  0.00000000000E+00 0. -1.
       25    2    1    2    0    0  0.00000000000E+00  0.00000000000E+00  0.19407022311E+04  0.19567386727E+04  0.25000216650E+03 0.  0.
       24    2    3    3    0    0  0.51234745404E+02  0.88831075018E+02  0.92608407223E+03  0.93321537464E+03  0.52376212201E+02 0.  0.
      -24    2    3    3    0    0 -0.51234745404E+02 -0.88831075018E+02  0.10146181589E+04  0.10235232980E+04  0.87372617187E+02 0.  0.
      -13    1    4    4    0    0  0.83460545824E+01  0.53265924428E+02  0.31347243583E+03  0.31807527939E+03  0.00000000000E+00 0.  1.
       14    1    4    4    0    0  0.42888690821E+02  0.35565150590E+02  0.61261163640E+03  0.61514009526E+03  0.00000000000E+00 0. -1.
        3    1    5    5  501    0 -0.20429358319E+02 -0.37385955308E+02  0.12849594825E+03  0.13537458052E+03  0.00000000000E+00 0. -1.
       -4    1    5    5    0  501 -0.30805387085E+02 -0.51445119710E+02  0.88612221063E+03  0.88814871749E+03  0.00000000000E+00 0.  1.
</event>
<event>
 9   1  0.7570500E-01  0.2500048E+03  0.7546771E-02  0.1113302E+00
       21   -1    0    0  503  502  0.00000000000E+00  0.00000000000E+00  0.34893923430E+03  0.34893923430E+03  0.00000000000E+00 0. -1.
       21   -1    0    0  502  503 -0.00000000000E+00 -0.00000000000E+00 -0.44780283639E+02  0.44780283639E+02  0.00000000000E+00 0. -1.
       25    2    1    2    0    0  0.00000000000E+00  0.00000000000E+00  0.30415895066E+03  0.39371951794E+03  0.25000478303E+03 0.  0.
       24    2    3    3    0    0  0.60420897919E+02 -0.14713321112E+02  0.37300557028E+02  0.11022591458E+03  0.83013577005E+02 0.  0.
      -24    2    3    3    0    0 -0.60420897919E+02  0.14713321112E+02  0.26685839364E+03  0.28349360336E+03  0.72719008304E+02 0.  0.
      -13    1    4    4    0    0  0.72591585571E+02 -0.25744316207E+02  0.47877406260E+02  0.90689327613E+02  0.00000000000E+00 0.  1.
       14    1    4    4    0    0 -0.12170687652E+02  0.11030995095E+02 -0.10576849231E+02  0.19536586969E+02  0.00000000000E+00 0. -1.
        1    1    5    5  501    0 -0.35066596708E+02 -0.24315898822E+01  0.24063587708E+03  0.24318964651E+03  0.00000000000E+00 0. -1.
       -2    1    5    5    0  501 -0.25354301210E+02  0.17144910994E+02  0.26222516557E+02  0.40303956846E+02  0.00000000000E+00 0.  1.
</event>
<event>
 9   1  0.7570500E-01  0.2500061E+03  0.7546771E-02  0.1113301E+00
       21   -1    0    0  503  502  0.00000000000E+00  0.00000000000E+00  0.14787821839E+04  0.14787821839E+04  0.00000000000E+00 0. -1.
       21   -1    0    0  502  503 -0.00000000000E+00 -0.00000000000E+00 -0.10566641511E+02  0.10566641511E+02  0.00000000000E+00 0. -1.
       25    2    1    2    0    0 -0.14210854715E-13 -0.35527136788E-14  0.14682155424E+04  0.14893488254E+04  0.25000608961E+03 0.  0.
       24    2    3    3    0    0 -0.92865658828E+02 -0.19004311220E+02  0.73222942548E+03  0.74270148496E+03  0.80376425557E+02 0.  0.
      -24    2    3    3    0    0  0.92865658828E+02  0.19004311220E+02  0.73598611694E+03  0.74664734049E+03  0.82592325852E+02 0.  0.
      -13    1    4    4    0    0 -0.68100221389E+02 -0.48229995570E+02  0.56576390069E+03  0.57188509681E+03  0.00000000000E+00 0.  1.
       14    1    4    4    0    0 -0.24765437439E+02  0.29225684351E+02  0.16646552479E+03  0.17081638815E+03  0.00000000000E+00 0. -1.
        3    1    5    5  501    0  0.90339318989E+01 -0.18790236472E+02  0.31717881503E+03  0.31786331279E+03  0.00000000000E+00 0. -1.
       -4    1    5    5    0  501  0.83831726929E+02  0.37794547692E+02  0.41880730191E+03  0.42878402770E+03  0.00000000000E+00 0.  1.
</event>
<event>
 9   1  0.7570500E-01  0.2499922E+03  0.7546771E-02  0.1113310E+00
       21   -1    0    0  503  502  0.00000000000E+00  0.00000000000E+00  0.46927205548E+03  0.46927205548E+03  0.00000000000E+00 0. -1.
       21   -1    0    0  502  503 -0.00000000000E+00 -0.00000000000E+00 -0.33294176620E+02  0.33294176620E+02  0.00000000000E+00 0. -1.
       25    2    1    2    0    0  0.00000000000E+00 -0.14210854715E-13  0.43597787886E+03  0.50256623210E+03  0.24999221346E+03 0.  0.
       24    2    3    3    0    0 -0.46372096509E+02 -0.75603630002E+02  0.14851530991E+03  0.19095719523E+03  0.80879990915E+02 0.  0.
      -24    2    3    3    0    0  0.46372096509E+02  0.75603630002E+02  0.28746256895E+03  0.31160903686E+03  0.81235356243E+02 0.  0.
      -13    1    4    4    0    0  0.12178580916E+02 -0.56937032305E+02  0.64945735533E+02  0.87224377583E+02  0.00000000000E+00 0.  1.
       14    1    4    4    0    0 -0.58550677425E+02 -0.18666597697E+02  0.83569574373E+02  0.10373281765E+03  0.00000000000E+00 0. -1.
        1    1    5    5  501    0  0.16162537710E+02  0.51472496891E+02  0.59201761947E+02  0.80096780079E+02  0.00000000000E+00 0. -1.
       -2    1    5    5    0  501  0.30209558799E+02  0.24131133111E+02  0.22826080700E+03  0.23151225678E+03  0.00000000000E+00 0.  1.
</event>
<event>
 9   1  0.7570500E-01  0.2500022E+03  0.7546771E-02  0.1113303E+00
       21   -1    0    0  503  502  0.00000000000E+00  0.00000000000E+00  0.68830162979E+02  0.68830162979E+02  0.00000000000E+00 0.  1.
       21   -1    0    0  502  503 -0.00000000000E+00 -0.00000000000E+00 -0.22701208716E+03  0.22701208716E+03  0.00000000000E+00 0.  1.
       25    2    1    2    0    0 -0.14210854715E-13 -0.14210854715E-13 -0.15818192418E+03  0.29584225014E+03  0.25000223165E+03 0.  0.
       24    2    3    3    0    0  0.66207455634E+02  0.65673617566E+02 -0.99646376049E+02  0.15865516803E+03  0.80904949512E+02 0.  0.
      -24    2    3    3    0    0 -0.66207455634E+02 -0.65673617566E+02 -0.58535548131E+02  0.13718708211E+03  0.81837851133E+02 0.  0.
      -13    1    4    4    0    0  0.53760165274E+02  0.27002040828E+01 -0.22620806713E+02  0.58387904302E+02  0.00000000000E+00 0.  1.
       14    1    4    4    0    0  0.12447290360E+02  0.62973413483E+02 -0.77025569336E+02  0.10026726372E+03  0.00000000000E+00 0. -1.
        3    1    5    5  501    0  0.14568516266E+02 -0.34391396167E+02 -0.15121288180E+02  0.40294703780E+02  0.00000000000E+00 0. -1.
       -4    1    5    5    0  501 -0.80775971900E+02 -0.31282221400E+02 -0.43414259951E+02  0.96892378334E+02  0.00000000000E+00 0.  1.
</event>
<event>
 9   1  0.7570500E-01  0.2499992E+03  0.7546771E-02  0.1113305E+00
       21   -1    0    0  503  502  0.00000000000E+00  0.00000000000E+00  0.32041553532E+03  0.32041553532E+03  0.00000000000E+00 0. -1.
       21   -1    0    0  502  503 -0.00000000000E+00 -0.00000000000E+00 -0.48764470097E+02  0.48764470097E+02  0.00000000000E+00 0. -1.
       25    2    1    2    0    0  0.71054273576E-14  0.00000000000E+00  0.27165106522E+03  0.36918000542E+03  0.24999915033E+03 0.  0.
       24    2    3    3    0    0  0.60211227058E+02  0.17590189460E+02  0.29629913477E+02  0.10655923425E+03  0.80883447019E+02 0.  0.
      -24    2    3    3    0    0 -0.60211227058E+02 -0.17590189460E+02  0.24202115175E+03  0.26262077117E+03  0.80378012718E+02 0.  0.
      -13    1    4    4    0    0  0.35538169433E+02 -0.25714484112E+02  0.35424223916E+02  0.56383258330E+02  0.00000000000E+00 0.  1.
       14    1    4    4    0    0  0.24673057625E+02  0.43304673573E+02 -0.57943104398E+01  0.50175975918E+02  0.00000000000E+00 0. -1.
        1    1    5    5  501    0 -0.58023528883E+01 -0.39238723319E+02  0.13401549433E+03  0.13976228900E+03  0.00000000000E+00 0. -1.
       -2    1    5    5    0  501 -0.54408874169E+02  0.21648533858E+02  0.10800565742E+03  0.12285848217E+03  0.00000000000E+00 0.  1.
</event>
<event>
 9   1  0.7570500E-01  0.2499999E+03  0.7546771E-02  0.1113305E+00
       21   -1    0    0  503  502  0.00000000000E+00  0.00000000000E+00  0.19234637847E+03  0.19234637847E+03  0.00000000000E+00 0.  1.
       21   -1    0    0  502  503 -0.00000000000E+00 -0.00000000000E+00 -0.81233591337E+02  0.81233591337E+02  0.00000000000E+00 0.  1.
       25    2    1    2    0    0  0.00000000000E+00  0.00000000000E+00  0.11111278713E+03  0.27357996980E+03  0.24999989683E+03 0.  0.
       24    2    3    3    0    0  0.68095553368E+02  0.34747642720E+02  0.11347583362E+03  0.15883423412E+03  0.80666883218E+02 0.  0.
      -24    2    3    3    0    0 -0.68095553368E+02 -0.34747642720E+02 -0.23630464910E+01  0.11474573569E+03  0.85537107776E+02 0.  0.
      -13    1    4    4    0    0  0.44731615525E+02 -0.21232447424E+02  0.61473974692E+02  0.78935314122E+02  0.00000000000E+00 0.  1.
       14    1    4    4    0    0  0.23363937843E+02  0.55980090145E+02  0.52001858929E+02  0.79898919994E+02  0.00000000000E+00 0. -1.
        3    1    5    5  501    0 -0.55954270236E+02  0.65359687084E+01  0.27179825613E+02  0.62548718332E+02  0.00000000000E+00 0. -1.
       -4    1    5    5    0  501 -0.12141283131E+02 -0.41283611429E+02 -0.29542872104E+02  0.52197017355E+02  0.00000000000E+00 0.  1.
</event>
<event>
 9   1  0.7570500E-01  0.2499962E+03  0.7546771E-02  0.1113307E+00
       21   -1    0    0  503  502  0.00000000000E+00  0.00000000000E+00  0.38844807348E+03  0.38844807348E+03  0.00000000000E+00 0. -1.
       21   -1    0    0  502  503 -0.00000000000E+00 -0.00000000000E+00 -0.40222946095E+02  0.40222946095E+02  0.00000000000E+00 0. -1.
       25    2    1    2    0    0  0.00000000000E+00  0.00000000000E+00  0.34822512739E+03  0.42867101958E+03  0.24999620733E+03 0.  0.
       24    2    3    3    0    0 -0.88490537516E+02  0.16547915257E+02  0.20416472979E+03  0.23714299090E+03  0.80306615627E+02 0.  0.
      -24    2    3    3    0    0  0.88490537516E+02 -0.16547915257E+02  0.14406039760E+03  0.19152802868E+03  0.88460041172E+02 0.  0.
      -13    1    4    4    0    0 -0.55460190840E+02 -0.73570992865E+01  0.42070035905E+02  0.69998911413E+02  0.00000000000E+00 0.  1.
       14    1    4    4    0    0 -0.33030346676E+02  0.23905014543E+02  0.16209469389E+03  0.16714407949E+03  0.00000000000E+00 0. -1.
        3    1    5    5  501    0  0.65310218404E+02  0.12772596846E+01  0.26681677830E+02  0.70561802359E+02  0.00000000000E+00 0. -1.
       -4    1    5    5    0  501  0.23180319112E+02 -0.17825174941E+02  0.11737871977E+03  0.12096622632E+03  0.00000000000E+00 0.  1.
</event>
<event>
 9   1  0.7570500E-01  0.2500292E+03  0.7546771E-02  0.1113286E+00
       21   -1    0    0  503  502  0.00000000000E+00  0.00000000000E+00  0.12598847908E+03  0.12598847908E+03  0.00000000000E+00 0.  1.
       21   -1    0    0  502  503 -0.00000000000E+00 -0.00000000000E+00 -0.12404829561E+03  0.12404829561E+03  0.00000000000E+00 0.  1.
       25    2    1    2    0    0 -0.35527136788E-14 -0.71054273576E-14  0.19401834641E+01  0.25003677469E+03  0.25002924706E+03 0.  0.
       24    2    3    3    0    0  0.25519078294E+02  0.57217223457E+02 -0.72446252161E+02  0.12463571902E+03  0.79753175395E+02 0.  0.
      -24    2    3    3    0    0 -0.25519078294E+02 -0.57217223457E+02  0.74386435625E+02  0.12540105568E+03  0.79164695050E+02 0.  0.
      -13    1    4    4    0    0 -0.60166577545E+01 -0.18455480004E+02 -0.12778251927E+02  0.23239807121E+02  0.00000000000E+00 0.  1.
       14    1    4    4    0    0  0.31535736049E+02  0.75672703462E+02 -0.59668000234E+02  0.10139591190E+03  0.00000000000E+00 0. -1.
        3    1    5    5  501    0  0.14906812215E+02 -0.41252304172E+02  0.58596103983E+01  0.44252691262E+02  0.00000000000E+00 0. -1.
       -4    1    5    5    0  501 -0.40425890510E+02 -0.15964919285E+02  0.68526825227E+02  0.81148364413E+02  0.00000000000E+00 0.  1.
</event>
<event>
 9   1  0.7570500E-01  0.2500009E+03  0.7546771E-02  0.1113304E+00
       21   -1    0    0  503  502  0.00000000000E+00  0.00000000000E+00  0.53065693857E+02  0.53065693857E+02  0.00000000000E+00 0.  1.
       21   -1    0    0  502  503 -0.00000000000E+00 -0.00000000000E+00 -0.29444838185E+03  0.29444838185E+03  0.00000000000E+00 0.  1.
       25    2    1    2    0    0 -0.14210854715E-13 -0.35527136788E-14 -0.24138268800E+03  0.34751407571E+03  0.25000086150E+03 0.  0.
       24    2    3    3    0    0  0.62989868929E+02  0.23032649979E+02 -0.21866721778E+03  0.24098614355E+03  0.75899556625E+02 0.  0.
      -24    2    3    3    0    0 -0.62989868929E+02 -0.23032649979E+02 -0.22715470213E+02  0.10652793216E+03  0.79586312838E+02 0.  0.
      -13    1    4    4    0    0  0.39520672765E+02  0.26644633260E+02 -0.21057143743E+03  0.21589847224E+03  0.00000000000E+00 0.  1.
       14    1    4    4    0    0  0.23469196164E+02 -0.36119832813E+01 -0.80957803565E+01  0.25087671303E+02  0.00000000000E+00 0. -1.
        1    1    5    5  501    0 -0.70108201689E+02  0.83197176990E+01 -0.23380181721E+02  0.74370764040E+02  0.00000000000E+00 0. -1.
       -2    1    5    5    0  501  0.71183327599E+01 -0.31352367678E+02  0.66471150770E+00  0.32157168123E+02  0.00000000000E+00 0.  1.
</event>
<event>
 9   1  0.7570500E-01  0.2499909E+03  0.7546771E-02  0.1113311E+00
       21   -1    0    0  503  502  0.00000000000E+00  0.00000000000E+00  0.87112915730E+03  0.87112915730E+03  0.00000000000E+00 0.  1.
       21   -1    0    0  502  503 -0.00000000000E+00 -0.00000000000E+00 -0.17935186630E+02  0.17935186630E+02  0.00000000000E+00 0.  1.
       25    2    1    2    0    0  0.00000000000E+00  0.14210854715E-13  0.85319397067E+03  0.88906434393E+03  0.24999091195E+03 0.  0.
       24    2    3    3    0    0 -0.63393123478E+00  0.90391280572E+02  0.31387692370E+03  0.33646459761E+03  0.80738570320E+02 0.  0.
      -24    2    3    3    0    0  0.63393123478E+00 -0.90391280572E+02  0.53931704697E+03  0.55259974632E+03  0.79577741952E+02 0.  0.
      -13    1    4    4    0    0 -0.31775116903E+02  0.25348586340E+02  0.59465018612E+02  0.72029836333E+02  0.00000000000E+00 0.  1.
       14    1    4    4    0    0  0.31141185669E+02  0.65042694232E+02  0.25441190509E+03  0.26443476127E+03  0.00000000000E+00 0. -1.
        1    1    5    5  501    0  0.23685029763E+02 -0.55383624712E+02  0.15981204750E+03  0.17078705175E+03  0.00000000000E+00 0. -1.
       -2    1    5    5    0  501 -0.23051098528E+02 -0.35007655860E+02  0.37950499947E+03  0.38181269457E+03  0.00000000000E+00 0.  1.
</event>
<event>
 9   1  0.7570500E-01  0.2500082E+03  0.7546771E-02  0.1113300E+00
       21   -1    0    0  503  502  0.00000000000E+00  0.00000000000E+00  0.34241926590E+03  0.34241926590E+03  0.00000000000E+00 0. -1.
       21   -1    0    0  502  503 -0.00000000000E+00 -0.00000000000E+00 -0.45634189100E+02  0.45634189100E+02  0.00000000000E+00 0. -1.
       25    2    1    2    0    0  0.00000000000E+00  0.00000000000E+00  0.29678507680E+03  0.38805345500E+03  0.25000820412E+03 0.  0.
       24    2    3    3    0    0  0.10751531404E+02 -0.93155657715E+02  0.18002714013E+03  0.21856859547E+03  0.81048675213E+02 0.  0.
      -24    2    3    3    0    0 -0.10751531404E+02  0.93155657715E+02  0.11675793668E+03  0.16948485953E+03  0.79367057654E+02 0.  0.
      -13    1    4    4    0    0  0.27827332027E+02 -0.31200001566E+02  0.13165267577E+03  0.13813119685E+03  0.00000000000E+00 0.  1.
       14    1    4    4    0    0 -0.17075800623E+02 -0.61955656149E+02  0.48374464353E+02  0.80437398622E+02  0.00000000000E+00 0. -1.
        1    1    5    5  501    0  0.93118216176E+00  0.72226171732E+00 -0.11166485110E+02  0.11228497314E+02  0.00000000000E+00 0. -1.
       -2    1    5    5    0  501 -0.11682713566E+02  0.92433395998E+02  0.12792442179E+03  0.15825636222E+03  0.00000000000E+00 0.  1.
</event>
<event>
 9   1  0.7570500E-01  0.2500019E+03  0.7546771E-02  0.1113304E+00
       21   -1    0    0  503  502  0.00000000000E+00  0.00000000000E+00  0.12351537669E+02  0.12351537669E+02  0.00000000000E+00 0. -1.
       21   -1    0    0  502  503 -0.00000000000E+00 -0.00000000000E+00 -0.12650437954E+04  0.12650437954E+04  0.00000000000E+00 0. -1.
       25    2    1    2    0    0  0.14210854715E-13 -0.71054273576E-14 -0.12526922577E+04  0.12773953330E+04  0.25000188872E+03 0.  0.
       24    2    3    3    0    0 -0.73437692264E+02  0.50292311046E+02 -0.43415879582E+03  0.45057283356E+03  0.81237966244E+02 0.  0.
      -24    2    3    3    0    0  0.73437692264E+02 -0.50292311046E+02 -0.81853346187E+03  0.82682249947E+03  0.75604273884E+02 0.  0.
      -13    1    4    4    0    0 -0.80111083868E+02  0.45830343332E+02 -0.43267505090E+03  0.44240920628E+03  0.00000000000E+00 0.  1.
       14    1    4    4    0    0  0.66733916045E+01  0.44619677137E+01 -0.14837449179E+01  0.81636272800E+01  0.00000000000E+00 0. -1.
        1    1    5    5  501    0  0.71271541817E+02 -0.23869023537E+02 -0.37281032373E+03  0.38031158336E+03  0.00000000000E+00 0. -1.
       -2    1    5    5    0  501  0.21661504469E+01 -0.26423287509E+02 -0.44572313814E+03  0.44651091611E+03  0.00000000000E+00 0.  1.
</event>
<event>
 9   1  0.7570500E-01  0.2499983E+03  0.7546771E-02  0.1113306E+00
       21   -1    0    0  503  502  0.00000000000E+00  0.00000000000E+00  0.17529492403E+02  0.17529492403E+02  0.00000000000E+00 0. -1.
       21   -1    0    0  502  503 -0.00000000000E+00 -0.00000000000E+00 -0.89134307423E+03  0.89134307423E+03  0.00000000000E+00 0. -1.
       25    2    1    2    0    0  0.71054273576E-14  0.00000000000E+00 -0.87381358182E+03  0.90887256663E+03  0.24999833318E+03 0.  0.
       24    2    3    3    0    0 -0.49960642988E+02 -0.63820975400E+02 -0.53304431489E+03  0.54512558128E+03  0.80352193410E+02 0.  0.
      -24    2    3    3    0    0  0.49960642988E+02  0.63820975400E+02 -0.34076926693E+03  0.36374698535E+03  0.98076466658E+02 0.  0.
      -13    1    4    4    0    0  0.13451995525E+02 -0.95412585076E+01 -0.23032419485E+02  0.28328151102E+02  0.00000000000E+00 0.  1.
       14    1    4    4    0    0 -0.63412638514E+02 -0.54279716892E+02 -0.51001189540E+03  0.51679743018E+03  0.00000000000E+00 0. -1.
        1    1    5    5  501    0  0.73502692880E+02  0.41287363463E+02 -0.16839550813E+03  0.18831977963E+03  0.00000000000E+00 0. -1.
       -2    1    5    5    0  501 -0.23542049891E+02  0.22533611937E+02 -0.17237375881E+03  0.17542720572E+03  0.00000000000E+00 0.  1.
</event>
<event>
 9   1  0.7570500E-01  0.2500079E+03  0.7546771E-02  0.1113300E+00
       21   -1    0    0  503  502  0.00000000000E+00  0.00000000000E+00  0.98757097093E+01  0.98757097093E+01  0.00000000000E+00 0. -1.
       21   -1    0    0  502  503 -0.00000000000E+00 -0.00000000000E+00 -0.15822653180E+04  0.15822653180E+04  0.00000000000E+00 0. -1.
       25    2    1    2    0    0  0.00000000000E+00 -0.53290705182E-14 -0.15723896083E+04  0.15921410278E+04  0.25000794359E+03 0.  0.
       24    2    3    3    0    0  0.59843497221E+02 -0.11550121933E+02 -0.12458825266E+04  0.12499535394E+04  0.80286555832E+02 0.  0.
      -24    2    3    3    0    0 -0.59843497221E+02  0.11550121933E+02 -0.32650708176E+03  0.34218748840E+03  0.82284587258E+02 0.  0.
      -13    1    4    4    0    0  0.42289446326E+02 -0.44709768097E+02 -0.88108786992E+03  0.88323450745E+03  0.00000000000E+00 0.  1.
       14    1    4    4    0    0  0.17554050895E+02  0.33159646164E+02 -0.36479465666E+03  0.36671903191E+03  0.00000000000E+00 0. -1.
        1    1    5    5  501    0 -0.59467178094E+02 -0.10344155152E+02 -0.30694847287E+03  0.31282696785E+03  0.00000000000E+00 0. -1.
       -2    1    5    5    0  501 -0.37631912684E+00  0.21894277085E+02 -0.19558608889E+02  0.29360520548E+02  0.00000000000E+00 0.  1.
</event>
<event>
 9   1  0.7570500E-01  0.2499992E+03  0.7546771E-02  0.1113305E+00
       21   -1    0    0  503  502  0.00000000000E+00  0.00000000000E+00  0.50466054523E+02  0.50466054523E+02  0.00000000000E+00 0.  1.
       21   -1    0    0  502  503 -0.00000000000E+00 -0.00000000000E+00 -0.30961217546E+03  0.30961217546E+03  0.00000000000E+00 0.  1.
       25    2    1    2    0    0 -0.71054273576E-14 -0.28421709430E-13 -0.25914612093E+03  0.36007822998E+03  0.24999923942E+03 0.  0.
       24    2    3    3    0    0 -0.58810816182E+02  0.70606412605E+02 -0.10504327980E+03  0.16348676691E+03  0.85146078721E+02 0.  0.
      -24    2    3    3    0    0  0.58810816182E+02 -0.70606412605E+02 -0.15410284113E+03  0.19659146307E+03  0.80352598630E+02 0.  0.
      -13    1    4    4    0    0  0.24773878397E+01 -0.14558636227E+02  0.34536370399E+00  0.14771953676E+02  0.00000000000E+00 0.  1.
       14    1    4    4    0    0 -0.61288204022E+02  0.85165048832E+02 -0.10538864350E+03  0.14871481323E+03  0.00000000000E+00 0. -1.
        1    1    5    5  501    0  0.37128052395E+02 -0.80622374657E+02 -0.82763364664E+02  0.12135993614E+03  0.00000000000E+00 0. -1.
       -2    1    5    5    0  501  0.21682763787E+02  0.10015962052E+02 -0.71339476470E+02  0.75231526931E+02  0.00000000000E+00 0.  1.
</event>
<event>
 9   1  0.7570500E-01  0.2499442E+03  0.7546771E-02  0.1113340E+00
       21   -1    0    0  503  502  0.00000000000E+00  0.00000000000E+00  0.82111198459E+01  0.82111198459E+01  0.00000000000E+00 0. -1.
       21   -1    0    0  502  503 -0.00000000000E+00 -0.00000000000E+00 -0.19020585965E+04  0.19020585965E+04  0.00000000000E+00 0. -1.
       25    2    1    2    0    0 -0.71054273576E-14  0.00000000000E+00 -0.18938474766E+04  0.19102697163E+04  0.24994424250E+03 0.  0.
       24    2    3    3    0    0 -0.46039299758E+02  0.69325120561E+02 -0.57897037532E+03  0.59032408266E+03  0.79688378116E+02 0.  0.
      -24    2    3    3    0    0  0.46039299758E+02 -0.69325120561E+02 -0.13148771013E+04  0.13199456337E+04  0.80181636375E+02 0.  0.
      -13    1    4    4    0    0 -0.67542492883E+02  0.63856480250E+02 -0.45827837110E+03  0.46760956345E+03  0.00000000000E+00 0.  1.
       14    1    4    4    0    0  0.21503193125E+02  0.54686403102E+01 -0.12069200422E+03  0.12271451921E+03  0.00000000000E+00 0. -1.
        3    1    5    5  501    0  0.21348316719E+02 -0.84086629436E+02 -0.10024247828E+04  0.10061718327E+04  0.00000000000E+00 0. -1.
       -4    1    5    5    0  501  0.24690983039E+02  0.14761508875E+02 -0.31245231855E+03  0.31377380093E+03  0.00000000000E+00 0.  1.
</event>
<event>
 9   1  0.7570500E-01  0.2500017E+03  0.7546771E-02  0.1113304E+00
       21   -1    0    0  503  502  0.00000000000E+00  0.00000000000E+00  0.24703257829E+03  0.24703257829E+03  0.00000000000E+00 0.  1.
       21   -1    0    0  502  503 -0.00000000000E+00 -0.00000000000E+00 -0.63251643284E+02  0.63251643284E+02  0.00000000000E+00 0.  1.
       25    2    1    2    0    0  0.00000000000E+00  0.17763568394E-14  0.18378093501E+03  0.31028422158E+03  0.25000173217E+03 0.  0.
       24    2    3    3    0    0 -0.86891110481E+02  0.12447325693E+02  0.48472795182E+02  0.12929595060E+03  0.81626159845E+02 0.  0.
      -24    2    3    3    0    0  0.86891110481E+02 -0.12447325693E+02  0.13530813983E+03  0.18098827098E+03  0.82118576036E+02 0.  0.
      -13    1    4    4    0    0  0.14299376297E+00 -0.24666358314E+02  0.15329419479E+02  0.29042051946E+02  0.00000000000E+00 0.  1.
       14    1    4    4    0    0 -0.87034104244E+02  0.37113684007E+02  0.33143375703E+02  0.10025389865E+03  0.00000000000E+00 0. -1.
        1    1    5    5  501    0 -0.42456522127E+01 -0.25988205326E+02  0.43959094660E+02  0.51242700769E+02  0.00000000000E+00 0. -1.
       -2    1    5    5    0  501  0.91136762694E+02  0.13540879634E+02  0.91349045166E+02  0.12974557021E+03  0.00000000000E+00 0.  1.
</event>
<event>
 9   1  0.7570500E-01  0.2499876E+03  0.7546771E-02  0.1113313E+00
       21   -1    0    0  503  502  0.00000000000E+00  0.00000000000E+00  0.38102083464E+03  0.38102083464E+03  0.00000000000E+00 0.  1.
       21   -1    0    0  502  503 -0.00000000000E+00 -0.00000000000E+00 -0.41004172159E+02  0.41004172159E+02  0.00000000000E+00 0.  1.
       25    2    1    2    0    0 -0.14210854715E-13  0.00000000000E+00  0.34001666248E+03  0.42202500680E+03  0.24998755089E+03 0.  0.
       24    2    3    3    0    0  0.54348346723E+02 -0.59039092203E+02  0.78974731104E+02  0.13744982264E+03  0.78842173939E+02 0.  0.
      -24    2    3    3    0    0 -0.54348346723E+02  0.59039092203E+02  0.26104193138E+03  0.28457518416E+03  0.80004926732E+02 0.  0.
      -13    1    4    4    0    0 -0.15287985139E+02 -0.14323134393E+02 -0.27647175600E+01  0.21130980376E+02  0.00000000000E+00 0.  1.
       14    1    4    4    0    0  0.69636331862E+02 -0.44715957810E+02  0.81739448664E+02  0.11631884227E+03  0.00000000000E+00 0. -1.
        1    1    5    5  501    0 -0.47901145724E+02  0.74912898947E+01  0.19284116868E+03  0.19884253952E+03  0.00000000000E+00 0. -1.
       -2    1    5    5    0  501 -0.64472009989E+01  0.51547802309E+02  0.68200762695E+02  0.85732644633E+02  0.00000000000E+00 0.  1.
</event>
<event>
 9   1  0.7570500E-01  0.2500000E+03  0.7546771E-02  0.1113305E+00
       21   -1    0    0  503  502  0.00000000000E+00  0.00000000000E+00  0.23134062867E+03  0.23134062867E+03  0.00000000000E+00 0.  1.
       21   -1    0    0  502  503 -0.00000000000E+00 -0.00000000000E+00 -0.67541105505E+02  0.67541105505E+02  0.00000000000E+00 0.  1.
       25    2    1    2    0    0 -0.71054273576E-14  0.71054273576E-14  0.16379952317E+03  0.29888173418E+03  0.25000001447E+03 0.  0.
       24    2    3    3    0    0  0.47384026573E+02 -0.19304140620E+02  0.17685616641E+03  0.20195305444E+03  0.83000221572E+02 0.  0.
      -24    2    3    3    0    0 -0.47384026573E+02  0.19304140620E+02 -0.13056643244E+02  0.96928679736E+02  0.81282207175E+02 0.  0.
      -13    1    4    4    0    0  0.46729142115E+02  0.23665692346E+02  0.11775274803E+03  0.12887741224E+03  0.00000000000E+00 0.  1.
       14    1    4    4    0    0  0.65488445780E+00 -0.42969832966E+02  0.59103418382E+02  0.73075642202E+02  0.00000000000E+00 0. -1.
        1    1    5    5  501    0 -0.37636765331E+02  0.34431728690E+02  0.23514659933E+02  0.56169469260E+02  0.00000000000E+00 0. -1.
       -2    1    5    5    0  501 -0.97472612415E+01 -0.15127588070E+02 -0.36571303177E+02  0.40759210476E+02  0.00000000000E+00 0.  1.
</event>
<event>
 9   1  0.7570500E-01  0.2500011E+03  0.7546771E-02  0.1113304E+00
       21   -1    0    0  503  502  0.00000000000E+00  0.00000000000E+00  0.19771166042E+02  0.19771166042E+02  0.00000000000E+00 0.  1.
       21   -1    0    0  502  503 -0.00000000000E+00 -0.00000000000E+00 -0.79029903898E+03  0.79029903898E+03  0.00000000000E+00 0.  1.
       25    2    1    2    0    0 -0.35527136788E-14  0.00000000000E+00 -0.77052787294E+03  0.81007020502E+03  0.25000106818E+03 0.  0.
       24    2    3    3    0    0  0.10986503230E+02 -0.77108922723E+02 -0.20294008909E+03  0.23153910479E+03  0.79744517498E+02 0.  0.
      -24    2    3    3    0    0 -0.10986503230E+02  0.77108922723E+02 -0.56758778384E+03  0.57853110023E+03  0.80472680732E+02 0.  0.
      -13    1    4    4    0    0  0.23929541179E+02 -0.43601649470E+01 -0.11075848968E+03  0.11339787042E+03  0.00000000000E+00 0.  1.
       14    1    4    4    0    0 -0.12943037949E+02 -0.72748757776E+02 -0.92181599414E+02  0.11814123438E+03  0.00000000000E+00 0. -1.
        3    1    5    5  501    0  0.52491955423E+01  0.75253647205E+02 -0.54732876209E+03  0.55250288622E+03  0.00000000000E+00 0. -1.
       -4    1    5    5    0  501 -0.16235698772E+02  0.18552755177E+01 -0.20259021749E+02  0.26028214002E+02  0.00000000000E+00 0.  1.
</event>
<event>
 9   1  0.7570500E-01  0.2500005E+03  0.7546771E-02  0.1113304E+00
       21   -1    0    0  503  502  0.00000000000E+00  0.00000000000E+00  0.45344499705E+02  0.45344499705E+02  0.00000000000E+00 0.  1.
       21   -1    0    0  502  503 -0.00000000000E+00 -0.00000000000E+00 -0.34458564558E+03  0.34458564558E+03  0.00000000000E+00 0.  1.
       25    2    1    2    0    0  0.00000000000E+00 -0.71054273576E-14 -0.29924114588E+03  0.38993014529E+03  0.25000050963E+03 0.  0.
       24    2    3    3    0    0 -0.34672641824E+01 -0.48590964993E-02 -0.29610837891E+03  0.30697968065E+03  0.80897035344E+02 0.  0.
      -24    2    3    3    0    0  0.34672641824E+01  0.48590964993E-02 -0.31327669675E+01  0.82950464636E+02  0.82818738278E+02 0.  0.
      -13    1    4    4    0    0 -0.95166907864E+01  0.38219081227E+02 -0.10865568183E+03  0.11557388445E+03  0.00000000000E+00 0.  1.
       14    1    4    4    0    0  0.60494266040E+01 -0.38223940323E+02 -0.18745269708E+03  0.19140579620E+03  0.00000000000E+00 0. -1.
        3    1    5    5  501    0 -0.70342995808E+01  0.39255312346E+02  0.83135998702E+01  0.40737904472E+02  0.00000000000E+00 0. -1.
       -4    1    5    5    0  501  0.10501563763E+02 -0.39250453250E+02 -0.11446366838E+02  0.42212560164E+02  0.00000000000E+00 0.  1.
</event>
<event>
 9   1  0.7570500E-01  0.2499802E+03  0.7546771E-02  0.1113317E+00
       21   -1    0    0  503  502  0.00000000000E+00  0.00000000000E+00  0.32225677056E+02  0.32225677056E+02  0.00000000000E+00 0. -1.
       21   -1    0    0  502  503 -0.00000000000E+00 -0.00000000000E+00 -0.48478491856E+03  0.48478491856E+03  0.00000000000E+00 0. -1.
       25    2    1    2    0    0 -0.71054273576E-14  0.00000000000E+00 -0.45255924150E+03  0.51701059561E+03  0.24998017703E+03 0.  0.
       24    2    3    3    0    0 -0.63808174508E+02 -0.28517145553E+02 -0.87029930081E+02  0.13710279330E+03  0.79613167738E+02 0.  0.
      -24    2    3    3    0    0  0.63808174508E+02  0.28517145553E+02 -0.36552931142E+03  0.37990780231E+03  0.76377680144E+02 0.  0.
      -13    1    4    4    0    0 -0.78473516892E+02 -0.56533841828E+01 -0.62069856909E+02  0.10021337607E+03  0.00000000000E+00 0.  1.
       14    1    4    4    0    0  0.14665342385E+02 -0.22863761370E+02 -0.24960073172E+02  0.36889417236E+02  0.00000000000E+00 0. -1.
        1    1    5    5  501    0  0.45191922144E+01  0.41208227539E+02 -0.18042574816E+03  0.18512696106E+03  0.00000000000E+00 0. -1.
       -2    1    5    5    0  501  0.59288982293E+02 -0.12691081986E+02 -0.18510356326E+03  0.19478084124E+03  0.00000000000E+00 0.  1.
</event>
<event>
 9   1  0.7570500E-01  0.2500002E+03  0.7546771E-02  0.1113305E+00
       21   -1    0    0  503  502  0.00000000000E+00  0.00000000000E+00  0.24265398391E+03  0.24265398391E+03  0.00000000000E+00 0. -1.
       21   -1    0    0  502  503 -0.00000000000E+00 -0.00000000000E+00 -0.64392214335E+02  0.64392214335E+02  0.00000000000E+00 0. -1.
       25    2    1    2    0    0  0.71054273576E-14  0.00000000000E+00  0.17826176957E+03  0.30704619824E+03  0.25000021873E+03 0.  0.
       24    2    3    3    0    0 -0.36810651127E+02  0.49488360001E+02 -0.22944687378E+01  0.10041623576E+03  0.79208800056E+02 0.  0.
      -24    2    3    3    0    0  0.36810651127E+02 -0.49488360001E+02  0.18055623831E+03  0.20662996248E+03  0.79317491067E+02 0.  0.
      -13    1    4    4    0    0 -0.82723901084E+01  0.34030106299E+02 -0.38329660566E+02  0.51919586400E+02  0.00000000000E+00 0.  1.
       14    1    4    4    0    0 -0.28538261018E+02  0.15458253701E+02  0.36035191828E+02  0.48496649364E+02  0.00000000000E+00 0. -1.
        1    1    5    5  501    0 -0.27751571421E+01 -0.38181491345E+02  0.25009958811E+02  0.45727735766E+02  0.00000000000E+00 0. -1.
       -2    1    5    5    0  501  0.39585808269E+02 -0.11306868656E+02  0.15554627950E+03  0.16090222671E+03  0.00000000000E+00 0.  1.
</event>
<event>
 9   1  0.7570500E-01  0.2500016E+03  0.7546771E-02  0.1113304E+00
       21   -1    0    0  503  502  0.00000000000E+00  0.00000000000E+00  0.57819329514E+02  0.57819329514E+02  0.00000000000E+00 0.  1.
       21   -1    0    0  502  503 -0.00000000000E+00 -0.00000000000E+00 -0.27024171197E+03  0.27024171197E+03  0.00000000000E+00 0.  1.
       25    2    1    2    0    0 -0.71054273576E-14  0.00000000000E+00 -0.21242238246E+03  0.32806104149E+03  0.25000155674E+03 0.  0.
       24    2    3    3    0    0  0.52214435589E+02  0.34277919493E+02 -0.19655787316E+03  0.22095325710E+03  0.79271818910E+02 0.  0.
      -24    2    3    3    0    0 -0.52214435589E+02 -0.34277919493E+02 -0.15864509297E+02  0.10710778438E+03  0.85551573754E+02 0.  0.
      -13    1    4    4    0    0 -0.10200857909E+02  0.34853804312E+02 -0.95515992012E+02  0.10218683823E+03  0.00000000000E+00 0.  1.
       14    1    4    4    0    0  0.62415293498E+02 -0.57588481856E+00 -0.10104188115E+03  0.11876641887E+03  0.00000000000E+00 0. -1.
        3    1    5    5  501    0 -0.51078870458E+02  0.31291344409E+01 -0.37897465922E+02  0.63679356255E+02  0.00000000000E+00 0. -1.
       -4    1    5    5    0  501 -0.11355651306E+01 -0.37407053934E+02  0.22032956625E+02  0.43428428130E+02  0.00000000000E+00 0.  1.
</event>
<event>
 9   1  0.7570500E-01  0.2499987E+03  0.7546771E-02  0.1113306E+00
       21   -1    0    0  503  502  0.00000000000E+00  0.00000000000E+00  0.70399539709E+02  0.70399539709E+02  0.00000000000E+00 0. -1.
       21   -1    0    0  502  503 -0.00000000000E+00 -0.00000000000E+00 -0.22194524045E+03  0.22194524045E+03  0.00000000000E+00 0. -1.
       25    2    1    2    0    0 -0.17763568394E-14  0.00000000000E+00 -0.15154570074E+03  0.29234478016E+03  0.24999874215E+03 0.  0.
       24    2    3    3    0    0 -0.12825955871E+02  0.76881574659E+02 -0.13845293527E+03  0.17920976046E+03  0.82895363531E+02 0.  0.
      -24    2    3    3    0    0  0.12825955871E+02 -0.76881574659E+02 -0.13092765479E+02  0.11313501970E+03  0.80949555334E+02 0.  0.
      -13    1    4    4    0    0  0.33017299210E+02  0.18636962154E+02 -0.62371727823E+02  0.72991169583E+02  0.00000000000E+00 0.  1.
       14    1    4    4    0    0 -0.45843255081E+02  0.58244612505E+02 -0.76081207442E+02  0.10621859088E+03  0.00000000000E+00 0. -1.
        1    1    5    5  501    0  0.84366657679E+01 -0.25325516601E+02 -0.45017197613E+02  0.52336480597E+02  0.00000000000E+00 0. -1.
       -2    1    5    5    0  501  0.43892901032E+01 -0.51556058058E+02  0.31924432134E+02  0.60798539104E+02  0.00000000000E+00 0.  1.
</event>
<event>
 9   1  0.7570500E-01  0.2500001E+03  0.7546771E-02  0.1113305E+00
       21   -1    0    0  503  502  0.00000000000E+00  0.00000000000E+00  0.13553844987E+04  0.13553844987E+04  0.00000000000E+00 0. -1.
       21   -1    0    0  502  503 -0.00000000000E+00 -0.00000000000E+00 -0.11528105993E+02  0.11528105993E+02  0.00000000000E+00 0. -1.
       25    2    1    2    0    0  0.14210854715E-13  0.35527136788E-14  0.13438563927E+04  0.13669126047E+04  0.25000012930E+03 0.  0.
       24    2    3    3    0    0 -0.78302469497E+02 -0.81414492888E+01  0.96691747834E+03  0.97338235083E+03  0.79663235402E+02 0.  0.
      -24    2    3    3    0    0  0.78302469497E+02  0.81414492888E+01  0.37693891436E+03  0.39353025385E+03  0.81151436280E+02 0.  0.
      -13    1    4    4    0    0 -0.49348596068E+02 -0.16951629786E+02  0.23003616270E+03  0.23587979531E+03  0.00000000000E+00 0.  1.
       14    1    4    4    0    0 -0.28953873429E+02  0.88101804969E+01  0.73688131564E+03  0.73750255553E+03  0.00000000000E+00 0. -1.
        3    1    5    5  501    0  0.59716537017E+02  0.31986205141E+02  0.33529089090E+03  0.34206602233E+03  0.00000000000E+00 0. -1.
       -4    1    5    5    0  501  0.18585932480E+02 -0.23844755852E+02  0.41648023464E+02  0.51464231523E+02  0.00000000000E+00 0.  1.
</event>
<event>
 9   1  0.7570500E-01  0.2499929E+03  0.7546771E-02  0.1113309E+00
       21   -1    0    0  503  502  0.00000000000E+00  0.00000000000E+00  0.12005757201E+03  0.12005757201E+03  0.00000000000E+00 0. -1.
       21   -1    0    0  502  503 -0.00000000000E+00 -0.00000000000E+00 -0.13013850623E+03  0.13013850623E+03  0.00000000000E+00 0. -1.
       25    2    1    2    0    0  0.00000000000E+00  0.71054273576E-14 -0.10080934217E+02  0.25019607823E+03  0.24999290456E+03 0.  0.
       24    2    3    3    0    0 -0.58442231397E+01  0.10651407280E+02  0.82892208644E+02  0.12609140192E+03  0.94235428391E+02 0.  0.
      -24    2    3    3    0    0  0.58442231397E+01 -0.10651407280E+02 -0.92973142861E+02  0.12410467631E+03  0.81304107935E+02 0.  0.
      -13    1    4    4    0    0  0.62293049542E+01 -0.36739946401E+02  0.10477087289E+02  0.38709136645E+02  0.00000000000E+00 0.  1.
       14    1    4    4    0    0 -0.12073528094E+02  0.47391353681E+02  0.72415121356E+02  0.87382265279E+02  0.00000000000E+00 0. -1.
        3    1    5    5  501    0  0.94417233573E+01 -0.43588374408E+02 -0.32621571625E+02  0.55256306959E+02  0.00000000000E+00 0. -1.
       -4    1    5    5    0  501 -0.35975002176E+01  0.32936967128E+02 -0.60351571236E+02  0.68848369350E+02  0.00000000000E+00 0.  1.
</event>
<event>
 9   1  0.7570500E-01  0.2499894E+03  0.7546771E-02  0.1113311E+00
       21   -1    0    0  503  502  0.00000000000E+00  0.00000000000E+00  0.21228720393E+03  0.21228720393E+03  0.00000000000E+00 0.  1.
       21   -1    0    0  502  503 -0.00000000000E+00 -0.00000000000E+00 -0.73596898837E+02  0.73596898837E+02  0.00000000000E+00 0.  1.
       25    2    1    2    0    0  0.00000000000E+00  0.00000000000E+00  0.13869030510E+03  0.28588410277E+03  0.24998943876E+03 0.  0.
       24    2    3    3    0    0  0.93100097782E+02  0.22413757612E+02  0.74987601224E+02  0.14528339547E+03  0.79461436713E+02 0.  0.
      -24    2    3    3    0    0 -0.93100097782E+02 -0.22413757612E+02  0.63702703872E+02  0.14060070730E+03  0.80873479434E+02 0.  0.
      -13    1    4    4    0    0 -0.81372257758E+01 -0.20756960118E+01 -0.83854311131E+01  0.11867536063E+02  0.00000000000E+00 0.  1.
       14    1    4    4    0    0  0.10123732356E+03  0.24489453624E+02  0.83373032337E+02  0.13341585941E+03  0.00000000000E+00 0. -1.
        3    1    5    5  501    0 -0.89309850098E+02 -0.60609947793E+01  0.17188978583E+02  0.91150677271E+02  0.00000000000E+00 0. -1.
       -4    1    5    5    0  501 -0.37902476836E+01 -0.16352762833E+02  0.46513725288E+02  0.49450030030E+02  0.00000000000E+00 0.  1.
</event>
<event>
 8   1  0.7570500E-01  0.2498960E+03  0.7546771E-02  0.1113371E+00
       21   -1    0    0  503  502  0.00000000000E+00  0.00000000000E+00  0.21708447733E+02  0.21708447733E+02  0.00000000000E+00 0. -1.
       21   -1    0    0  502  503 -0.00000000000E+00 -0.00000000000E+00 -0.71916701386E+03  0.71916701386E+03  0.00000000000E+00 0. -1.
       24    2    1    2    0    0 -0.16497627102E+02  0.94611773122E+02 -0.36196562327E+03  0.38269252284E+03  0.78809233536E+02 0.  0.
      -24    2    1    2    0    0  0.16497627102E+02 -0.94611773122E+02 -0.33549294285E+03  0.35818293876E+03  0.80721394921E+02 0.  0.
      -13    1    3    3    0    0 -0.39835159198E+02  0.73577862726E+02 -0.18611205191E+03  0.20405449678E+03  0.00000000000E+00 0.  1.
       14    1    3    3    0    0  0.23337532096E+02  0.21033910397E+02 -0.17585357136E+03  0.17863802605E+03  0.00000000000E+00 0. -1.
        1    1    4    4  501    0 -0.85601788523E+01 -0.76091253397E+02 -0.13433075654E+03  0.15462182142E+03  0.00000000000E+00 0. -1.
       -2    1    4    4    0  501  0.25057805954E+02 -0.18520519725E+02 -0.20116218631E+03  0.20356111734E+03  0.00000000000E+00 0.  1.
</event>
<event>
 9   1  0.7570500E-01  0.2499981E+03  0.7546771E-02  0.1113306E+00
       21   -1    0    0  503  502  0.00000000000E+00  0.00000000000E+00  0.24335854223E+02  0.24335854223E+02  0.00000000000E+00 0.  1.
       21   -1    0    0  502  503 -0.00000000000E+00 -0.00000000000E+00 -0.64204722510E+03  0.64204722510E+03  0.00000000000E+00 0.  1.
       25    2    1    2    0    0  0.00000000000E+00  0.00000000000E+00 -0.61771137088E+03  0.66638307932E+03  0.24999814139E+03 0.  0.
       24    2    3    3    0    0 -0.90114392395E+02  0.77127130840E+00 -0.23448624133E+03  0.26504124549E+03  0.84509560755E+02 0.  0.
      -24    2    3    3    0    0  0.90114392395E+02 -0.77127130840E+00 -0.38322512955E+03  0.40134183384E+03  0.78054910779E+02 0.  0.
      -13    1    4    4    0    0 -0.73378621876E+02 -0.24798456094E+02 -0.96646278453E+02  0.12385430437E+03  0.00000000000E+00 0.  1.
       14    1    4    4    0    0 -0.16735770519E+02  0.25569727403E+02 -0.13783996288E+03  0.14118694111E+03  0.00000000000E+00 0. -1.
        3    1    5    5  501    0  0.55624495921E+01  0.40604322813E+01  0.17954517279E+01  0.71169939359E+01  0.00000000000E+00 0. -1.
       -4    1    5    5    0  501  0.84551942803E+02 -0.48317035897E+01 -0.38502058127E+03  0.39422483990E+03  0.00000000000E+00 0.  1.
</event>
<event>
 9   1  0.7570500E-01  0.2500088E+03  0.7546771E-02  0.1113299E+00
       21   -1    0    0  503  502  0.00000000000E+00  0.00000000000E+00  0.41565146926E+02  0.41565146926E+02  0.00000000000E+00 0.  1.
       21   -1    0    0  502  503 -0.00000000000E+00 -0.00000000000E+00 -0.37594227500E+03  0.37594227500E+03  0.00000000000E+00 0.  1.
       25    2    1    2    0    0  0.00000000000E+00 -0.35527136788E-14 -0.33437712807E+03  0.41750742193E+03  0.25000876702E+03 0.  0.
       24    2    3    3    0    0  0.90429999776E+02  0.30278267006E+02 -0.15714237180E+03  0.20065626848E+03  0.80466482161E+02 0.  0.
      -24    2    3    3    0    0 -0.90429999776E+02 -0.30278267006E+02 -0.17723475627E+03  0.21685115345E+03  0.80733546986E+02 0.  0.
      -13    1    4    4    0    0  0.48993535329E+02  0.55611977616E+02 -0.11230510803E+03  0.13455666408E+03  0.00000000000E+00 0.  1.
       14    1    4    4    0    0  0.41436464447E+02 -0.25333710610E+02 -0.44837263775E+02  0.66099604401E+02  0.00000000000E+00 0. -1.
        1    1    5    5  501    0 -0.72608728476E+02  0.14381898976E+02 -0.84087231857E+02  0.11202468045E+03  0.00000000000E+00 0. -1.
       -2    1    5    5    0  501 -0.17821271300E+02 -0.44660165982E+02 -0.93147524416E+02  0.10482647300E+03  0.00000000000E+00 0.  1.
</event>
<event>
 9   1  0.7570500E-01  0.2500008E+03  0.7546771E-02  0.1113304E+00
       21   -1    0    0  503  502  0.00000000000E+00  0.00000000000E+00  0.19105343322E+03  0.19105343322E+03  0.00000000000E+00 0. -1.
       21   -1    0    0  502  503 -0.00000000000E+00 -0.00000000000E+00 -0.81783894240E+02  0.81783894240E+02  0.00000000000E+00 0. -1.
       25    2    1    2    0    0  0.14210854715E-13 -0.88817841970E-15  0.10926953898E+03  0.27283732746E+03  0.25000075022E+03 0.  0.
       24    2    3    3    0    0 -0.86860249634E+02  0.45290261291E+01  0.13181936180E+02  0.12062509207E+03  0.82531414332E+02 0.  0.
      -24    2    3    3    0    0  0.86860249634E+02 -0.45290261291E+01  0.96087602805E+02  0.15221223539E+03  0.79815550781E+02 0.  0.
      -13    1    4    4    0    0 -0.63316923553E+02 -0.25658363582E+02  0.34788752005E+02  0.76665779172E+02  0.00000000000E+00 0.  1.
       14    1    4    4    0    0 -0.23543326081E+02  0.30187389712E+02 -0.21606815825E+02  0.43959312900E+02  0.00000000000E+00 0. -1.
        1    1    5    5  501    0  0.47365701251E+01 -0.12071041790E+02  0.61383983709E+02  0.62738653177E+02  0.00000000000E+00 0. -1.
       -2    1    5    5    0  501  0.82123679509E+02  0.75420156605E+01  0.34703619095E+02  0.89473582216E+02  0.00000000000E+00 0.  1.
</event>
<event>
 9   1  0.7570500E-01  0.2499914E+03  0.7546771E-02  0.1113310E+00
       21   -1    0    0  503  502  0.00000000000E+00  0.00000000000E+00  0.52516384798E+02  0.52516384798E+02  0.00000000000E+00 0.  1.
       21   -1    0    0  502  503 -0.00000000000E+00 -0.00000000000E+00 -0.29750561074E+03  0.29750561074E+03  0.00000000000E+00 0.  1.
       25    2    1    2    0    0  0.00000000000E+00  0.00000000000E+00 -0.24498922594E+03  0.35002199554E+03  0.24999135292E+03 0.  0.
       24    2    3    3    0    0  0.41842871517E+02  0.53355352898E+02 -0.27942621173E+02  0.10891098773E+03  0.80518281099E+02 0.  0.
      -24    2    3    3    0    0 -0.41842871517E+02 -0.53355352898E+02 -0.21704660477E+03  0.24111100781E+03  0.80172750133E+02 0.  0.
      -13    1    4    4    0    0  0.35527824616E+01 -0.14720900389E+02 -0.26816711422E+02  0.30797129460E+02  0.00000000000E+00 0.  1.
       14    1    4    4    0    0  0.38290089055E+02  0.68076253287E+02 -0.11259097506E+01  0.78113858272E+02  0.00000000000E+00 0. -1.
        1    1    5    5  501    0 -0.27800268283E+02 -0.62692485886E+02 -0.91035851641E+02  0.11397687918E+03  0.00000000000E+00 0. -1.
       -2    1    5    5    0  501 -0.14042603234E+02  0.93371329887E+01 -0.12601075313E+03  0.12713412863E+03  0.00000000000E+00 0.  1.
</event>
<event>
 9   1  0.7570500E-01  0.2499744E+03  0.7546771E-02  0.1113321E+00
       21   -1    0    0  503  502  0.00000000000E+00  0.00000000000E+00  0.20841341452E+04  0.20841341452E+04  0.00000000000E+00 0.  1.
       21   -1    0    0  502  503 -0.00000000000E+00 -0.00000000000E+00 -0.74955845598E+01  0.74955845598E+01  0.00000000000E+00 0.  1.
       25    2    1    2    0    0  0.00000000000E+00  0.00000000000E+00  0.20766385606E+04  0.20916297297E+04  0.24997442844E+03 0.  0.
       24    2    3    3    0    0  0.25651149434E+02  0.33126757830E+02  0.32280886690E+03  0.33543572456E+03  0.80970347720E+02 0.  0.
      -24    2    3    3    0    0 -0.25651149434E+02 -0.33126757830E+02  0.17538296937E+04  0.17561940052E+04  0.80891443953E+02 0.  0.
      -13    1    4    4    0    0  0.42047823386E+02  0.44042875519E+02  0.29582591722E+03  0.30202775971E+03  0.00000000000E+00 0.  1.
       14    1    4    4    0    0 -0.16396673951E+02 -0.10916117688E+02  0.26982949679E+02  0.33407964850E+02  0.00000000000E+00 0. -1.
        3    1    5    5  501    0 -0.24339757133E+02  0.23112703624E+02  0.51962962244E+03  0.52071255541E+03  0.00000000000E+00 0. -1.
       -4    1    5    5    0  501 -0.13113923007E+01 -0.56239461455E+02  0.12342000713E+04  0.12354814497E+04  0.00000000000E+00 0.  1.
</event>
<event>
 9   1  0.7570500E-01  0.2499961E+03  0.7546771E-02  0.1113307E+00
       21   -1    0    0  503  502  0.00000000000E+00  0.00000000000E+00  0.19722278356E+03  0.19722278356E+03  0.00000000000E+00 0.  1.
       21   -1    0    0  502  503 -0.00000000000E+00 -0.00000000000E+00 -0.79222682707E+02  0.79222682707E+02  0.00000000000E+00 0.  1.
       25    2    1    2    0    0  0.14210854715E-13  0.00000000000E+00  0.11800010086E+03  0.27644546627E+03  0.24999614401E+03 0.  0.
       24    2    3    3    0    0 -0.66088895027E+02  0.64770636226E+02  0.81159706227E+02  0.14719036340E+03  0.80716341594E+02 0.  0.
      -24    2    3    3    0    0  0.66088895027E+02 -0.64770636226E+02  0.36840394629E+02  0.12925510287E+03  0.82381366690E+02 0.  0.
      -13    1    4    4    0    0 -0.49702865452E+02  0.17160012959E+01  0.10029607284E+02  0.50733741405E+02  0.00000000000E+00 0.  1.
       14    1    4    4    0    0 -0.16386029575E+02  0.63054634930E+02  0.71130098943E+02  0.96456621997E+02  0.00000000000E+00 0. -1.
        3    1    5    5  501    0  0.15428842892E+02 -0.30478541083E+02 -0.24951462557E+02  0.42303263979E+02  0.00000000000E+00 0. -1.
       -4    1    5    5    0  501  0.50660052135E+02 -0.34292095143E+02  0.61791857185E+02  0.86951838888E+02  0.00000000000E+00 0.  1.
</event>
<event>
 9   1  0.7570500E-01  0.2500143E+03  0.7546771E-02  0.1113296E+00
       21   -1    0    0  503  502  0.00000000000E+00  0.00000000000E+00  0.20656445869E+02  0.20656445869E+02  0.00000000000E+00 0. -1.
       21   -1    0    0  502  503 -0.00000000000E+00 -0.00000000000E+00 -0.75650908717E+03  0.75650908717E+03  0.00000000000E+00 0. -1.
       25    2    1    2    0    0 -0.71054273576E-14 -0.14210854715E-13 -0.73585264131E+03  0.77716553304E+03  0.25001431166E+03 0.  0.
       24    2    3    3    0    0  0.42499658285E+02  0.83667668386E+02 -0.43596177688E+03  0.45307786580E+03  0.80064860559E+02 0.  0.
      -24    2    3    3    0    0 -0.42499658285E+02 -0.83667668386E+02 -0.29989086443E+03  0.32408766724E+03  0.79320777870E+02 0.  0.
      -13    1    4    4    0    0  0.39989354107E+02  0.74397427412E+02 -0.43533519792E+03  0.44345333486E+03  0.00000000000E+00 0.  1.
       14    1    4    4    0    0  0.25103041781E+01  0.92702409734E+01 -0.62657895717E+00  0.96245309476E+01  0.00000000000E+00 0. -1.
        3    1    5    5  501    0 -0.26389842338E+02 -0.34749838926E+02 -0.24485441578E+03  0.24871200214E+03  0.00000000000E+00 0. -1.
       -4    1    5    5    0  501 -0.16109815947E+02 -0.48917829459E+02 -0.55036448654E+02  0.75375665100E+02  0.00000000000E+00 0.  1.
</event>
<event>
 9   1  0.7570500E-01  0.2500123E+03  0.7546771E-02  0.1113297E+00
       21   -1    0    0  503  502  0.00000000000E+00  0.00000000000E+00  0.17375157361E+02  0.17375157361E+02  0.00000000000E+00 0.  1.
       21   -1    0    0  502  503 -0.00000000000E+00 -0.00000000000E+00 -0.89936074367E+03  0.89936074367E+03  0.00000000000E+00 0.  1.
       25    2    1    2    0    0  0.14210854715E-13 -0.14210854715E-13 -0.88198558631E+03  0.91673590103E+03  0.25001227526E+03 0.  0.
       24    2    3    3    0    0  0.42505214293E+02 -0.88949452177E+02 -0.34042127057E+03  0.36044515345E+03  0.65691467535E+02 0.  0.
      -24    2    3    3    0    0 -0.42505214293E+02  0.88949452177E+02 -0.54156431574E+03  0.55629074758E+03  0.80304355264E+02 0.  0.
      -13    1    4    4    0    0  0.16912353908E+02 -0.43614355653E+02 -0.26313202901E+03  0.26725774904E+03  0.00000000000E+00 0.  1.
       14    1    4    4    0    0  0.25592860386E+02 -0.45335096524E+02 -0.77289241564E+02  0.93187404412E+02  0.00000000000E+00 0. -1.
        3    1    5    5  501    0 -0.30285018548E+02  0.72347036015E+02 -0.52203626127E+03  0.52789500287E+03  0.00000000000E+00 0. -1.
       -4    1    5    5    0  501 -0.12220195745E+02  0.16602416162E+02 -0.19528054467E+02  0.28395744712E+02  0.00000000000E+00 0.  1.
</event>
<event>
 9   1  0.7570500E-01  0.2499984E+03  0.7546771E-02  0.1113306E+00
       21   -1    0    0  503  502  0.00000000000E+00  0.00000000000E+00  0.11976093188E+03  0.11976093188E+03  0.00000000000E+00 0.  1.
       21   -1    0    0  502  503 -0.00000000000E+00 -0.00000000000E+00 -0.13046657812E+03  0.13046657812E+03  0.00000000000E+00 0.  1.
       25    2    1    2    0    0  0.00000000000E+00  0.00000000000E+00 -0.10705646244E+02  0.25022751000E+03  0.24999839179E+03 0.  0.
       24    2    3    3    0    0 -0.36045750549E+02 -0.39223508918E+02  0.75222798290E+02  0.12148395932E+03  0.79133451865E+02 0.  0.
      -24    2    3    3    0    0  0.36045750549E+02  0.39223508918E+02 -0.85928444535E+02  0.12874355068E+03  0.79708371442E+02 0.  0.
      -13    1    4    4    0    0 -0.39506171802E+02 -0.61286513831E+02  0.54692941853E+02  0.91148737109E+02  0.00000000000E+00 0.  1.
       14    1    4    4    0    0  0.34604212532E+01  0.22063004913E+02  0.20529856437E+02  0.30335222208E+02  0.00000000000E+00 0. -1.
        3    1    5    5  501    0  0.25149001501E+02 -0.22164951952E+02 -0.30172958074E+02  0.45101715826E+02  0.00000000000E+00 0. -1.
       -4    1    5    5    0  501  0.10896749048E+02  0.61388460870E+02 -0.55755486461E+02  0.83641834857E+02  0.00000000000E+00 0.  1.
</event>
<event>
 9   1  0.7570500E-01  0.2499997E+03  0.7546771E-02  0.1113305E+00
       21   -1    0    0  503  502  0.00000000000E+00  0.00000000000E+00  0.39324237303E+03  0.39324237303E+03  0.00000000000E+00 0.  1.
       21   -1    0    0  502  503 -0.00000000000E+00 -0.00000000000E+00 -0.39733684903E+02  0.39733684903E+02  0.00000000000E+00 0.  1.
       25    2    1    2    0    0  0.00000000000E+00  0.00000000000E+00  0.35350868812E+03  0.43297605793E+03  0.24999974832E+03 0.  0.
       24    2    3    3    0    0 -0.12716316288E+02  0.19846186386E+02  0.15082206278E+02  0.84934179855E+02  0.80192057882E+02 0.  0.
      -24    2    3    3    0    0  0.12716316288E+02 -0.19846186386E+02  0.33842648185E+03  0.34804187807E+03  0.77750173414E+02 0.  0.
      -13    1    4    4    0    0  0.27243420940E+02 -0.14477541115E+02  0.70698841002E+01  0.31651010133E+02  0.00000000000E+00 0.  1.
       14    1    4    4    0    0 -0.39959737228E+02  0.34323727502E+02  0.80123221781E+01  0.53283169722E+02  0.00000000000E+00 0. -1.
        1    1    5    5  501    0  0.44744860718E+02 -0.19874192240E+02  0.19086910310E+03  0.19704847271E+03  0.00000000000E+00 0. -1.
       -2    1    5    5    0  501 -0.32028544429E+02  0.28005853383E-01  0.14755737875E+03  0.15099340537E+03  0.00000000000E+00 0.  1.
</event>
<event>
 9   1  0.7570500E-01  0.2499987E+03  0.7546771E-02  0.1113306E+00
       21   -1    0    0  503  502  0.00000000000E+00  0.00000000000E+00  0.17602506406E+03  0.17602506406E+03  0.00000000000E+00 0.  1.
       21   -1    0    0  502  503 -0.00000000000E+00 -0.00000000000E+00 -0.88764843629E+02  0.88764843629E+02  0.00000000000E+00 0.  1.
       25    2    1    2    0    0  0.14210854715E-13  0.00000000000E+00  0.87260220432E+02  0.26478990769E+03  0.24999869829E+03 0.  0.
       24    2    3    3    0    0 -0.48789905602E+02 -0.69450494669E+02 -0.21455680046E+01  0.11669344903E+03  0.80055802325E+02 0.  0.
      -24    2    3    3    0    0  0.48789905602E+02  0.69450494669E+02  0.89405788436E+02  0.14809645866E+03  0.82069116991E+02 0.  0.
      -13    1    4    4    0    0 -0.35061766941E+02 -0.14802125547E+02 -0.34798946947E+02  0.51569342930E+02  0.00000000000E+00 0.  1.
       14    1    4    4    0    0 -0.13728138661E+02 -0.54648369122E+02  0.32653378942E+02  0.65124106098E+02  0.00000000000E+00 0. -1.
        3    1    5    5  501    0 -0.81023554404E+01  0.32134489239E+02  0.69834897259E+02  0.77299330123E+02  0.00000000000E+00 0. -1.
       -4    1    5    5    0  501  0.56892261042E+02  0.37316005430E+02  0.19570891177E+02  0.70797128538E+02  0.00000000000E+00 0.  1.
</event>
<event>
 9   1  0.7570500E-01  0.2500030E+03  0.7546771E-02  0.1113303E+00
       21   -1    0    0  503  502  0.00000000000E+00  0.00000000000E+00  0.19845470875E+03  0.19845470875E+03  0.00000000000E+00 0. -1.
       21   -1    0    0  502  503 -0.00000000000E+00 -0.00000000000E+00 -0.78735243445E+02  0.78735243445E+02  0.00000000000E+00 0. -1.
       25    2    1    2    0    0  0.00000000000E+00  0.00000000000E+00  0.11971946531E+03  0.27718995220E+03  0.25000303843E+03 0.  0.
       24    2    3    3    0    0 -0.34275914935E+02  0.87350693989E+02  0.74796671869E+02  0.14549033991E+03  0.82267337372E+02 0.  0.
      -24    2    3    3    0    0  0.34275914935E+02 -0.87350693989E+02  0.44922793437E+02  0.13169961229E+03  0.80757342837E+02 0.  0.
      -13    1    4    4    0    0 -0.20491071851E+02  0.38406614447E+02  0.83249999530E+02  0.93944209405E+02  0.00000000000E+00 0.  1.
       14    1    4    4    0    0 -0.13784843084E+02  0.48944079542E+02 -0.84533276616E+01  0.51546130501E+02  0.00000000000E+00 0. -1.
        3    1    5    5  501    0  0.89134755219E+00 -0.23758801046E+02  0.54291030138E+02  0.59268803608E+02  0.00000000000E+00 0. -1.
       -4    1    5    5    0  501  0.33384567383E+02 -0.63591892943E+02 -0.93682367016E+01  0.72430808682E+02  0.00000000000E+00 0.  1.
</event>
<event>
 9   1  0.7570500E-01  0.2500284E+03  0.7546771E-02  0.1113287E+00
       21   -1    0    0  503  502  0.00000000000E+00  0.00000000000E+00  0.18065874317E+03  0.18065874317E+03  0.00000000000E+00 0. -1.
       21   -1    0    0  502  503 -0.00000000000E+00 -0.00000000000E+00 -0.86508651106E+02  0.86508651106E+02  0.00000000000E+00 0. -1.
       25    2    1    2    0    0  0.00000000000E+00  0.00000000000E+00  0.94150092063E+02  0.26716739428E+03  0.25002835185E+03 0.  0.
       24    2    3    3    0    0  0.34487154021E+02  0.81622709535E+02  0.86794311771E+02  0.14721626591E+03  0.79295308115E+02 0.  0.
      -24    2    3    3    0    0 -0.34487154021E+02 -0.81622709535E+02  0.73557802928E+01  0.11995112836E+03  0.80514192461E+02 0.  0.
      -13    1    4    4    0    0  0.18581770368E+02  0.39561321660E+02  0.92091259951E+02  0.10193714005E+03  0.00000000000E+00 0.  1.
       14    1    4    4    0    0  0.15905383653E+02  0.42061387875E+02 -0.52969481804E+01  0.45279125865E+02  0.00000000000E+00 0. -1.
        1    1    5    5  501    0 -0.27953643821E+02 -0.35474168139E+02  0.42157867231E+02  0.61782753075E+02  0.00000000000E+00 0. -1.
       -2    1    5    5    0  501 -0.65335101994E+01 -0.46148541396E+02 -0.34802086938E+02  0.58168375289E+02  0.00000000000E+00 0.  1.
</event>
<event>
 9   1  0.7570500E-01  0.2500018E+03  0.7546771E-02  0.1113304E+00
       21   -1    0    0  503  502  0.00000000000E+00  0.00000000000E+00  0.19387160166E+03  0.19387160166E+03  0.00000000000E+00 0. -1.
       21   -1    0    0  502  503 -0.00000000000E+00 -0.00000000000E+00 -0.80595735361E+02  0.80595735361E+02  0.00000000000E+00 0. -1.
       25    2    1    2    0    0  0.00000000000E+00 -0.35527136788E-14  0.11327586630E+03  0.27446733702E+03  0.25000179440E+03 0.  0.
       24    2    3    3    0    0 -0.91319007484E+02 -0.24890904524E+02  0.70538528246E+02  0.14269731386E+03  0.80175564612E+02 0.  0.
      -24    2    3    3    0    0  0.91319007484E+02  0.24890904524E+02  0.42737338049E+02  0.13177002315E+03  0.81105737666E+02 0.  0.
      -13    1    4    4    0    0 -0.53618467622E+02 -0.99150761490E+01  0.83834939000E+02  0.10000772871E+03  0.00000000000E+00 0.  1.
       14    1    4    4    0    0 -0.37700539862E+02 -0.14975828375E+02 -0.13296410754E+02  0.42689585151E+02  0.00000000000E+00 0. -1.
        1    1    5    5  501    0  0.42446986770E+02  0.22780742011E+02  0.62585780532E+02  0.78979040367E+02  0.00000000000E+00 0. -1.
       -2    1    5    5    0  501  0.48872020714E+02  0.21101625133E+01 -0.19848442483E+02  0.52790982786E+02  0.00000000000E+00 0.  1.
</event>
<event>
 9   1  0.7570500E-01  0.2500051E+03  0.7546771E-02  0.1113302E+00
       21   -1    0    0  503  502  0.00000000000E+00  0.00000000000E+00  0.88938917696E+03  0.88938917696E+03  0.00000000000E+00 0. -1.
       21   -1    0    0  502  503 -0.00000000000E+00 -0.00000000000E+00 -0.17568947833E+02  0.17568947833E+02  0.00000000000E+00 0. -1.
       25    2    1    2    0    0  0.71054273576E-14  0.00000000000E+00  0.87182022913E+03  0.90695812480E+03  0.25000505638E+03 0.  0.
       24    2    3    3    0    0 -0.53716663160E+02  0.48120732903E+02  0.20838132743E+03  0.23480404599E+03  0.80678854456E+02 0.  0.
      -24    2    3    3    0    0  0.53716663160E+02 -0.48120732903E+02  0.66343890170E+03  0.67215407880E+03  0.80242411037E+02 0.  0.
      -13    1    4    4    0    0 -0.15455493271E+02 -0.10597051768E+02  0.45827601336E+01  0.19291746134E+02  0.00000000000E+00 0.  1.
       14    1    4    4    0    0 -0.38261169889E+02  0.58717784671E+02  0.20379856730E+03  0.21551229986E+03  0.00000000000E+00 0. -1.
        3    1    5    5  501    0 -0.30965021422E+01 -0.54443981109E+01  0.37636050891E+03  0.37641262261E+03  0.00000000000E+00 0. -1.
       -4    1    5    5    0  501  0.56813165302E+02 -0.42676334792E+02  0.28707839279E+03  0.29574145619E+03  0.00000000000E+00 0.  1.
</event>
<event>
 9   1  0.7570500E-01  0.2500050E+03  0.7546771E-02  0.1113302E+00
       21   -1    0    0  503  502  0.00000000000E+00  0.00000000000E+00  0.10746229069E+03  0.10746229069E+03  0.00000000000E+00 0.  1.
       21   -1    0    0  502  503 -0.00000000000E+00 -0.00000000000E+00 -0.14540559933E+03  0.14540559933E+03  0.00000000000E+00 0.  1.
       25    2    1    2    0    0  0.00000000000E+00  0.00000000000E+00 -0.37943308636E+02  0.25286789002E+03  0.25000495022E+03 0.  0.
       24    2    3    3    0    0  0.13910548614E+02  0.31418767390E+02  0.70365070248E+02  0.11288521507E+03  0.81309202206E+02 0.  0.
      -24    2    3    3    0    0 -0.13910548614E+02 -0.31418767390E+02 -0.10830837888E+03  0.13998267495E+03  0.81754523070E+02 0.  0.
      -13    1    4    4    0    0  0.30344940003E+02 -0.61084711170E+01 -0.58209881438E+00  0.30959128576E+02  0.00000000000E+00 0.  1.
       14    1    4    4    0    0 -0.16434391389E+02  0.37527238507E+02  0.70947169063E+02  0.81926086494E+02  0.00000000000E+00 0. -1.
        1    1    5    5  501    0  0.22353564703E+02 -0.90062616081E+00 -0.83581402613E+02  0.86523660609E+02  0.00000000000E+00 0. -1.
       -2    1    5    5    0  501 -0.36264113317E+02 -0.30518141229E+02 -0.24726976272E+02  0.53459014341E+02  0.00000000000E+00 0.  1.
</event>
<event>
 9   1  0.7570500E-01  0.2500016E+03  0.7546771E-02  0.1113304E+00
       21   -1    0    0  503  502  0.00000000000E+00  0.00000000000E+00  0.39735002927E+03  0.39735002927E+03  0.00000000000E+00 0. -1.
       21   -1    0    0  502  503 -0.00000000000E+00 -0.00000000000E+00 -0.39323513811E+02  0.39323513811E+02  0.00000000000E+00 0. -1.
       25    2    1    2    0    0  0.00000000000E+00  0.00000000000E+00  0.35802651546E+03  0.43667354308E+03  0.25000159490E+03 0.  0.
       24    2    3    3    0    0  0.46686199221E+00  0.84822173108E+02  0.10837878036E+03  0.16053224946E+03  0.82641539637E+02 0.  0.
      -24    2    3    3    0    0 -0.46686199221E+00 -0.84822173108E+02  0.24964773510E+03  0.27614129362E+03  0.82067066417E+02 0.  0.
      -13    1    4    4    0    0 -0.31489065689E+02  0.44496954162E+01  0.32545887164E+02  0.45503800046E+02  0.00000000000E+00 0.  1.
       14    1    4    4    0    0  0.31955927681E+02  0.80372477692E+02  0.75832893191E+02  0.11502844941E+03  0.00000000000E+00 0. -1.
        3    1    5    5  501    0  0.32511621236E+02 -0.39187304444E+02  0.62000889654E+02  0.80229425168E+02  0.00000000000E+00 0. -1.
       -4    1    5    5    0  501 -0.32978483228E+02 -0.45634868665E+02  0.18764684545E+03  0.19591186845E+03  0.00000000000E+00 0.  1.
</event>
<event>
 9   1  0.7570500E-01  0.2500046E+03  0.7546771E-02  0.1113302E+00
       21   -1    0    0  503  502  0.00000000000E+00  0.00000000000E+00  0.43513801959E+03  0.43513801959E+03  0.00000000000E+00 0.  1.
       21   -1    0    0  502  503 -0.00000000000E+00 -0.00000000000E+00 -0.35909463242E+02  0.35909463242E+02  0.00000000000E+00 0.  1.
       25    2    1    2    0    0  0.00000000000E+00  0.00000000000E+00  0.39922855635E+03  0.47104748283E+03  0.25000458172E+03 0.  0.
       24    2    3    3    0    0 -0.14676029841E+02  0.87245485645E+02  0.26262609786E+03  0.28874299392E+03  0.81073353458E+02 0.  0.
      -24    2    3    3    0    0  0.14676029841E+02 -0.87245485645E+02  0.13660245848E+03  0.18230448891E+03  0.82143377070E+02 0.  0.
      -13    1    4    4    0    0 -0.23776558023E+02  0.36743668588E+02  0.21267114418E+03  0.21712769851E+03  0.00000000000E+00 0.  1.
       14    1    4    4    0    0  0.91005281814E+01  0.50501817057E+02  0.49954953684E+02  0.71615295411E+02  0.00000000000E+00 0. -1.
        3    1    5    5  501    0  0.11875550784E+02 -0.16581595927E+02 -0.75429696147E+01  0.21745675904E+02  0.00000000000E+00 0. -1.
       -4    1    5    5    0  501  0.28004790568E+01 -0.70663889718E+02  0.14414542810E+03  0.16055881301E+03  0.00000000000E+00 0.  1.
</event>
<event>
 9   1  0.7570500E-01  0.2499986E+03  0.7546771E-02  0.1113306E+00
       21   -1    0    0  503  502  0.00000000000E+00  0.00000000000E+00  0.21059981156E+03  0.21059981156E+03  0.00000000000E+00 0.  1.
       21   -1    0    0  502  503 -0.00000000000E+00 -0.00000000000E+00 -0.74192046766E+02  0.74192046766E+02  0.00000000000E+00 0.  1.
       25    2    1    2    0    0  0.00000000000E+00 -0.71054273576E-14  0.13640776479E+03  0.28479185832E+03  0.24999864854E+03 0.  0.
       24    2    3    3    0    0  0.89474013208E+02 -0.32974168514E+02  0.69466221279E+02  0.14322905671E+03  0.81216451289E+02 0.  0.
      -24    2    3    3    0    0 -0.89474013208E+02  0.32974168514E+02  0.66941543512E+02  0.14156280161E+03  0.80411203961E+02 0.  0.
      -13    1    4    4    0    0  0.51047770182E+02 -0.18631513355E+02 -0.86249615800E+01  0.55021796524E+02  0.00000000000E+00 0.  1.
       14    1    4    4    0    0  0.38426243026E+02 -0.14342655159E+02  0.78091182859E+02  0.88207260191E+02  0.00000000000E+00 0. -1.
        1    1    5    5  501    0 -0.89665379646E+02  0.63742150804E+00  0.35437501059E+02  0.96416300979E+02  0.00000000000E+00 0. -1.
       -2    1    5    5    0  501  0.19136643829E+00  0.32336747006E+02  0.31504042453E+02  0.45146500628E+02  0.00000000000E+00 0.  1.
</event>
<event>
 9   1  0.7570500E-01  0.2500058E+03  0.7546771E-02  0.1113301E+00
       21   -1    0    0  503  502  0.00000000000E+00  0.00000000000E+00  0.17670751694E+04  0.17670751694E+04  0.00000000000E+00 0. -1.
       21   -1    0    0  502  503 -0.00000000000E+00 -0.00000000000E+00 -0.88427078537E+01  0.88427078537E+01  0.00000000000E+00 0. -1.
       25    2    1    2    0    0  0.00000000000E+00  0.00000000000E+00  0.17582324615E+04  0.17759178772E+04  0.25000583576E+03 0.  0.
       24    2    3    3    0    0 -0.21189921926E+01 -0.14910233038E+01  0.18030933076E+03  0.19598904888E+03  0.76769390022E+02 0.  0.
      -24    2    3    3    0    0  0.21189921926E+01  0.14910233038E+01  0.15779231308E+04  0.15799288284E+04  0.79542333194E+02 0.  0.
      -13    1    4    4    0    0 -0.14710031178E+02  0.20035026579E+02  0.16470823968E+03  0.16657308163E+03  0.00000000000E+00 0.  1.
       14    1    4    4    0    0  0.12591038985E+02 -0.21526049883E+02  0.15601091085E+02  0.29415967252E+02  0.00000000000E+00 0. -1.
        1    1    5    5  501    0 -0.22059875345E+02 -0.28221345106E+02  0.47865125803E+03  0.47998969700E+03  0.00000000000E+00 0. -1.
       -2    1    5    5    0  501  0.24178867537E+02  0.29712368409E+02  0.10992718727E+04  0.10999391314E+04  0.00000000000E+00 0.  1.
</event>
<event>
 8   1  0.7570500E-01  0.2498947E+03  0.7546771E-02  0.1113371E+00
       21   -1    0    0  503  502  0.00000000000E+00  0.00000000000E+00  0.74280544793E+03  0.74280544793E+03  0.00000000000E+00 0. -1.
       21   -1    0    0  502  503 -0.00000000000E+00 -0.00000000000E+00 -0.21017403263E+02  0.21017403263E+02  0.00000000000E+00 0. -1.
       24    2    1    2    0    0  0.49934096677E+02 -0.37308226569E+01  0.63213809770E+03  0.63913117348E+03  0.79892110378E+02 0.  0.
      -24    2    1    2    0    0 -0.49934096677E+02  0.37308226569E+01  0.89649946969E+02  0.12469167772E+03  0.70735906381E+02 0.  0.
      -13    1    3    3    0    0  0.53768167966E+02 -0.34088863053E+02  0.42007936041E+03  0.42487614138E+03  0.00000000000E+00 0.  1.
       14    1    3    3    0    0 -0.38340712889E+01  0.30358040396E+02  0.21205873728E+03  0.21425503209E+03  0.00000000000E+00 0. -1.
        3    1    4    4  501    0 -0.42876164566E+02  0.30889788894E+02  0.78207624539E+02  0.94387377767E+02  0.00000000000E+00 0. -1.
       -4    1    4    4    0  501 -0.70579321113E+01 -0.27158966237E+02  0.11442322430E+02  0.30304299948E+02  0.00000000000E+00 0.  1.
</event>
<event>
 9   1  0.7570500E-01  0.2499982E+03  0.7546771E-02  0.1113306E+00
       21   -1    0    0  503  502  0.00000000000E+00  0.00000000000E+00  0.17623820280E+04  0.17623820280E+04  0.00000000000E+00 0.  1.
       21   -1    0    0  502  503 -0.00000000000E+00 -0.00000000000E+00 -0.88657168394E+01  0.88657168394E+01  0.00000000000E+00 0.  1.
       25    2    1    2    0    0 -0.17763568394E-14  0.00000000000E+00  0.17535163112E+04  0.17712477449E+04  0.24999824018E+03 0.  0.
       24    2    3    3    0    0 -0.12839996883E+02 -0.58282103112E+01  0.20980557810E+03  0.22523055188E+03  0.80694407129E+02 0.  0.
      -24    2    3    3    0    0  0.12839996883E+02  0.58282103112E+01  0.15437107331E+04  0.15460171930E+04  0.83231604642E+02 0.  0.
      -13    1    4    4    0    0 -0.13835412313E+00 -0.35192352131E+02  0.43882827173E+02  0.56251429414E+02  0.00000000000E+00 0.  1.
       14    1    4    4    0    0 -0.12701642760E+02  0.29364141820E+02  0.16592275093E+03  0.16897912247E+03  0.00000000000E+00 0. -1.
        1    1    5    5  501    0 -0.14236888998E+02 -0.26428009020E+02  0.10747773886E+04  0.10751965233E+04  0.00000000000E+00 0. -1.
       -2    1    5    5    0  501  0.27076885881E+02  0.32256219331E+02  0.46893334453E+03  0.47082066973E+03  0.00000000000E+00 0.  1.
</event>
<event>
 9   1  0.7570500E-01  0.2500053E+03  0.7546771E-02  0.1113301E+00
       21   -1    0    0  503  502  0.00000000000E+00  0.00000000000E+00  0.36092168140E+03  0.36092168140E+03  0.00000000000E+00 0.  1.
       21   -1    0    0  502  503 -0.00000000000E+00 -0.00000000000E+00 -0.43293775653E+02  0.43293775653E+02  0.00000000000E+00 0.  1.
       25    2    1    2    0    0  0.35527136788E-14  0.00000000000E+00  0.31762790575E+03  0.40421545705E+03  0.25000529837E+03 0.  0.
       24    2    3    3    0    0  0.21175050546E+02  0.91597565591E+02  0.13596719088E+03  0.18448715228E+03  0.81914196407E+02 0.  0.
      -24    2    3    3    0    0 -0.21175050546E+02 -0.91597565591E+02  0.18166071487E+03  0.21972830477E+03  0.80258431359E+02 0.  0.
      -13    1    4    4    0    0  0.27749840246E+02  0.99155943186E+02  0.13991575167E+03  0.17371923402E+03  0.00000000000E+00 0.  1.
       14    1    4    4    0    0 -0.65747897000E+01 -0.75583775946E+01 -0.39485607868E+01  0.10767918264E+02  0.00000000000E+00 0. -1.
        1    1    5    5  501    0  0.25505852247E+02 -0.38674708590E+02  0.38960890536E+02  0.60532904892E+02  0.00000000000E+00 0. -1.
       -2    1    5    5    0  501 -0.46680902793E+02 -0.52922857002E+02  0.14269982433E+03  0.15919539988E+03  0.00000000000E+00 0.  1.
</event>
<event>
 9   1  0.7570500E-01  0.2499704E+03  0.7546771E-02  0.1113324E+00
       21   -1    0    0  503  502  0.00000000000E+00  0.00000000000E+00  0.47173138683E+02  0.47173138683E+02  0.00000000000E+00 0. -1.
       21   -1    0    0  502  503 -0.00000000000E+00 -0.00000000000E+00 -0.33114815747E+03  0.33114815747E+03  0.00000000000E+00 0. -1.
       25    2    1    2    0    0 -0.35527136788E-14  0.00000000000E+00 -0.28397501878E+03  0.37832129615E+03  0.24997038190E+03 0.  0.
       24    2    3    3    0    0 -0.28715369845E+02  0.62161362567E+02 -0.22956459334E+03  0.26089263176E+03  0.10332693418E+03 0.  0.
      -24    2    3    3    0    0  0.28715369845E+02 -0.62161362567E+02 -0.54410425440E+02  0.11742866439E+03  0.78360636565E+02 0.  0.
      -13    1    4    4    0    0 -0.26747231016E+02  0.24111414064E+02 -0.90767809524E+01  0.37137078609E+02  0.00000000000E+00 0.  1.
       14    1    4    4    0    0 -0.19681388293E+01  0.38049948503E+02 -0.22048781239E+03  0.22375555315E+03  0.00000000000E+00 0. -1.
        1    1    5    5  501    0  0.21158427031E+02 -0.67070928125E+02 -0.70123297308E+02  0.99314980035E+02  0.00000000000E+00 0. -1.
       -2    1    5    5    0  501  0.75569428137E+01  0.49095655579E+01  0.15712871868E+02  0.18113684357E+02  0.00000000000E+00 0.  1.
</event>
<event>
 9   1  0.7570500E-01  0.2500009E+03  0.7546771E-02  0.1113304E+00
       21   -1    0    0  503  502  0.00000000000E+00  0.00000000000E+00  0.80167235646E+02  0.80167235646E+02  0.00000000000E+00 0.  1.
       21   -1    0    0  502  503 -0.00000000000E+00 -0.00000000000E+00 -0.19490641696E+03  0.19490641696E+03  0.00000000000E+00 0.  1.
       25    2    1    2    0    0 -0.71054273576E-14  0.00000000000E+00 -0.11473918131E+03  0.27507365260E+03  0.25000086926E+03 0.  0.
       24    2    3    3    0    0  0.59977470200E+02 -0.32290932442E+02 -0.13256712420E+03  0.17054857391E+03  0.82902185702E+02 0.  0.
      -24    2    3    3    0    0 -0.59977470200E+02  0.32290932442E+02  0.17827942885E+02  0.10452507870E+03  0.77250600514E+02 0.  0.
      -13    1    4    4    0    0 -0.80598250148E+01 -0.26322286450E+02 -0.79274742274E+02  0.83918462247E+02  0.00000000000E+00 0.  1.
       14    1    4    4    0    0  0.68037295215E+02 -0.59686459915E+01 -0.53292381922E+02  0.86630111659E+02  0.00000000000E+00 0. -1.
        3    1    5    5  501    0 -0.31570756620E+02 -0.19883701916E+01  0.42999569809E+02  0.53381919161E+02  0.00000000000E+00 0. -1.
       -4    1    5    5    0  501 -0.28406713580E+02  0.34279302633E+02 -0.25171626924E+02  0.51143159537E+02  0.00000000000E+00 0.  1.
</event>
<event>
 9   1  0.7570500E-01  0.2499989E+03  0.7546771E-02  0.1113305E+00
       21   -1    0    0  503  502  0.00000000000E+00  0.00000000000E+00  0.21887960450E+03  0.21887960450E+03  0.00000000000E+00 0.  1.
       21   -1    0    0  502  503 -0.00000000000E+00 -0.00000000000E+00 -0.71385665981E+02  0.71385665981E+02  0.00000000000E+00 0.  1.
       25    2    1    2    0    0  0.00000000000E+00 -0.28421709430E-13  0.14749393852E+03  0.29026527048E+03  0.24999893069E+03 0.  0.
       24    2    3    3    0    0  0.42676937765E+02  0.86219311535E+02  0.80470120811E+02  0.14880831623E+03  0.80083605920E+02 0.  0.
      -24    2    3    3    0    0 -0.42676937765E+02 -0.86219311535E+02  0.67023817706E+02  0.14145695425E+03  0.79137772695E+02 0.  0.
      -13    1    4    4    0    0  0.31682734166E+02  0.83057577146E+02  0.95138554822E+02  0.13020637995E+03  0.00000000000E+00 0.  1.
       14    1    4    4    0    0  0.10994203599E+02  0.31617343894E+01 -0.14668434010E+02  0.18601936282E+02  0.00000000000E+00 0. -1.
        1    1    5    5  501    0 -0.20695764198E+02 -0.67307681311E+02  0.82599323627E+02  0.10854163663E+03  0.00000000000E+00 0. -1.
       -2    1    5    5    0  501 -0.21981173567E+02 -0.18911630224E+02 -0.15575505921E+02  0.32915317617E+02  0.00000000000E+00 0.  1.
</event>
<event>
 9   1  0.7570500E-01  0.2499951E+03  0.7546771E-02  0.1113308E+00
       21   -1    0    0  503  502  0.00000000000E+00  0.00000000000E+00  0.80703251633E+03  0.80703251633E+03  0.00000000000E+00 0. -1.
       21   -1    0    0  502  503 -0.00000000000E+00 -0.00000000000E+00 -0.19360290815E+02  0.19360290815E+02  0.00000000000E+00 0. -1.
       25    2    1    2    0    0  0.35527136788E-14  0.00000000000E+00  0.78767222551E+03  0.82639280714E+03  0.24999507366E+03 0.  0.
       24    2    3    3    0    0  0.30665395088E+01  0.16023087451E+02  0.71413634793E+03  0.71896135512E+03  0.81538725335E+02 0.  0.
      -24    2    3    3    0    0 -0.30665395088E+01 -0.16023087451E+02  0.73535877585E+02  0.10743145202E+03  0.76601883759E+02 0.  0.
      -13    1    4    4    0    0  0.38673373718E+02 -0.76161721726E+01  0.39848176349E+03  0.40042646235E+03  0.00000000000E+00 0.  1.
       14    1    4    4    0    0 -0.35606834209E+02  0.23639259624E+02  0.31565458444E+03  0.31853489277E+03  0.00000000000E+00 0. -1.
        3    1    5    5  501    0  0.20197929799E+02  0.17894665100E+02  0.49152874162E+01  0.27428734160E+02  0.00000000000E+00 0. -1.
       -4    1    5    5    0  501 -0.23264469308E+02 -0.33917752551E+02  0.68620590168E+02  0.80002717862E+02  0.00000000000E+00 0.  1.
</event>
<event>
 9   1  0.7570500E-01  0.2500064E+03  0.7546771E-02  0.1113301E+00
       21   -1    0    0  503  502  0.00000000000E+00  0.00000000000E+00  0.14658220445E+04  0.14658220445E+04  0.00000000000E+00 0. -1.
       21   -1    0    0  502  503 -0.00000000000E+00 -0.00000000000E+00 -0.10660095324E+02  0.10660095324E+02  0.00000000000E+00 0. -1.
       25    2    1    2    0    0  0.14210854715E-13  0.71054273576E-14  0.14551619492E+04  0.14764821398E+04  0.25000642169E+03 0.  0.
       24    2    3    3    0    0  0.74713752074E+02  0.41466482447E+02  0.98988240751E+03  0.99663872645E+03  0.78230150518E+02 0.  0.
      -24    2    3    3    0    0 -0.74713752074E+02 -0.41466482447E+02  0.46527954166E+03  0.47984341336E+03  0.80393006831E+02 0.  0.
      -13    1    4    4    0    0  0.58200772582E+02  0.47256196654E+02  0.43024918192E+03  0.43673199630E+03  0.00000000000E+00 0.  1.
       14    1    4    4    0    0  0.16512979492E+02 -0.57897142074E+01  0.55963322559E+03  0.55990673015E+03  0.00000000000E+00 0. -1.
        1    1    5    5  501    0 -0.12376522465E+02  0.23943553244E+02  0.10988926708E+03  0.11314646733E+03  0.00000000000E+00 0. -1.
       -2    1    5    5    0  501 -0.62337229609E+02 -0.65410035691E+02  0.35539027458E+03  0.36669694603E+03  0.00000000000E+00 0.  1.
</event>
<event>
 9   1  0.7570500E-01  0.2500013E+03  0.7546771E-02  0.1113304E+00
       21   -1    0    0  503  502  0.00000000000E+00  0.00000000000E+00  0.10643240391E+04  0.10643240391E+04  0.00000000000E+00 0.  1.
       21   -1    0    0  502  503 -0.00000000000E+00 -0.00000000000E+00 -0.14680832397E+02  0.14680832397E+02  0.00000000000E+00 0.  1.
       25    2    1    2    0    0  0.00000000000E+00  0.00000000000E+00  0.10496432067E+04  0.10790048715E+04  0.25000130266E+03 0.  0.
       24    2    3    3    0    0 -0.56047531427E+02 -0.65408541102E+02  0.71504696110E+03  0.72461014250E+03  0.79674958486E+02 0.  0.
      -24    2    3    3    0    0  0.56047531427E+02  0.65408541102E+02  0.33459624557E+03  0.35439472897E+03  0.78875682807E+02 0.  0.
      -13    1    4    4    0    0 -0.69267677255E+02 -0.50442498734E+02  0.40729923020E+03  0.41621523243E+03  0.00000000000E+00 0.  1.
       14    1    4    4    0    0  0.13220145827E+02 -0.14966042368E+02  0.30774773090E+03  0.30839491007E+03  0.00000000000E+00 0. -1.
        3    1    5    5  501    0  0.13040130338E+02  0.37030707911E+02  0.42779001925E+02  0.58063425091E+02  0.00000000000E+00 0. -1.
       -4    1    5    5    0  501  0.43007401089E+02  0.28377833191E+02  0.29181724365E+03  0.29633130388E+03  0.00000000000E+00 0.  1.
</event>
<event>
 9   1  0.7570500E-01  0.2499980E+03  0.7546771E-02  0.1113306E+00
       21   -1    0    0  503  502  0.00000000000E+00  0.00000000000E+00  0.16406976738E+02  0.16406976738E+02  0.00000000000E+00 0.  1.
       21   -1    0    0  502  503 -0.00000000000E+00 -0.00000000000E+00 -0.95232375367E+03  0.95232375367E+03  0.00000000000E+00 0.  1.
       25    2    1    2    0    0  0.00000000000E+00  0.00000000000E+00 -0.93591677693E+03  0.96873073041E+03  0.24999802938E+03 0.  0.
       24    2    3    3    0    0 -0.14744907941E+01 -0.91503624094E+02 -0.34068841929E+03  0.36134399681E+03  0.78267475021E+02 0.  0.
      -24    2    3    3    0    0  0.14744907941E+01  0.91503624094E+02 -0.59522835765E+03  0.60738673360E+03  0.79036441380E+02 0.  0.
      -13    1    4    4    0    0 -0.13923535426E+02 -0.29319514463E+02 -0.29831974079E+02  0.44084526135E+02  0.00000000000E+00 0.  1.
       14    1    4    4    0    0  0.12449044632E+02 -0.62184109631E+02 -0.31085644521E+03  0.31725947067E+03  0.00000000000E+00 0. -1.
        3    1    5    5  501    0  0.60557083016E+01  0.83204851827E+02 -0.28363799764E+03  0.29565221575E+03  0.00000000000E+00 0. -1.
       -4    1    5    5    0  501 -0.45812175075E+01  0.82987722675E+01 -0.31159036000E+03  0.31173451785E+03  0.00000000000E+00 0.  1.
</event>
<event>
 9   1  0.7570500E-01  0.2499952E+03  0.7546771E-02  0.1113308E+00
       21   -1    0    0  503  502  0.00000000000E+00  0.00000000000E+00  0.49793567206E+03  0.49793567206E+03  0.00000000000E+00 0. -1.
       21   -1    0    0  502  503 -0.00000000000E+00 -0.00000000000E+00 -0.31378356363E+02  0.31378356363E+02  0.00000000000E+00 0. -1.
       25    2    1    2    0    0  0.14210854715E-13 -0.71054273576E-14  0.46655731570E+03  0.52931402842E+03  0.24999522366E+03 0.  0.
       24    2    3    3    0    0  0.82831734055E+02 -0.50215590895E+02  0.22849833763E+03  0.26102186946E+03  0.80859287055E+02 0.  0.
      -24    2    3    3    0    0 -0.82831734055E+02  0.50215590895E+02  0.23805897807E+03  0.26829215896E+03  0.76979892087E+02 0.  0.
      -13    1    4    4    0    0  0.62034173115E+02 -0.58335271721E+02  0.22199631152E+03  0.23776796439E+03  0.00000000000E+00 0.  1.
       14    1    4    4    0    0  0.20797560940E+02  0.81196808260E+01  0.65020261114E+01  0.23253905076E+02  0.00000000000E+00 0. -1.
        1    1    5    5  501    0 -0.51695137707E+02  0.34670583386E+02  0.22087764008E+03  0.22948064951E+03  0.00000000000E+00 0. -1.
       -2    1    5    5    0  501 -0.31136596347E+02  0.15545007509E+02  0.17181337994E+02  0.38811509450E+02  0.00000000000E+00 0.  1.
</event>
<event>
 9   1  0.7570500E-01  0.2499993E+03  0.7546771E-02  0.1113305E+00
       21   -1    0    0  503  502  0.00000000000E+00  0.00000000000E+00  0.10000343238E+03  0.10000343238E+03  0.00000000000E+00 0.  1.
       21   -1    0    0  502  503 -0.00000000000E+00 -0.00000000000E+00 -0.15624372092E+03  0.15624372092E+03  0.00000000000E+00 0.  1.
       25    2    1    2    0    0 -0.14210854715E-13 -0.35527136788E-14 -0.56240288541E+02  0.25624715330E+03  0.24999926704E+03 0.  0.
       24    2    3    3    0    0  0.81638130763E+02 -0.84358699484E+01  0.21891452151E+02  0.11702468770E+03  0.80495922621E+02 0.  0.
      -24    2    3    3    0    0 -0.81638130763E+02  0.84358699484E+01 -0.78131740692E+02  0.13922246560E+03  0.80884966016E+02 0.  0.
      -13    1    4    4    0    0  0.58651146160E+01  0.79148630414E+01  0.36792425615E+02  0.38088413055E+02  0.00000000000E+00 0.  1.
       14    1    4    4    0    0  0.75773016147E+02 -0.16350732990E+02 -0.14900973464E+02  0.78936274649E+02  0.00000000000E+00 0. -1.
        1    1    5    5  501    0 -0.26791260802E+02 -0.64314123365E+01  0.14053595217E+02  0.30929569323E+02  0.00000000000E+00 0. -1.
       -2    1    5    5    0  501 -0.54846869960E+02  0.14867282285E+02 -0.92185335909E+02  0.10829289627E+03  0.00000000000E+00 0.  1.
</event>
<event>
 9   1  0.7570500E-01  0.2500438E+03  0.7546771E-02  0.1113277E+00
       21   -1    0    0  503  502  0.00000000000E+00  0.00000000000E+00  0.15767154240E+03  0.15767154240E+03  0.00000000000E+00 0. -1.
       21   -1    0    0  502  503 -0.00000000000E+00 -0.00000000000E+00 -0.99133141858E+02  0.99133141858E+02  0.00000000000E+00 0. -1.
       25    2    1    2    0    0  0.00000000000E+00  0.00000000000E+00  0.58538400539E+02  0.25680468426E+03  0.25004379920E+03 0.  0.
       24    2    3    3    0    0 -0.70566653635E+02  0.51103284589E+01  0.96098248975E+02  0.14246241845E+03  0.77813232503E+02 0.  0.
      -24    2    3    3    0    0  0.70566653635E+02 -0.51103284589E+01 -0.37559848436E+02  0.11434226581E+03  0.81594383832E+02 0.  0.
      -13    1    4    4    0    0  0.15643886166E+02 -0.83052486485E+01  0.19716834111E+02  0.26503997375E+02  0.00000000000E+00 0.  1.
       14    1    4    4    0    0 -0.86210539801E+02  0.13415577107E+02  0.76381414864E+02  0.11595842108E+03  0.00000000000E+00 0. -1.
        1    1    5    5  501    0  0.56160170303E+02 -0.36139748006E+02 -0.47677968942E+01  0.66953551076E+02  0.00000000000E+00 0. -1.
       -2    1    5    5    0  501  0.14406483331E+02  0.31029419547E+02 -0.32792051541E+02  0.47388714729E+02  0.00000000000E+00 0.  1.
</event>
<event>
 9   1  0.7570500E-01  0.2500024E+03  0.7546771E-02  0.1113303E+00
       21   -1    0    0  503  502  0.00000000000E+00  0.00000000000E+00  0.14497807181E+03  0.14497807181E+03  0.00000000000E+00 0. -1.
       21   -1    0    0  502  503 -0.00000000000E+00 -0.00000000000E+00 -0.10777695565E+03  0.10777695565E+03  0.00000000000E+00 0. -1.
       25    2    1    2    0    0  0.00000000000E+00  0.00000000000E+00  0.37201116158E+02  0.25275502745E+03  0.25000236171E+03 0.  0.
       24    2    3    3    0    0 -0.29638912695E+02 -0.76147504525E+02 -0.29847364237E+02  0.12032040494E+03  0.83121760705E+02 0.  0.
      -24    2    3    3    0    0  0.29638912695E+02  0.76147504525E+02  0.67048480395E+02  0.13243462251E+03  0.79790493951E+02 0.  0.
      -13    1    4    4    0    0  0.27163408125E+02 -0.25956387926E+02  0.30389485080E+01  0.37693766370E+02  0.00000000000E+00 0.  1.
       14    1    4    4    0    0 -0.56802320820E+02 -0.50191116599E+02 -0.32886312745E+02  0.82626638574E+02  0.00000000000E+00 0. -1.
        3    1    5    5  501    0  0.30594908647E+02  0.43396332594E+02  0.80976343981E+02  0.96832114519E+02  0.00000000000E+00 0. -1.
       -4    1    5    5    0  501 -0.95599595144E+00  0.32751171931E+02 -0.13927863587E+02  0.35602507990E+02  0.00000000000E+00 0.  1.
</event>
<event>
 9   1  0.7570500E-01  0.2499990E+03  0.7546771E-02  0.1113305E+00
       21   -1    0    0  503  502  0.00000000000E+00  0.00000000000E+00  0.43778833722E+01  0.43778833722E+01  0.00000000000E+00 0. -1.
       21   -1    0    0  502  503 -0.00000000000E+00 -0.00000000000E+00 -0.35690482153E+04  0.35690482153E+04  0.00000000000E+00 0. -1.
       25    2    1    2    0    0  0.71054273576E-14  0.00000000000E+00 -0.35646703320E+04  0.35734260987E+04  0.24999901469E+03 0.  0.
       24    2    3    3    0    0 -0.34633131136E+02 -0.72839028198E+02 -0.25245260890E+04  0.25270702462E+04  0.79668546715E+02 0.  0.
      -24    2    3    3    0    0  0.34633131136E+02  0.72839028198E+02 -0.10401442430E+04  0.10463558525E+04  0.80346413284E+02 0.  0.
      -13    1    4    4    0    0 -0.37326526624E+02  0.33267696714E+00 -0.11381006980E+04  0.11387126850E+04  0.00000000000E+00 0.  1.
       14    1    4    4    0    0  0.26933954883E+01 -0.73171705165E+02 -0.13864253910E+04  0.13883575612E+04  0.00000000000E+00 0. -1.
        3    1    5    5  501    0  0.18201635014E+02  0.13544083132E+02 -0.57901360310E+02  0.62187693564E+02  0.00000000000E+00 0. -1.
       -4    1    5    5    0  501  0.16431496121E+02  0.59294945066E+02 -0.98224288267E+03  0.98416815897E+03  0.00000000000E+00 0.  1.
</event>
<event>
 9   1  0.7570500E-01  0.2499933E+03  0.7546771E-02  0.1113309E+00
       21   -1    0    0  503  502  0.00000000000E+00  0.00000000000E+00  0.10877491414E+04  0.10877491414E+04  0.00000000000E+00 0. -1.
       21   -1    0    0  502  503 -0.00000000000E+00 -0.00000000000E+00 -0.14363760576E+02  0.14363760576E+02  0.00000000000E+00 0. -1.
       25    2    1    2    0    0 -0.71054273576E-14  0.00000000000E+00  0.10733853808E+04  0.11021129020E+04  0.24999334578E+03 0.  0.
       24    2    3    3    0    0 -0.39975043686E+02 -0.86227319871E+02  0.59053209841E+03  0.60331401258E+03  0.78908071287E+02 0.  0.
      -24    2    3    3    0    0  0.39975043686E+02  0.86227319871E+02  0.48285328243E+03  0.49879888942E+03  0.81362675193E+02 0.  0.
      -13    1    4    4    0    0 -0.15933768804E+02 -0.95700273038E+02  0.43879045453E+03  0.44938790620E+03  0.00000000000E+00 0.  1.
       14    1    4    4    0    0 -0.24041274882E+02  0.94729531674E+01  0.15174164388E+03  0.15392610639E+03  0.00000000000E+00 0. -1.
        3    1    5    5  501    0  0.25891184743E+02  0.28748449732E+01  0.38558165930E+02  0.46533325058E+02  0.00000000000E+00 0. -1.
       -4    1    5    5    0  501  0.14083858943E+02  0.83352474898E+02  0.44429511650E+03  0.45226556436E+03  0.00000000000E+00 0.  1.
</event>
<event>
 9   1  0.7570500E-01  0.2500000E+03  0.7546771E-02  0.1113305E+00
       21   -1    0    0  503  502  0.00000000000E+00  0.00000000000E+00  0.34101785485E+03  0.34101785485E+03  0.00000000000E+00 0.  1.
       21   -1    0    0  502  503 -0.00000000000E+00 -0.00000000000E+00 -0.45818714031E+02  0.45818714031E+02  0.00000000000E+00 0.  1.
       25    2    1    2    0    0  0.00000000000E+00 -0.35527136788E-14  0.29519914082E+03  0.38683656888E+03  0.24999999657E+03 0.  0.
       24    2    3    3    0    0 -0.44954301532E+02 -0.18321075579E+02  0.22621082492E+02  0.98355748853E+02  0.82495993374E+02 0.  0.
      -24    2    3    3    0    0  0.44954301532E+02  0.18321075579E+02  0.27257805832E+03  0.28848082002E+03  0.81029837751E+02 0.  0.
      -13    1    4    4    0    0  0.63847351218E+00 -0.40735648812E+02 -0.41107530376E+01  0.40947515469E+02  0.00000000000E+00 0.  1.
       14    1    4    4    0    0 -0.45592775044E+02  0.22414573233E+02  0.26731835530E+02  0.57408233384E+02  0.00000000000E+00 0. -1.
        3    1    5    5  501    0  0.99532564141E+01  0.71784344360E+01  0.23708555688E+03  0.23740294546E+03  0.00000000000E+00 0. -1.
       -4    1    5    5    0  501  0.35001045118E+02  0.11142641143E+02  0.35492501448E+02  0.51077874565E+02  0.00000000000E+00 0.  1.
</event>
<event>
 9   1  0.7570500E-01  0.2500002E+03  0.7546771E-02  0.1113305E+00
       21   -1    0    0  503  502  0.00000000000E+00  0.00000000000E+00  0.19961353255E+02  0.19961353255E+02  0.00000000000E+00 0.  1.
       21   -1    0    0  502  503 -0.00000000000E+00 -0.00000000000E+00 -0.78276356599E+03  0.78276356599E+03  0.00000000000E+00 0.  1.
       25    2    1    2    0    0  0.00000000000E+00 -0.35527136788E-14 -0.76280221273E+03  0.80272491925E+03  0.25000016045E+03 0.  0.
       24    2    3    3    0    0  0.10698967532E+02  0.62835807346E+01 -0.76071028404E+02  0.11105052833E+03  0.79946652132E+02 0.  0.
      -24    2    3    3    0    0 -0.10698967532E+02 -0.62835807346E+01 -0.68673118433E+03  0.69167439091E+03  0.81607550024E+02 0.  0.
      -13    1    4    4    0    0 -0.27993151100E+02 -0.19757480600E+02 -0.32519582990E+02  0.47238732264E+02  0.00000000000E+00 0.  1.
       14    1    4    4    0    0  0.38692118632E+02  0.26041061334E+02 -0.43551445415E+02  0.63811796067E+02  0.00000000000E+00 0. -1.
        1    1    5    5  501    0 -0.15490984312E+01 -0.43232479832E+02 -0.30552993620E+03  0.30857736296E+03  0.00000000000E+00 0. -1.
       -2    1    5    5    0  501 -0.91498691007E+01  0.36948899097E+02 -0.38120124813E+03  0.38309702795E+03  0.00000000000E+00 0.  1.
</event>
<event>
 9   1  0.7570500E-01  0.2499832E+03  0.7546771E-02  0.1113315E+00
       21   -1    0    0  503  502  0.00000000000E+00  0.00000000000E+00  0.96410791611E+02  0.96410791611E+02  0.00000000000E+00 0.  1.
       21   -1    0    0  502  503 -0.00000000000E+00 -0.00000000000E+00 -0.16204510687E+03  0.16204510687E+03  0.00000000000E+00 0.  1.
       25    2    1    2    0    0  0.00000000000E+00  0.71054273576E-14 -0.65634315257E+02  0.25845589848E+03  0.24998317567E+03 0.  0.
       24    2    3    3    0    0 -0.87625625067E+02  0.31291688135E+02 -0.64414660930E+02  0.13865580265E+03  0.80117183876E+02 0.  0.
      -24    2    3    3    0    0  0.87625625067E+02 -0.31291688135E+02 -0.12196543267E+01  0.11980009583E+03  0.75453001851E+02 0.  0.
      -13    1    4    4    0    0 -0.58907117781E+02 -0.17025157332E+02 -0.13434150036E+02  0.62772453310E+02  0.00000000000E+00 0.  1.
       14    1    4    4    0    0 -0.28718507286E+02  0.48316845467E+02 -0.50980510894E+02  0.75883349344E+02  0.00000000000E+00 0. -1.
        1    1    5    5  501    0  0.84129722646E+02 -0.44835967410E+02 -0.18969968685E+02  0.97200483116E+02  0.00000000000E+00 0. -1.
       -2    1    5    5    0  501  0.34959024208E+01  0.13544279274E+02  0.17750314358E+02  0.22599612709E+02  0.00000000000E+00 0.  1.
</event>
<event>
 9   1  0.7570500E-01  0.2500052E+03  0.7546771E-02  0.1113302E+00
       21   -1    0    0  503  502  0.00000000000E+00  0.00000000000E+00  0.97961979304E+02  0.97961979304E+02  0.00000000000E+00 0.  1.
       21   -1    0    0  502  503 -0.00000000000E+00 -0.00000000000E+00 -0.15950734598E+03  0.15950734598E+03  0.00000000000E+00 0.  1.
       25    2    1    2    0    0 -0.35527136788E-14  0.14210854715E-13 -0.61545366680E+02  0.25746932529E+03  0.25000524255E+03 0.  0.
       24    2    3    3    0    0  0.26020581399E+02  0.68464103654E+02 -0.86208833402E+02  0.13868571993E+03  0.80233171518E+02 0.  0.
      -24    2    3    3    0    0 -0.26020581399E+02 -0.68464103654E+02  0.24663466722E+02  0.11878360535E+03  0.90204512995E+02 0.  0.
      -13    1    4    4    0    0  0.33729635083E+02 -0.55057482185E+01 -0.24556028227E+02  0.42083251640E+02  0.00000000000E+00 0.  1.
       14    1    4    4    0    0 -0.77090536843E+01  0.73969851872E+02 -0.61652805175E+02  0.96602468294E+02  0.00000000000E+00 0. -1.
        1    1    5    5  501    0  0.29082354279E+02 -0.33551041407E+02 -0.91111826370E+01  0.45326254632E+02  0.00000000000E+00 0. -1.
       -2    1    5    5    0  501 -0.55102935678E+02 -0.34913062246E+02  0.33774649359E+02  0.73457350722E+02  0.00000000000E+00 0.  1.
</event>
<event>
 9   1  0.7570500E-01  0.2499993E+03  0.7546771E-02  0.1113305E+00
       21   -1    0    0  503  502  0.00000000000E+00  0.00000000000E+00  0.65830903972E+03  0.65830903972E+03  0.00000000000E+00 0. -1.
       21   -1    0    0  502  503 -0.00000000000E+00 -0.00000000000E+00 -0.23734927149E+02  0.23734927149E+02  0.00000000000E+00 0. -1.
       25    2    1    2    0    0 -0.28421709430E-13  0.00000000000E+00  0.63457411257E+03  0.68204396687E+03  0.24999933680E+03 0.  0.
       24    2    3    3    0    0  0.70498801672E+02  0.64013505427E+02  0.35360311808E+03  0.37464051999E+03  0.79073030690E+02 0.  0.
      -24    2    3    3    0    0 -0.70498801672E+02 -0.64013505427E+02  0.28097099449E+03  0.30740344689E+03  0.80525582886E+02 0.  0.
      -13    1    4    4    0    0  0.73509780516E+02  0.27042065812E+02  0.16792892099E+03  0.18529728454E+03  0.00000000000E+00 0.  1.
       14    1    4    4    0    0 -0.30109788440E+01  0.36971439616E+02  0.18567419709E+03  0.18934323544E+03  0.00000000000E+00 0. -1.
        3    1    5    5  501    0 -0.38204193821E+02 -0.61541106772E+02  0.99550803056E+02  0.12311470520E+03  0.00000000000E+00 0. -1.
       -4    1    5    5    0  501 -0.32294607851E+02 -0.24723986552E+01  0.18142019143E+03  0.18428874168E+03  0.00000000000E+00 0.  1.
</event>
<event>
 9   1  0.7570500E-01  0.2500028E+03  0.7546771E-02  0.1113303E+00
       21   -1    0    0  503  502  0.00000000000E+00  0.00000000000E+00  0.38771828135E+03  0.38771828135E+03  0.00000000000E+00 0. -1.
       21   -1    0    0  502  503 -0.00000000000E+00 -0.00000000000E+00 -0.40300784993E+02  0.40300784993E+02  0.00000000000E+00 0. -1.
       25    2    1    2    0    0  0.71054273576E-14  0.14210854715E-13  0.34741749636E+03  0.42801906634E+03  0.25000280874E+03 0.  0.
       24    2    3    3    0    0  0.43140674732E+02 -0.33472160830E+02  0.30810463382E+03  0.32307238189E+03  0.80410168466E+02 0.  0.
      -24    2    3    3    0    0 -0.43140674732E+02  0.33472160830E+02  0.39312862535E+02  0.10494668445E+03  0.80540685676E+02 0.  0.
      -13    1    4    4    0    0  0.39494021500E+02 -0.42567163594E+02  0.30784145341E+03  0.31327001386E+03  0.00000000000E+00 0.  1.
       14    1    4    4    0    0  0.36466532328E+01  0.90950027638E+01  0.26318041618E+00  0.98023680305E+01  0.00000000000E+00 0. -1.
        1    1    5    5  501    0 -0.20314395307E+02  0.55581151390E+02  0.42720869987E+02  0.72986380778E+02  0.00000000000E+00 0. -1.
       -2    1    5    5    0  501 -0.22826279425E+02 -0.22108990561E+02 -0.34080074513E+01  0.31960303671E+02  0.00000000000E+00 0.  1.
</event>
<event>
 9   1  0.7570500E-01  0.2499971E+03  0.7546771E-02  0.1113307E+00
       21   -1    0    0  503  502  0.00000000000E+00  0.00000000000E+00  0.12932539721E+02  0.12932539721E+02  0.00000000000E+00 0.  1.
       21   -1    0    0  502  503 -0.00000000000E+00 -0.00000000000E+00 -0.12081644268E+04  0.12081644268E+04  0.00000000000E+00 0.  1.
       25    2    1    2    0    0  0.00000000000E+00  0.00000000000E+00 -0.11952318871E+04  0.12210969665E+04  0.24999707550E+03 0.  0.
       24    2    3    3    0    0  0.63307739377E+02  0.15334931829E+02 -0.24131307836E+03  0.26247813956E+03  0.80123292248E+02 0.  0.
      -24    2    3    3    0    0 -0.63307739377E+02 -0.15334931829E+02 -0.95391880874E+03  0.95861882699E+03  0.68890723432E+02 0.  0.
      -13    1    4    4    0    0  0.48349707733E+02 -0.27838630303E+02 -0.15638742579E+03  0.16604129161E+03  0.00000000000E+00 0.  1.
       14    1    4    4    0    0  0.14958031644E+02  0.43173562132E+02 -0.84925652565E+02  0.96436847945E+02  0.00000000000E+00 0. -1.
        3    1    5    5  501    0  0.11270481956E+02 -0.15143651565E+02 -0.26607233861E+03  0.26674115415E+03  0.00000000000E+00 0. -1.
       -4    1    5    5    0  501 -0.74578221334E+02 -0.19128026493E+00 -0.68784647014E+03  0.69187767283E+03  0.00000000000E+00 0.  1.
</event>
<event>
 9   1  0.7570500E-01  0.2499983E+03  0.7546771E-02  0.1113306E+00
       21   -1    0    0  503  502  0.00000000000E+00  0.00000000000E+00  0.12225450792E+02  0.12225450792E+02  0.00000000000E+00 0. -1.
       21   -1    0    0  502  503 -0.00000000000E+00 -0.00000000000E+00 -0.12780538222E+04  0.12780538222E+04  0.00000000000E+00 0. -1.
       25    2    1    2    0    0  0.00000000000E+00  0.35527136788E-14 -0.12658283714E+04  0.12902792730E+04  0.24999827290E+03 0.  0.
       24    2    3    3    0    0 -0.46865480289E+02  0.14029091956E+02 -0.10608852363E+04  0.10650778799E+04  0.80747860707E+02 0.  0.
      -24    2    3    3    0    0  0.46865480289E+02 -0.14029091956E+02 -0.20494313515E+03  0.22520139313E+03  0.79503397136E+02 0.  0.
      -13    1    4    4    0    0  0.87892241045E+01 -0.65341071981E+01 -0.63341772951E+03  0.63351240325E+03  0.00000000000E+00 0.  1.
       14    1    4    4    0    0 -0.55654704393E+02  0.20563199155E+02 -0.42746750678E+03  0.43156547665E+03  0.00000000000E+00 0. -1.
        3    1    5    5  501    0  0.35781757414E+02 -0.28592298954E+02 -0.20142264997E+03  0.20656460889E+03  0.00000000000E+00 0. -1.
       -4    1    5    5    0  501  0.11083722875E+02  0.14563206997E+02 -0.35204851787E+01  0.18636784237E+02  0.00000000000E+00 0.  1.
</event>
<event>
 9   1  0.7570500E-01  0.2500013E+03  0.7546771E-02  0.1113304E+00
       21   -1    0    0  503  502  0.00000000000E+00  0.00000000000E+00  0.41090024949E+03  0.41090024949E+03  0.00000000000E+00 0. -1.
       21   -1    0    0  502  503 -0.00000000000E+00 -0.00000000000E+00 -0.38026666999E+02  0.38026666999E+02  0.00000000000E+00 0. -1.
       25    2    1    2    0    0  0.00000000000E+00  0.00000000000E+00  0.37287358249E+03  0.44892691649E+03  0.25000133565E+03 0.  0.
       24    2    3    3    0    0  0.32807016603E+02  0.25937722140E+02  0.34793028525E+02  0.97787702173E+02  0.81257701752E+02 0.  0.
      -24    2    3    3    0    0 -0.32807016603E+02 -0.25937722140E+02  0.33808055397E+03  0.35113921432E+03  0.85154102032E+02 0.  0.
      -13    1    4    4    0    0  0.29246200547E+02  0.52022750511E+02  0.79811962483E+01  0.60211347026E+02  0.00000000000E+00 0.  1.
       14    1    4    4    0    0  0.35608160562E+01 -0.26085028370E+02  0.26811832277E+02  0.37576355147E+02  0.00000000000E+00 0. -1.
        3    1    5    5  501    0 -0.74469064908E+01  0.24119305116E+02  0.20726016385E+03  0.20879169719E+03  0.00000000000E+00 0. -1.
       -4    1    5    5    0  501 -0.25360110112E+02 -0.50057027256E+02  0.13082039011E+03  0.14234751713E+03  0.00000000000E+00 0.  1.
</event>
<event>
 9   1  0.7570500E-01  0.2500190E+03  0.7546771E-02  0.1113293E+00
       21   -1    0    0  503  502  0.00000000000E+00  0.00000000000E+00  0.50956356668E+02  0.50956356668E+02  0.00000000000E+00 0.  1.
       21   -1    0    0  502  503 -0.00000000000E+00 -0.00000000000E+00 -0.30668149529E+03  0.30668149529E+03  0.00000000000E+00 0.  1.
       25    2    1    2    0    0  0.00000000000E+00  0.14210854715E-13 -0.25572513862E+03  0.35763785196E+03  0.25001897254E+03 0.  0.
       24    2    3    3    0    0 -0.63134539546E+02  0.49538379745E+02 -0.53181022357E+02  0.12519899758E+03  0.80040906453E+02 0.  0.
      -24    2    3    3    0    0  0.63134539546E+02 -0.49538379745E+02 -0.20254411626E+03  0.23243885437E+03  0.81016546689E+02 0.  0.
      -13    1    4    4    0    0 -0.53256931754E+02  0.69286675075E+02 -0.54647799670E+02  0.10306952087E+03  0.00000000000E+00 0.  1.
       14    1    4    4    0    0 -0.98776077927E+01 -0.19748295330E+02  0.14667773131E+01  0.22129476719E+02  0.00000000000E+00 0. -1.
        3    1    5    5  501    0 -0.11940837852E+02  0.25140318011E+01 -0.72463309965E+02  0.73483571332E+02  0.00000000000E+00 0. -1.
       -4    1    5    5    0  501  0.75075377399E+02 -0.52052411546E+02 -0.13008080630E+03  0.15895528304E+03  0.00000000000E+00 0.  1.
</event>
<event>
 9   1  0.7570500E-01  0.2499991E+03  0.7546771E-02  0.1113305E+00
       21   -1    0    0  503  502  0.00000000000E+00  0.00000000000E+00  0.77895452851E+02  0.77895452851E+02  0.00000000000E+00 0. -1.
       21   -1    0    0  502  503 -0.00000000000E+00 -0.00000000000E+00 -0.20058785100E+03  0.20058785100E+03  0.00000000000E+00 0. -1.
       25    2    1    2    0    0  0.00000000000E+00  0.71054273576E-14 -0.12269239815E+03  0.27848330385E+03  0.24999905192E+03 0.  0.
       24    2    3    3    0    0  0.78149788435E+02  0.40665908690E+02 -0.96701809377E+02  0.15609556119E+03  0.85167357160E+02 0.  0.
      -24    2    3    3    0    0 -0.78149788435E+02 -0.40665908690E+02 -0.25990588772E+02  0.12238774266E+03  0.80883516775E+02 0.  0.
      -13    1    4    4    0    0  0.64675701442E+02 -0.13838528742E+02 -0.47328419645E+02  0.81329149392E+02  0.00000000000E+00 0.  1.
       14    1    4    4    0    0  0.13474086993E+02  0.54504437432E+02 -0.49373389732E+02  0.74766411802E+02  0.00000000000E+00 0. -1.
        1    1    5    5  501    0 -0.12847605408E+02 -0.50009718080E+02 -0.41271478677E+00  0.51635290264E+02  0.00000000000E+00 0. -1.
       -2    1    5    5    0  501 -0.65302183027E+02  0.93438093898E+01 -0.25577873986E+02  0.70752452393E+02  0.00000000000E+00 0.  1.
</event>
<event>
 9   1  0.7570500E-01  0.2500002E+03  0.7546771E-02  0.1113305E+00
       21   -1    0    0  503  502  0.00000000000E+00  0.00000000000E+00  0.53263720589E+03  0.53263720589E+03  0.00000000000E+00 0. -1.
       21   -1    0    0  502  503 -0.00000000000E+00 -0.00000000000E+00 -0.29335210938E+02  0.29335210938E+02  0.00000000000E+00 0. -1.
       25    2    1    2    0    0 -0.14210854715E-13 -0.71054273576E-14  0.50330199495E+03  0.56197241683E+03  0.25000019831E+03 0.  0.
       24    2    3    3    0    0 -0.76138400001E+02 -0.31892204591E+02  0.36106821629E+03  0.37915532742E+03  0.81082284319E+02 0.  0.
      -24    2    3    3    0    0  0.76138400001E+02  0.31892204591E+02  0.14223377866E+03  0.18281708940E+03  0.79859074110E+02 0.  0.
      -13    1    4    4    0    0 -0.78253038955E+02 -0.57016975450E+01  0.18231517644E+03  0.19848141228E+03  0.00000000000E+00 0.  1.
       14    1    4    4    0    0  0.21146389547E+01 -0.26190507046E+02  0.17875303985E+03  0.18067391515E+03  0.00000000000E+00 0. -1.
        1    1    5    5  501    0  0.40819435592E+01  0.18546997571E+02  0.92075295220E+02  0.94013368049E+02  0.00000000000E+00 0. -1.
       -2    1    5    5    0  501  0.72056456441E+02  0.13345207020E+02  0.50158483439E+02  0.88803721354E+02  0.00000000000E+00 0.  1.
</event>
<event>
 9   1  0.7570500E-01  0.2499965E+03  0.7546771E-02  0.1113307E+00
       21   -1    0    0  503  502  0.00000000000E+00  0.00000000000E+00  0.98131183993E+02  0.98131183993E+02  0.00000000000E+00 0.  1.
       21   -1    0    0  502  503 -0.00000000000E+00 -0.00000000000E+00 -0.15922115413E+03  0.15922115413E+03  0.00000000000E+00 0.  1.
       25    2    1    2    0    0  0.00000000000E+00  0.17763568394E-14 -0.61089970136E+02  0.25735233812E+03  0.24999648295E+03 0.  0.
       24    2    3    3    0    0  0.19694290094E+02 -0.98207832878E+01 -0.12517111309E+03  0.15152636918E+03  0.82511333520E+02 0.  0.
      -24    2    3    3    0    0 -0.19694290094E+02  0.98207832878E+01  0.64081142953E+02  0.10582596894E+03  0.81292250388E+02 0.  0.
      -13    1    4    4    0    0  0.49399663739E+02  0.85500698901E+01 -0.67093936492E+02  0.83755756737E+02  0.00000000000E+00 0.  1.
       14    1    4    4    0    0 -0.29705373645E+02 -0.18370853178E+02 -0.58077176597E+02  0.67770612446E+02  0.00000000000E+00 0. -1.
        3    1    5    5  501    0 -0.73812352119E+01  0.23715990863E+02  0.78489098872E+02  0.82325387929E+02  0.00000000000E+00 0. -1.
       -4    1    5    5    0  501 -0.12313054882E+02 -0.13895207575E+02 -0.14407955920E+02  0.23500581011E+02  0.00000000000E+00 0.  1.
</event>
<event>
 9   1  0.7570500E-01  0.2500015E+03  0.7546771E-02  0.1113304E+00
       21   -1    0    0  503  502  0.00000000000E+00  0.00000000000E+00  0.26859857025E+03  0.26859857025E+03  0.00000000000E+00 0. -1.
       21   -1    0    0  502  503 -0.00000000000E+00 -0.00000000000E+00 -0.58173006300E+02  0.58173006300E+02  0.00000000000E+00 0. -1.
       25    2    1    2    0    0 -0.17763568394E-14  0.00000000000E+00  0.21042556395E+03  0.32677157655E+03  0.25000149055E+03 0.  0.
       24    2    3    3    0    0 -0.14719103740E+02 -0.51353894720E+02  0.11729414543E+02  0.10564839704E+03  0.90388772052E+02 0.  0.
      -24    2    3    3    0    0  0.14719103740E+02  0.51353894720E+02  0.19869614940E+03  0.22112317951E+03  0.81002630891E+02 0.  0.
      -13    1    4    4    0    0  0.27897957286E+02 -0.30850213042E+02  0.33670343551E+02  0.53513771128E+02  0.00000000000E+00 0.  1.
       14    1    4    4    0    0 -0.42617061027E+02 -0.20503681678E+02 -0.21940929008E+02  0.52134625909E+02  0.00000000000E+00 0. -1.
        1    1    5    5  501    0  0.25539916572E+02  0.38728637768E+02  0.39123210061E+02  0.60686244631E+02  0.00000000000E+00 0. -1.
       -2    1    5    5    0  501 -0.10820812831E+02  0.12625256952E+02  0.15957293934E+03  0.16043693488E+03  0.00000000000E+00 0.  1.
</event>
<event>
 9   1  0.7570500E-01  0.2500018E+03  0.7546771E-02  0.1113304E+00
       21   -1    0    0  503  502  0.00000000000E+00  0.00000000000E+00  0.37941241842E+03  0.37941241842E+03  0.00000000000E+00 0.  1.
       21   -1    0    0  502  503 -0.00000000000E+00 -0.00000000000E+00 -0.41182706039E+02  0.41182706039E+02  0.00000000000E+00 0.  1.
       25    2    1    2    0    0 -0.71054273576E-14 -0.71054273576E-14  0.33822971238E+03  0.42059512446E+03  0.25000184076E+03 0.  0.
       24    2    3    3    0    0 -0.37145552695E+02  0.59421402447E+02  0.57536877056E+02  0.12012036129E+03  0.78789046323E+02 0.  0.
      -24    2    3    3    0    0  0.37145552695E+02 -0.59421402447E+02  0.28069283533E+03  0.30047476318E+03  0.81153683511E+02 0.  0.
      -13    1    4    4    0    0 -0.43264487345E+02  0.31407803007E+02  0.70643106427E+02  0.88592970605E+02  0.00000000000E+00 0.  1.
       14    1    4    4    0    0  0.61189346502E+01  0.28013599440E+02 -0.13106229371E+02  0.31527390681E+02  0.00000000000E+00 0. -1.
        1    1    5    5  501    0  0.56467974598E+02 -0.63066249389E+02  0.19546988592E+03  0.21301281715E+03  0.00000000000E+00 0. -1.
       -2    1    5    5    0  501 -0.19322421904E+02  0.36448469417E+01  0.85222949407E+02  0.87461946029E+02  0.00000000000E+00 0.  1.
</event>
<event>
 9   1  0.7570500E-01  0.2500115E+03  0.7546771E-02  0.1113298E+00
       21   -1    0    0  503  502  0.00000000000E+00  0.00000000000E+00  0.77373585734E+02  0.77373585734E+02  0.00000000000E+00 0.  1.
       21   -1    0    0  502  503 -0.00000000000E+00 -0.00000000000E+00 -0.20196089246E+03  0.20196089246E+03  0.00000000000E+00 0.  1.
       25    2    1    2    0    0  0.71054273576E-14 -0.14210854715E-13 -0.12458730672E+03  0.27933447819E+03  0.25001150715E+03 0.  0.
       24    2    3    3    0    0  0.42336480733E+02  0.72431723827E+02 -0.11019003915E+02  0.11667095361E+03  0.80324098197E+02 0.  0.
      -24    2    3    3    0    0 -0.42336480733E+02 -0.72431723827E+02 -0.11356830281E+03  0.16266352458E+03  0.80764661886E+02 0.  0.
      -13    1    4    4    0    0 -0.41852645134E+01  0.52888183037E+02 -0.32072894869E+02  0.61994733076E+02  0.00000000000E+00 0.  1.
       14    1    4    4    0    0  0.46521745246E+02  0.19543540791E+02  0.21053890954E+02  0.54676220532E+02  0.00000000000E+00 0. -1.
        1    1    5    5  501    0 -0.40632499693E+02 -0.32412190104E+02 -0.11095120672E+03  0.12252232601E+03  0.00000000000E+00 0. -1.
       -2    1    5    5    0  501 -0.17039810401E+01 -0.40019533723E+02 -0.26170960882E+01  0.40141198571E+02  0.00000000000E+00 0.  1.
</event>
<event>
 9   1  0.7570500E-01  0.2499877E+03  0.7546771E-02  0.1113313E+00
       21   -1    0    0  503  502  0.00000000000E+00  0.00000000000E+00  0.37277174929E+03  0.37277174929E+03  0.00000000000E+00 0.  1.
       21   -1    0    0  502  503 -0.00000000000E+00 -0.00000000000E+00 -0.41911594072E+02  0.41911594072E+02  0.00000000000E+00 0.  1.
       25    2    1    2    0    0  0.00000000000E+00  0.00000000000E+00  0.33086015521E+03  0.41468334336E+03  0.24998766560E+03 0.  0.
       24    2    3    3    0    0 -0.83584749190E+02  0.47914664461E+02  0.16508337301E+03  0.20759951193E+03  0.81011184042E+02 0.  0.
      -24    2    3    3    0    0  0.83584749190E+02 -0.47914664461E+02  0.16577678220E+03  0.20708383143E+03  0.78227529397E+02 0.  0.
      -13    1    4    4    0    0 -0.42821538481E+02  0.19694392956E+02  0.14773803392E+03  0.15507443354E+03  0.00000000000E+00 0.  1.
       14    1    4    4    0    0 -0.40763210709E+02  0.28220271504E+02  0.17345339091E+02  0.52525078384E+02  0.00000000000E+00 0. -1.
        3    1    5    5  501    0  0.28486127586E+02 -0.59682533842E+02  0.10601809495E+03  0.12495319431E+03  0.00000000000E+00 0. -1.
       -4    1    5    5    0  501  0.55098621604E+02  0.11767869381E+02  0.59758687251E+02  0.82130637124E+02  0.00000000000E+00 0.  1.
</event>
<event>
 9   1  0.7570500E-01  0.2499941E+03  0.7546771E-02  0.1113309E+00
       21   -1    0    0  503  502  0.00000000000E+00  0.00000000000E+00  0.15816313123E+03  0.15816313123E+03  0.00000000000E+00 0.  1.
       21   -1    0    0  502  503 -0.00000000000E+00 -0.00000000000E+00 -0.98785730670E+02  0.98785730670E+02  0.00000000000E+00 0.  1.
       25    2    1    2    0    0  0.71054273576E-14  0.14210854715E-13  0.59377400559E+02  0.25694886190E+03  0.24999408380E+03 0.  0.
       24    2    3    3    0    0  0.23991004487E+01  0.95827384540E+02  0.29666824280E+02  0.12812663498E+03  0.79672271322E+02 0.  0.
      -24    2    3    3    0    0 -0.23991004487E+01 -0.95827384540E+02  0.29710576280E+02  0.12882222692E+03  0.80770071776E+02 0.  0.
      -13    1    4    4    0    0 -0.31878404692E+02  0.31402585713E+02  0.32164013835E+02  0.55107883838E+02  0.00000000000E+00 0.  1.
       14    1    4    4    0    0  0.34277505141E+02  0.64424798827E+02 -0.24971895550E+01  0.73018751141E+02  0.00000000000E+00 0. -1.
        3    1    5    5  501    0 -0.36967231399E+02 -0.48625389369E+02 -0.41521373539E+01  0.61222911832E+02  0.00000000000E+00 0. -1.
       -4    1    5    5    0  501  0.34568130951E+02 -0.47201995171E+02  0.33862713633E+02  0.67599315086E+02  0.00000000000E+00 0.  1.
</event>
<event>
 9   1  0.7570500E-01  0.2499913E+03  0.7546771E-02  0.1113310E+00
       21   -1    0    0  503  502  0.00000000000E+00  0.00000000000E+00  0.20859267270E+03  0.20859267270E+03  0.00000000000E+00 0. -1.
       21   -1    0    0  502  503 -0.00000000000E+00 -0.00000000000E+00 -0.74901515102E+02  0.74901515102E+02  0.00000000000E+00 0. -1.
       25    2    1    2    0    0 -0.88817841970E-15  0.35527136788E-14  0.13369115760E+03  0.28349418780E+03  0.24999125764E+03 0.  0.
       24    2    3    3    0    0 -0.50692221197E+01 -0.19727081421E+01 -0.40725612158E+02  0.91401996583E+02  0.81646560879E+02 0.  0.
      -24    2    3    3    0    0  0.50692221197E+01  0.19727081421E+01  0.17441676976E+03  0.19209219122E+03  0.80303248781E+02 0.  0.
      -13    1    4    4    0    0  0.45695079502E+01 -0.40748007221E+02 -0.13979449259E+02  0.43320959096E+02  0.00000000000E+00 0.  1.
       14    1    4    4    0    0 -0.96387300699E+01  0.38775299079E+02 -0.26746162899E+02  0.48081037487E+02  0.00000000000E+00 0. -1.
        1    1    5    5  501    0  0.19930623068E+02 -0.21075253027E+02  0.15688326378E+03  0.15954232818E+03  0.00000000000E+00 0. -1.
       -2    1    5    5    0  501 -0.14861400948E+02  0.23047961169E+02  0.17533505977E+02  0.32549863042E+02  0.00000000000E+00 0.  1.
</event>
<event>
 9   1  0.7570500E-01  0.2499994E+03  0.7546771E-02  0.1113305E+00
       21   -1    0    0  503  502  0.00000000000E+00  0.00000000000E+00  0.74296679069E+01  0.74296679069E+01  0.00000000000E+00 0. -1.
       21   -1    0    0  502  503 -0.00000000000E+00 -0.00000000000E+00 -0.21030451961E+04  0.21030451961E+04  0.00000000000E+00 0. -1.
       25    2    1    2    0    0  0.71054273576E-14  0.00000000000E+00 -0.20956155282E+04  0.21104748640E+04  0.24999941920E+03 0.  0.
       24    2    3    3    0    0 -0.60407854713E+02 -0.60800194644E+01 -0.42775926221E+03  0.43956163709E+03  0.80934361336E+02 0.  0.
      -24    2    3    3    0    0  0.60407854713E+02  0.60800194644E+01 -0.16678562660E+04  0.16709132269E+04  0.80749070380E+02 0.  0.
      -13    1    4    4    0    0 -0.39199303952E+02  0.22714099892E+02 -0.36095932986E+03  0.36379135995E+03  0.00000000000E+00 0.  1.
       14    1    4    4    0    0 -0.21208550761E+02 -0.28794119357E+02 -0.66799932349E+02  0.75770277133E+02  0.00000000000E+00 0. -1.
        3    1    5    5  501    0  0.46092889020E+02  0.26668340149E+02 -0.15209683264E+04  0.15219002610E+04  0.00000000000E+00 0. -1.
       -4    1    5    5    0  501  0.14314965693E+02 -0.20588320684E+02 -0.14688793963E+03  0.14901296588E+03  0.00000000000E+00 0.  1.
</event>
<event>
 9   1  0.7570500E-01  0.2499989E+03  0.7546771E-02  0.1113306E+00
       21   -1    0    0  503  502  0.00000000000E+00  0.00000000000E+00  0.13167732449E+03  0.13167732449E+03  0.00000000000E+00 0. -1.
       21   -1    0    0  502  503 -0.00000000000E+00 -0.00000000000E+00 -0.11866019481E+03  0.11866019481E+03  0.00000000000E+00 0. -1.
       25    2    1    2    0    0  0.00000000000E+00 -0.71054273576E-14  0.13017129677E+02  0.25033751930E+03  0.24999885581E+03 0.  0.
       24    2    3    3    0    0 -0.44782369653E+02  0.62842878400E+02 -0.52437797664E+02  0.12058670679E+03  0.76398581361E+02 0.  0.
      -24    2    3    3    0    0  0.44782369653E+02 -0.62842878400E+02  0.65454927341E+02  0.12975081251E+03  0.81217226232E+02 0.  0.
      -13    1    4    4    0    0 -0.66434972786E+01  0.48856885584E+02  0.57299796807E+01  0.49638331883E+02  0.00000000000E+00 0.  1.
       14    1    4    4    0    0 -0.38138872374E+02  0.13985992816E+02 -0.58167777344E+02  0.70948374909E+02  0.00000000000E+00 0. -1.
        1    1    5    5  501    0  0.10492339992E+02 -0.47760612983E+02  0.76413534892E+02  0.90720414823E+02  0.00000000000E+00 0. -1.
       -2    1    5    5    0  501  0.34290029661E+02 -0.15082265417E+02 -0.10958607551E+02  0.39030397688E+02  0.00000000000E+00 0.  1.
</event>
<event>
 9   1  0.7570500E-01  0.2500040E+03  0.7546771E-02  0.1113302E+00
       21   -1    0    0  503  502  0.00000000000E+00  0.00000000000E+00  0.18711726153E+03  0.18711726153E+03  0.00000000000E+00 0. -1.
       21   -1    0    0  502  503 -0.00000000000E+00 -0.00000000000E+00 -0.83506485818E+02  0.83506485818E+02  0.00000000000E+00 0. -1.
       25    2    1    2    0    0  0.00000000000E+00  0.14210854715E-13  0.10361077572E+03  0.27062374735E+03  0.25000403954E+03 0.  0.
       24    2    3    3    0    0  0.69297986371E+02 -0.61586342473E+02  0.76366262320E+02  0.14482380695E+03  0.80913784633E+02 0.  0.
      -24    2    3    3    0    0 -0.69297986371E+02  0.61586342473E+02  0.27244513396E+02  0.12579994041E+03  0.80549816893E+02 0.  0.
      -13    1    4    4    0    0  0.38908125304E+02  0.58869359535E+01  0.12381974292E+01  0.39370437671E+02  0.00000000000E+00 0.  1.
       14    1    4    4    0    0  0.30389861068E+02 -0.67473278426E+02  0.75128064891E+02  0.10545336928E+03  0.00000000000E+00 0. -1.
        1    1    5    5  501    0 -0.62159215571E+02  0.43139596047E+02 -0.16811305088E+02  0.77507501613E+02  0.00000000000E+00 0. -1.
       -2    1    5    5    0  501 -0.71387707998E+01  0.18446746426E+02  0.44055818484E+02  0.48292438792E+02  0.00000000000E+00 0.  1.
</event>
<event>
 9   1  0.7570500E-01  0.2500100E+03  0.7546771E-02  0.1113299E+00
       21   -1    0    0  503  502  0.00000000000E+00  0.00000000000E+00  0.60001228838E+02  0.60001228838E+02  0.00000000000E+00 0.  1.
       21   -1    0    0  502  503 -0.00000000000E+00 -0.00000000000E+00 -0.26043207906E+03  0.26043207906E+03  0.00000000000E+00 0.  1.
       25    2    1    2    0    0  0.71054273576E-14  0.00000000000E+00 -0.20043085022E+03  0.32043330789E+03  0.25000995798E+03 0.  0.
       24    2    3    3    0    0 -0.26970030778E+02 -0.39421352367E+02 -0.20612614313E+03  0.22636636218E+03  0.80450714483E+02 0.  0.
      -24    2    3    3    0    0  0.26970030778E+02  0.39421352367E+02  0.56952929124E+01  0.94066945718E+02  0.80837666547E+02 0.  0.
      -13    1    4    4    0    0  0.39488702114E+01 -0.45416933062E+02 -0.17927021788E+03  0.18497595088E+03  0.00000000000E+00 0.  1.
       14    1    4    4    0    0 -0.30918900989E+02  0.59955806954E+01 -0.26855925245E+02  0.41390411293E+02  0.00000000000E+00 0. -1.
        3    1    5    5  501    0  0.32408643164E+02 -0.16175795754E+02 -0.67252745344E+01  0.36840274668E+02  0.00000000000E+00 0. -1.
       -4    1    5    5    0  501 -0.54386123868E+01  0.55597148120E+02  0.12420567447E+02  0.57226671050E+02  0.00000000000E+00 0.  1.
</event>
<event>
 9   1  0.7570500E-01  0.2499909E+03  0.7546771E-02  0.1113311E+00
       21   -1    0    0  503  502  0.00000000000E+00  0.00000000000E+00  0.48738850256E+02  0.48738850256E+02  0.00000000000E+00 0.  1.
       21   -1    0    0  502  503 -0.00000000000E+00 -0.00000000000E+00 -0.32056278334E+03  0.32056278334E+03  0.00000000000E+00 0.  1.
       25    2    1    2    0    0  0.00000000000E+00  0.71054273576E-14 -0.27182393308E+03  0.36930163359E+03  0.24999089179E+03 0.  0.
       24    2    3    3    0    0  0.62654984335E+02  0.61880612437E+02 -0.19085101927E+03  0.22495859017E+03  0.80171057605E+02 0.  0.
      -24    2    3    3    0    0 -0.62654984335E+02 -0.61880612437E+02 -0.80972913811E+02  0.14434304342E+03  0.80767841101E+02 0.  0.
      -13    1    4    4    0    0  0.67382068700E+01  0.54885271361E+02 -0.55502785372E+02  0.78347658729E+02  0.00000000000E+00 0.  1.
       14    1    4    4    0    0  0.55916777465E+02  0.69953410756E+01 -0.13534823390E+03  0.14661093144E+03  0.00000000000E+00 0. -1.
        1    1    5    5  501    0 -0.68522527773E+02 -0.13088691386E+02 -0.54475709301E+02  0.88511318815E+02  0.00000000000E+00 0. -1.
       -2    1    5    5    0  501  0.58675434382E+01 -0.48791921051E+02 -0.26497204509E+02  0.55831724608E+02  0.00000000000E+00 0.  1.
</event>
<event>
 9   1  0.7570500E-01  0.2499944E+03  0.7546771E-02  0.1113308E+00
       21   -1    0    0  503  502  0.00000000000E+00  0.00000000000E+00  0.30660155904E+03  0.30660155904E+03  0.00000000000E+00 0.  1.
       21   -1    0    0  502  503 -0.00000000000E+00 -0.00000000000E+00 -0.50959609162E+02  0.50959609162E+02  0.00000000000E+00 0.  1.
       25    2    1    2    0    0  0.00000000000E+00 -0.14210854715E-13  0.25564194988E+03  0.35756116820E+03  0.24999436487E+03 0.  0.
       24    2    3    3    0    0  0.40085646626E+02  0.74536192189E+02  0.19502205763E+03  0.22710971823E+03  0.79891915361E+02 0.  0.
      -24    2    3    3    0    0 -0.40085646626E+02 -0.74536192189E+02  0.60619892249E+02  0.13045144997E+03  0.78614925126E+02 0.  0.
      -13    1    4    4    0    0  0.30770783361E+02  0.55065764431E+02  0.50006674665E+02  0.80496875915E+02  0.00000000000E+00 0.  1.
       14    1    4    4    0    0  0.93148632644E+01  0.19470427758E+02  0.14501538296E+03  0.14661284231E+03  0.00000000000E+00 0. -1.
        3    1    5    5  501    0 -0.12873264217E+01  0.12448313077E+02 -0.63355753705E+01  0.14027017611E+02  0.00000000000E+00 0. -1.
       -4    1    5    5    0  501 -0.38798320204E+02 -0.86984505265E+02  0.66955467619E+02  0.11642443236E+03  0.00000000000E+00 0.  1.
</event>
<event>
 9   1  0.7570500E-01  0.2500046E+03  0.7546771E-02  0.1113302E+00
       21   -1    0    0  503  502  0.00000000000E+00  0.00000000000E+00  0.38814948809E+02  0.38814948809E+02  0.00000000000E+00 0.  1.
       21   -1    0    0  502  503 -0.00000000000E+00 -0.00000000000E+00 -0.40256584557E+03  0.40256584557E+03  0.00000000000E+00 0.  1.
       25    2    1    2    0    0  0.00000000000E+00  0.00000000000E+00 -0.36375089676E+03  0.44138079438E+03  0.25000458146E+03 0.  0.
       24    2    3    3    0    0 -0.97781991813E+01  0.46477562061E+02 -0.34333393101E+02  0.99665324570E+02  0.80614006757E+02 0.  0.
      -24    2    3    3    0    0  0.97781991813E+01 -0.46477562061E+02 -0.32941750366E+03  0.34171546981E+03  0.77445423590E+02 0.  0.
      -13    1    4    4    0    0  0.10149671081E+02  0.61505969689E+02 -0.40004186543E+02  0.74069798646E+02  0.00000000000E+00 0.  1.
       14    1    4    4    0    0 -0.19927870263E+02 -0.15028407628E+02  0.56707934421E+01  0.25595525924E+02  0.00000000000E+00 0. -1.
        3    1    5    5  501    0  0.44132446289E+01  0.12349934198E+02 -0.18799242959E+03  0.18844933321E+03  0.00000000000E+00 0. -1.
       -4    1    5    5    0  501  0.53649545524E+01 -0.58827496259E+02 -0.14142507407E+03  0.15326613660E+03  0.00000000000E+00 0.  1.
</event>
<event>
 9   1  0.7570500E-01  0.2499950E+03  0.7546771E-02  0.1113308E+00
       21   -1    0    0  503  502  0.00000000000E+00  0.00000000000E+00  0.23751961334E+03  0.23751961334E+03  0.00000000000E+00 0.  1.
       21   -1    0    0  502  503 -0.00000000000E+00 -0.00000000000E+00 -0.65781383535E+02  0.65781383535E+02  0.00000000000E+00 0.  1.
       25    2    1    2    0    0  0.00000000000E+00  0.14210854715E-13  0.17173822981E+03  0.30330099688E+03  0.24999495021E+03 0.  0.
       24    2    3    3    0    0 -0.87642252698E+02 -0.35028469098E+02  0.10604063779E+03  0.16267201228E+03  0.79431785894E+02 0.  0.
      -24    2    3    3    0    0  0.87642252698E+02  0.35028469098E+02  0.65697592020E+02  0.14062898460E+03  0.80945534819E+02 0.  0.
      -13    1    4    4    0    0 -0.57754874429E+02  0.18264957406E+02  0.66187557170E+02  0.89721942207E+02  0.00000000000E+00 0.  1.
       14    1    4    4    0    0 -0.29887378269E+02 -0.53293426504E+02  0.39853080617E+02  0.72950070069E+02  0.00000000000E+00 0. -1.
        3    1    5    5  501    0  0.63609971773E+02  0.57716697906E+02  0.64752395560E+02  0.10756541478E+03  0.00000000000E+00 0. -1.
       -4    1    5    5    0  501  0.24032280925E+02 -0.22688228807E+02  0.94519645932E+00  0.33063569820E+02  0.00000000000E+00 0.  1.
</event>
<event>
 9   1  0.7570500E-01  0.2500034E+03  0.7546771E-02  0.1113303E+00
       21   -1    0    0  503  502  0.00000000000E+00  0.00000000000E+00  0.11293310571E+04  0.11293310571E+04  0.00000000000E+00 0. -1.
       21   -1    0    0  502  503 -0.00000000000E+00 -0.00000000000E+00 -0.13836005432E+02  0.13836005432E+02  0.00000000000E+00 0. -1.
       25    2    1    2    0    0  0.00000000000E+00  0.71054273576E-14  0.11154950516E+04  0.11431670625E+04  0.25000344510E+03 0.  0.
       24    2    3    3    0    0 -0.66799652601E+02 -0.56227264997E+02  0.37416565765E+03  0.39211292007E+03  0.78287315737E+02 0.  0.
      -24    2    3    3    0    0  0.66799652601E+02  0.56227264997E+02  0.74132939397E+03  0.75105414241E+03  0.83002141877E+02 0.  0.
      -13    1    4    4    0    0 -0.52451057944E+02 -0.11149114385E+02  0.96068149451E+02  0.11002047796E+03  0.00000000000E+00 0.  1.
       14    1    4    4    0    0 -0.14348594657E+02 -0.45078150612E+02  0.27809750820E+03  0.28209244211E+03  0.00000000000E+00 0. -1.
        3    1    5    5  501    0 -0.29000297169E+01  0.40873629979E+02  0.41462625036E+03  0.41664612238E+03  0.00000000000E+00 0. -1.
       -4    1    5    5    0  501  0.69699682318E+02  0.15353635018E+02  0.32670314360E+03  0.33440802004E+03  0.00000000000E+00 0.  1.
</event>
<event>
 9   1  0.7570500E-01  0.2499998E+03  0.7546771E-02  0.1113305E+00
       21   -1    0    0  503  502  0.00000000000E+00  0.00000000000E+00  0.54729720816E+03  0.54729720816E+03  0.00000000000E+00 0. -1.
       21   -1    0    0  502  503 -0.00000000000E+00 -0.00000000000E+00 -0.28549345510E+02  0.28549345510E+02  0.00000000000E+00 0. -1.
       25    2    1    2    0    0 -0.13322676296E-14  0.00000000000E+00  0.51874786265E+03  0.57584655367E+03  0.24999981674E+03 0.  0.
       24    2    3    3    0    0  0.37350621219E+01  0.95178632693E+02  0.25715525425E+03  0.28556542912E+03  0.79660948468E+02 0.  0.
      -24    2    3    3    0    0 -0.37350621219E+01 -0.95178632693E+02  0.26159260841E+03  0.29028112455E+03  0.82216273870E+02 0.  0.
      -13    1    4    4    0    0 -0.22225122456E+01  0.63755167131E+02  0.24182493453E+03  0.25009790055E+03  0.00000000000E+00 0.  1.
       14    1    4    4    0    0  0.59575743675E+01  0.31423465562E+02  0.15330319711E+02  0.35467528568E+02  0.00000000000E+00 0. -1.
        1    1    5    5  501    0 -0.36240986776E+02 -0.82835117700E+02  0.17522901564E+03  0.19718081491E+03  0.00000000000E+00 0. -1.
       -2    1    5    5    0  501  0.32505924654E+02 -0.12343514993E+02  0.86363592767E+02  0.93100309643E+02  0.00000000000E+00 0.  1.
</event>
<event>
 9   1  0.7570500E-01  0.2500051E+03  0.7546771E-02  0.1113302E+00
       21   -1    0    0  503  502  0.00000000000E+00  0.00000000000E+00  0.86447984579E+03  0.86447984579E+03  0.00000000000E+00 0.  1.
       21   -1    0    0  502  503 -0.00000000000E+00 -0.00000000000E+00 -0.18075195203E+02  0.18075195203E+02  0.00000000000E+00 0.  1.
       25    2    1    2    0    0  0.00000000000E+00  0.00000000000E+00  0.84640465059E+03  0.88255504099E+03  0.25000513564E+03 0.  0.
       24    2    3    3    0    0 -0.15659861885E+02 -0.82873058254E+02  0.57910255380E+03  0.59060240857E+03  0.79613203256E+02 0.  0.
      -24    2    3    3    0    0  0.15659861885E+02  0.82873058254E+02  0.26730209679E+03  0.29195263242E+03  0.81686924130E+02 0.  0.
      -13    1    4    4    0    0  0.28837389757E+02 -0.13712094397E+02  0.21273877503E+03  0.21512183288E+03  0.00000000000E+00 0.  1.
       14    1    4    4    0    0 -0.44497251643E+02 -0.69160963857E+02  0.36636377877E+03  0.37548057569E+03  0.00000000000E+00 0. -1.
        1    1    5    5  501    0  0.49410150451E+02  0.48478134510E+02  0.15888836844E+03  0.17331187530E+03  0.00000000000E+00 0. -1.
       -2    1    5    5    0  501 -0.33750288566E+02  0.34394923744E+02  0.10841372834E+03  0.11864075713E+03  0.00000000000E+00 0.  1.
</event>
<event>
 9   1  0.7570500E-01  0.2499970E+03  0.7546771E-02  0.1113307E+00
       21   -1    0    0  503  502  0.00000000000E+00  0.00000000000E+00  0.30149038147E+03  0.30149038147E+03  0.00000000000E+00 0. -1.
       21   -1    0    0  502  503 -0.00000000000E+00 -0.00000000000E+00 -0.51824622527E+02  0.51824622527E+02  0.00000000000E+00 0. -1.
       25    2    1    2    0    0  0.00000000000E+00  0.14210854715E-13  0.24966575894E+03  0.35331500400E+03  0.24999700170E+03 0.  0.
       24    2    3    3    0    0 -0.14340399008E+02 -0.93316088979E+02  0.98694479723E+02  0.15844470041E+03  0.80315523127E+02 0.  0.
      -24    2    3    3    0    0  0.14340399008E+02  0.93316088979E+02  0.15097127922E+03  0.19487030358E+03  0.79174292313E+02 0.  0.
      -13    1    4    4    0    0  0.60817190202E+01 -0.22017940915E+02  0.78246039916E+02  0.81512083711E+02  0.00000000000E+00 0.  1.
       14    1    4    4    0    0 -0.20422118028E+02 -0.71298148064E+02  0.20448439807E+02  0.76932616702E+02  0.00000000000E+00 0. -1.
        3    1    5    5  501    0 -0.10146414011E+02 -0.16190417594E+00 -0.50602797217E+01  0.11339416259E+02  0.00000000000E+00 0. -1.
       -4    1    5    5    0  501  0.24486813018E+02  0.93477993155E+02  0.15603155894E+03  0.18353088733E+03  0.00000000000E+00 0.  1.
</event>
<event>
 9   1  0.7570500E-01  0.2500059E+03  0.7546771E-02  0.1113301E+00
       21   -1    0    0  503  502  0.00000000000E+00  0.00000000000E+00  0.27817095610E+03  0.27817095610E+03  0.00000000000E+00 0. -1.
       21   -1    0    0  502  503 -0.00000000000E+00 -0.00000000000E+00 -0.56173152171E+02  0.56173152171E+02  0.00000000000E+00 0. -1.
       25    2    1    2    0    0  0.00000000000E+00  0.00000000000E+00  0.22199780393E+03  0.33434410827E+03  0.25000591550E+03 0.  0.
       24    2    3    3    0    0  0.88017363745E+02  0.18322249545E+02  0.16022051709E+03  0.19902610787E+03  0.76537679394E+02 0.  0.
      -24    2    3    3    0    0 -0.88017363745E+02 -0.18322249545E+02  0.61777286836E+02  0.13531800040E+03  0.80073509445E+02 0.  0.
      -13    1    4    4    0    0 -0.76729105459E+01 -0.13149463203E+02  0.36059099878E+02  0.39141290510E+02  0.00000000000E+00 0.  1.
       14    1    4    4    0    0  0.95690274291E+02  0.31471712748E+02  0.12416141721E+03  0.15988481736E+03  0.00000000000E+00 0. -1.
        1    1    5    5  501    0 -0.36852367308E+02 -0.17282375331E+02  0.72394539390E+02  0.83052674893E+02  0.00000000000E+00 0. -1.
       -2    1    5    5    0  501 -0.51164996437E+02 -0.10398742142E+01 -0.10617252554E+02  0.52265325509E+02  0.00000000000E+00 0.  1.
</event>
<event>
 9   1  0.7570500E-01  0.2499982E+03  0.7546771E-02  0.1113306E+00
       21   -1    0    0  503  502  0.00000000000E+00  0.00000000000E+00  0.26187491716E+02  0.26187491716E+02  0.00000000000E+00 0. -1.
       21   -1    0    0  502  503 -0.00000000000E+00 -0.00000000000E+00 -0.59665023539E+03  0.59665023539E+03  0.00000000000E+00 0. -1.
       25    2    1    2    0    0  0.00000000000E+00  0.00000000000E+00 -0.57046274367E+03  0.62283772711E+03  0.24999818477E+03 0.  0.
       24    2    3    3    0    0 -0.79504871223E+02 -0.25631488593E+02 -0.16249391530E+03  0.19986295740E+03  0.81011921824E+02 0.  0.
      -24    2    3    3    0    0  0.79504871223E+02  0.25631488593E+02 -0.40796882838E+03  0.42297476970E+03  0.74101910387E+02 0.  0.
      -13    1    4    4    0    0 -0.38104670734E+02  0.15411045868E+02 -0.12238123189E+03  0.12909931133E+03  0.00000000000E+00 0.  1.
       14    1    4    4    0    0 -0.41400200489E+02 -0.41042534461E+02 -0.40112683405E+02  0.70763646073E+02  0.00000000000E+00 0. -1.
        1    1    5    5  501    0  0.37218101456E+02  0.82473337194E+01 -0.54198405491E+02  0.66262151695E+02  0.00000000000E+00 0. -1.
       -2    1    5    5    0  501  0.42286769767E+02  0.17384154874E+02 -0.35377042289E+03  0.35671261801E+03  0.00000000000E+00 0.  1.
</event>
<event>
 9   1  0.7570500E-01  0.2499740E+03  0.7546771E-02  0.1113321E+00
       21   -1    0    0  503  502  0.00000000000E+00  0.00000000000E+00  0.28697871535E+03  0.28697871535E+03  0.00000000000E+00 0.  1.
       21   -1    0    0  502  503 -0.00000000000E+00 -0.00000000000E+00 -0.54435228258E+02  0.54435228258E+02  0.00000000000E+00 0.  1.
       25    2    1    2    0    0  0.00000000000E+00  0.00000000000E+00  0.23254348709E+03  0.34141394361E+03  0.24997401365E+03 0.  0.
       24    2    3    3    0    0 -0.65123738434E+02 -0.71275832343E+02  0.11936560672E+03  0.17333904421E+03  0.80479379946E+02 0.  0.
      -24    2    3    3    0    0  0.65123738434E+02  0.71275832343E+02  0.11317788038E+03  0.16807489940E+03  0.78221439630E+02 0.  0.
      -13    1    4    4    0    0 -0.38285040926E+02 -0.42857159272E+02  0.12127696377E+03  0.13420351114E+03  0.00000000000E+00 0.  1.
       14    1    4    4    0    0 -0.26838697508E+02 -0.28418673070E+02 -0.19113570563E+01  0.39135533071E+02  0.00000000000E+00 0. -1.
        1    1    5    5  501    0  0.71285491750E+02  0.24227960157E+02  0.81874693076E+02  0.11122985550E+03  0.00000000000E+00 0. -1.
       -2    1    5    5    0  501 -0.61617533164E+01  0.47047872186E+02  0.31303187299E+02  0.56845043902E+02  0.00000000000E+00 0.  1.
</event>
<event>
 9   1  0.7570500E-01  0.2499979E+03  0.7546771E-02  0.1113306E+00
       21   -1    0    0  503  502  0.00000000000E+00  0.00000000000E+00  0.55424797947E+02  0.55424797947E+02  0.00000000000E+00 0. -1.
       21   -1    0    0  502  503 -0.00000000000E+00 -0.00000000000E+00 -0.28190869617E+03  0.28190869617E+03  0.00000000000E+00 0. -1.
       25    2    1    2    0    0  0.35527136788E-14  0.00000000000E+00 -0.22648389823E+03  0.33733349412E+03  0.24999786019E+03 0.  0.
       24    2    3    3    0    0  0.67612560523E+01 -0.91370431890E+02 -0.14953595641E+03  0.19283507815E+03  0.80187871258E+02 0.  0.
      -24    2    3    3    0    0 -0.67612560523E+01  0.91370431890E+02 -0.76947941814E+02  0.14449841597E+03  0.81021824601E+02 0.  0.
      -13    1    4    4    0    0  0.39667181772E+02 -0.71395623933E+02 -0.86434990717E+02  0.11891941829E+03  0.00000000000E+00 0.  1.
       14    1    4    4    0    0 -0.32905925719E+02 -0.19974807957E+02 -0.63100965696E+02  0.73915659857E+02  0.00000000000E+00 0. -1.
        3    1    5    5  501    0  0.28542438631E+02  0.27307895533E+02 -0.16717386719E+01  0.39537155583E+02  0.00000000000E+00 0. -1.
       -4    1    5    5    0  501 -0.35303694683E+02  0.64062536358E+02 -0.75276203143E+02  0.10496126039E+03  0.00000000000E+00 0.  1.
</event>
<event>
 9   1  0.7570500E-01  0.2499923E+03  0.7546771E-02  0.1113310E+00
       21   -1    0    0  503  502  0.00000000000E+00  0.00000000000E+00  0.28212816577E+03  0.28212816577E+03  0.00000000000E+00 0.  1.
       21   -1    0    0  502  503 -0.00000000000E+00 -0.00000000000E+00 -0.55379238063E+02  0.55379238063E+02  0.00000000000E+00 0.  1.
       25    2    1    2    0    0  0.00000000000E+00  0.00000000000E+00  0.22674892771E+03  0.33750740384E+03  0.24999234274E+03 0.  0.
       24    2    3    3    0    0 -0.58558515574E+01  0.51488654646E+02  0.22123163474E+03  0.24090303947E+03  0.80034153091E+02 0.  0.
      -24    2    3    3    0    0  0.58558515574E+01 -0.51488654646E+02  0.55172929706E+01  0.96604364368E+02  0.81342425206E+02 0.  0.
      -13    1    4    4    0    0 -0.33084119917E+02  0.58290759933E+02  0.14764864607E+03  0.16214960490E+03  0.00000000000E+00 0.  1.
       14    1    4    4    0    0  0.27228268360E+02 -0.68021052862E+01  0.73582988674E+02  0.78753434569E+02  0.00000000000E+00 0. -1.
        1    1    5    5  501    0  0.30454456654E+02 -0.41356346048E+02  0.30813461377E+02  0.59893995447E+02  0.00000000000E+00 0. -1.
       -2    1    5    5    0  501 -0.24598605097E+02 -0.10132308599E+02 -0.25296168407E+02  0.36710368921E+02  0.00000000000E+00 0.  1.
</event>
<event>
 9   1  0.7570500E-01  0.2499998E+03  0.7546771E-02  0.1113305E+00
       21   -1    0    0  503  502  0.00000000000E+00  0.00000000000E+00  0.10628049420E+02  0.10628049420E+02  0.00000000000E+00 0. -1.
       21   -1    0    0  502  503 -0.00000000000E+00 -0.00000000000E+00 -0.14701638125E+04  0.14701638125E+04  0.00000000000E+00 0. -1.
       25    2    1    2    0    0  0.14210854715E-13  0.71054273576E-14 -0.14595357630E+04  0.14807918619E+04  0.24999978923E+03 0.  0.
       24    2    3    3    0    0 -0.94020317650E+02 -0.15928978790E+02 -0.85030592143E+03  0.85895992994E+03  0.75488070101E+02 0.  0.
      -24    2    3    3    0    0  0.94020317650E+02  0.15928978790E+02 -0.60922984161E+03  0.62183193194E+03  0.80127393413E+02 0.  0.
      -13    1    4    4    0    0 -0.26631526248E+02  0.20594536113E+02 -0.45802802919E+03  0.45926359384E+03  0.00000000000E+00 0.  1.
       14    1    4    4    0    0 -0.67388791402E+02 -0.36523514903E+02 -0.39227789225E+03  0.39969633610E+03  0.00000000000E+00 0. -1.
        3    1    5    5  501    0  0.83461695548E+00 -0.19500775711E+02 -0.18588705278E+03  0.18690899719E+03  0.00000000000E+00 0. -1.
       -4    1    5    5    0  501  0.93185700695E+02  0.35429754501E+02 -0.42334278883E+03  0.43492293475E+03  0.00000000000E+00 0.  1.
</event>
<event>
 9   1  0.7570500E-01  0.2500138E+03  0.7546771E-02  0.1113296E+00
       21   -1    0    0  503  502  0.00000000000E+00  0.00000000000E+00  0.23540120597E+02  0.23540120597E+02  0.00000000000E+00 0. -1.
       21   -1    0    0  502  503 -0.00000000000E+00 -0.00000000000E+00 -0.66383376016E+03  0.66383376016E+03  0.00000000000E+00 0. -1.
       25    2    1    2    0    0  0.35527136788E-14  0.14210854715E-13 -0.64029363957E+03  0.68737388076E+03  0.25001381378E+03 0.  0.
       24    2    3    3    0    0  0.29401012517E+02 -0.83574891307E+02 -0.41583603043E+03  0.43261295657E+03  0.79907346361E+02 0.  0.
      -24    2    3    3    0    0 -0.29401012517E+02  0.83574891307E+02 -0.22445760914E+03  0.25476092418E+03  0.81686768795E+02 0.  0.
      -13    1    4    4    0    0 -0.22829907443E+02 -0.30090853837E+02 -0.21546213977E+03  0.21874779503E+03  0.00000000000E+00 0.  1.
       14    1    4    4    0    0  0.52230919960E+02 -0.53484037470E+02 -0.20037389066E+03  0.21386516154E+03  0.00000000000E+00 0. -1.
        1    1    5    5  501    0 -0.19587492249E+01  0.60479658556E+02 -0.20543456792E+03  0.21416112507E+03  0.00000000000E+00 0. -1.
       -2    1    5    5    0  501 -0.27442263292E+02  0.23095232751E+02 -0.19023041223E+02  0.40599799110E+02  0.00000000000E+00 0.  1.
</event>
<event>
 9   1  0.7570500E-01  0.2500004E+03  0.7546771E-02  0.1113305E+00
       21   -1    0    0  503  502  0.00000000000E+00  0.00000000000E+00  0.25062683783E+02  0.25062683783E+02  0.00000000000E+00 0.  1.
       21   -1    0    0  502  503 -0.00000000000E+00 -0.00000000000E+00 -0.62343903458E+03  0.62343903458E+03  0.00000000000E+00 0.  1.
       25    2    1    2    0    0  0.00000000000E+00  0.00000000000E+00 -0.59837635079E+03  0.64850171836E+03  0.25000044305E+03 0.  0.
       24    2    3    3    0    0 -0.60251825719E-01  0.24623784565E+02 -0.53974671173E+03  0.54639623136E+03  0.81338763305E+02 0.  0.
      -24    2    3    3    0    0  0.60251825719E-01 -0.24623784565E+02 -0.58629639059E+02  0.10210548700E+03  0.79885928068E+02 0.  0.
      -13    1    4    4    0    0  0.38790173457E+02  0.12880433942E+02 -0.34861159934E+03  0.35099947340E+03  0.00000000000E+00 0.  1.
       14    1    4    4    0    0 -0.38850425283E+02  0.11743350623E+02 -0.19113511240E+03  0.19539675796E+03  0.00000000000E+00 0. -1.
        1    1    5    5  501    0 -0.28124129734E+02 -0.31247270071E+02 -0.59836182553E+02  0.73128156702E+02  0.00000000000E+00 0. -1.
       -2    1    5    5    0  501  0.28184381560E+02  0.66234855063E+01  0.12065434937E+01  0.28977330301E+02  0.00000000000E+00 0.  1.
</event>
<event>
 9   1  0.7570500E-01  0.2500021E+03  0.7546771E-02  0.1113303E+00
       21   -1    0    0  503  502  0.00000000000E+00  0.00000000000E+00  0.13153651312E+03  0.13153651312E+03  0.00000000000E+00 0. -1.
       21   -1    0    0  502  503 -0.00000000000E+00 -0.00000000000E+00 -0.11879031120E+03  0.11879031120E+03  0.00000000000E+00 0. -1.
       25    2    1    2    0    0  0.00000000000E+00 -0.14210854715E-13  0.12746201927E+02  0.25032682432E+03  0.25000210661E+03 0.  0.
       24    2    3    3    0    0  0.75468751048E+02  0.57837530879E+02 -0.52658725919E+01  0.12539269546E+03  0.81577486466E+02 0.  0.
      -24    2    3    3    0    0 -0.75468751048E+02 -0.57837530879E+02  0.18012074519E+02  0.12493412886E+03  0.79015121098E+02 0.  0.
      -13    1    4    4    0    0  0.88019835460E+02  0.32256867262E+02  0.77553325177E+01  0.94064563479E+02  0.00000000000E+00 0.  1.
       14    1    4    4    0    0 -0.12551084412E+02  0.25580663618E+02 -0.13021205110E+02  0.31328131983E+02  0.00000000000E+00 0. -1.
        1    1    5    5  501    0 -0.58817584181E+02  0.44808224824E+01  0.11534270674E+02  0.60105119408E+02  0.00000000000E+00 0. -1.
       -2    1    5    5    0  501 -0.16651166867E+02 -0.62318353362E+02  0.64778038453E+01  0.64829009451E+02  0.00000000000E+00 0.  1.
</event>
<event>
 9   1  0.7570500E-01  0.2499997E+03  0.7546771E-02  0.1113305E+00
       21   -1    0    0  503  502  0.00000000000E+00  0.00000000000E+00  0.72947130905E+02  0.72947130905E+02  0.00000000000E+00 0. -1.
       21   -1    0    0  502  503 -0.00000000000E+00 -0.00000000000E+00 -0.21419578047E+03  0.21419578047E+03  0.00000000000E+00 0. -1.
       25    2    1    2    0    0  0.00000000000E+00  0.00000000000E+00 -0.14124864956E+03  0.28714291137E+03  0.24999974110E+03 0.  0.
       24    2    3    3    0    0  0.58681637761E+02 -0.13662489740E+02  0.15881845108E+02  0.10053995455E+03  0.78904063401E+02 0.  0.
      -24    2    3    3    0    0 -0.58681637761E+02  0.13662489740E+02 -0.15713049467E+03  0.18660295682E+03  0.80625510244E+02 0.  0.
      -13    1    4    4    0    0  0.19984188636E+02  0.30526231247E+02  0.20090540215E+02  0.41651511325E+02  0.00000000000E+00 0.  1.
       14    1    4    4    0    0  0.38697449126E+02 -0.44188720986E+02 -0.42086951068E+01  0.58888443227E+02  0.00000000000E+00 0. -1.
        3    1    5    5  501    0 -0.32982897752E+02  0.43789164917E+02 -0.57764305176E+02  0.79637161305E+02  0.00000000000E+00 0. -1.
       -4    1    5    5    0  501 -0.25698740009E+02 -0.30126675177E+02 -0.99366189496E+02  0.10696579552E+03  0.00000000000E+00 0.  1.
</event>
<event>
 9   1  0.7570500E-01  0.2500050E+03  0.7546771E-02  0.1113302E+00
       21   -1    0    0  503  502  0.00000000000E+00  0.00000000000E+00  0.29436969636E+02  0.29436969636E+02  0.00000000000E+00 0. -1.
       21   -1    0    0  502  503 -0.00000000000E+00 -0.00000000000E+00 -0.53081625035E+03  0.53081625035E+03  0.00000000000E+00 0. -1.
       25    2    1    2    0    0  0.00000000000E+00  0.00000000000E+00 -0.50137928071E+03  0.56025321998E+03  0.25000497470E+03 0.  0.
       24    2    3    3    0    0 -0.82164616139E+02  0.13001542801E+02 -0.35410710062E+03  0.37298312494E+03  0.82489444895E+02 0.  0.
      -24    2    3    3    0    0  0.82164616139E+02 -0.13001542801E+02 -0.14727218009E+03  0.18727009504E+03  0.80379905501E+02 0.  0.
      -13    1    4    4    0    0 -0.41077941284E+02 -0.24424870563E+02 -0.25423984814E+03  0.25869262058E+03  0.00000000000E+00 0.  1.
       14    1    4    4    0    0 -0.41086674855E+02  0.37426413364E+02 -0.99867252483E+02  0.11429050436E+03  0.00000000000E+00 0. -1.
        3    1    5    5  501    0  0.49851013703E+02 -0.41018223476E+02 -0.12081150941E+03  0.13697824291E+03  0.00000000000E+00 0. -1.
       -4    1    5    5    0  501  0.32313602436E+02  0.28016680675E+02 -0.26460670684E+02  0.50291852138E+02  0.00000000000E+00 0.  1.
</event>
<event>
 9   1  0.7570500E-01  0.2499990E+03  0.7546771E-02  0.1113305E+00
       21   -1    0    0  503  502  0.00000000000E+00  0.00000000000E+00  0.49233346297E+03  0.49233346297E+03  0.00000000000E+00 0.  1.
       21   -1    0    0  502  503 -0.00000000000E+00 -0.00000000000E+00 -0.31736367514E+02  0.31736367514E+02  0.00000000000E+00 0.  1.
       25    2    1    2    0    0 -0.14210854715E-13  0.71054273576E-14  0.46059709546E+03  0.52406983049E+03  0.24999900576E+03 0.  0.
       24    2    3    3    0    0 -0.68245733987E+02  0.50840926630E+02  0.32182914625E+03  0.34322507952E+03  0.83589328280E+02 0.  0.
      -24    2    3    3    0    0  0.68245733987E+02 -0.50840926630E+02  0.13876794921E+03  0.18084475097E+03  0.78778170826E+02 0.  0.
      -13    1    4    4    0    0 -0.38397882674E+02  0.86284614957E+01  0.37934427590E+02  0.54661398977E+02  0.00000000000E+00 0.  1.
       14    1    4    4    0    0 -0.29847851314E+02  0.42212465135E+02  0.28389471866E+03  0.28856368054E+03  0.00000000000E+00 0. -1.
        3    1    5    5  501    0  0.44916358123E+02 -0.23799252007E+02  0.16462092783E+02  0.53431115672E+02  0.00000000000E+00 0. -1.
       -4    1    5    5    0  501  0.23329375864E+02 -0.27041674624E+02  0.12230585642E+03  0.12741363530E+03  0.00000000000E+00 0.  1.
</event>
<event>
 9   1  0.7570500E-01  0.2500022E+03  0.7546771E-02  0.1113303E+00
       21   -1    0    0  503  502  0.00000000000E+00  0.00000000000E+00  0.26460765080E+02  0.26460765080E+02  0.00000000000E+00 0.  1.
       21   -1    0    0  502  503 -0.00000000000E+00 -0.00000000000E+00 -0.59050732666E+03  0.59050732666E+03  0.00000000000E+00 0.  1.
       25    2    1    2    0    0  0.71054273576E-14 -0.35527136788E-14 -0.56404656158E+03  0.61696809174E+03  0.25000220518E+03 0.  0.
       24    2    3    3    0    0 -0.60053385912E+02 -0.28018733818E+02 -0.11297756322E+03  0.15395051857E+03  0.80903484310E+02 0.  0.
      -24    2    3    3    0    0  0.60053385912E+02  0.28018733818E+02 -0.45106899836E+03  0.46301757317E+03  0.80811961840E+02 0.  0.
      -13    1    4    4    0    0 -0.71421987196E+02 -0.39793491256E+02 -0.11040495339E+03  0.13738222569E+03  0.00000000000E+00 0.  1.
       14    1    4    4    0    0  0.11368601284E+02  0.11774757438E+02 -0.25726098305E+01  0.16568292888E+02  0.00000000000E+00 0. -1.
        1    1    5    5  501    0  0.44443651873E+02 -0.60264065286E+01 -0.38042220733E+03  0.38305692997E+03  0.00000000000E+00 0. -1.
       -2    1    5    5    0  501  0.15609734039E+02  0.34045140347E+02 -0.70646791035E+02  0.79960643204E+02  0.00000000000E+00 0.  1.
</event>
<event>
 9   1  0.7570500E-01  0.2499953E+03  0.7546771E-02  0.1113308E+00
       21   -1    0    0  503  502  0.00000000000E+00  0.00000000000E+00  0.76971800034E+02  0.76971800034E+02  0.00000000000E+00 0. -1.
       21   -1    0    0  502  503 -0.00000000000E+00 -0.00000000000E+00 -0.20298883680E+03  0.20298883680E+03  0.00000000000E+00 0. -1.
       25    2    1    2    0    0  0.00000000000E+00  0.35527136788E-14 -0.12601703677E+03  0.27996063684E+03  0.24999532920E+03 0.  0.
       24    2    3    3    0    0 -0.91382556159E+02  0.24693755985E+02 -0.46803795438E+02  0.13329904983E+03  0.81347945659E+02 0.  0.
      -24    2    3    3    0    0  0.91382556159E+02 -0.24693755985E+02 -0.79213241332E+02  0.14666158701E+03  0.79210670664E+02 0.  0.
      -13    1    4    4    0    0 -0.34415978535E+02  0.46409190393E+02 -0.43357179911E+02  0.72236539101E+02  0.00000000000E+00 0.  1.
       14    1    4    4    0    0 -0.56966577624E+02 -0.21715434408E+02 -0.34466155265E+01  0.61062510727E+02  0.00000000000E+00 0. -1.
        3    1    5    5  501    0  0.36736312439E+02 -0.20570294795E+02  0.87699855592E+01  0.43007049728E+02  0.00000000000E+00 0. -1.
       -4    1    5    5    0  501  0.54646243720E+02 -0.41234611893E+01 -0.87983226891E+02  0.10365453728E+03  0.00000000000E+00 0.  1.
</event>
<event>
 9   1  0.7570500E-01  0.2500023E+03  0.7546771E-02  0.1113303E+00
       21   -1    0    0  503  502  0.00000000000E+00  0.00000000000E+00  0.99335898944E+02  0.99335898944E+02  0.00000000000E+00 0.  1.
       21   -1    0    0  502  503 -0.00000000000E+00 -0.00000000000E+00 -0.15729744053E+03  0.15729744053E+03  0.00000000000E+00 0.  1.
       25    2    1    2    0    0  0.00000000000E+00  0.00000000000E+00 -0.57961541582E+02  0.25663333947E+03  0.25000226124E+03 0.  0.
       24    2    3    3    0    0  0.26347916863E+02 -0.87456896929E+02 -0.48866363470E+02  0.13376507845E+03  0.84630096243E+02 0.  0.
      -24    2    3    3    0    0 -0.26347916863E+02  0.87456896929E+02 -0.90951781122E+01  0.12286826102E+03  0.81675980301E+02 0.  0.
      -13    1    4    4    0    0 -0.16797464136E+02 -0.77757641665E+02 -0.24312542497E+02  0.83183564250E+02  0.00000000000E+00 0.  1.
       14    1    4    4    0    0  0.43145381000E+02 -0.96992552640E+01 -0.24553820973E+02  0.50581514199E+02  0.00000000000E+00 0. -1.
        1    1    5    5  501    0 -0.22412769545E+02  0.60466163368E+02  0.33207532273E+02  0.72534332221E+02  0.00000000000E+00 0. -1.
       -2    1    5    5    0  501 -0.39351473188E+01  0.26990733560E+02 -0.42302710385E+02  0.50333928800E+02  0.00000000000E+00 0.  1.
</event>
<event>
 9   1  0.7570500E-01  0.2499990E+03  0.7546771E-02  0.1113305E+00
       21   -1    0    0  503  502  0.00000000000E+00  0.00000000000E+00  0.98505395925E+02  0.98505395925E+02  0.00000000000E+00 0.  1.
       21   -1    0    0  502  503 -0.00000000000E+00 -0.00000000000E+00 -0.15861944887E+03  0.15861944887E+03  0.00000000000E+00 0.  1.
       25    2    1    2    0    0 -0.14210854715E-13 -0.35527136788E-14 -0.60114052950E+02  0.25712484480E+03  0.24999897290E+03 0.  0.
       24    2    3    3    0    0 -0.72515115983E+02 -0.24703890263E+02 -0.89339601697E+02  0.14286076221E+03  0.80987089763E+02 0.  0.
      -24    2    3    3    0    0  0.72515115983E+02  0.24703890263E+02  0.29225548747E+02  0.11426408259E+03  0.79582809890E+02 0.  0.
      -13    1    4    4    0    0  0.22855851282E+01 -0.26398807194E+02 -0.53923251999E+02  0.60081927622E+02  0.00000000000E+00 0.  1.
       14    1    4    4    0    0 -0.74800701111E+02  0.16949169305E+01 -0.35416349698E+02  0.82778834589E+02  0.00000000000E+00 0. -1.
        1    1    5    5  501    0  0.59721333747E+02  0.26346293487E+02  0.55055563073E+02  0.85392505001E+02  0.00000000000E+00 0. -1.
       -2    1    5    5    0  501  0.12793782236E+02 -0.16424032241E+01 -0.25830014326E+02  0.28871577587E+02  0.00000000000E+00 0.  1.
</event>
<event>
 9   1  0.7570500E-01  0.2499966E+03  0.7546771E-02  0.1113307E+00
       21   -1    0    0  503  502  0.00000000000E+00  0.00000000000E+00  0.60210084350E+02  0.60210084350E+02  0.00000000000E+00 0. -1.
       21   -1    0    0  502  503 -0.00000000000E+00 -0.00000000000E+00 -0.25950106326E+03  0.25950106326E+03  0.00000000000E+00 0. -1.
       25    2    1    2    0    0  0.00000000000E+00  0.71054273576E-14 -0.19929097891E+03  0.31971114761E+03  0.24999664724E+03 0.  0.
       24    2    3    3    0    0 -0.36308526358E+02  0.12591330763E+01  0.13577077551E+02  0.89455459050E+02  0.80610468406E+02 0.  0.
      -24    2    3    3    0    0  0.36308526358E+02 -0.12591330763E+01 -0.21286805646E+03  0.23025568856E+03  0.79906058285E+02 0.  0.
      -13    1    4    4    0    0 -0.39847437961E+01  0.38368425032E+02  0.68117336025E+00  0.38580801180E+02  0.00000000000E+00 0.  1.
       14    1    4    4    0    0 -0.32323782562E+02 -0.37109291955E+02  0.12895904190E+02  0.50874657870E+02  0.00000000000E+00 0. -1.
        1    1    5    5  501    0 -0.82786028873E+01  0.24623858468E+02 -0.27408665615E+02  0.37763800424E+02  0.00000000000E+00 0. -1.
       -2    1    5    5    0  501  0.44587129245E+02 -0.25882991545E+02 -0.18545939085E+03  0.19249188814E+03  0.00000000000E+00 0.  1.
</event>
<event>
 9   1  0.7570500E-01  0.2500056E+03  0.7546771E-02  0.1113301E+00
       21   -1    0    0  503  502  0.00000000000E+00  0.00000000000E+00  0.60340740736E+02  0.60340740736E+02  0.00000000000E+00 0. -1.
       21   -1    0    0  502  503 -0.00000000000E+00 -0.00000000000E+00 -0.25895763713E+03  0.25895763713E+03  0.00000000000E+00 0. -1.
       25    2    1    2    0    0  0.00000000000E+00 -0.71054273576E-14 -0.19861689640E+03  0.31929837787E+03  0.25000556509E+03 0.  0.
       24    2    3    3    0    0  0.81218939142E+02 -0.36436950808E+02 -0.14779595157E+03  0.19063759271E+03  0.81085639876E+02 0.  0.
      -24    2    3    3    0    0 -0.81218939142E+02  0.36436950808E+02 -0.50820944822E+02  0.12866078516E+03  0.77760283853E+02 0.  0.
      -13    1    4    4    0    0  0.46864056104E+02  0.42830578733E+01 -0.12334681382E+03  0.13201901688E+03  0.00000000000E+00 0.  1.
       14    1    4    4    0    0  0.34354883038E+02 -0.40720008681E+02 -0.24449137757E+02  0.58618575832E+02  0.00000000000E+00 0. -1.
        1    1    5    5  501    0 -0.25322383732E+02 -0.23602966282E+02 -0.24861550235E+02  0.42619476948E+02  0.00000000000E+00 0. -1.
       -2    1    5    5    0  501 -0.55896555409E+02  0.60039917090E+02 -0.25959394587E+02  0.86041308208E+02  0.00000000000E+00 0.  1.
</event>
<event>
 9   1  0.7570500E-01  0.2500249E+03  0.7546771E-02  0.1113289E+00
       21   -1    0    0  503  502  0.00000000000E+00  0.00000000000E+00  0.15175830073E+02  0.15175830073E+02  0.00000000000E+00 0. -1.
       21   -1    0    0  502  503 -0.00000000000E+00 -0.00000000000E+00 -0.10298030285E+04  0.10298030285E+04  0.00000000000E+00 0. -1.
       25    2    1    2    0    0  0.71054273576E-14  0.00000000000E+00 -0.10146271984E+04  0.10449788586E+04  0.25002492491E+03 0.  0.
       24    2    3    3    0    0 -0.57619097628E+02  0.65288897558E+02 -0.34220840576E+03  0.36211102461E+03  0.80219702159E+02 0.  0.
      -24    2    3    3    0    0  0.57619097628E+02 -0.65288897558E+02 -0.67241879267E+03  0.68286783397E+03  0.81110081831E+02 0.  0.
      -13    1    4    4    0    0 -0.52168313729E+02  0.32199354963E+02 -0.30860985454E+03  0.31464007013E+03  0.00000000000E+00 0.  1.
       14    1    4    4    0    0 -0.54507838988E+01  0.33089542595E+02 -0.33598551220E+02  0.47470954470E+02  0.00000000000E+00 0. -1.
        3    1    5    5  501    0 -0.14410019843E+02 -0.40234809887E+02 -0.24356818673E+03  0.24728920353E+03  0.00000000000E+00 0. -1.
       -4    1    5    5    0  501  0.72029117471E+02 -0.25054087671E+02 -0.42885060594E+03  0.43557863043E+03  0.00000000000E+00 0.  1.
</event>
<event>
 9   1  0.7570500E-01  0.2499982E+03  0.7546771E-02  0.1113306E+00
       21   -1    0    0  503  502  0.00000000000E+00  0.00000000000E+00  0.16352882731E+03  0.16352882731E+03  0.00000000000E+00 0.  1.
       21   -1    0    0  502  503 -0.00000000000E+00 -0.00000000000E+00 -0.95547521618E+02  0.95547521618E+02  0.00000000000E+00 0.  1.
       25    2    1    2    0    0  0.14210854715E-13  0.14210854715E-13  0.67981305691E+02  0.25907634893E+03  0.24999819329E+03 0.  0.
       24    2    3    3    0    0 -0.57046622759E+02  0.72092349349E+02  0.12755917822E+02  0.12281182079E+03  0.80426400411E+02 0.  0.
      -24    2    3    3    0    0  0.57046622759E+02 -0.72092349349E+02  0.55225387869E+02  0.13626452814E+03  0.84062798910E+02 0.  0.
      -13    1    4    4    0    0  0.10135945980E+02  0.36858654590E+02 -0.16326097526E+02  0.41567286170E+02  0.00000000000E+00 0.  1.
       14    1    4    4    0    0 -0.67182568739E+02  0.35233694759E+02  0.29082015348E+02  0.81244534619E+02  0.00000000000E+00 0. -1.
        3    1    5    5  501    0  0.32910892296E+02 -0.81402204224E+00  0.51241308744E+02  0.60905346116E+02  0.00000000000E+00 0. -1.
       -4    1    5    5    0  501  0.24135730462E+02 -0.71278327307E+02  0.39840791243E+01  0.75359182022E+02  0.00000000000E+00 0.  1.
</event>
<event>
 9   1  0.7570500E-01  0.2499990E+03  0.7546771E-02  0.1113305E+00
       21   -1    0    0  503  502  0.00000000000E+00  0.00000000000E+00  0.11936292447E+03  0.11936292447E+03  0.00000000000E+00 0. -1.
       21   -1    0    0  502  503 -0.00000000000E+00 -0.00000000000E+00 -0.13090220760E+03  0.13090220760E+03  0.00000000000E+00 0. -1.
       25    2    1    2    0    0  0.00000000000E+00  0.00000000000E+00 -0.11539283134E+02  0.25026513207E+03  0.24999896254E+03 0.  0.
       24    2    3    3    0    0 -0.68624902076E+01 -0.29732875053E+02 -0.96291807003E+02  0.12921720941E+03  0.80584350103E+02 0.  0.
      -24    2    3    3    0    0  0.68624902076E+01  0.29732875053E+02  0.84752523869E+02  0.12104792265E+03  0.80860816506E+02 0.  0.
      -13    1    4    4    0    0 -0.43691786934E+02 -0.17162585766E+02 -0.58076086888E+02  0.74675019008E+02  0.00000000000E+00 0.  1.
       14    1    4    4    0    0  0.36829296727E+02 -0.12570289287E+02 -0.38215720115E+02  0.54542190404E+02  0.00000000000E+00 0. -1.
        3    1    5    5  501    0 -0.35556024389E+02  0.42586085692E+01  0.26100953853E+02  0.44312824435E+02  0.00000000000E+00 0. -1.
       -4    1    5    5    0  501  0.42418514597E+02  0.25474266484E+02  0.58651570016E+02  0.76735098220E+02  0.00000000000E+00 0.  1.
</event>
<event>
 9   1  0.7570500E-01  0.2500022E+03  0.7546771E-02  0.1113303E+00
       21   -1    0    0  503  502  0.00000000000E+00  0.00000000000E+00  0.68926990389E+03  0.68926990389E+03  0.00000000000E+00 0. -1.
       21   -1    0    0  502  503 -0.00000000000E+00 -0.00000000000E+00 -0.22669314321E+02  0.22669314321E+02  0.00000000000E+00 0. -1.
       25    2    1    2    0    0  0.71054273576E-14  0.14210854715E-13  0.66660058957E+03  0.71193921821E+03  0.25000220881E+03 0.  0.
       24    2    3    3    0    0  0.52005368847E+02  0.78971650904E+02  0.40231915365E+03  0.42053528698E+03  0.77769828116E+02 0.  0.
      -24    2    3    3    0    0 -0.52005368847E+02 -0.78971650904E+02  0.26428143591E+03  0.29140393122E+03  0.78297469501E+02 0.  0.
      -13    1    4    4    0    0  0.74298382202E+01 -0.53297121541E+01  0.15801402969E+03  0.15827836841E+03  0.00000000000E+00 0.  1.
       14    1    4    4    0    0  0.44575530627E+02  0.84301363058E+02  0.24430512396E+03  0.26225691857E+03  0.00000000000E+00 0. -1.
        3    1    5    5  501    0 -0.91757036577E+01 -0.53815183977E+02  0.21349923148E+03  0.22036830400E+03  0.00000000000E+00 0. -1.
       -4    1    5    5    0  501 -0.42829665189E+02 -0.25156466927E+02  0.50782204427E+02  0.71035627223E+02  0.00000000000E+00 0.  1.
</event>
<event>
 9   1  0.7570500E-01  0.2499982E+03  0.7546771E-02  0.1113306E+00
       21   -1    0    0  503  502  0.00000000000E+00  0.00000000000E+00  0.38879605835E+02  0.38879605835E+02  0.00000000000E+00 0.  1.
       21   -1    0    0  502  503 -0.00000000000E+00 -0.00000000000E+00 -0.40187578597E+03  0.40187578597E+03  0.00000000000E+00 0.  1.
       25    2    1    2    0    0  0.00000000000E+00  0.00000000000E+00 -0.36299618013E+03  0.44075539180E+03  0.24999817722E+03 0.  0.
       24    2    3    3    0    0  0.44638354876E+02  0.76179135343E+02 -0.92830398037E+02  0.14474723007E+03  0.67367903528E+02 0.  0.
      -24    2    3    3    0    0 -0.44638354876E+02 -0.76179135343E+02 -0.27016578210E+03  0.29600816173E+03  0.82676711404E+02 0.  0.
      -13    1    4    4    0    0 -0.45352279931E+01  0.57222413910E+02 -0.57834529112E+02  0.81485002940E+02  0.00000000000E+00 0.  1.
       14    1    4    4    0    0  0.49173582869E+02  0.18956721434E+02 -0.34995868925E+02  0.63262227130E+02  0.00000000000E+00 0. -1.
        3    1    5    5  501    0 -0.58088115010E+02 -0.18402731386E+02 -0.12091681619E+03  0.13540223803E+03  0.00000000000E+00 0. -1.
       -4    1    5    5    0  501  0.13449760134E+02 -0.57776403957E+02 -0.14924896591E+03  0.16060592370E+03  0.00000000000E+00 0.  1.
</event>
<event>
 9   1  0.7570500E-01  0.2499986E+03  0.7546771E-02  0.1113306E+00
       21   -1    0    0  503  502  0.00000000000E+00  0.00000000000E+00  0.66262077342E+02  0.66262077342E+02  0.00000000000E+00 0. -1.
       21   -1    0    0  502  503 -0.00000000000E+00 -0.00000000000E+00 -0.23580346360E+03  0.23580346360E+03  0.00000000000E+00 0. -1.
       25    2    1    2    0    0 -0.71054273576E-14  0.00000000000E+00 -0.16954138626E+03  0.30206554095E+03  0.24999861874E+03 0.  0.
       24    2    3    3    0    0 -0.16938423860E+02  0.91336850554E+02 -0.53160150125E+02  0.13368453117E+03  0.80101322346E+02 0.  0.
      -24    2    3    3    0    0  0.16938423860E+02 -0.91336850554E+02 -0.11638123614E+03  0.16838100977E+03  0.78601792951E+02 0.  0.
      -13    1    4    4    0    0  0.14577096962E+02  0.45086783230E+02  0.10897582240E+02  0.48621672910E+02  0.00000000000E+00 0.  1.
       14    1    4    4    0    0 -0.31515520822E+02  0.46250067324E+02 -0.64057732364E+02  0.85062858263E+02  0.00000000000E+00 0. -1.
        3    1    5    5  501    0  0.37550365615E+02 -0.13135901938E+02 -0.28404637777E+02  0.48881543805E+02  0.00000000000E+00 0. -1.
       -4    1    5    5    0  501 -0.20611941755E+02 -0.78200948617E+02 -0.87976598360E+02  0.11949946597E+03  0.00000000000E+00 0.  1.
</event>
<event>
 9   1  0.7570500E-01  0.2500017E+03  0.7546771E-02  0.1113304E+00
       21   -1    0    0  503  502  0.00000000000E+00  0.00000000000E+00  0.14299042225E+02  0.14299042225E+02  0.00000000000E+00 0.  1.
       21   -1    0    0  502  503 -0.00000000000E+00 -0.00000000000E+00 -0.10927455916E+04  0.10927455916E+04  0.00000000000E+00 0.  1.
       25    2    1    2    0    0  0.00000000000E+00  0.00000000000E+00 -0.10784465494E+04  0.11070446339E+04  0.25000172284E+03 0.  0.
       24    2    3    3    0    0 -0.49641142892E+02  0.81331967713E+02 -0.62384309127E+03  0.63600689057E+03  0.79028034771E+02 0.  0.
      -24    2    3    3    0    0  0.49641142892E+02 -0.81331967713E+02 -0.45460345814E+03  0.47103774329E+03  0.78314235079E+02 0.  0.
      -13    1    4    4    0    0 -0.49923555855E+02  0.80259033754E+02 -0.36122209047E+03  0.37338354620E+03  0.00000000000E+00 0.  1.
       14    1    4    4    0    0  0.28241296321E+00  0.10729339586E+01 -0.26262100080E+03  0.26262334437E+03  0.00000000000E+00 0. -1.
        1    1    5    5  501    0 -0.80859229976E+01  0.63482533752E+01 -0.10496144816E+02  0.14691886456E+02  0.00000000000E+00 0. -1.
       -2    1    5    5    0  501  0.57727065889E+02 -0.87680221088E+02 -0.44410731332E+03  0.45634585684E+03  0.00000000000E+00 0.  1.
</event>
<event>
 9   1  0.7570500E-01  0.2500098E+03  0.7546771E-02  0.1113299E+00
       21   -1    0    0  503  502  0.00000000000E+00  0.00000000000E+00  0.39028169633E+02  0.39028169633E+02  0.00000000000E+00 0.  1.
       21   -1    0    0  502  503 -0.00000000000E+00 -0.00000000000E+00 -0.40038338370E+03  0.40038338370E+03  0.00000000000E+00 0.  1.
       25    2    1    2    0    0  0.00000000000E+00 -0.35527136788E-14 -0.36135521406E+03  0.43941155333E+03  0.25000984474E+03 0.  0.
       24    2    3    3    0    0  0.47006276324E+02  0.10220154866E+02 -0.32856041303E+03  0.34158178860E+03  0.80075787304E+02 0.  0.
      -24    2    3    3    0    0 -0.47006276324E+02 -0.10220154866E+02 -0.32794801032E+02  0.97829764729E+02  0.78620113920E+02 0.  0.
      -13    1    4    4    0    0 -0.91247206333E+01  0.29955461295E+02 -0.15424481407E+03  0.15739140020E+03  0.00000000000E+00 0.  1.
       14    1    4    4    0    0  0.56130996958E+02 -0.19735306429E+02 -0.17431559896E+03  0.18419038841E+03  0.00000000000E+00 0. -1.
        1    1    5    5  501    0  0.16589802689E+02  0.52201438354E+01  0.95891904645E+01  0.19860111497E+02  0.00000000000E+00 0. -1.
       -2    1    5    5    0  501 -0.63596079013E+02 -0.15440298701E+02 -0.42383991497E+02  0.77969653232E+02  0.00000000000E+00 0.  1.
</event>
<event>
 9   1  0.7570500E-01  0.2499501E+03  0.7546771E-02  0.1113336E+00
       21   -1    0    0  503  502  0.00000000000E+00  0.00000000000E+00  0.59987216322E+03  0.59987216322E+03  0.00000000000E+00 0.  1.
       21   -1    0    0  502  503 -0.00000000000E+00 -0.00000000000E+00 -0.26036814794E+02  0.26036814794E+02  0.00000000000E+00 0.  1.
       25    2    1    2    0    0 -0.35527136788E-14  0.00000000000E+00  0.57383534843E+03  0.62590897802E+03  0.24995007833E+03 0.  0.
       24    2    3    3    0    0 -0.17045826461E+02 -0.22808813667E+02  0.51634184191E+03  0.52339656873E+03  0.80772942727E+02 0.  0.
      -24    2    3    3    0    0  0.17045826461E+02  0.22808813667E+02  0.57493506524E+02  0.10251240929E+03  0.79953039871E+02 0.  0.
      -13    1    4    4    0    0 -0.26085913256E+02  0.25483881852E+02  0.21156750815E+03  0.21468747893E+03  0.00000000000E+00 0.  1.
       14    1    4    4    0    0  0.90400867943E+01 -0.48292695519E+02  0.30477433376E+03  0.30870908981E+03  0.00000000000E+00 0. -1.
        3    1    5    5  501    0  0.14941378955E+02  0.42493462049E+02  0.37042990775E+01  0.45195806814E+02  0.00000000000E+00 0. -1.
       -4    1    5    5    0  501  0.21044475066E+01 -0.19684648381E+02  0.53789207446E+02  0.57316602472E+02  0.00000000000E+00 0.  1.
</event>
<event>
 9   1  0.7570500E-01  0.2499995E+03  0.7546771E-02  0.1113305E+00
       21   -1    0    0  503  502  0.00000000000E+00  0.00000000000E+00  0.12583405483E+03  0.12583405483E+03  0.00000000000E+00 0. -1.
       21   -1    0    0  502  503 -0.00000000000E+00 -0.00000000000E+00 -0.12417093583E+03  0.12417093583E+03  0.00000000000E+00 0. -1.
       25    2    1    2    0    0 -0.28421709430E-13  0.00000000000E+00  0.16631189963E+01  0.25000499066E+03  0.24999945878E+03 0.  0.
       24    2    3    3    0    0  0.81306919801E+02  0.39283201018E+02  0.36044501546E+02  0.12544823144E+03  0.79272111046E+02 0.  0.
      -24    2    3    3    0    0 -0.81306919801E+02 -0.39283201018E+02 -0.34381382550E+02  0.12455675922E+03  0.78602300938E+02 0.  0.
      -13    1    4    4    0    0  0.79453399088E+02  0.59537972284E+02  0.34261729703E+02  0.10503084734E+03  0.00000000000E+00 0.  1.
       14    1    4    4    0    0  0.18535207132E+01 -0.20254771266E+02  0.17827718427E+01  0.20417384101E+02  0.00000000000E+00 0. -1.
        1    1    5    5  501    0 -0.74458619793E+01  0.15004328432E+02 -0.28052575190E+02  0.32672889482E+02  0.00000000000E+00 0. -1.
       -2    1    5    5    0  501 -0.73861057822E+02 -0.54287529450E+02 -0.63288073599E+01  0.91883869743E+02  0.00000000000E+00 0.  1.
</event>
<event>
 9   1  0.7570500E-01  0.2500013E+03  0.7546771E-02  0.1113304E+00
       21   -1    0    0  503  502  0.00000000000E+00  0.00000000000E+00  0.18586811035E+02  0.18586811035E+02  0.00000000000E+00 0. -1.
       21   -1    0    0  502  503 -0.00000000000E+00 -0.00000000000E+00 -0.84065881165E+03  0.84065881165E+03  0.00000000000E+00 0. -1.
       25    2    1    2    0    0 -0.35527136788E-14  0.00000000000E+00 -0.82207200062E+03  0.85924562269E+03  0.25000133181E+03 0.  0.
       24    2    3    3    0    0 -0.24022125724E+02  0.81829186958E+02 -0.57325303848E+03  0.58506119506E+03  0.80027979317E+02 0.  0.
      -24    2    3    3    0    0  0.24022125724E+02 -0.81829186958E+02 -0.24881896214E+03  0.27418442763E+03  0.77415412372E+02 0.  0.
      -13    1    4    4    0    0 -0.46025958836E+02  0.19140419177E+02 -0.27704507497E+03  0.28149372657E+03  0.00000000000E+00 0.  1.
       14    1    4    4    0    0  0.22003833112E+02  0.62688767781E+02 -0.29620796351E+03  0.30356746849E+03  0.00000000000E+00 0. -1.
        3    1    5    5  501    0  0.34514561671E+02 -0.35565176859E+02 -0.52425338173E+02  0.72142586972E+02  0.00000000000E+00 0. -1.
       -4    1    5    5    0  501 -0.10492435947E+02 -0.46264010098E+02 -0.19639362396E+03  0.20204184066E+03  0.00000000000E+00 0.  1.
</event>
<event>
 9   1  0.7570500E-01  0.2500000E+03  0.7546771E-02  0.1113305E+00
       21   -1    0    0  503  502  0.00000000000E+00  0.00000000000E+00  0.44533053624E+02  0.44533053624E+02  0.00000000000E+00 0.  1.
       21   -1    0    0  502  503 -0.00000000000E+00 -0.00000000000E+00 -0.35086298604E+03  0.35086298604E+03  0.00000000000E+00 0.  1.
       25    2    1    2    0    0  0.00000000000E+00  0.35527136788E-14 -0.30632993242E+03  0.39539603966E+03  0.25000000137E+03 0.  0.
       24    2    3    3    0    0  0.35273314246E+02 -0.10496415557E+02 -0.13257485129E+02  0.89177533266E+02  0.80140439792E+02 0.  0.
      -24    2    3    3    0    0 -0.35273314246E+02  0.10496415557E+02 -0.29307244729E+03  0.30621850640E+03  0.80770866430E+02 0.  0.
      -13    1    4    4    0    0  0.60330225038E+02 -0.16415627997E+00 -0.37207156589E+01  0.60445071970E+02  0.00000000000E+00 0.  1.
       14    1    4    4    0    0 -0.25056910793E+02 -0.10332259277E+02 -0.95367694704E+01  0.28732461297E+02  0.00000000000E+00 0. -1.
        3    1    5    5  501    0 -0.26209064908E+02  0.39884154524E+02 -0.24151683054E+03  0.24618700270E+03  0.00000000000E+00 0. -1.
       -4    1    5    5    0  501 -0.90642493377E+01 -0.29387738967E+02 -0.51555616746E+02  0.60031503694E+02  0.00000000000E+00 0.  1.
</event>
<event>
 9   1  0.7570500E-01  0.2500014E+03  0.7546771E-02  0.1113304E+00
       21   -1    0    0  503  502  0.00000000000E+00  0.00000000000E+00  0.42811324946E+03  0.42811324946E+03  0.00000000000E+00 0.  1.
       21   -1    0    0  502  503 -0.00000000000E+00 -0.00000000000E+00 -0.36497771274E+02  0.36497771274E+02  0.00000000000E+00 0.  1.
       25    2    1    2    0    0  0.53290705182E-14 -0.35527136788E-14  0.39161547819E+03  0.46461102074E+03  0.25000143566E+03 0.  0.
       24    2    3    3    0    0  0.80970696918E+01 -0.28804951790E+02  0.36470125889E+03  0.37566366614E+03  0.84975843811E+02 0.  0.
      -24    2    3    3    0    0 -0.80970696918E+01  0.28804951790E+02  0.26914219293E+02  0.88947354599E+02  0.79321932054E+02 0.  0.
      -13    1    4    4    0    0  0.46069304867E+02 -0.11276294784E+02  0.21910047225E+03  0.22417527209E+03  0.00000000000E+00 0.  1.
       14    1    4    4    0    0 -0.37972235175E+02 -0.17528657006E+02  0.14560078665E+03  0.15148839405E+03  0.00000000000E+00 0. -1.
        3    1    5    5  501    0  0.39413650592E+01 -0.26173180351E+02 -0.21522549168E+00  0.26469152806E+02  0.00000000000E+00 0. -1.
       -4    1    5    5    0  501 -0.12038434751E+02  0.54978132141E+02  0.27129444785E+02  0.62478201793E+02  0.00000000000E+00 0.  1.
</event>
<event>
 9   1  0.7570500E-01  0.2499978E+03  0.7546771E-02  0.1113306E+00
       21   -1    0    0  503  502  0.00000000000E+00  0.00000000000E+00  0.54839960297E+03  0.54839960297E+03  0.00000000000E+00 0. -1.
       21   -1    0    0  502  503 -0.00000000000E+00 -0.00000000000E+00 -0.28491500022E+02  0.28491500022E+02  0.00000000000E+00 0. -1.
       25    2    1    2    0    0  0.00000000000E+00  0.00000000000E+00  0.51990810295E+03  0.57689110299E+03  0.24999781839E+03 0.  0.
       24    2    3    3    0    0 -0.22870371173E+02 -0.67850014924E+02  0.41336594716E+03  0.42692650578E+03  0.79171691054E+02 0.  0.
      -24    2    3    3    0    0  0.22870371173E+02  0.67850014924E+02  0.10654215579E+03  0.14996459721E+03  0.77533676900E+02 0.  0.
      -13    1    4    4    0    0  0.10357851645E+02 -0.47261359065E+02  0.99543808215E+02  0.11067922527E+03  0.00000000000E+00 0.  1.
       14    1    4    4    0    0 -0.33228222818E+02 -0.20588655858E+02  0.31382213895E+03  0.31624728052E+03  0.00000000000E+00 0. -1.
        3    1    5    5  501    0  0.45705060133E+02  0.15230330886E+02  0.48341679718E+02  0.68248322313E+02  0.00000000000E+00 0. -1.
       -4    1    5    5    0  501 -0.22834688960E+02  0.52619684038E+02  0.58200476070E+02  0.81716274896E+02  0.00000000000E+00 0.  1.
</event>
<event>
 9   1  0.7570500E-01  0.2500026E+03  0.7546771E-02  0.1113303E+00
       21   -1    0    0  503  502  0.00000000000E+00  0.00000000000E+00  0.78562126452E+02  0.78562126452E+02  0.00000000000E+00 0. -1.
       21   -1    0    0  502  503 -0.00000000000E+00 -0.00000000000E+00 -0.19889129089E+03  0.19889129089E+03  0.00000000000E+00 0. -1.
       25    2    1    2    0    0  0.00000000000E+00  0.00000000000E+00 -0.12032916444E+03  0.27745341735E+03  0.25000258195E+03 0.  0.
       24    2    3    3    0    0  0.35393071434E+02 -0.18522706856E+02 -0.15327808183E+03  0.17754335681E+03  0.80197961331E+02 0.  0.
      -24    2    3    3    0    0 -0.35393071434E+02  0.18522706856E+02  0.32948917392E+02  0.99910060537E+02  0.85443717525E+02 0.  0.
      -13    1    4    4    0    0  0.46500294040E+02 -0.12489749395E+02 -0.15712048292E+03  0.16433233808E+03  0.00000000000E+00 0.  1.
       14    1    4    4    0    0 -0.11107222606E+02 -0.60329574610E+01  0.38424010867E+01  0.13211018729E+02  0.00000000000E+00 0. -1.
        3    1    5    5  501    0  0.17691704182E+02 -0.21482392345E+02  0.87891091347E+01  0.29184551001E+02  0.00000000000E+00 0. -1.
       -4    1    5    5    0  501 -0.53084775616E+02  0.40005099201E+02  0.24159808257E+02  0.70725509537E+02  0.00000000000E+00 0.  1.
</event>
<event>
 9   1  0.7570500E-01  0.2500025E+03  0.7546771E-02  0.1113303E+00
       21   -1    0    0  503  502  0.00000000000E+00  0.00000000000E+00  0.35629530254E+02  0.35629530254E+02  0.00000000000E+00 0. -1.
       21   -1    0    0  502  503 -0.00000000000E+00 -0.00000000000E+00 -0.43854953859E+03  0.43854953859E+03  0.00000000000E+00 0. -1.
       25    2    1    2    0    0 -0.17763568394E-14  0.00000000000E+00 -0.40292000834E+03  0.47417906885E+03  0.25000251241E+03 0.  0.
       24    2    3    3    0    0 -0.13471056688E+02 -0.20217272745E+02 -0.38044852549E+03  0.38974697919E+03  0.81064293971E+02 0.  0.
      -24    2    3    3    0    0  0.13471056688E+02  0.20217272745E+02 -0.22471482848E+02  0.84432089653E+02  0.77676268811E+02 0.  0.
      -13    1    4    4    0    0 -0.10837243473E+02 -0.42917777776E+02 -0.34322890548E+03  0.34607147102E+03  0.00000000000E+00 0.  1.
       14    1    4    4    0    0 -0.26338132145E+01  0.22700505030E+02 -0.37219620010E+02  0.43675508176E+02  0.00000000000E+00 0. -1.
        1    1    5    5  501    0 -0.20406091853E+02 -0.19626959823E+02 -0.13507689969E+02  0.31370110375E+02  0.00000000000E+00 0. -1.
       -2    1    5    5    0  501  0.33877148541E+02  0.39844232568E+02 -0.89637928781E+01  0.53061979279E+02  0.00000000000E+00 0.  1.
</event>
<event>
 9   1  0.7570500E-01  0.2499979E+03  0.7546771E-02  0.1113306E+00
       21   -1    0    0  503  502  0.00000000000E+00  0.00000000000E+00  0.88165814821E+01  0.88165814821E+01  0.00000000000E+00 0. -1.
       21   -1    0    0  502  503 -0.00000000000E+00 -0.00000000000E+00 -0.17721990299E+04  0.17721990299E+04  0.00000000000E+00 0. -1.
       25    2    1    2    0    0  0.00000000000E+00  0.71054273576E-14 -0.17633824485E+04  0.17810156114E+04  0.24999789719E+03 0.  0.
       24    2    3    3    0    0 -0.20864626111E+02 -0.49190653516E+02 -0.14502220102E+04  0.14532872718E+04  0.77749357588E+02 0.  0.
      -24    2    3    3    0    0  0.20864626111E+02  0.49190653516E+02 -0.31316043830E+03  0.32772833963E+03  0.80506841082E+02 0.  0.
      -13    1    4    4    0    0 -0.17443670635E+01 -0.62121105509E+02 -0.71275561026E+03  0.71545973648E+03  0.00000000000E+00 0.  1.
       14    1    4    4    0    0 -0.19120259047E+02  0.12930451993E+02 -0.73746639990E+03  0.73782753532E+03  0.00000000000E+00 0. -1.
        3    1    5    5  501    0 -0.99972899400E+01  0.61506874932E+02 -0.22650790786E+03  0.23492312316E+03  0.00000000000E+00 0. -1.
       -4    1    5    5    0  501  0.30861916051E+02 -0.12316221416E+02 -0.86652530442E+02  0.92805216471E+02  0.00000000000E+00 0.  1.
</event>
<event>
 9   1  0.7570500E-01  0.2499998E+03  0.7546771E-02  0.1113305E+00
       21   -1    0    0  503  502  0.00000000000E+00  0.00000000000E+00  0.88783528616E+02  0.88783528616E+02  0.00000000000E+00 0. -1.
       21   -1    0    0  502  503 -0.00000000000E+00 -0.00000000000E+00 -0.17598961666E+03  0.17598961666E+03  0.00000000000E+00 0. -1.
       25    2    1    2    0    0  0.00000000000E+00  0.00000000000E+00 -0.87206088044E+02  0.26477314528E+03  0.24999983334E+03 0.  0.
       24    2    3    3    0    0 -0.68972033678E+02 -0.23068172061E+02 -0.10706851594E+03  0.15199856924E+03  0.79690752002E+02 0.  0.
      -24    2    3    3    0    0  0.68972033678E+02  0.23068172061E+02  0.19862427895E+02  0.11277457603E+03  0.83870775397E+02 0.  0.
      -13    1    4    4    0    0 -0.33629883204E+02 -0.40665543111E+02 -0.98280689854E+02  0.11155155507E+03  0.00000000000E+00 0.  1.
       14    1    4    4    0    0 -0.35342150474E+02  0.17597371050E+02 -0.87878260847E+01  0.40447014171E+02  0.00000000000E+00 0. -1.
        1    1    5    5  501    0  0.78990583387E+02  0.22915841557E+02 -0.85083976470E+01  0.82686400868E+02  0.00000000000E+00 0. -1.
       -2    1    5    5    0  501 -0.10018549709E+02  0.15233050477E+00  0.28370825542E+02  0.30088175165E+02  0.00000000000E+00 0.  1.
</event>
<event>
 9   1  0.7570500E-01  0.2500012E+03  0.7546771E-02  0.1113304E+00
       21   -1    0    0  503  502  0.00000000000E+00  0.00000000000E+00  0.49376605088E+02  0.49376605088E+02  0.00000000000E+00 0. -1.
       21   -1    0    0  502  503 -0.00000000000E+00 -0.00000000000E+00 -0.31644836386E+03  0.31644836386E+03  0.00000000000E+00 0. -1.
       25    2    1    2    0    0  0.00000000000E+00 -0.14210854715E-13 -0.26707175877E+03  0.36582496895E+03  0.25000116714E+03 0.  0.
       24    2    3    3    0    0 -0.12984889973E+02 -0.95016482581E+02 -0.11580097072E+03  0.16992707323E+03  0.79174529145E+02 0.  0.
      -24    2    3    3    0    0  0.12984889973E+02  0.95016482581E+02 -0.15127078805E+03  0.19589789573E+03  0.79349826095E+02 0.  0.
      -13    1    4    4    0    0 -0.26765739978E+02 -0.74339583104E+02 -0.12102717594E+03  0.14453496382E+03  0.00000000000E+00 0.  1.
       14    1    4    4    0    0  0.13780850005E+02 -0.20676899477E+02  0.52262052157E+01  0.25392109401E+02  0.00000000000E+00 0. -1.
        3    1    5    5  501    0 -0.32682932302E+01  0.40956825926E+02 -0.79343298596E+01  0.41846109986E+02  0.00000000000E+00 0. -1.
       -4    1    5    5    0  501  0.16253183203E+02  0.54059656655E+02 -0.14333645819E+03  0.15405178574E+03  0.00000000000E+00 0.  1.
</event>
<event>
 9   1  0.7570500E-01  0.2499996E+03  0.7546771E-02  0.1113305E+00
       21   -1    0    0  503  502  0.00000000000E+00  0.00000000000E+00  0.21628843317E+02  0.21628843317E+02  0.00000000000E+00 0.  1.
       21   -1    0    0  502  503 -0.00000000000E+00 -0.00000000000E+00 -0.72241271213E+03  0.72241271213E+03  0.00000000000E+00 0.  1.
       25    2    1    2    0    0  0.00000000000E+00 -0.71054273576E-14 -0.70078386881E+03  0.74404155544E+03  0.24999961088E+03 0.  0.
       24    2    3    3    0    0 -0.67559504379E+02  0.32858850997E+02 -0.51392902791E+03  0.52584242767E+03  0.82117125421E+02 0.  0.
      -24    2    3    3    0    0  0.67559504379E+02 -0.32858850997E+02 -0.18685484090E+03  0.21819912777E+03  0.83977003239E+02 0.  0.
      -13    1    4    4    0    0 -0.51005106174E+02  0.60104381472E+02 -0.38925987183E+03  0.39716156076E+03  0.00000000000E+00 0.  1.
       14    1    4    4    0    0 -0.16554398206E+02 -0.27245530475E+02 -0.12466915608E+03  0.12868086691E+03  0.00000000000E+00 0. -1.
        3    1    5    5  501    0 -0.68360828984E+01  0.48090763179E+00  0.58173464925E+01  0.89891502245E+01  0.00000000000E+00 0. -1.
       -4    1    5    5    0  501  0.74395587278E+02 -0.33339758629E+02 -0.19267218739E+03  0.20920997755E+03  0.00000000000E+00 0.  1.
</event>
<event>
 9   1  0.7570500E-01  0.2499909E+03  0.7546771E-02  0.1113311E+00
       21   -1    0    0  503  502  0.00000000000E+00  0.00000000000E+00  0.10454216721E+03  0.10454216721E+03  0.00000000000E+00 0.  1.
       21   -1    0    0  502  503 -0.00000000000E+00 -0.00000000000E+00 -0.14945029290E+03  0.14945029290E+03  0.00000000000E+00 0.  1.
       25    2    1    2    0    0  0.00000000000E+00  0.14210854715E-13 -0.44908125689E+02  0.25399246010E+03  0.24999085990E+03 0.  0.
       24    2    3    3    0    0  0.34358287652E+02 -0.45783414749E+02 -0.10099516134E+03  0.14111052640E+03  0.80221848968E+02 0.  0.
      -24    2    3    3    0    0 -0.34358287652E+02  0.45783414749E+02  0.56087035648E+02  0.11288193370E+03  0.79498191122E+02 0.  0.
      -13    1    4    4    0    0  0.49359998216E+02 -0.58962135019E+01 -0.29290837122E+02  0.57698595276E+02  0.00000000000E+00 0.  1.
       14    1    4    4    0    0 -0.15001710564E+02 -0.39887201247E+02 -0.71704324215E+02  0.83411931127E+02  0.00000000000E+00 0. -1.
        1    1    5    5  501    0 -0.21584871474E+02 -0.20629433136E+02  0.12164068807E+02  0.32240421182E+02  0.00000000000E+00 0. -1.
       -2    1    5    5    0  501 -0.12773416178E+02  0.66412847885E+02  0.43922966841E+02  0.80641512517E+02  0.00000000000E+00 0.  1.
</event>
<event>
 9   1  0.7570500E-01  0.2499934E+03  0.7546771E-02  0.1113309E+00
       21   -1    0    0  503  502  0.00000000000E+00  0.00000000000E+00  0.16427922746E+04  0.16427922746E+04  0.00000000000E+00 0. -1.
       21   -1    0    0  502  503 -0.00000000000E+00 -0.00000000000E+00 -0.95107458057E+01  0.95107458057E+01  0.00000000000E+00 0. -1.
       25    2    1    2    0    0  0.00000000000E+00  0.00000000000E+00  0.16332815288E+04  0.16523030204E+04  0.24999343780E+03 0.  0.
       24    2    3    3    0    0  0.17383337997E+02  0.89979399207E+02  0.67314402747E+03  0.68451220721E+03  0.83878527564E+02 0.  0.
      -24    2    3    3    0    0 -0.17383337997E+02 -0.89979399207E+02  0.96013750133E+03  0.96779081319E+03  0.79728062345E+02 0.  0.
      -13    1    4    4    0    0  0.11016482725E+02  0.72987146699E+01  0.10995271439E+02  0.17190989543E+02  0.00000000000E+00 0.  1.
       14    1    4    4    0    0  0.63668552724E+01  0.82680684538E+02  0.66214875603E+03  0.66732121767E+03  0.00000000000E+00 0. -1.
        3    1    5    5  501    0  0.19517601877E+02 -0.79862379275E+02  0.59472564869E+03  0.60038115694E+03  0.00000000000E+00 0. -1.
       -4    1    5    5    0  501 -0.36900939874E+02 -0.10117019933E+02  0.36541185264E+03  0.36740965625E+03  0.00000000000E+00 0.  1.
</event>
<event>
 9   1  0.7570500E-01  0.2500009E+03  0.7546771E-02  0.1113304E+00
       21   -1    0    0  503  502  0.00000000000E+00  0.00000000000E+00  0.92238149586E+02  0.92238149586E+02  0.00000000000E+00 0. -1.
       21   -1    0    0  502  503 -0.00000000000E+00 -0.00000000000E+00 -0.16939972237E+03  0.16939972237E+03  0.00000000000E+00 0. -1.
       25    2    1    2    0    0  0.00000000000E+00  0.00000000000E+00 -0.77161572789E+02  0.26163787196E+03  0.25000093546E+03 0.  0.
       24    2    3    3    0    0 -0.87490686663E+02  0.42146180150E+02 -0.68055005552E+02  0.14342471417E+03  0.80673689013E+02 0.  0.
      -24    2    3    3    0    0  0.87490686663E+02 -0.42146180150E+02 -0.91065672373E+01  0.11821315779E+03  0.66786977435E+02 0.  0.
      -13    1    4    4    0    0 -0.28533428298E+02  0.79494535133E+01  0.17217559417E+02  0.34260687294E+02  0.00000000000E+00 0.  1.
       14    1    4    4    0    0 -0.58957258364E+02  0.34196726637E+02 -0.85272564969E+02  0.10916402687E+03  0.00000000000E+00 0. -1.
        1    1    5    5  501    0  0.38744882067E+02 -0.53339935316E+02 -0.15688002001E+02  0.67767455262E+02  0.00000000000E+00 0. -1.
       -2    1    5    5    0  501  0.48745804596E+02  0.11193755167E+02  0.65814347637E+01  0.50445702532E+02  0.00000000000E+00 0.  1.
</event>
<event>
 9   1  0.7570500E-01  0.2500022E+03  0.7546771E-02  0.1113303E+00
       21   -1    0    0  503  502  0.00000000000E+00  0.00000000000E+00  0.86268008348E+02  0.86268008348E+02  0.00000000000E+00 0. -1.
       21   -1    0    0  502  503 -0.00000000000E+00 -0.00000000000E+00 -0.18112473470E+03  0.18112473470E+03  0.00000000000E+00 0. -1.
       25    2    1    2    0    0  0.00000000000E+00  0.71054273576E-14 -0.94856726355E+02  0.26739274305E+03  0.25000216099E+03 0.  0.
       24    2    3    3    0    0  0.55456411752E+02 -0.56529596680E+02  0.11552784350E+02  0.11131811382E+03  0.77377301142E+02 0.  0.
      -24    2    3    3    0    0 -0.55456411752E+02  0.56529596680E+02 -0.10640951071E+03  0.15607462924E+03  0.82251425625E+02 0.  0.
      -13    1    4    4    0    0  0.24394617132E+02 -0.51826843139E+02  0.39248341965E+02  0.69437391669E+02  0.00000000000E+00 0.  1.
       14    1    4    4    0    0  0.31061794620E+02 -0.47027535410E+01 -0.27695557615E+02  0.41880722146E+02  0.00000000000E+00 0. -1.
        3    1    5    5  501    0 -0.76858826846E+02  0.45458354974E+02 -0.75881421174E+02  0.11718247045E+03  0.00000000000E+00 0. -1.
       -4    1    5    5    0  501  0.21402415093E+02  0.11071241706E+02 -0.30528089531E+02  0.38892158788E+02  0.00000000000E+00 0.  1.
</event>
<event>
 9   1  0.7570500E-01  0.2500059E+03  0.7546771E-02  0.1113301E+00
       21   -1    0    0  503  502  0.00000000000E+00  0.00000000000E+00  0.14562683695E+02  0.14562683695E+02  0.00000000000E+00 0.  1.
       21   -1    0    0  502  503 -0.00000000000E+00 -0.00000000000E+00 -0.10729982854E+04  0.10729982854E+04  0.00000000000E+00 0.  1.
       25    2    1    2    0    0  0.00000000000E+00  0.71054273576E-14 -0.10584356017E+04  0.10875609691E+04  0.25000587701E+03 0.  0.
       24    2    3    3    0    0  0.84047336673E+02  0.41701735187E+02 -0.59597780623E+03  0.60860054187E+03  0.80013027179E+02 0.  0.
      -24    2    3    3    0    0 -0.84047336673E+02 -0.41701735187E+02 -0.46245779544E+03  0.47896042720E+03  0.82054181721E+02 0.  0.
      -13    1    4    4    0    0 -0.29425377595E+01 -0.12820697633E+02 -0.22982285786E+02  0.26480450831E+02  0.00000000000E+00 0.  1.
       14    1    4    4    0    0  0.86989874433E+02  0.54522432820E+02 -0.57299552045E+03  0.58212009103E+03  0.00000000000E+00 0. -1.
        3    1    5    5  501    0 -0.27734684417E+01  0.20316465708E+02 -0.50440748139E+02  0.54449242225E+02  0.00000000000E+00 0. -1.
       -4    1    5    5    0  501 -0.81273868231E+02 -0.62018200895E+02 -0.41201704730E+03  0.42451118498E+03  0.00000000000E+00 0.  1.
</event>
<event>
 9   1  0.7570500E-01  0.2499959E+03  0.7546771E-02  0.1113307E+00
       21   -1    0    0  503  502  0.00000000000E+00  0.00000000000E+00  0.45145491954E+03  0.45145491954E+03  0.00000000000E+00 0. -1.
       21   -1    0    0  502  503 -0.00000000000E+00 -0.00000000000E+00 -0.34609185916E+02  0.34609185916E+02  0.00000000000E+00 0. -1.
       25    2    1    2    0    0 -0.35527136788E-14 -0.71054273576E-14  0.41684573362E+03  0.48606410545E+03  0.24999589791E+03 0.  0.
       24    2    3    3    0    0  0.14664432355E+02  0.29698709604E+02  0.38038060053E+03  0.38995304554E+03  0.79227000051E+02 0.  0.
      -24    2    3    3    0    0 -0.14664432355E+02 -0.29698709604E+02  0.36465133088E+02  0.96111059910E+02  0.82526183587E+02 0.  0.
      -13    1    4    4    0    0 -0.21351594045E+02  0.18403205052E+02  0.29807616373E+03  0.29940602517E+03  0.00000000000E+00 0.  1.
       14    1    4    4    0    0  0.36016026400E+02  0.11295504552E+02  0.82304436809E+02  0.90547020377E+02  0.00000000000E+00 0. -1.
        3    1    5    5  501    0 -0.32301314180E+02  0.19134690177E+01  0.48202736305E+02  0.58056352355E+02  0.00000000000E+00 0. -1.
       -4    1    5    5    0  501  0.17636881826E+02 -0.31612178622E+02 -0.11737603218E+02  0.38054707555E+02  0.00000000000E+00 0.  1.
</event>
<event>
 8   1  0.7570500E-01  0.2501564E+03  0.7546771E-02  0.1113206E+00
       21   -1    0    0  503  502  0.00000000000E+00  0.00000000000E+00  0.18278603443E+03  0.18278603443E+03  0.00000000000E+00 0. -1.
       21   -1    0    0  502  503 -0.00000000000E+00 -0.00000000000E+00 -0.85589469889E+02  0.85589469889E+02  0.00000000000E+00 0. -1.
       24    2    1    2    0    0  0.50514261566E+02  0.28135078836E+02 -0.33461994902E+02  0.10437224855E+03  0.80190946380E+02 0.  0.
      -24    2    1    2    0    0 -0.50514261566E+02 -0.28135078836E+02  0.13065855944E+03  0.16400325577E+03  0.80511710114E+02 0.  0.
      -13    1    3    3    0    0 -0.74076736699E+00  0.21628461920E+02 -0.46323326096E+02  0.51129146696E+02  0.00000000000E+00 0.  1.
       14    1    3    3    0    0  0.51255028933E+02  0.65066169164E+01  0.12861331194E+02  0.53243101851E+02  0.00000000000E+00 0. -1.
        3    1    4    4  501    0 -0.68823437413E+02 -0.37329238452E+02  0.97785132411E+02  0.12526799153E+03  0.00000000000E+00 0. -1.
       -4    1    4    4    0  501  0.18309175847E+02  0.91941596158E+01  0.32873427033E+02  0.38735264245E+02  0.00000000000E+00 0.  1.
</event>
<event>
 9   1  0.7570500E-01  0.2500153E+03  0.7546771E-02  0.1113295E+00
       21   -1    0    0  503  502  0.00000000000E+00  0.00000000000E+00  0.94893814987E+02  0.94893814987E+02  0.00000000000E+00 0. -1.
       21   -1    0    0  502  503 -0.00000000000E+00 -0.00000000000E+00 -0.16467793452E+03  0.16467793452E+03  0.00000000000E+00 0. -1.
       25    2    1    2    0    0 -0.71054273576E-14  0.00000000000E+00 -0.69784119538E+02  0.25957174951E+03  0.25001533914E+03 0.  0.
       24    2    3    3    0    0 -0.28642914169E+02  0.39975196495E+02  0.53975319944E+02  0.10696830228E+03  0.78169365251E+02 0.  0.
      -24    2    3    3    0    0  0.28642914169E+02 -0.39975196495E+02 -0.12375943948E+03  0.15260344723E+03  0.74518322429E+02 0.  0.
      -13    1    4    4    0    0 -0.42112125319E+02  0.84061954190E+01  0.58263571645E+02  0.72379133741E+02  0.00000000000E+00 0.  1.
       14    1    4    4    0    0  0.13469211150E+02  0.31569001076E+02 -0.42882517011E+01  0.34589168544E+02  0.00000000000E+00 0. -1.
        3    1    5    5  501    0 -0.13553517630E+02 -0.44171977907E+02 -0.55147000236E+02  0.71944792079E+02  0.00000000000E+00 0. -1.
       -4    1    5    5    0  501  0.42196431800E+02  0.41967814120E+01 -0.68612439246E+02  0.80658655147E+02  0.00000000000E+00 0.  1.
</event>
<event>
 9   1  0.7570500E-01  0.2499985E+03  0.7546771E-02  0.1113306E+00
       21   -1    0    0  503  502  0.00000000000E+00  0.00000000000E+00  0.25558691671E+02  0.25558691671E+02  0.00000000000E+00 0. -1.
       21   -1    0    0  502  503 -0.00000000000E+00 -0.00000000000E+00 -0.61133059056E+03  0.61133059056E+03  0.00000000000E+00 0. -1.
       25    2    1    2    0    0  0.00000000000E+00 -0.14210854715E-13 -0.58577189889E+03  0.63688928223E+03  0.24999848058E+03 0.  0.
       24    2    3    3    0    0  0.78085692695E+02 -0.55789517431E+02 -0.30879859026E+03  0.33344190686E+03  0.81345499264E+02 0.  0.
      -24    2    3    3    0    0 -0.78085692695E+02  0.55789517431E+02 -0.27697330864E+03  0.30344737537E+03  0.78461775808E+02 0.  0.
      -13    1    4    4    0    0  0.30308800841E+02 -0.63755307236E+01 -0.21464957876E+03  0.21687257195E+03  0.00000000000E+00 0.  1.
       14    1    4    4    0    0  0.47776891854E+02 -0.49413986707E+02 -0.94149011491E+02  0.11656933491E+03  0.00000000000E+00 0. -1.
        3    1    5    5  501    0 -0.84947594662E+02  0.34202950143E+02 -0.25842693926E+03  0.27417224253E+03  0.00000000000E+00 0. -1.
       -4    1    5    5    0  501  0.68619019669E+01  0.21586567288E+02 -0.18546369377E+02  0.29275132843E+02  0.00000000000E+00 0.  1.
</event>
<event>
 9   1  0.7570500E-01  0.2499992E+03  0.7546771E-02  0.1113305E+00
       21   -1    0    0  503  502  0.00000000000E+00  0.00000000000E+00  0.15643945410E+02  0.15643945410E+02  0.00000000000E+00 0.  1.
       21   -1    0    0  502  503 -0.00000000000E+00 -0.00000000000E+00 -0.99878277098E+03  0.99878277098E+03  0.00000000000E+00 0.  1.
       25    2    1    2    0    0 -0.35527136788E-14 -0.71054273576E-14 -0.98313882557E+03  0.10144267164E+04  0.24999922517E+03 0.  0.
       24    2    3    3    0    0  0.32952431872E+01  0.46508962709E+02 -0.14940564759E+03  0.17516461908E+03  0.78655285942E+02 0.  0.
      -24    2    3    3    0    0 -0.32952431872E+01 -0.46508962709E+02 -0.83373317798E+03  0.83926209731E+03  0.84118450250E+02 0.  0.
      -13    1    4    4    0    0 -0.32381777233E+02  0.17067815508E+02 -0.30732027948E+02  0.47794846635E+02  0.00000000000E+00 0.  1.
       14    1    4    4    0    0  0.35677020421E+02  0.29441147201E+02 -0.11867361964E+03  0.12736977244E+03  0.00000000000E+00 0. -1.
        3    1    5    5  501    0 -0.22217199179E+02 -0.32718384863E+02 -0.14993632975E+03  0.15506450151E+03  0.00000000000E+00 0. -1.
       -4    1    5    5    0  501  0.18921955992E+02 -0.13790577846E+02 -0.68379684823E+03  0.68419759580E+03  0.00000000000E+00 0.  1.
</event>
<event>
 9   1  0.7570500E-01  0.2500045E+03  0.7546771E-02  0.1113302E+00
       21   -1    0    0  503  502  0.00000000000E+00  0.00000000000E+00  0.23445509786E+03  0.23445509786E+03  0.00000000000E+00 0.  1.
       21   -1    0    0  502  503 -0.00000000000E+00 -0.00000000000E+00 -0.66646270854E+02  0.66646270854E+02  0.00000000000E+00 0.  1.
       25    2    1    2    0    0  0.00000000000E+00 -0.88817841970E-15  0.16780882700E+03  0.30110136871E+03  0.25000446360E+03 0.  0.
       24    2    3    3    0    0 -0.67846349632E+02 -0.28854943895E+01  0.16705538937E+03  0.19665061167E+03  0.78437916319E+02 0.  0.
      -24    2    3    3    0    0  0.67846349632E+02  0.28854943895E+01  0.75343763149E+00  0.10445075704E+03  0.79359559863E+02 0.  0.
      -13    1    4    4    0    0 -0.28808021757E+02  0.34735619202E+01  0.15132929080E+03  0.15408608634E+03  0.00000000000E+00 0.  1.
       14    1    4    4    0    0 -0.39038327875E+02 -0.63590563097E+01  0.15726098574E+02  0.42564525333E+02  0.00000000000E+00 0. -1.
        3    1    5    5  501    0 -0.12131691272E+02  0.17172901961E+02 -0.85047489716E+01  0.22680768284E+02  0.00000000000E+00 0. -1.
       -4    1    5    5    0  501  0.79978040904E+02 -0.14287407571E+02  0.92581866031E+01  0.81769988756E+02  0.00000000000E+00 0.  1.
</event>
<event>
 9   1  0.7570500E-01  0.2500037E+03  0.7546771E-02  0.1113302E+00
       21   -1    0    0  503  502  0.00000000000E+00  0.00000000000E+00  0.76662981799E+01  0.76662981799E+01  0.00000000000E+00 0. -1.
       21   -1    0    0  502  503 -0.00000000000E+00 -0.00000000000E+00 -0.20382017401E+04  0.20382017401E+04  0.00000000000E+00 0. -1.
       25    2    1    2    0    0  0.00000000000E+00  0.00000000000E+00 -0.20305354419E+04  0.20458680382E+04  0.25000369829E+03 0.  0.
       24    2    3    3    0    0  0.21477554099E+02 -0.81935242627E+02 -0.64988356457E+03  0.66033840793E+03  0.80768163121E+02 0.  0.
      -24    2    3    3    0    0 -0.21477554099E+02  0.81935242627E+02 -0.13806518773E+04  0.13855296303E+04  0.79486356279E+02 0.  0.
      -13    1    4    4    0    0 -0.28347086229E+02 -0.38556983724E+02 -0.35056429906E+03  0.35381566679E+03  0.00000000000E+00 0.  1.
       14    1    4    4    0    0  0.49824640328E+02 -0.43378258903E+02 -0.29931926551E+03  0.30652274114E+03  0.00000000000E+00 0. -1.
        3    1    5    5  501    0 -0.54874156385E+01  0.45370755589E+02 -0.24805372896E+03  0.25222860592E+03  0.00000000000E+00 0. -1.
       -4    1    5    5    0  501 -0.15990138460E+02  0.36564487038E+02 -0.11325981484E+04  0.11333010244E+04  0.00000000000E+00 0.  1.
</event>
<event>
 9   1  0.7570500E-01  0.2499982E+03  0.7546771E-02  0.1113306E+00
       21   -1    0    0  503  502  0.00000000000E+00  0.00000000000E+00  0.95531179602E+03  0.95531179602E+03  0.00000000000E+00 0. -1.
       21   -1    0    0  502  503 -0.00000000000E+00 -0.00000000000E+00 -0.16355675010E+02  0.16355675010E+02  0.00000000000E+00 0. -1.
       25    2    1    2    0    0  0.00000000000E+00 -0.17763568394E-14  0.93895612101E+03  0.97166747103E+03  0.24999815414E+03 0.  0.
       24    2    3    3    0    0 -0.95567004007E+02 -0.11216120558E+02  0.51252546303E+03  0.52733178705E+03  0.78342898588E+02 0.  0.
      -24    2    3    3    0    0  0.95567004007E+02  0.11216120558E+02  0.42643065798E+03  0.44433568398E+03  0.79575375470E+02 0.  0.
      -13    1    4    4    0    0 -0.42914126770E+02 -0.11665471812E+02  0.79303585675E+02  0.90921747728E+02  0.00000000000E+00 0.  1.
       14    1    4    4    0    0 -0.52652877237E+02  0.44935125377E+00  0.43322187736E+03  0.43641003932E+03  0.00000000000E+00 0. -1.
        3    1    5    5  501    0  0.37969678124E+02  0.13684714135E+02  0.53717572973E+02  0.67190367642E+02  0.00000000000E+00 0. -1.
       -4    1    5    5    0  501  0.57597325883E+02 -0.24685935768E+01  0.37271308501E+03  0.37714531634E+03  0.00000000000E+00 0.  1.
</event>
<event>
 9   1  0.7570500E-01  0.2500028E+03  0.7546771E-02  0.1113303E+00
       21   -1    0    0  503  502  0.00000000000E+00  0.00000000000E+00  0.22949266108E+03  0.22949266108E+03  0.00000000000E+00 0. -1.
       21   -1    0    0  502  503 -0.00000000000E+00 -0.00000000000E+00 -0.68086513354E+02  0.68086513354E+02  0.00000000000E+00 0. -1.
       25    2    1    2    0    0  0.00000000000E+00  0.00000000000E+00  0.16140614772E+03  0.29757917443E+03  0.25000284105E+03 0.  0.
       24    2    3    3    0    0  0.20596442666E+01 -0.61016156891E+02  0.17019906094E+03  0.19626059976E+03  0.76310478562E+02 0.  0.
      -24    2    3    3    0    0 -0.20596442666E+01  0.61016156891E+02 -0.87929132176E+01  0.10131857467E+03  0.80379877543E+02 0.  0.
      -13    1    4    4    0    0 -0.34817130149E+02 -0.31156429324E+02  0.11071336745E+03  0.12016823778E+03  0.00000000000E+00 0.  1.
       14    1    4    4    0    0  0.36876774416E+02 -0.29859727567E+02  0.59485693494E+02  0.76092361982E+02  0.00000000000E+00 0. -1.
        1    1    5    5  501    0 -0.35631726382E+02  0.55851369397E+02 -0.11514458245E+02  0.67242680919E+02  0.00000000000E+00 0. -1.
       -2    1    5    5    0  501  0.33572082116E+02  0.51647874931E+01  0.27215450277E+01  0.34075893749E+02  0.00000000000E+00 0.  1.
</event>
<event>
 9   1  0.7570500E-01  0.2500047E+03  0.7546771E-02  0.1113302E+00
       21   -1    0    0  503  502  0.00000000000E+00  0.00000000000E+00  0.89189131192E+03  0.89189131192E+03  0.00000000000E+00 0.  1.
       21   -1    0    0  502  503 -0.00000000000E+00 -0.00000000000E+00 -0.17519609103E+02  0.17519609103E+02  0.00000000000E+00 0.  1.
       25    2    1    2    0    0  0.00000000000E+00  0.71054273576E-14  0.87437170281E+03  0.90941092102E+03  0.25000469713E+03 0.  0.
       24    2    3    3    0    0 -0.73405253583E+02 -0.59672553135E+02  0.36804998361E+03  0.38817875748E+03  0.79201088842E+02 0.  0.
      -24    2    3    3    0    0  0.73405253583E+02  0.59672553135E+02  0.50632171920E+03  0.52123216354E+03  0.79825685827E+02 0.  0.
      -13    1    4    4    0    0 -0.77690250272E+01 -0.44735770851E+02  0.76511708796E+02  0.88970155256E+02  0.00000000000E+00 0.  1.
       14    1    4    4    0    0 -0.65636228556E+02 -0.14936782284E+02  0.29153827482E+03  0.29920860223E+03  0.00000000000E+00 0. -1.
        1    1    5    5  501    0  0.61250097008E+02  0.51878307240E+02  0.21406953178E+03  0.22862348432E+03  0.00000000000E+00 0. -1.
       -2    1    5    5    0  501  0.12155156575E+02  0.77942458951E+01  0.29225218742E+03  0.29260867922E+03  0.00000000000E+00 0.  1.
</event>
<event>
 9   1  0.7570500E-01  0.2500012E+03  0.7546771E-02  0.1113304E+00
       21   -1    0    0  503  502  0.00000000000E+00  0.00000000000E+00  0.17608188425E+03  0.17608188425E+03  0.00000000000E+00 0. -1.
       21   -1    0    0  502  503 -0.00000000000E+00 -0.00000000000E+00 -0.88737960715E+02  0.88737960715E+02  0.00000000000E+00 0. -1.
       25    2    1    2    0    0 -0.71054273576E-14  0.14210854715E-13  0.87343923530E+02  0.26481984496E+03  0.25000117861E+03 0.  0.
       24    2    3    3    0    0  0.25945181287E+02 -0.49276612294E+02 -0.39788263373E+02  0.10376183837E+03  0.77987667288E+02 0.  0.
      -24    2    3    3    0    0 -0.25945181287E+02  0.49276612294E+02  0.12713218690E+03  0.16105800659E+03  0.81705272708E+02 0.  0.
      -13    1    4    4    0    0  0.17815863080E+02 -0.17815226168E+02 -0.60288236292E+02  0.65341095001E+02  0.00000000000E+00 0.  1.
       14    1    4    4    0    0  0.81293182076E+01 -0.31461386126E+02  0.20499972919E+02  0.38420743372E+02  0.00000000000E+00 0. -1.
        3    1    5    5  501    0 -0.10301249622E+02  0.66104436432E+02  0.59159556387E+02  0.89307140653E+02  0.00000000000E+00 0. -1.
       -4    1    5    5    0  501 -0.15643931666E+02 -0.16827824138E+02  0.67972630516E+02  0.71750865935E+02  0.00000000000E+00 0.  1.
</event>
<event>
 9   1  0.7570500E-01  0.2499961E+03  0.7546771E-02  0.1113307E+00
       21   -1    0    0  503  502  0.00000000000E+00  0.00000000000E+00  0.73113395770E+02  0.73113395770E+02  0.00000000000E+00 0.  1.
       21   -1    0    0  502  503 -0.00000000000E+00 -0.00000000000E+00 -0.21370253808E+03  0.21370253808E+03  0.00000000000E+00 0.  1.
       25    2    1    2    0    0  0.14210854715E-13  0.00000000000E+00 -0.14058914231E+03  0.28681593385E+03  0.24999614592E+03 0.  0.
       24    2    3    3    0    0  0.60094126039E+02  0.74703131084E+02 -0.73186272808E+02  0.14522712511E+03  0.80887734320E+02 0.  0.
      -24    2    3    3    0    0 -0.60094126039E+02 -0.74703131084E+02 -0.67402869501E+02  0.14158880873E+03  0.79450501344E+02 0.  0.
      -13    1    4    4    0    0  0.69994984846E+02  0.24608694709E+02 -0.47148935972E+02  0.87908520191E+02  0.00000000000E+00 0.  1.
       14    1    4    4    0    0 -0.99008588075E+01  0.50094436375E+02 -0.26037336836E+02  0.57318604924E+02  0.00000000000E+00 0. -1.
        3    1    5    5  501    0 -0.31323594720E+02 -0.78428447567E+02 -0.21265453402E+02  0.87088509474E+02  0.00000000000E+00 0. -1.
       -4    1    5    5    0  501 -0.28770531319E+02  0.37253164827E+01 -0.46137416099E+02  0.54500299261E+02  0.00000000000E+00 0.  1.
</event>
<event>
 9   1  0.7570500E-01  0.2499978E+03  0.7546771E-02  0.1113306E+00
       21   -1    0    0  503  502  0.00000000000E+00  0.00000000000E+00  0.32736475354E+02  0.32736475354E+02  0.00000000000E+00 0.  1.
       21   -1    0    0  502  503 -0.00000000000E+00 -0.00000000000E+00 -0.47728779920E+03  0.47728779920E+03  0.00000000000E+00 0.  1.
       25    2    1    2    0    0  0.00000000000E+00  0.14210854715E-13 -0.44455132385E+03  0.51002427456E+03  0.24999776219E+03 0.  0.
       24    2    3    3    0    0  0.21973159809E+02  0.60879528937E+02 -0.36759104052E+03  0.38190552070E+03  0.80867279374E+02 0.  0.
      -24    2    3    3    0    0 -0.21973159809E+02 -0.60879528937E+02 -0.76960283324E+02  0.12811875385E+03  0.79387612914E+02 0.  0.
      -13    1    4    4    0    0 -0.76731661853E+01  0.57860496163E+02 -0.32327654838E+03  0.32850333519E+03  0.00000000000E+00 0.  1.
       14    1    4    4    0    0  0.29646325994E+02  0.30190327737E+01 -0.44314492140E+02  0.53402185512E+02  0.00000000000E+00 0. -1.
        3    1    5    5  501    0 -0.31163525831E+02  0.86099913903E+01 -0.23878460986E+02  0.40193011743E+02  0.00000000000E+00 0. -1.
       -4    1    5    5    0  501  0.91903660219E+01 -0.69489520327E+02 -0.53081822339E+02  0.87925742111E+02  0.00000000000E+00 0.  1.
</event>
<event>
 9   1  0.7570500E-01  0.2499936E+03  0.7546771E-02  0.1113309E+00
       21   -1    0    0  503  502  0.00000000000E+00  0.00000000000E+00  0.43081678749E+03  0.43081678749E+03  0.00000000000E+00 0.  1.
       21   -1    0    0  502  503 -0.00000000000E+00 -0.00000000000E+00 -0.36266467084E+02  0.36266467084E+02  0.00000000000E+00 0.  1.
       25    2    1    2    0    0 -0.35527136788E-14  0.00000000000E+00  0.39455032041E+03  0.46708325458E+03  0.24999362266E+03 0.  0.
       24    2    3    3    0    0  0.66801075628E+01  0.86958502672E+02  0.14113528762E+03  0.18458641586E+03  0.80910879894E+02 0.  0.
      -24    2    3    3    0    0 -0.66801075628E+01 -0.86958502672E+02  0.25341503278E+03  0.28249683871E+03  0.89324576780E+02 0.  0.
      -13    1    4    4    0    0 -0.26974416409E+02  0.68381993008E+02  0.11998002588E+03  0.14070864479E+03  0.00000000000E+00 0.  1.
       14    1    4    4    0    0  0.33654523972E+02  0.18576509663E+02  0.21155261743E+02  0.43877771075E+02  0.00000000000E+00 0. -1.
        3    1    5    5  501    0 -0.47930683466E+02 -0.49076041876E+02  0.14810067117E+03  0.16321647314E+03  0.00000000000E+00 0. -1.
       -4    1    5    5    0  501  0.41250575903E+02 -0.37882460796E+02  0.10531436162E+03  0.11928036557E+03  0.00000000000E+00 0.  1.
</event>
<event>
 9   1  0.7570500E-01  0.2499995E+03  0.7546771E-02  0.1113305E+00
       21   -1    0    0  503  502  0.00000000000E+00  0.00000000000E+00  0.44992594013E+03  0.44992594013E+03  0.00000000000E+00 0.  1.
       21   -1    0    0  502  503 -0.00000000000E+00 -0.00000000000E+00 -0.34727805207E+02  0.34727805207E+02  0.00000000000E+00 0.  1.
       25    2    1    2    0    0  0.00000000000E+00 -0.17763568394E-14  0.41519813492E+03  0.48465374534E+03  0.24999952325E+03 0.  0.
       24    2    3    3    0    0  0.29591942138E+02  0.12636723697E+02  0.31949537712E+02  0.91661502370E+02  0.79659828217E+02 0.  0.
      -24    2    3    3    0    0 -0.29591942138E+02 -0.12636723697E+02  0.38324859721E+03  0.39299224297E+03  0.80796323816E+02 0.  0.
      -13    1    4    4    0    0 -0.16897688999E+02  0.24297990902E+02  0.32194379491E+02  0.43731022469E+02  0.00000000000E+00 0.  1.
       14    1    4    4    0    0  0.46489631137E+02 -0.11661267206E+02 -0.24484177915E+00  0.47930479901E+02  0.00000000000E+00 0. -1.
        1    1    5    5  501    0  0.83511804861E+01  0.24667243324E+02  0.21394018647E+03  0.21551941559E+03  0.00000000000E+00 0. -1.
       -2    1    5    5    0  501 -0.37943122624E+02 -0.37303967020E+02  0.16930841074E+03  0.17747282738E+03  0.00000000000E+00 0.  1.
</event>
<event>
 9   1  0.7570500E-01  0.2499913E+03  0.7546771E-02  0.1113310E+00
       21   -1    0    0  503  502  0.00000000000E+00  0.00000000000E+00  0.32214816160E+02  0.32214816160E+02  0.00000000000E+00 0.  1.
       21   -1    0    0  502  503 -0.00000000000E+00 -0.00000000000E+00 -0.48499148239E+03  0.48499148239E+03  0.00000000000E+00 0.  1.
       25    2    1    2    0    0  0.14210854715E-13  0.00000000000E+00 -0.45277666623E+03  0.51720629855E+03  0.24999129141E+03 0.  0.
       24    2    3    3    0    0  0.92071284486E+02 -0.21552646152E+02 -0.21040873838E+03  0.24471978071E+03  0.81696364038E+02 0.  0.
      -24    2    3    3    0    0 -0.92071284486E+02  0.21552646152E+02 -0.24236792785E+03  0.27248651785E+03  0.81025008339E+02 0.  0.
      -13    1    4    4    0    0  0.75368747663E+02  0.20491273081E+02 -0.11357281035E+03  0.13783730862E+03  0.00000000000E+00 0.  1.
       14    1    4    4    0    0  0.16702536823E+02 -0.42043919234E+02 -0.96835928036E+02  0.10688247209E+03  0.00000000000E+00 0. -1.
        3    1    5    5  501    0 -0.51577665835E+02  0.37496543857E+02 -0.20640456360E+03  0.21603029947E+03  0.00000000000E+00 0. -1.
       -4    1    5    5    0  501 -0.40493618651E+02 -0.15943897704E+02 -0.35963364247E+02  0.56456218377E+02  0.00000000000E+00 0.  1.
</event>
<event>
 9   1  0.7570500E-01  0.2499998E+03  0.7546771E-02  0.1113305E+00
       21   -1    0    0  503  502  0.00000000000E+00  0.00000000000E+00  0.43028367687E+02  0.43028367687E+02  0.00000000000E+00 0.  1.
       21   -1    0    0  502  503 -0.00000000000E+00 -0.00000000000E+00 -0.36313189818E+03  0.36313189818E+03  0.00000000000E+00 0.  1.
       25    2    1    2    0    0 -0.35527136788E-14 -0.14210854715E-13 -0.32010353049E+03  0.40616026587E+03  0.24999978267E+03 0.  0.
       24    2    3    3    0    0 -0.28403977287E+02 -0.90676615746E+02 -0.19797624355E+03  0.23384693096E+03  0.80378850087E+02 0.  0.
      -24    2    3    3    0    0  0.28403977287E+02  0.90676615746E+02 -0.12212728695E+03  0.17231333491E+03  0.75814092367E+02 0.  0.
      -13    1    4    4    0    0 -0.45677920842E+02 -0.87898580381E+02 -0.12876990587E+03  0.16246329291E+03  0.00000000000E+00 0.  1.
       14    1    4    4    0    0  0.17273943555E+02 -0.27780353657E+01 -0.69206337681E+02  0.71383638053E+02  0.00000000000E+00 0. -1.
        3    1    5    5  501    0 -0.15282713371E+02  0.43039237193E+02 -0.16660850169E+02  0.48616059018E+02  0.00000000000E+00 0. -1.
       -4    1    5    5    0  501  0.43686690657E+02  0.47637378554E+02 -0.10546643678E+03  0.12369727589E+03  0.00000000000E+00 0.  1.
</event>
<event>
 8   1  0.7570500E-01  0.2498387E+03  0.7546771E-02  0.1113407E+00
       21   -1    0    0  503  502  0.00000000000E+00  0.00000000000E+00  0.15264102466E+02  0.15264102466E+02  0.00000000000E+00 0.  1.
       21   -1    0    0  502  503 -0.00000000000E+00 -0.00000000000E+00 -0.10223233569E+04  0.10223233569E+04  0.00000000000E+00 0.  1.
       24    2    1    2    0    0 -0.58153618497E+02 -0.39252440840E+01 -0.18916176747E+03  0.21366772803E+03  0.80464109034E+02 0.  0.
      -24    2    1    2    0    0  0.58153618497E+02  0.39252440840E+01 -0.81789748694E+03  0.82391973131E+03  0.80561613831E+02 0.  0.
      -13    1    3    3    0    0 -0.54775914789E+02 -0.35246446380E+02 -0.14907272540E+03  0.16268186832E+03  0.00000000000E+00 0.  1.
       14    1    3    3    0    0 -0.33777037085E+01  0.31321202297E+02 -0.40089042078E+02  0.50985859710E+02  0.00000000000E+00 0. -1.
        1    1    4    4  501    0  0.19020417698E+02 -0.37069186366E+02 -0.28756526398E+03  0.29056786112E+03  0.00000000000E+00 0. -1.
       -2    1    4    4    0  501  0.39133200799E+02  0.40994430450E+02 -0.53033222296E+03  0.53335187019E+03  0.00000000000E+00 0.  1.
</event>
<event>
 9   1  0.7570500E-01  0.2499943E+03  0.7546771E-02  0.1113308E+00
       21   -1    0    0  503  502  0.00000000000E+00  0.00000000000E+00  0.16536751278E+03  0.16536751278E+03  0.00000000000E+00 0.  1.
       21   -1    0    0  502  503 -0.00000000000E+00 -0.00000000000E+00 -0.94482219177E+02  0.94482219177E+02  0.00000000000E+00 0.  1.
       25    2    1    2    0    0  0.00000000000E+00  0.26645352591E-14  0.70885293598E+02  0.25984973195E+03  0.24999431663E+03 0.  0.
       24    2    3    3    0    0 -0.90794808463E+02  0.18284777480E+01  0.57476970483E+02  0.13396694801E+03  0.79978124804E+02 0.  0.
      -24    2    3    3    0    0  0.90794808463E+02 -0.18284777480E+01  0.13408323114E+02  0.12588278395E+03  0.86137399489E+02 0.  0.
      -13    1    4    4    0    0 -0.67332704584E+02  0.76074529875E+01 -0.40330599242E+01  0.67881013692E+02  0.00000000000E+00 0.  1.
       14    1    4    4    0    0 -0.23462103879E+02 -0.57789752394E+01  0.61510030408E+02  0.66085934313E+02  0.00000000000E+00 0. -1.
        1    1    5    5  501    0  0.88360145503E+02  0.29915295705E+02  0.11427998715E+02  0.93984250729E+02  0.00000000000E+00 0. -1.
       -2    1    5    5    0  501  0.24346629602E+01 -0.31743773453E+02  0.19803243994E+01  0.31898533218E+02  0.00000000000E+00 0.  1.
</event>
<event>
 9   1  0.7570500E-01  0.2500004E+03  0.7546771E-02  0.1113305E+00
       21   -1    0    0  503  502  0.00000000000E+00  0.00000000000E+00  0.95738158702E+02  0.95738158702E+02  0.00000000000E+00 0.  1.
       21   -1    0    0  502  503 -0.00000000000E+00 -0.00000000000E+00 -0.16320603832E+03  0.16320603832E+03  0.00000000000E+00 0.  1.
       25    2    1    2    0    0  0.00000000000E+00 -0.28421709430E-13 -0.67467879617E+02  0.25894419702E+03  0.25000036478E+03 0.  0.
       24    2    3    3    0    0  0.44210026283E+02  0.83532379057E+02 -0.34817619423E+02  0.12985279184E+03  0.81959112679E+02 0.  0.
      -24    2    3    3    0    0 -0.44210026283E+02 -0.83532379057E+02 -0.32650260193E+02  0.12909140518E+03  0.81647820707E+02 0.  0.
      -13    1    4    4    0    0  0.19788368469E+02  0.72291374497E+02 -0.57668637539E+02  0.94568991266E+02  0.00000000000E+00 0.  1.
       14    1    4    4    0    0  0.24421657814E+02  0.11241004560E+02  0.22851018116E+02  0.35283800573E+02  0.00000000000E+00 0. -1.
        1    1    5    5  501    0 -0.27904387464E+02  0.91485435302E+01 -0.16271018715E+02  0.33572261444E+02  0.00000000000E+00 0. -1.
       -2    1    5    5    0  501 -0.16305638819E+02 -0.92680922587E+02 -0.16379241478E+02  0.95519143738E+02  0.00000000000E+00 0.  1.
</event>
<event>
 9   1  0.7570500E-01  0.2499368E+03  0.7546771E-02  0.1113345E+00
       21   -1    0    0  503  502  0.00000000000E+00  0.00000000000E+00  0.49026663896E+03  0.49026663896E+03  0.00000000000E+00 0. -1.
       21   -1    0    0  502  503 -0.00000000000E+00 -0.00000000000E+00 -0.31854299415E+02  0.31854299415E+02  0.00000000000E+00 0. -1.
       25    2    1    2    0    0  0.00000000000E+00 -0.71054273576E-14  0.45841233955E+03  0.52212093838E+03  0.24993679450E+03 0.  0.
       24    2    3    3    0    0 -0.66284385844E+02  0.23992292786E+02  0.36355894188E+03  0.37915397359E+03  0.81322700073E+02 0.  0.
      -24    2    3    3    0    0  0.66284385844E+02 -0.23992292786E+02  0.94853397666E+02  0.14296696479E+03  0.80455801853E+02 0.  0.
      -13    1    4    4    0    0  0.29056866273E+01 -0.11194685267E+02  0.17307759013E+03  0.17346358753E+03  0.00000000000E+00 0.  1.
       14    1    4    4    0    0 -0.69190072471E+02  0.35186978054E+02  0.19048135175E+03  0.20569038606E+03  0.00000000000E+00 0. -1.
        1    1    5    5  501    0  0.60465609801E+02  0.41352945497E+01  0.96767296014E+02  0.11418012177E+03  0.00000000000E+00 0. -1.
       -2    1    5    5    0  501  0.58187760421E+01 -0.28127587336E+02 -0.19138983480E+01  0.28786843017E+02  0.00000000000E+00 0.  1.
</event>
<event>
 9   1  0.7570500E-01  0.2499980E+03  0.7546771E-02  0.1113306E+00
       21   -1    0    0  503  502  0.00000000000E+00  0.00000000000E+00  0.18196012757E+02  0.18196012757E+02  0.00000000000E+00 0. -1.
       21   -1    0    0  502  503 -0.00000000000E+00 -0.00000000000E+00 -0.85869112006E+03  0.85869112006E+03  0.00000000000E+00 0. -1.
       25    2    1    2    0    0  0.71054273576E-14  0.00000000000E+00 -0.84049510730E+03  0.87688713282E+03  0.24999803659E+03 0.  0.
       24    2    3    3    0    0  0.34709827535E+02 -0.76739030689E+02 -0.25091863477E+03  0.27665110569E+03  0.80511005754E+02 0.  0.
      -24    2    3    3    0    0 -0.34709827535E+02  0.76739030689E+02 -0.58957647253E+03  0.60023602712E+03  0.74761088372E+02 0.  0.
      -13    1    4    4    0    0  0.35156860788E+02 -0.26460039179E+01 -0.13123552852E+03  0.13588881537E+03  0.00000000000E+00 0.  1.
       14    1    4    4    0    0 -0.44703325306E+00 -0.74093026771E+02 -0.11968310625E+03  0.14076229032E+03  0.00000000000E+00 0. -1.
        1    1    5    5  501    0  0.10540142128E+02  0.64141920767E+02 -0.31004635247E+03  0.31678702826E+03  0.00000000000E+00 0. -1.
       -2    1    5    5    0  501 -0.45249969663E+02  0.12597109923E+02 -0.27953012006E+03  0.28344899886E+03  0.00000000000E+00 0.  1.
</event>
<event>
 9   1  0.7570500E-01  0.2499946E+03  0.7546771E-02  0.1113308E+00
       21   -1    0    0  503  502  0.00000000000E+00  0.00000000000E+00  0.51907767888E+02  0.51907767888E+02  0.00000000000E+00 0. -1.
       21   -1    0    0  502  503 -0.00000000000E+00 -0.00000000000E+00 -0.30100168431E+03  0.30100168431E+03  0.00000000000E+00 0. -1.
       25    2    1    2    0    0  0.17763568394E-14  0.00000000000E+00 -0.24909391643E+03  0.35290945220E+03  0.24999460445E+03 0.  0.
       24    2    3    3    0    0 -0.26686980158E+01 -0.92767909779E+02 -0.15819875989E+03  0.20043998282E+03  0.80847585299E+02 0.  0.
      -24    2    3    3    0    0  0.26686980158E+01  0.92767909779E+02 -0.90895156538E+02  0.15246946938E+03  0.79824824318E+02 0.  0.
      -13    1    4    4    0    0  0.11536511414E+01 -0.76397485138E+02 -0.16536665786E+03  0.18216486538E+03  0.00000000000E+00 0.  1.
       14    1    4    4    0    0 -0.38223491572E+01 -0.16370424642E+02  0.71678979752E+01  0.18275117439E+02  0.00000000000E+00 0. -1.
        1    1    5    5  501    0  0.37328523778E+02  0.22031068401E+02 -0.37402162023E+02  0.57251274102E+02  0.00000000000E+00 0. -1.
       -2    1    5    5    0  501 -0.34659825762E+02  0.70736841378E+02 -0.53492994515E+02  0.95218195279E+02  0.00000000000E+00 0.  1.
</event>
<event>
 9   1  0.7570500E-01  0.2500025E+03  0.7546771E-02  0.1113303E+00
       21   -1    0    0  503  502  0.00000000000E+00  0.00000000000E+00  0.15847351899E+03  0.15847351899E+03  0.00000000000E+00 0. -1.
       21   -1    0    0  502  503 -0.00000000000E+00 -0.00000000000E+00 -0.98598869739E+02  0.98598869739E+02  0.00000000000E+00 0. -1.
       25    2    1    2    0    0  0.00000000000E+00  0.14210854715E-13  0.59874649253E+02  0.25707238873E+03  0.25000247884E+03 0.  0.
       24    2    3    3    0    0 -0.42674692274E+02 -0.74653957956E+02  0.66052595864E+02  0.13412226549E+03  0.78939811754E+02 0.  0.
      -24    2    3    3    0    0  0.42674692274E+02  0.74653957956E+02 -0.61779466107E+01  0.12295012324E+03  0.87659699877E+02 0.  0.
      -13    1    4    4    0    0 -0.12929477545E+02 -0.16137174655E+02  0.65277992775E+02  0.68474784674E+02  0.00000000000E+00 0.  1.
       14    1    4    4    0    0 -0.29745214729E+02 -0.58516783300E+02  0.77460308920E+00  0.65647480812E+02  0.00000000000E+00 0. -1.
        3    1    5    5  501    0  0.36964220465E+02  0.79732400621E+02  0.24580274684E+02  0.91256776224E+02  0.00000000000E+00 0. -1.
       -4    1    5    5    0  501  0.57104718090E+01 -0.50784426649E+01 -0.30758221294E+02  0.31693347021E+02  0.00000000000E+00 0.  1.
</event>
<event>
 9   1  0.7570500E-01  0.2500010E+03  0.7546771E-02  0.1113304E+00
       21   -1    0    0  503  502  0.00000000000E+00  0.00000000000E+00  0.56061532014E+03  0.56061532014E+03  0.00000000000E+00 0.  1.
       21   -1    0    0  502  503 -0.00000000000E+00 -0.00000000000E+00 -0.27871383815E+02  0.27871383815E+02  0.00000000000E+00 0.  1.
       25    2    1    2    0    0  0.35527136788E-14  0.00000000000E+00  0.53274393632E+03  0.58848670395E+03  0.25000099808E+03 0.  0.
       24    2    3    3    0    0 -0.19660174301E+02  0.32649554561E+02  0.58926741127E+02  0.10529836245E+03  0.78503939056E+02 0.  0.
      -24    2    3    3    0    0  0.19660174301E+02 -0.32649554561E+02  0.47381719519E+03  0.48318834150E+03  0.86693269857E+02 0.  0.
      -13    1    4    4    0    0  0.11656789361E+02  0.13830514672E+02  0.65695707712E+02  0.68140222234E+02  0.00000000000E+00 0.  1.
       14    1    4    4    0    0 -0.31316963662E+02  0.18819039889E+02 -0.67689665852E+01  0.37158140212E+02  0.00000000000E+00 0. -1.
        3    1    5    5  501    0  0.32622377422E+02 -0.57803124165E+02  0.33773934637E+03  0.34419948687E+03  0.00000000000E+00 0. -1.
       -4    1    5    5    0  501 -0.12962203121E+02  0.25153569604E+02  0.13607784882E+03  0.13898885464E+03  0.00000000000E+00 0.  1.
</event>
<event>
 9   1  0.7570500E-01  0.2500145E+03  0.7546771E-02  0.1113296E+00
       21   -1    0    0  503  502  0.00000000000E+00  0.00000000000E+00  0.33406379956E+03  0.33406379956E+03  0.00000000000E+00 0. -1.
       21   -1    0    0  502  503 -0.00000000000E+00 -0.00000000000E+00 -0.46777932526E+02  0.46777932526E+02  0.00000000000E+00 0. -1.
       25    2    1    2    0    0  0.00000000000E+00  0.00000000000E+00  0.28728586703E+03  0.38084173208E+03  0.25001451058E+03 0.  0.
       24    2    3    3    0    0  0.16409041798E+02 -0.75439124615E+02  0.57289769550E+02  0.12450716058E+03  0.79117616025E+02 0.  0.
      -24    2    3    3    0    0 -0.16409041798E+02  0.75439124615E+02  0.22999609748E+03  0.25633457150E+03  0.82758017830E+02 0.  0.
      -13    1    4    4    0    0 -0.10164618593E+02 -0.65603130625E+02  0.67226156984E+02  0.94479872998E+02  0.00000000000E+00 0.  1.
       14    1    4    4    0    0  0.26573660391E+02 -0.98359939901E+01 -0.99363874341E+01  0.30027287583E+02  0.00000000000E+00 0. -1.
        1    1    5    5  501    0  0.32397031794E+02  0.16551099588E+02  0.65446697546E+02  0.74878413354E+02  0.00000000000E+00 0. -1.
       -2    1    5    5    0  501 -0.48806073592E+02  0.58888025027E+02  0.16454939993E+03  0.18145615815E+03  0.00000000000E+00 0.  1.
</event>
<event>
 9   1  0.7570500E-01  0.2499752E+03  0.7546771E-02  0.1113320E+00
       21   -1    0    0  503  502  0.00000000000E+00  0.00000000000E+00  0.27786168457E+03  0.27786168457E+03  0.00000000000E+00 0. -1.
       21   -1    0    0  502  503 -0.00000000000E+00 -0.00000000000E+00 -0.56221859403E+02  0.56221859403E+02  0.00000000000E+00 0. -1.
       25    2    1    2    0    0  0.71054273576E-14  0.00000000000E+00  0.22163982517E+03  0.33408354397E+03  0.24997520328E+03 0.  0.
       24    2    3    3    0    0  0.37515545146E+02  0.88201954265E+02  0.10364241778E+03  0.16227997172E+03  0.80037726067E+02 0.  0.
      -24    2    3    3    0    0 -0.37515545146E+02 -0.88201954265E+02  0.11799740739E+03  0.17180357225E+03  0.80037981142E+02 0.  0.
      -13    1    4    4    0    0  0.28539768430E+02 -0.38056138206E+01  0.42896402370E+02  0.51663356597E+02  0.00000000000E+00 0.  1.
       14    1    4    4    0    0  0.89757767154E+01  0.92007568086E+02  0.60746015409E+02  0.11061661512E+03  0.00000000000E+00 0. -1.
        3    1    5    5  501    0  0.14203260254E+02 -0.59185811924E+01  0.52243524006E+02  0.54462354023E+02  0.00000000000E+00 0. -1.
       -4    1    5    5    0  501 -0.51718805400E+02 -0.82283373073E+02  0.65753883383E+02  0.11734121823E+03  0.00000000000E+00 0.  1.
</event>
<event>
 9   1  0.7570500E-01  0.2499992E+03  0.7546771E-02  0.1113305E+00
       21   -1    0    0  503  502  0.00000000000E+00  0.00000000000E+00  0.25014208337E+03  0.25014208337E+03  0.00000000000E+00 0. -1.
       21   -1    0    0  502  503 -0.00000000000E+00 -0.00000000000E+00 -0.62464087218E+02  0.62464087218E+02  0.00000000000E+00 0. -1.
       25    2    1    2    0    0 -0.35527136788E-14  0.14210854715E-13  0.18767799615E+03  0.31260617059E+03  0.24999917530E+03 0.  0.
       24    2    3    3    0    0  0.31482183913E+02  0.73487917159E+02  0.39607668622E+02  0.12634699598E+03  0.89460572913E+02 0.  0.
      -24    2    3    3    0    0 -0.31482183913E+02 -0.73487917159E+02  0.14807032753E+03  0.18625917461E+03  0.79850212022E+02 0.  0.
      -13    1    4    4    0    0  0.16162305557E+02 -0.16888157959E+02 -0.57513613716E+01  0.24072975674E+02  0.00000000000E+00 0.  1.
       14    1    4    4    0    0  0.15319878356E+02  0.90376075118E+02  0.45359029993E+02  0.10227402030E+03  0.00000000000E+00 0. -1.
        1    1    5    5  501    0  0.79408119360E+01  0.41160514165E+01  0.66074558126E+02  0.66677174542E+02  0.00000000000E+00 0. -1.
       -2    1    5    5    0  501 -0.39422995849E+02 -0.77603968576E+02  0.81995769403E+02  0.11958200007E+03  0.00000000000E+00 0.  1.
</event>
<event>
 9   1  0.7570500E-01  0.2499981E+03  0.7546771E-02  0.1113306E+00
       21   -1    0    0  503  502  0.00000000000E+00  0.00000000000E+00  0.80990364931E+03  0.80990364931E+03  0.00000000000E+00 0. -1.
       21   -1    0    0  502  503 -0.00000000000E+00 -0.00000000000E+00 -0.19292121947E+02  0.19292121947E+02  0.00000000000E+00 0. -1.
       25    2    1    2    0    0  0.71054273576E-14  0.00000000000E+00  0.79061152736E+03  0.82919577126E+03  0.24999807974E+03 0.  0.
       24    2    3    3    0    0  0.61162264595E+02 -0.65634270561E+02  0.50995585908E+03  0.52410685059E+03  0.81143900227E+02 0.  0.
      -24    2    3    3    0    0 -0.61162264595E+02  0.65634270561E+02  0.28065566828E+03  0.30508892067E+03  0.79138898727E+02 0.  0.
      -13    1    4    4    0    0  0.41331466330E+02 -0.83878004618E+02  0.41480629786E+03  0.42521532724E+03  0.00000000000E+00 0.  1.
       14    1    4    4    0    0  0.19830798265E+02  0.18243734057E+02  0.95149561215E+02  0.98891523356E+02  0.00000000000E+00 0. -1.
        3    1    5    5  501    0 -0.20577995513E+02 -0.12393117165E+02  0.24747161208E+02  0.34488624795E+02  0.00000000000E+00 0. -1.
       -4    1    5    5    0  501 -0.40584269082E+02  0.78027387726E+02  0.25590850708E+03  0.27060029587E+03  0.00000000000E+00 0.  1.
</event>
<event>
 9   1  0.7570500E-01  0.2500021E+03  0.7546771E-02  0.1113304E+00
       21   -1    0    0  503  502  0.00000000000E+00  0.00000000000E+00  0.47498970185E+02  0.47498970185E+02  0.00000000000E+00 0.  1.
       21   -1    0    0  502  503 -0.00000000000E+00 -0.00000000000E+00 -0.32895997204E+03  0.32895997204E+03  0.00000000000E+00 0.  1.
       25    2    1    2    0    0 -0.71054273576E-14  0.00000000000E+00 -0.28146100185E+03  0.37645894222E+03  0.25000207922E+03 0.  0.
       24    2    3    3    0    0 -0.18141250957E+02  0.19919248432E+02 -0.24902671974E+01  0.84907752600E+02  0.80481324396E+02 0.  0.
      -24    2    3    3    0    0  0.18141250957E+02 -0.19919248432E+02 -0.27897073465E+03  0.29155118962E+03  0.80321503544E+02 0.  0.
      -13    1    4    4    0    0 -0.23556010768E+00 -0.96584603259E+01  0.33580220446E+02  0.34942417627E+02  0.00000000000E+00 0.  1.
       14    1    4    4    0    0 -0.17905690849E+02  0.29577708758E+02 -0.36070487643E+02  0.49965334973E+02  0.00000000000E+00 0. -1.
        3    1    5    5  501    0  0.84559283975E+01  0.24687068235E+02 -0.36781465554E+02  0.45098007399E+02  0.00000000000E+00 0. -1.
       -4    1    5    5    0  501  0.96853225592E+01 -0.44606316667E+02 -0.24218926910E+03  0.24645318222E+03  0.00000000000E+00 0.  1.
</event>
<event>
 9   1  0.7570500E-01  0.2500013E+03  0.7546771E-02  0.1113304E+00
       21   -1    0    0  503  502  0.00000000000E+00  0.00000000000E+00  0.14600934034E+03  0.14600934034E+03  0.00000000000E+00 0. -1.
       21   -1    0    0  502  503 -0.00000000000E+00 -0.00000000000E+00 -0.10701479976E+03  0.10701479976E+03  0.00000000000E+00 0. -1.
       25    2    1    2    0    0  0.00000000000E+00 -0.35527136788E-14  0.38994540577E+02  0.25302414010E+03  0.25000128255E+03 0.  0.
       24    2    3    3    0    0 -0.73287943467E+02  0.33607301997E+01  0.80514069855E+02  0.13531239697E+03  0.80277718985E+02 0.  0.
      -24    2    3    3    0    0  0.73287943467E+02 -0.33607301997E+01 -0.41519529277E+02  0.11771174312E+03  0.82156959487E+02 0.  0.
      -13    1    4    4    0    0 -0.46046326899E+02  0.40288079275E+02  0.57560154051E+02  0.84003362354E+02  0.00000000000E+00 0.  1.
       14    1    4    4    0    0 -0.27241616568E+02 -0.36927349075E+02  0.22953915804E+02  0.51309034620E+02  0.00000000000E+00 0. -1.
        1    1    5    5  501    0  0.43014501272E+02  0.24448462088E+02  0.11329553408E+02  0.50757594492E+02  0.00000000000E+00 0. -1.
       -2    1    5    5    0  501  0.30273442195E+02 -0.27809192288E+02 -0.52849082686E+02  0.66954148630E+02  0.00000000000E+00 0.  1.
</event>
<event>
 9   1  0.7570500E-01  0.2500042E+03  0.7546771E-02  0.1113302E+00
       21   -1    0    0  503  502  0.00000000000E+00  0.00000000000E+00  0.59754028081E+03  0.59754028081E+03  0.00000000000E+00 0. -1.
       21   -1    0    0  502  503 -0.00000000000E+00 -0.00000000000E+00 -0.26149733352E+02  0.26149733352E+02  0.00000000000E+00 0. -1.
       25    2    1    2    0    0 -0.14210854715E-13  0.00000000000E+00  0.57139054745E+03  0.62369001416E+03  0.25000415205E+03 0.  0.
       24    2    3    3    0    0  0.94639163151E+02  0.22249264364E+00  0.25089529246E+03  0.28014710180E+03  0.81100740845E+02 0.  0.
      -24    2    3    3    0    0 -0.94639163151E+02 -0.22249264364E+00  0.32049525500E+03  0.34354291236E+03  0.79673731245E+02 0.  0.
      -13    1    4    4    0    0  0.70033823780E+02  0.12294455056E+02  0.79850728493E+02  0.10692066657E+03  0.00000000000E+00 0.  1.
       14    1    4    4    0    0  0.24605339371E+02 -0.12071962413E+02  0.17104456396E+03  0.17322643523E+03  0.00000000000E+00 0. -1.
        1    1    5    5  501    0 -0.10234484008E+03  0.15571514743E+02  0.24395759318E+03  0.26501367065E+03  0.00000000000E+00 0. -1.
       -2    1    5    5    0  501  0.77056769303E+01 -0.15794007386E+02  0.76537661817E+02  0.78529241705E+02  0.00000000000E+00 0.  1.
</event>
<event>
 9   1  0.7570500E-01  0.2499983E+03  0.7546771E-02  0.1113306E+00
       21   -1    0    0  503  502  0.00000000000E+00  0.00000000000E+00  0.13285032152E+04  0.13285032152E+04  0.00000000000E+00 0.  1.
       21   -1    0    0  502  503 -0.00000000000E+00 -0.00000000000E+00 -0.11761198664E+02  0.11761198664E+02  0.00000000000E+00 0.  1.
       25    2    1    2    0    0 -0.35527136788E-14  0.00000000000E+00  0.13167420166E+04  0.13402644139E+04  0.24999832192E+03 0.  0.
       24    2    3    3    0    0  0.25595859590E+01 -0.10314285039E+03  0.68509024158E+03  0.69747513474E+03  0.80485560223E+02 0.  0.
      -24    2    3    3    0    0 -0.25595859590E+01  0.10314285039E+03  0.63165177500E+03  0.64278927917E+03  0.59574268678E+02 0.  0.
      -13    1    4    4    0    0 -0.35537110833E+02 -0.24235601024E+02  0.20707170021E+03  0.21149217393E+03  0.00000000000E+00 0.  1.
       14    1    4    4    0    0  0.38096696792E+02 -0.78907249364E+02  0.47801854137E+03  0.48598296082E+03  0.00000000000E+00 0. -1.
        1    1    5    5  501    0 -0.23512570291E+02  0.85073899665E+02  0.53591337744E+03  0.54313309371E+03  0.00000000000E+00 0. -1.
       -2    1    5    5    0  501  0.20952984332E+02  0.18068950722E+02  0.95738397555E+02  0.99656185453E+02  0.00000000000E+00 0.  1.
</event>
<event>
 9   1  0.7570500E-01  0.2500016E+03  0.7546771E-02  0.1113304E+00
       21   -1    0    0  503  502  0.00000000000E+00  0.00000000000E+00  0.72467719712E+03  0.72467719712E+03  0.00000000000E+00 0. -1.
       21   -1    0    0  502  503 -0.00000000000E+00 -0.00000000000E+00 -0.21561591685E+02  0.21561591685E+02  0.00000000000E+00 0. -1.
       25    2    1    2    0    0  0.00000000000E+00  0.00000000000E+00  0.70311560543E+03  0.74623878880E+03  0.25000155061E+03 0.  0.
       24    2    3    3    0    0  0.51748474398E+02 -0.72275853617E+02  0.46432478577E+03  0.47947201463E+03  0.79963757495E+02 0.  0.
      -24    2    3    3    0    0 -0.51748474398E+02  0.72275853617E+02  0.23879081966E+03  0.26676677417E+03  0.79004763333E+02 0.  0.
      -13    1    4    4    0    0 -0.97761249806E+01 -0.52265138081E+02  0.25015960220E+03  0.25574800850E+03  0.00000000000E+00 0.  1.
       14    1    4    4    0    0  0.61524599379E+02 -0.20010715536E+02  0.21416518357E+03  0.22372400613E+03  0.00000000000E+00 0. -1.
        3    1    5    5  501    0 -0.57057159282E+02  0.18634715572E+02  0.87062724796E+02  0.10574823922E+03  0.00000000000E+00 0. -1.
       -4    1    5    5    0  501  0.53086848839E+01  0.53641138045E+02  0.15172809487E+03  0.16101853495E+03  0.00000000000E+00 0.  1.
</event>
<event>
 9   1  0.7570500E-01  0.2499987E+03  0.7546771E-02  0.1113306E+00
       21   -1    0    0  503  502  0.00000000000E+00  0.00000000000E+00  0.57175549980E+02  0.57175549980E+02  0.00000000000E+00 0.  1.
       21   -1    0    0  502  503 -0.00000000000E+00 -0.00000000000E+00 -0.27327833833E+03  0.27327833833E+03  0.00000000000E+00 0.  1.
       25    2    1    2    0    0  0.00000000000E+00  0.00000000000E+00 -0.21610278835E+03  0.33045388831E+03  0.24999871433E+03 0.  0.
       24    2    3    3    0    0 -0.18809072806E+02 -0.38612443351E+02 -0.22179786992E+03  0.23997256005E+03  0.80918678157E+02 0.  0.
      -24    2    3    3    0    0  0.18809072806E+02  0.38612443351E+02  0.56950815641E+01  0.90481328265E+02  0.79433839195E+02 0.  0.
      -13    1    4    4    0    0 -0.29185325488E+01  0.23457200254E+02 -0.95122201240E+02  0.98015260264E+02  0.00000000000E+00 0.  1.
       14    1    4    4    0    0 -0.15890540257E+02 -0.62069643605E+02 -0.12667566868E+03  0.14195729978E+03  0.00000000000E+00 0. -1.
        3    1    5    5  501    0  0.31585171439E+01  0.48270203781E+02 -0.25187217141E+02  0.54537919936E+02  0.00000000000E+00 0. -1.
       -4    1    5    5    0  501  0.15650555662E+02 -0.96577604296E+01  0.30882298705E+02  0.35943408330E+02  0.00000000000E+00 0.  1.
</event>
<event>
 9   1  0.7570500E-01  0.2499985E+03  0.7546771E-02  0.1113306E+00
       21   -1    0    0  503  502  0.00000000000E+00  0.00000000000E+00  0.41490189725E+02  0.41490189725E+02  0.00000000000E+00 0. -1.
       21   -1    0    0  502  503 -0.00000000000E+00 -0.00000000000E+00 -0.37659061082E+03  0.37659061082E+03  0.00000000000E+00 0. -1.
       25    2    1    2    0    0  0.00000000000E+00  0.14210854715E-13 -0.33510042110E+03  0.41808080055E+03  0.24999852713E+03 0.  0.
       24    2    3    3    0    0  0.45684497710E+02 -0.83021297254E+02 -0.21547237362E+03  0.24865341937E+03  0.80128459600E+02 0.  0.
      -24    2    3    3    0    0 -0.45684497710E+02  0.83021297254E+02 -0.11962804747E+03  0.16942738118E+03  0.73587761370E+02 0.  0.
      -13    1    4    4    0    0 -0.12874612783E+02  0.50749720014E+01 -0.53013987145E+02  0.54790453805E+02  0.00000000000E+00 0.  1.
       14    1    4    4    0    0  0.58559110493E+02 -0.88096269255E+02 -0.16245838648E+03  0.19386296556E+03  0.00000000000E+00 0. -1.
        1    1    5    5  501    0 -0.27839812340E+02  0.74916246463E+02 -0.12565866693E+03  0.14892145484E+03  0.00000000000E+00 0. -1.
       -2    1    5    5    0  501 -0.17844685370E+02  0.81050507907E+01  0.60306194592E+01  0.20505926347E+02  0.00000000000E+00 0.  1.
</event>
<event>
 9   1  0.7570500E-01  0.2499978E+03  0.7546771E-02  0.1113306E+00
       21   -1    0    0  503  502  0.00000000000E+00  0.00000000000E+00  0.14059901082E+03  0.14059901082E+03  0.00000000000E+00 0. -1.
       21   -1    0    0  502  503 -0.00000000000E+00 -0.00000000000E+00 -0.11112973341E+03  0.11112973341E+03  0.00000000000E+00 0. -1.
       25    2    1    2    0    0 -0.71054273576E-14  0.00000000000E+00  0.29469277411E+02  0.25172874423E+03  0.24999784471E+03 0.  0.
       24    2    3    3    0    0  0.52882602124E+02  0.66093469938E+02 -0.29736602713E+02  0.12109104176E+03  0.81325632360E+02 0.  0.
      -24    2    3    3    0    0 -0.52882602124E+02 -0.66093469938E+02  0.59205880123E+02  0.13063770246E+03  0.79974725309E+02 0.  0.
      -13    1    4    4    0    0  0.28897906037E+02  0.14152455141E+02 -0.50793368201E+02  0.60127757425E+02  0.00000000000E+00 0.  1.
       14    1    4    4    0    0  0.23984696087E+02  0.51941014797E+02  0.21056765488E+02  0.60963284339E+02  0.00000000000E+00 0. -1.
        1    1    5    5  501    0 -0.57525937874E+02 -0.54514027295E+02  0.75941317560E+02  0.10976382106E+03  0.00000000000E+00 0. -1.
       -2    1    5    5    0  501  0.46433357506E+01 -0.11579442643E+02 -0.16735437437E+02  0.20873881408E+02  0.00000000000E+00 0.  1.
</event>
<event>
 9   1  0.7570500E-01  0.2499956E+03  0.7546771E-02  0.1113308E+00
       21   -1    0    0  503  502  0.00000000000E+00  0.00000000000E+00  0.99418258830E+02  0.99418258830E+02  0.00000000000E+00 0. -1.
       21   -1    0    0  502  503 -0.00000000000E+00 -0.00000000000E+00 -0.15715881693E+03  0.15715881693E+03  0.00000000000E+00 0. -1.
       25    2    1    2    0    0  0.14210854715E-13 -0.14210854715E-13 -0.57740558095E+02  0.25657707576E+03  0.24999564747E+03 0.  0.
       24    2    3    3    0    0  0.72295838680E+02 -0.64206484154E+02 -0.30316436616E+02  0.12951242343E+03  0.80654947742E+02 0.  0.
      -24    2    3    3    0    0 -0.72295838680E+02  0.64206484154E+02 -0.27424121479E+02  0.12706465233E+03  0.77744340852E+02 0.  0.
      -13    1    4    4    0    0  0.30853958563E+02  0.77481805888E+01  0.14716981739E+02  0.35051256938E+02  0.00000000000E+00 0.  1.
       14    1    4    4    0    0  0.41441880117E+02 -0.71954664743E+02 -0.45033418355E+02  0.94461166489E+02  0.00000000000E+00 0. -1.
        1    1    5    5  501    0 -0.71725978570E+02  0.15902511252E+02 -0.45311508295E+01  0.73607317529E+02  0.00000000000E+00 0. -1.
       -2    1    5    5    0  501 -0.56986010950E+00  0.48303972902E+02 -0.22892970650E+02  0.53457334799E+02  0.00000000000E+00 0.  1.
</event>
<event>
 9   1  0.7570500E-01  0.2500044E+03  0.7546771E-02  0.1113302E+00
       21   -1    0    0  503  502  0.00000000000E+00  0.00000000000E+00  0.31512998891E+02  0.31512998891E+02  0.00000000000E+00 0.  1.
       21   -1    0    0  502  503 -0.00000000000E+00 -0.00000000000E+00 -0.49584465807E+03  0.49584465807E+03  0.00000000000E+00 0.  1.
       25    2    1    2    0    0  0.71054273576E-14  0.00000000000E+00 -0.46433165918E+03  0.52735765696E+03  0.25000441724E+03 0.  0.
       24    2    3    3    0    0 -0.24040253013E+02 -0.49097716175E+02 -0.61000388178E+02  0.11187509834E+03  0.76200201918E+02 0.  0.
      -24    2    3    3    0    0  0.24040253013E+02  0.49097716175E+02 -0.40333127100E+03  0.41548255862E+03  0.83433343767E+02 0.  0.
      -13    1    4    4    0    0  0.25043747024E+02 -0.23552726876E+02 -0.39867460169E+02  0.52643466723E+02  0.00000000000E+00 0.  1.
       14    1    4    4    0    0 -0.49084000036E+02 -0.25544989299E+02 -0.21132928009E+02  0.59231631618E+02  0.00000000000E+00 0. -1.
        1    1    5    5  501    0  0.47289646251E+02  0.50222835546E+02 -0.35732849114E+03  0.36392622114E+03  0.00000000000E+00 0. -1.
       -2    1    5    5    0  501 -0.23249393238E+02 -0.11251193706E+01 -0.46002779866E+02  0.51556337485E+02  0.00000000000E+00 0.  1.
</event>
<event>
 9   1  0.7570500E-01  0.2499987E+03  0.7546771E-02  0.1113306E+00
       21   -1    0    0  503  502  0.00000000000E+00  0.00000000000E+00  0.50739203378E+02  0.50739203378E+02  0.00000000000E+00 0.  1.
       21   -1    0    0  502  503 -0.00000000000E+00 -0.00000000000E+00 -0.30794407374E+03  0.30794407374E+03  0.00000000000E+00 0.  1.
       25    2    1    2    0    0  0.71054273576E-14  0.00000000000E+00 -0.25720487037E+03  0.35868327712E+03  0.24999869589E+03 0.  0.
       24    2    3    3    0    0  0.47640680667E+02  0.64955207085E+02 -0.55751516068E+02  0.12716071981E+03  0.81072829838E+02 0.  0.
      -24    2    3    3    0    0 -0.47640680667E+02 -0.64955207085E+02 -0.20145335430E+03  0.23152255731E+03  0.80811058667E+02 0.  0.
      -13    1    4    4    0    0 -0.16025901141E+02  0.30526400011E+02  0.20430778504E+01  0.34537874459E+02  0.00000000000E+00 0.  1.
       14    1    4    4    0    0  0.63666581808E+02  0.34428807073E+02 -0.57794593919E+02  0.92622845356E+02  0.00000000000E+00 0. -1.
        1    1    5    5  501    0 -0.68738967982E+02 -0.51495994992E+02 -0.12997227748E+03  0.15578727847E+03  0.00000000000E+00 0. -1.
       -2    1    5    5    0  501  0.21098287315E+02 -0.13459212092E+02 -0.71481076818E+02  0.75735278839E+02  0.00000000000E+00 0.  1.
</event>
<event>
 9   1  0.7570500E-01  0.2500065E+03  0.7546771E-02  0.1113301E+00
       21   -1    0    0  503  502  0.00000000000E+00  0.00000000000E+00  0.91287156115E+02  0.91287156115E+02  0.00000000000E+00 0. -1.
       21   -1    0    0  502  503 -0.00000000000E+00 -0.00000000000E+00 -0.17117203116E+03  0.17117203116E+03  0.00000000000E+00 0. -1.
       25    2    1    2    0    0  0.00000000000E+00  0.00000000000E+00 -0.79884875041E+02  0.26245918727E+03  0.25000646336E+03 0.  0.
       24    2    3    3    0    0 -0.49762834349E+02 -0.20969845343E+02 -0.12659322041E+03  0.15796818232E+03  0.77537275404E+02 0.  0.
      -24    2    3    3    0    0  0.49762834349E+02  0.20969845343E+02  0.46708345365E+02  0.10449100495E+03  0.76293030432E+02 0.  0.
      -13    1    4    4    0    0 -0.56776038345E+02  0.68225476025E+01 -0.49197412640E+02  0.75435078687E+02  0.00000000000E+00 0.  1.
       14    1    4    4    0    0  0.70132039962E+01 -0.27792392945E+02 -0.77395807765E+02  0.82533103635E+02  0.00000000000E+00 0. -1.
        1    1    5    5  501    0 -0.45939662231E+01  0.31248210419E+02 -0.76542183142E+00  0.31593370359E+02  0.00000000000E+00 0. -1.
       -2    1    5    5    0  501  0.54356800572E+02 -0.10278365077E+02  0.47473767196E+02  0.72897634590E+02  0.00000000000E+00 0.  1.
</event>
<event>
 9   1  0.7570500E-01  0.2500363E+03  0.7546771E-02  0.1113282E+00
       21   -1    0    0  503  502  0.00000000000E+00  0.00000000000E+00  0.32140826461E+03  0.32140826461E+03  0.00000000000E+00 0.  1.
       21   -1    0    0  502  503 -0.00000000000E+00 -0.00000000000E+00 -0.48628305658E+02  0.48628305658E+02  0.00000000000E+00 0.  1.
       25    2    1    2    0    0  0.00000000000E+00  0.00000000000E+00  0.27277995895E+03  0.37003657027E+03  0.25003631202E+03 0.  0.
       24    2    3    3    0    0  0.68346806988E+02  0.58646669350E+02  0.88815809474E+02  0.14980308808E+03  0.80262066593E+02 0.  0.
      -24    2    3    3    0    0 -0.68346806988E+02 -0.58646669350E+02  0.18396414948E+03  0.22023348219E+03  0.80927501711E+02 0.  0.
      -13    1    4    4    0    0  0.64474223587E+02  0.26759333822E+01  0.47325338692E+02  0.80023582830E+02  0.00000000000E+00 0.  1.
       14    1    4    4    0    0  0.38725834015E+01  0.55970735968E+02  0.41490470782E+02  0.69779505248E+02  0.00000000000E+00 0. -1.
        1    1    5    5  501    0 -0.52959941180E+02  0.69556006694E+01  0.88843986110E+02  0.10366479450E+03  0.00000000000E+00 0. -1.
       -2    1    5    5    0  501 -0.15386865808E+02 -0.65602270019E+02  0.95120163370E+02  0.11656868769E+03  0.00000000000E+00 0.  1.
</event>
<event>
 9   1  0.7570500E-01  0.2500031E+03  0.7546771E-02  0.1113303E+00
       21   -1    0    0  503  502  0.00000000000E+00  0.00000000000E+00  0.43054806177E+03  0.43054806177E+03  0.00000000000E+00 0. -1.
       21   -1    0    0  502  503 -0.00000000000E+00 -0.00000000000E+00 -0.36291859850E+02  0.36291859850E+02  0.00000000000E+00 0. -1.
       25    2    1    2    0    0  0.35527136788E-14  0.71054273576E-14  0.39425620192E+03  0.46683992162E+03  0.25000311931E+03 0.  0.
       24    2    3    3    0    0 -0.36622725409E+01  0.36735164588E+02  0.32394339888E+02  0.94926177977E+02  0.81232391636E+02 0.  0.
      -24    2    3    3    0    0  0.36622725409E+01 -0.36735164588E+02  0.36186186204E+03  0.37191374365E+03  0.77543155467E+02 0.  0.
      -13    1    4    4    0    0 -0.36767584353E+02  0.32817215617E+02  0.12406460272E+01  0.49298723133E+02  0.00000000000E+00 0.  1.
       14    1    4    4    0    0  0.33105311812E+02  0.39179489710E+01  0.31153693861E+02  0.45627454844E+02  0.00000000000E+00 0. -1.
        1    1    5    5  501    0 -0.24077213772E+02 -0.19663501543E+01  0.25531890874E+03  0.25645920517E+03  0.00000000000E+00 0. -1.
       -2    1    5    5    0  501  0.27739486313E+02 -0.34768814434E+02  0.10654295330E+03  0.11545453848E+03  0.00000000000E+00 0.  1.
</event>
<event>
 9   1  0.7570500E-01  0.2499891E+03  0.7546771E-02  0.1113312E+00
       21   -1    0    0  503  502  0.00000000000E+00  0.00000000000E+00  0.28534884463E+03  0.28534884463E+03  0.00000000000E+00 0.  1.
       21   -1    0    0  502  503 -0.00000000000E+00 -0.00000000000E+00 -0.54752766485E+02  0.54752766485E+02  0.00000000000E+00 0.  1.
       25    2    1    2    0    0  0.00000000000E+00  0.00000000000E+00  0.23059607815E+03  0.34010161111E+03  0.24998910902E+03 0.  0.
       24    2    3    3    0    0 -0.68649869823E+02 -0.22313838026E+02  0.19680474670E+03  0.22442883575E+03  0.80159104281E+02 0.  0.
      -24    2    3    3    0    0  0.68649869823E+02  0.22313838026E+02  0.33791331449E+02  0.11567277537E+03  0.83830930364E+02 0.  0.
      -13    1    4    4    0    0 -0.60657247085E+02  0.31415646375E+01  0.61199772612E+02  0.86224029249E+02  0.00000000000E+00 0.  1.
       14    1    4    4    0    0 -0.79926227379E+01 -0.25455402664E+02  0.13560497408E+03  0.13820480650E+03  0.00000000000E+00 0. -1.
        1    1    5    5  501    0  0.32913902876E+02 -0.38207485674E-01 -0.26397847342E+02  0.42192094125E+02  0.00000000000E+00 0. -1.
       -2    1    5    5    0  501  0.35735966946E+02  0.22352045512E+02  0.60189178791E+02  0.73480681241E+02  0.00000000000E+00 0.  1.
</event>
<event>
 8   1  0.7570500E-01  0.2501116E+03  0.7546771E-02  0.1113234E+00
       21   -1    0    0  503  502  0.00000000000E+00  0.00000000000E+00  0.10621956083E+03  0.10621956083E+03  0.00000000000E+00 0.  1.
       21   -1    0    0  502  503 -0.00000000000E+00 -0.00000000000E+00 -0.14723235205E+03  0.14723235205E+03  0.00000000000E+00 0.  1.
       24    2    1    2    0    0 -0.93152137445E+02 -0.16789693038E+02 -0.34563280920E+02  0.12866722983E+03  0.80008881640E+02 0.  0.
      -24    2    1    2    0    0  0.93152137445E+02  0.16789693038E+02 -0.64495103068E+01  0.12478468305E+03  0.81058043637E+02 0.  0.
      -13    1    3    3    0    0 -0.63738891427E+02  0.28044882702E+02 -0.26178248380E+02  0.74393967594E+02  0.00000000000E+00 0.  1.
       14    1    3    3    0    0 -0.29413246018E+02 -0.44834575740E+02 -0.83850325396E+01  0.54273262236E+02  0.00000000000E+00 0. -1.
        1    1    4    4  501    0  0.88345870706E+02  0.27189120666E+02  0.21218025418E+02  0.94839051851E+02  0.00000000000E+00 0. -1.
       -2    1    4    4    0  501  0.48062667391E+01 -0.10399427627E+02 -0.27667535725E+02  0.29945631201E+02  0.00000000000E+00 0.  1.
</event>
<event>
 9   1  0.7570500E-01  0.2499569E+03  0.7546771E-02  0.1113332E+00
       21   -1    0    0  503  502  0.00000000000E+00  0.00000000000E+00  0.33325397060E+02  0.33325397060E+02  0.00000000000E+00 0.  1.
       21   -1    0    0  502  503 -0.00000000000E+00 -0.00000000000E+00 -0.46870015162E+03  0.46870015162E+03  0.00000000000E+00 0.  1.
       25    2    1    2    0    0 -0.71054273576E-14 -0.35527136788E-14 -0.43537475456E+03  0.50202554868E+03  0.24995694553E+03 0.  0.
       24    2    3    3    0    0  0.63080183651E+02  0.83264268405E+01 -0.36264930897E+03  0.37693890696E+03  0.80746388932E+02 0.  0.
      -24    2    3    3    0    0 -0.63080183651E+02 -0.83264268405E+01 -0.72725445588E+02  0.12508664172E+03  0.79430715397E+02 0.  0.
      -13    1    4    4    0    0 -0.80178755410E+01  0.26464485057E+02 -0.70836660356E+02  0.76042670573E+02  0.00000000000E+00 0.  1.
       14    1    4    4    0    0  0.71098059192E+02 -0.18138058217E+02 -0.29181264862E+03  0.30089623638E+03  0.00000000000E+00 0. -1.
        1    1    5    5  501    0 -0.52690047765E+02  0.58673363696E+01 -0.87370943318E+02  0.10219759540E+03  0.00000000000E+00 0. -1.
       -2    1    5    5    0  501 -0.10390135886E+02 -0.14193763210E+02  0.14645497730E+02  0.22889046323E+02  0.00000000000E+00 0.  1.
</event>
<event>
 9   1  0.7570500E-01  0.2500027E+03  0.7546771E-02  0.1113303E+00
       21   -1    0    0  503  502  0.00000000000E+00  0.00000000000E+00  0.49777498668E+03  0.49777498668E+03  0.00000000000E+00 0.  1.
       21   -1    0    0  502  503 -0.00000000000E+00 -0.00000000000E+00 -0.31390358089E+02  0.31390358089E+02  0.00000000000E+00 0.  1.
       25    2    1    2    0    0  0.00000000000E+00 -0.71054273576E-14  0.46638462859E+03  0.52916534477E+03  0.25000268063E+03 0.  0.
       24    2    3    3    0    0 -0.81164621822E+02  0.26879026050E+02  0.14221657704E+03  0.18413850008E+03  0.79820138759E+02 0.  0.
      -24    2    3    3    0    0  0.81164621822E+02 -0.26879026050E+02  0.32416805156E+03  0.34502684469E+03  0.81537844158E+02 0.  0.
      -13    1    4    4    0    0 -0.25271059172E+02 -0.13075851594E+02  0.26493334365E+01  0.28576621463E+02  0.00000000000E+00 0.  1.
       14    1    4    4    0    0 -0.55893562650E+02  0.39954877644E+02  0.13956724360E+03  0.15556187862E+03  0.00000000000E+00 0. -1.
        1    1    5    5  501    0  0.43851617928E+02  0.27756652189E+02  0.14911174612E+03  0.15788511319E+03  0.00000000000E+00 0. -1.
       -2    1    5    5    0  501  0.37313003894E+02 -0.54635678239E+02  0.17505630544E+03  0.18714173150E+03  0.00000000000E+00 0.  1.
</event>
<event>
 9   1  0.7570500E-01  0.2500283E+03  0.7546771E-02  0.1113287E+00
       21   -1    0    0  503  502  0.00000000000E+00  0.00000000000E+00  0.58243713859E+02  0.58243713859E+02  0.00000000000E+00 0.  1.
       21   -1    0    0  502  503 -0.00000000000E+00 -0.00000000000E+00 -0.26832998026E+03  0.26832998026E+03  0.00000000000E+00 0.  1.
       25    2    1    2    0    0  0.71054273576E-14 -0.28421709430E-13 -0.21008626641E+03  0.32657369412E+03  0.25002827512E+03 0.  0.
       24    2    3    3    0    0 -0.51033682745E+02 -0.83509832341E+02 -0.88622125458E+02  0.15055290957E+03  0.72346171899E+02 0.  0.
      -24    2    3    3    0    0  0.51033682745E+02  0.83509832341E+02 -0.12146414095E+03  0.17602078455E+03  0.81556423321E+02 0.  0.
      -13    1    4    4    0    0  0.99074474918E+01 -0.16971629304E+02  0.52578899535E+01  0.20343036248E+02  0.00000000000E+00 0.  1.
       14    1    4    4    0    0 -0.60941130237E+02 -0.66538203037E+02 -0.93880015411E+02  0.13020987333E+03  0.00000000000E+00 0. -1.
        1    1    5    5  501    0  0.69501655101E+02  0.59202643381E+02 -0.11105910871E+03  0.14376911585E+03  0.00000000000E+00 0. -1.
       -2    1    5    5    0  501 -0.18467972356E+02  0.24307188960E+02 -0.10405032241E+02  0.32251668701E+02  0.00000000000E+00 0.  1.
</event>
<event>
 9   1  0.7570500E-01  0.2500035E+03  0.7546771E-02  0.1113303E+00
       21   -1    0    0  503  502  0.00000000000E+00  0.00000000000E+00  0.56435897795E+02  0.56435897795E+02  0.00000000000E+00 0. -1.
       21   -1    0    0  502  503 -0.00000000000E+00 -0.00000000000E+00 -0.27687061158E+03  0.27687061158E+03  0.00000000000E+00 0. -1.
       25    2    1    2    0    0  0.00000000000E+00 -0.71054273576E-14 -0.22043471379E+03  0.33330650938E+03  0.25000353228E+03 0.  0.
       24    2    3    3    0    0  0.47708508177E+02 -0.56186306856E+02 -0.19117241074E+03  0.22088650848E+03  0.82528517301E+02 0.  0.
      -24    2    3    3    0    0 -0.47708508177E+02  0.56186306856E+02 -0.29262303044E+02  0.11242000090E+03  0.79680432929E+02 0.  0.
      -13    1    4    4    0    0  0.92339477467E+01 -0.15890887469E+02 -0.15120944065E+03  0.15232229330E+03  0.00000000000E+00 0.  1.
       14    1    4    4    0    0  0.38474560430E+02 -0.40295419387E+02 -0.39962970094E+02  0.68564215175E+02  0.00000000000E+00 0. -1.
        1    1    5    5  501    0 -0.10267694848E+02  0.45709358966E+02  0.18905441662E+02  0.50519172390E+02  0.00000000000E+00 0. -1.
       -2    1    5    5    0  501 -0.37440813330E+02  0.10476947891E+02 -0.48167744706E+02  0.61900828508E+02  0.00000000000E+00 0.  1.
</event>
<event>
 9   1  0.7570500E-01  0.2500062E+03  0.7546771E-02  0.1113301E+00
       21   -1    0    0  503  502  0.00000000000E+00  0.00000000000E+00  0.15434573417E+03  0.15434573417E+03  0.00000000000E+00 0.  1.
       21   -1    0    0  502  503 -0.00000000000E+00 -0.00000000000E+00 -0.10123877063E+03  0.10123877063E+03  0.00000000000E+00 0.  1.
       25    2    1    2    0    0  0.00000000000E+00  0.00000000000E+00  0.53106963541E+02  0.25558450480E+03  0.25000617896E+03 0.  0.
       24    2    3    3    0    0  0.42522780256E+02  0.66944948564E+02 -0.23895243158E+02  0.11870718115E+03  0.85032930282E+02 0.  0.
      -24    2    3    3    0    0 -0.42522780256E+02 -0.66944948564E+02  0.77002206699E+02  0.13687732365E+03  0.80723286073E+02 0.  0.
      -13    1    4    4    0    0  0.17865730143E+02 -0.11289280864E+02 -0.29725493372E+02  0.36472416046E+02  0.00000000000E+00 0.  1.
       14    1    4    4    0    0  0.24657050112E+02  0.78234229428E+02  0.58302502148E+01  0.82234765105E+02  0.00000000000E+00 0. -1.
        1    1    5    5  501    0  0.58889828240E+01 -0.92231379547E+01  0.58214426432E+02  0.59233992244E+02  0.00000000000E+00 0. -1.
       -2    1    5    5    0  501 -0.48411763080E+02 -0.57721810609E+02  0.18787780267E+02  0.77643331406E+02  0.00000000000E+00 0.  1.
</event>
<event>
 9   1  0.7570500E-01  0.2500004E+03  0.7546771E-02  0.1113305E+00
       21   -1    0    0  503  502  0.00000000000E+00  0.00000000000E+00  0.17714531224E+03  0.17714531224E+03  0.00000000000E+00 0. -1.
       21   -1    0    0  502  503 -0.00000000000E+00 -0.00000000000E+00 -0.88204685909E+02  0.88204685909E+02  0.00000000000E+00 0. -1.
       25    2    1    2    0    0  0.00000000000E+00  0.00000000000E+00  0.88940626328E+02  0.26534999815E+03  0.25000037301E+03 0.  0.
       24    2    3    3    0    0 -0.47114668008E+02  0.79293656628E+02  0.71644326129E+02  0.14183726464E+03  0.80483689353E+02 0.  0.
      -24    2    3    3    0    0  0.47114668008E+02 -0.79293656628E+02  0.17296300199E+02  0.12351273350E+03  0.80305400902E+02 0.  0.
      -13    1    4    4    0    0 -0.47324371850E+02  0.35110111923E+02  0.77401699431E+02  0.97279695749E+02  0.00000000000E+00 0.  1.
       14    1    4    4    0    0  0.20970384244E+00  0.44183544705E+02 -0.57573733012E+01  0.44557568894E+02  0.00000000000E+00 0. -1.
        3    1    5    5  501    0  0.15703314962E+01 -0.54126105116E+02 -0.21855499029E+02  0.58393184824E+02  0.00000000000E+00 0. -1.
       -4    1    5    5    0  501  0.45544336512E+02 -0.25167551512E+02  0.39151799228E+02  0.65119548679E+02  0.00000000000E+00 0.  1.
</event>
<event>
 9   1  0.7570500E-01  0.2500083E+03  0.7546771E-02  0.1113300E+00
       21   -1    0    0  503  502  0.00000000000E+00  0.00000000000E+00  0.14156183020E+03  0.14156183020E+03  0.00000000000E+00 0.  1.
       21   -1    0    0  502  503 -0.00000000000E+00 -0.00000000000E+00 -0.11038316792E+03  0.11038316792E+03  0.00000000000E+00 0.  1.
       25    2    1    2    0    0  0.00000000000E+00  0.00000000000E+00  0.31178662281E+02  0.25194499813E+03  0.25000834606E+03 0.  0.
       24    2    3    3    0    0  0.85258403585E+02  0.14562949864E+02 -0.27018012649E+02  0.12735038497E+03  0.89482247704E+02 0.  0.
      -24    2    3    3    0    0 -0.85258403585E+02 -0.14562949864E+02  0.58196674930E+02  0.12459461316E+03  0.68234080665E+02 0.  0.
      -13    1    4    4    0    0  0.20332396800E+02  0.43684405140E+02 -0.28864696755E+02  0.56168535060E+02  0.00000000000E+00 0.  1.
       14    1    4    4    0    0  0.64926006786E+02 -0.29121455276E+02  0.18466841058E+01  0.71181849911E+02  0.00000000000E+00 0. -1.
        1    1    5    5  501    0 -0.18121942347E+02  0.25246480110E+02  0.24528380728E+02  0.39590794555E+02  0.00000000000E+00 0. -1.
       -2    1    5    5    0  501 -0.67136461239E+02 -0.39809429974E+02  0.33668294202E+02  0.85003818603E+02  0.00000000000E+00 0.  1.
</event>
<event>
 9   1  0.7570500E-01  0.2500012E+03  0.7546771E-02  0.1113304E+00
       21   -1    0    0  503  502  0.00000000000E+00  0.00000000000E+00  0.63895853116E+02  0.63895853116E+02  0.00000000000E+00 0. -1.
       21   -1    0    0  502  503 -0.00000000000E+00 -0.00000000000E+00 -0.24454087846E+03  0.24454087846E+03  0.00000000000E+00 0. -1.
       25    2    1    2    0    0  0.00000000000E+00 -0.71054273576E-14 -0.18064502534E+03  0.30843673157E+03  0.25000118440E+03 0.  0.
       24    2    3    3    0    0  0.69053700095E+02  0.43031689033E+02 -0.15859391728E+03  0.19551940768E+03  0.80347174325E+02 0.  0.
      -24    2    3    3    0    0 -0.69053700095E+02 -0.43031689033E+02 -0.22051108060E+02  0.11291732390E+03  0.75126100067E+02 0.  0.
      -13    1    4    4    0    0 -0.15923163281E+02  0.18873242168E+02 -0.23395398763E+02  0.34016041540E+02  0.00000000000E+00 0.  1.
       14    1    4    4    0    0  0.84976863375E+02  0.24158446865E+02 -0.13519851852E+03  0.16150336614E+03  0.00000000000E+00 0. -1.
        3    1    5    5  501    0 -0.23741435168E+02 -0.55491889560E+02  0.14492754882E+01  0.60374712837E+02  0.00000000000E+00 0. -1.
       -4    1    5    5    0  501 -0.45312264927E+02  0.12460200527E+02 -0.23500383548E+02  0.52542611059E+02  0.00000000000E+00 0.  1.
</event>
<event>
 9   1  0.7570500E-01  0.2499969E+03  0.7546771E-02  0.1113307E+00
       21   -1    0    0  503  502  0.00000000000E+00  0.00000000000E+00  0.10811825342E+03  0.10811825342E+03  0.00000000000E+00 0. -1.
       21   -1    0    0  502  503 -0.00000000000E+00 -0.00000000000E+00 -0.14451408538E+03  0.14451408538E+03  0.00000000000E+00 0. -1.
       25    2    1    2    0    0 -0.35527136788E-14  0.00000000000E+00 -0.36395831961E+02  0.25263233881E+03  0.24999688403E+03 0.  0.
       24    2    3    3    0    0  0.13912457891E+01  0.92577227510E+02 -0.38323397685E+02  0.12961791429E+03  0.82217043708E+02 0.  0.
      -24    2    3    3    0    0 -0.13912457891E+01 -0.92577227510E+02  0.19275657240E+01  0.12301442452E+03  0.80971319068E+02 0.  0.
      -13    1    4    4    0    0 -0.38014844289E+02  0.48532607940E+02 -0.33896272571E+02  0.70352680930E+02  0.00000000000E+00 0.  1.
       14    1    4    4    0    0  0.39406090078E+02  0.44044619570E+02 -0.44271251146E+01  0.59265233359E+02  0.00000000000E+00 0. -1.
        3    1    5    5  501    0 -0.31156295272E+02 -0.34827888711E+02 -0.24634235594E+02  0.52825582159E+02  0.00000000000E+00 0. -1.
       -4    1    5    5    0  501  0.29765049483E+02 -0.57749338799E+02  0.26561801318E+02  0.70188842359E+02  0.00000000000E+00 0.  1.
</event>
<event>
 9   1  0.7570500E-01  0.2499988E+03  0.7546771E-02  0.1113306E+00
       21   -1    0    0  503  502  0.00000000000E+00  0.00000000000E+00  0.22317515384E+03  0.22317515384E+03  0.00000000000E+00 0.  1.
       21   -1    0    0  502  503 -0.00000000000E+00 -0.00000000000E+00 -0.70011584769E+02  0.70011584769E+02  0.00000000000E+00 0.  1.
       25    2    1    2    0    0  0.14210854715E-13 -0.71054273576E-14  0.15316356907E+03  0.29318673861E+03  0.24999876961E+03 0.  0.
       24    2    3    3    0    0  0.92960896703E+02 -0.14327672314E+02  0.57010721979E+02  0.13625491897E+03  0.80424934027E+02 0.  0.
      -24    2    3    3    0    0 -0.92960896703E+02  0.14327672314E+02  0.96152847094E+02  0.15693181964E+03  0.80840679744E+02 0.  0.
      -13    1    4    4    0    0  0.28208099245E+02  0.18781761994E+02 -0.12045340988E+02  0.35965840546E+02  0.00000000000E+00 0.  1.
       14    1    4    4    0    0  0.64752797458E+02 -0.33109434309E+02  0.69056062967E+02  0.10028907843E+03  0.00000000000E+00 0. -1.
        1    1    5    5  501    0 -0.55755138023E+02 -0.31742198470E+02  0.57998203424E+02  0.86486959596E+02  0.00000000000E+00 0. -1.
       -2    1    5    5    0  501 -0.37205758680E+02  0.46069870784E+02  0.38154643670E+02  0.70444860044E+02  0.00000000000E+00 0.  1.
</event>
<event>
 9   1  0.7570500E-01  0.2500105E+03  0.7546771E-02  0.1113298E+00
       21   -1    0    0  503  502  0.00000000000E+00  0.00000000000E+00  0.12456752521E+03  0.12456752521E+03  0.00000000000E+00 0.  1.
       21   -1    0    0  502  503 -0.00000000000E+00 -0.00000000000E+00 -0.12544452813E+03  0.12544452813E+03  0.00000000000E+00 0.  1.
       25    2    1    2    0    0  0.00000000000E+00 -0.71054273576E-14 -0.87700291314E+00  0.25001205334E+03  0.25001051514E+03 0.  0.
       24    2    3    3    0    0 -0.80117529096E+02 -0.49478010531E+02  0.18669814943E+02  0.12547236422E+03  0.80795174351E+02 0.  0.
      -24    2    3    3    0    0  0.80117529096E+02  0.49478010531E+02 -0.19546817857E+02  0.12453968912E+03  0.79127517858E+02 0.  0.
      -13    1    4    4    0    0 -0.44473431214E+01  0.15002690499E+02 -0.13824177444E+02  0.20879833932E+02  0.00000000000E+00 0.  1.
       14    1    4    4    0    0 -0.75670185975E+02 -0.64480701030E+02  0.32493992387E+02  0.10459253029E+03  0.00000000000E+00 0. -1.
        1    1    5    5  501    0  0.28724491263E+02  0.51431284275E+02 -0.37768864925E+02  0.69976857305E+02  0.00000000000E+00 0. -1.
       -2    1    5    5    0  501  0.51393037833E+02 -0.19532737432E+01  0.18222047069E+02  0.54562831812E+02  0.00000000000E+00 0.  1.
</event>
<event>
 9   1  0.7570500E-01  0.2499935E+03  0.7546771E-02  0.1113309E+00
       21   -1    0    0  503  502  0.00000000000E+00  0.00000000000E+00  0.27948211932E+03  0.27948211932E+03  0.00000000000E+00 0.  1.
       21   -1    0    0  502  503 -0.00000000000E+00 -0.00000000000E+00 -0.55904058265E+02  0.55904058265E+02  0.00000000000E+00 0.  1.
       25    2    1    2    0    0  0.00000000000E+00  0.00000000000E+00  0.22357806105E+03  0.33538617758E+03  0.24999347737E+03 0.  0.
       24    2    3    3    0    0  0.24146641519E+02  0.89575328767E+02  0.14064516451E+03  0.18502899991E+03  0.76471358597E+02 0.  0.
      -24    2    3    3    0    0 -0.24146641519E+02 -0.89575328767E+02  0.82932896543E+02  0.15035717768E+03  0.84395590698E+02 0.  0.
      -13    1    4    4    0    0  0.28416083916E+02  0.41147505072E+02  0.18079797646E+02  0.53173960560E+02  0.00000000000E+00 0.  1.
       14    1    4    4    0    0 -0.42694423971E+01  0.48427823696E+02  0.12256536686E+03  0.13185503935E+03  0.00000000000E+00 0. -1.
        1    1    5    5  501    0  0.16709476859E+02 -0.29680230614E+02 -0.70673195990E+01  0.34786056295E+02  0.00000000000E+00 0. -1.
       -2    1    5    5    0  501 -0.40856118378E+02 -0.59895098153E+02  0.90000216142E+02  0.11557112138E+03  0.00000000000E+00 0.  1.
</event>
<event>
 9   1  0.7570500E-01  0.2500012E+03  0.7546771E-02  0.1113304E+00
       21   -1    0    0  503  502  0.00000000000E+00  0.00000000000E+00  0.15330905906E+03  0.15330905906E+03  0.00000000000E+00 0.  1.
       21   -1    0    0  502  503 -0.00000000000E+00 -0.00000000000E+00 -0.10191928269E+03  0.10191928269E+03  0.00000000000E+00 0.  1.
       25    2    1    2    0    0  0.71054273576E-14  0.00000000000E+00  0.51389776371E+02  0.25522834175E+03  0.25000119464E+03 0.  0.
       24    2    3    3    0    0 -0.48166264758E+02  0.76925776656E+02  0.55961411583E+02  0.13357075474E+03  0.80448137080E+02 0.  0.
      -24    2    3    3    0    0  0.48166264758E+02 -0.76925776656E+02 -0.45716352115E+01  0.12165758702E+03  0.80883276737E+02 0.  0.
      -13    1    4    4    0    0 -0.32524626475E+02  0.75578086791E+02  0.74892576233E+01  0.82619534676E+02  0.00000000000E+00 0.  1.
       14    1    4    4    0    0 -0.15641638283E+02  0.13476898643E+01  0.48472153959E+02  0.50951220060E+02  0.00000000000E+00 0. -1.
        1    1    5    5  501    0 -0.14889370305E+02 -0.46316415147E+02  0.10948301565E+02  0.49867514148E+02  0.00000000000E+00 0. -1.
       -2    1    5    5    0  501  0.63055635063E+02 -0.30609361509E+02 -0.15519936776E+02  0.71790072870E+02  0.00000000000E+00 0.  1.
</event>
<event>
 9   1  0.7570500E-01  0.2500030E+03  0.7546771E-02  0.1113303E+00
       21   -1    0    0  503  502  0.00000000000E+00  0.00000000000E+00  0.21116012962E+04  0.21116012962E+04  0.00000000000E+00 0. -1.
       21   -1    0    0  502  503 -0.00000000000E+00 -0.00000000000E+00 -0.73997777008E+01  0.73997777008E+01  0.00000000000E+00 0. -1.
       25    2    1    2    0    0  0.00000000000E+00  0.00000000000E+00  0.21042015185E+04  0.21190010739E+04  0.25000304146E+03 0.  0.
       24    2    3    3    0    0  0.77226565130E+02 -0.57172124384E+02  0.92409168618E+03  0.93235535604E+03  0.78156709946E+02 0.  0.
      -24    2    3    3    0    0 -0.77226565130E+02  0.57172124384E+02  0.11801098323E+04  0.11866457178E+04  0.78969925930E+02 0.  0.
      -13    1    4    4    0    0  0.40469598030E+02 -0.72499556899E+02  0.67743954571E+03  0.68250883673E+03  0.00000000000E+00 0.  1.
       14    1    4    4    0    0  0.36756967099E+02  0.15327432516E+02  0.24665214047E+03  0.24984651932E+03  0.00000000000E+00 0. -1.
        3    1    5    5  501    0 -0.20877046293E+02  0.28113529739E+02  0.13030622507E+03  0.13492936637E+03  0.00000000000E+00 0. -1.
       -4    1    5    5    0  501 -0.56349518837E+02  0.29058594645E+02  0.10498036072E+04  0.10517163514E+04  0.00000000000E+00 0.  1.
</event>
<event>
 9   1  0.7570500E-01  0.2500011E+03  0.7546771E-02  0.1113304E+00
       21   -1    0    0  503  502  0.00000000000E+00  0.00000000000E+00  0.19402376445E+02  0.19402376445E+02  0.00000000000E+00 0. -1.
       21   -1    0    0  502  503 -0.00000000000E+00 -0.00000000000E+00 -0.80532062245E+03  0.80532062245E+03  0.00000000000E+00 0. -1.
       25    2    1    2    0    0  0.14210854715E-13  0.00000000000E+00 -0.78591824601E+03  0.82472299890E+03  0.25000107100E+03 0.  0.
       24    2    3    3    0    0 -0.41700648994E+02 -0.41815562720E+02 -0.64465939321E+03  0.65206033579E+03  0.78163052948E+02 0.  0.
      -24    2    3    3    0    0  0.41700648994E+02  0.41815562720E+02 -0.14125885280E+03  0.17266266311E+03  0.79817581554E+02 0.  0.
      -13    1    4    4    0    0 -0.46409389889E+02 -0.10997942899E+02 -0.17547370636E+03  0.18184006116E+03  0.00000000000E+00 0.  1.
       14    1    4    4    0    0  0.47087408944E+01 -0.30817619821E+02 -0.46918568685E+03  0.47022027463E+03  0.00000000000E+00 0. -1.
        1    1    5    5  501    0 -0.17974938548E+02  0.33701808865E+02 -0.66207850872E+02  0.76435527431E+02  0.00000000000E+00 0. -1.
       -2    1    5    5    0  501  0.59675587543E+02  0.81137538553E+01 -0.75051001926E+02  0.96227135676E+02  0.00000000000E+00 0.  1.
</event>
<event>
 9   1  0.7570500E-01  0.2499995E+03  0.7546771E-02  0.1113305E+00
       21   -1    0    0  503  502  0.00000000000E+00  0.00000000000E+00  0.11915782697E+03  0.11915782697E+03  0.00000000000E+00 0. -1.
       21   -1    0    0  502  503 -0.00000000000E+00 -0.00000000000E+00 -0.13112812689E+03  0.13112812689E+03  0.00000000000E+00 0. -1.
       25    2    1    2    0    0 -0.35527136788E-14  0.14210854715E-13 -0.11970299925E+02  0.25028595386E+03  0.24999954124E+03 0.  0.
       24    2    3    3    0    0 -0.59429954985E+01 -0.91583559163E+02  0.19918772553E+02  0.12411213162E+03  0.81143060150E+02 0.  0.
      -24    2    3    3    0    0  0.59429954985E+01  0.91583559163E+02 -0.31889072478E+02  0.12617382224E+03  0.80498776205E+02 0.  0.
      -13    1    4    4    0    0 -0.29694119155E+02 -0.23019714525E+02 -0.18640673510E+02  0.41941896453E+02  0.00000000000E+00 0.  1.
       14    1    4    4    0    0  0.23751123656E+02 -0.68563844638E+02  0.38559446063E+02  0.82170235166E+02  0.00000000000E+00 0. -1.
        3    1    5    5  501    0 -0.32426518366E+02  0.67249365267E+02 -0.30695453406E+02  0.80722779201E+02  0.00000000000E+00 0. -1.
       -4    1    5    5    0  501  0.38369513865E+02  0.24334193896E+02 -0.11936190728E+01  0.45451043038E+02  0.00000000000E+00 0.  1.
</event>
<event>
 9   1  0.7570500E-01  0.2499965E+03  0.7546771E-02  0.1113307E+00
       21   -1    0    0  503  502  0.00000000000E+00  0.00000000000E+00  0.90687292178E+02  0.90687292178E+02  0.00000000000E+00 0.  1.
       21   -1    0    0  502  503 -0.00000000000E+00 -0.00000000000E+00 -0.17229052741E+03  0.17229052741E+03  0.00000000000E+00 0.  1.
       25    2    1    2    0    0  0.14210854715E-13 -0.14210854715E-13 -0.81603235228E+02  0.26297781958E+03  0.24999649116E+03 0.  0.
       24    2    3    3    0    0 -0.70932258671E+02  0.50686724467E+02  0.19695258622E+01  0.11829269082E+03  0.79929671030E+02 0.  0.
      -24    2    3    3    0    0  0.70932258671E+02 -0.50686724467E+02 -0.83572761090E+02  0.14468512877E+03  0.79679675785E+02 0.  0.
      -13    1    4    4    0    0 -0.26159702035E+01  0.49877451558E+02  0.15607877583E+01  0.49970386555E+02  0.00000000000E+00 0.  1.
       14    1    4    4    0    0 -0.68316288467E+02  0.80927290827E+00  0.40873810387E+00  0.68322304260E+02  0.00000000000E+00 0. -1.
        3    1    5    5  501    0  0.62749997715E+02 -0.56529250224E+02 -0.29158040025E+02  0.89349368449E+02  0.00000000000E+00 0. -1.
       -4    1    5    5    0  501  0.81822609559E+01  0.58425257576E+01 -0.54414721065E+02  0.55335760320E+02  0.00000000000E+00 0.  1.
</event>
<event>
 9   1  0.7570500E-01  0.2499973E+03  0.7546771E-02  0.1113307E+00
       21   -1    0    0  503  502  0.00000000000E+00  0.00000000000E+00  0.23046391573E+03  0.23046391573E+03  0.00000000000E+00 0.  1.
       21   -1    0    0  502  503 -0.00000000000E+00 -0.00000000000E+00 -0.67796545187E+02  0.67796545187E+02  0.00000000000E+00 0.  1.
       25    2    1    2    0    0 -0.35527136788E-14 -0.71054273576E-14  0.16266737054E+03  0.29826046092E+03  0.24999725820E+03 0.  0.
       24    2    3    3    0    0 -0.19705087715E+02 -0.63507864325E+02  0.16255432625E+03  0.19332272912E+03  0.80797458491E+02 0.  0.
      -24    2    3    3    0    0  0.19705087715E+02  0.63507864325E+02  0.11304429490E+00  0.10493773180E+03  0.81181127507E+02 0.  0.
      -13    1    4    4    0    0 -0.25358598411E+01 -0.74592819239E+01  0.12150381728E+03  0.12175897948E+03  0.00000000000E+00 0.  1.
       14    1    4    4    0    0 -0.17169227874E+02 -0.56048582401E+02  0.41050508971E+02  0.71563749634E+02  0.00000000000E+00 0. -1.
        3    1    5    5  501    0  0.53076504357E+01  0.62652601349E+02  0.31551169939E+02  0.70349100445E+02  0.00000000000E+00 0. -1.
       -4    1    5    5    0  501  0.14397437279E+02  0.85526297607E+00 -0.31438125644E+02  0.34588631355E+02  0.00000000000E+00 0.  1.
</event>
<event>
 9   1  0.7570500E-01  0.2500040E+03  0.7546771E-02  0.1113302E+00
       21   -1    0    0  503  502  0.00000000000E+00  0.00000000000E+00  0.55205511251E+02  0.55205511251E+02  0.00000000000E+00 0. -1.
       21   -1    0    0  502  503 -0.00000000000E+00 -0.00000000000E+00 -0.28304238042E+03  0.28304238042E+03  0.00000000000E+00 0. -1.
       25    2    1    2    0    0  0.14210854715E-13  0.00000000000E+00 -0.22783686917E+03  0.33824789168E+03  0.25000399450E+03 0.  0.
       24    2    3    3    0    0 -0.55115228122E+02 -0.77034098204E+02 -0.14373132739E+03  0.18802557992E+03  0.75650403660E+02 0.  0.
      -24    2    3    3    0    0  0.55115228122E+02  0.77034098204E+02 -0.84105541782E+02  0.15022231175E+03  0.80753081261E+02 0.  0.
      -13    1    4    4    0    0  0.11762489776E+01 -0.42613177083E+02 -0.18489857730E+02  0.46466560682E+02  0.00000000000E+00 0.  1.
       14    1    4    4    0    0 -0.56291477099E+02 -0.34420921121E+02 -0.12524146966E+03  0.14155901924E+03  0.00000000000E+00 0. -1.
        1    1    5    5  501    0 -0.22072656129E+01  0.15919590853E+02  0.13922491024E+02  0.21263610952E+02  0.00000000000E+00 0. -1.
       -2    1    5    5    0  501  0.57322493735E+02  0.61114507352E+02 -0.98028032806E+02  0.12895870080E+03  0.00000000000E+00 0.  1.
</event>
<event>
 9   1  0.7570500E-01  0.2499990E+03  0.7546771E-02  0.1113305E+00
       21   -1    0    0  503  502  0.00000000000E+00  0.00000000000E+00  0.58693882949E+02  0.58693882949E+02  0.00000000000E+00 0. -1.
       21   -1    0    0  502  503 -0.00000000000E+00 -0.00000000000E+00 -0.26620953064E+03  0.26620953064E+03  0.00000000000E+00 0. -1.
       25    2    1    2    0    0  0.00000000000E+00 -0.71054273576E-14 -0.20751564769E+03  0.32490341359E+03  0.24999896825E+03 0.  0.
       24    2    3    3    0    0  0.26977621999E+02  0.55724614385E+02 -0.20076033452E+03  0.22489977747E+03  0.80263150034E+02 0.  0.
      -24    2    3    3    0    0 -0.26977621999E+02 -0.55724614385E+02 -0.67553131715E+01  0.10000363612E+03  0.78243646664E+02 0.  0.
      -13    1    4    4    0    0  0.51991783397E+02  0.16036597763E+02 -0.11112812395E+03  0.12373268744E+03  0.00000000000E+00 0.  1.
       14    1    4    4    0    0 -0.25014161398E+02  0.39688016622E+02 -0.89632210564E+02  0.10116709003E+03  0.00000000000E+00 0. -1.
        1    1    5    5  501    0 -0.29773829001E+02 -0.18493148423E+02  0.31082328179E+02  0.46846435905E+02  0.00000000000E+00 0. -1.
       -2    1    5    5    0  501  0.27962070021E+01 -0.37231465962E+02 -0.37837641351E+02  0.53157200211E+02  0.00000000000E+00 0.  1.
</event>
<event>
 8   1  0.7570500E-01  0.2501036E+03  0.7546771E-02  0.1113239E+00
       21   -1    0    0  503  502  0.00000000000E+00  0.00000000000E+00  0.17208188700E+02  0.17208188700E+02  0.00000000000E+00 0.  1.
       21   -1    0    0  502  503 -0.00000000000E+00 -0.00000000000E+00 -0.90875095813E+03  0.90875095813E+03  0.00000000000E+00 0.  1.
       24    2    1    2    0    0  0.13434078516E+02 -0.20987083553E+02 -0.78608442651E+03  0.79063946804E+03  0.81000683237E+02 0.  0.
      -24    2    1    2    0    0 -0.13434078516E+02  0.20987083553E+02 -0.10545834293E+03  0.13531967879E+03  0.81049498667E+02 0.  0.
      -13    1    3    3    0    0  0.21087742736E+02 -0.48977015806E+02 -0.41298125930E+03  0.41640960784E+03  0.00000000000E+00 0.  1.
       14    1    3    3    0    0 -0.76536642194E+01  0.27989932253E+02 -0.37310316721E+03  0.37422986020E+03  0.00000000000E+00 0. -1.
        3    1    4    4  501    0  0.13715265000E+02 -0.25022454642E+02 -0.21181375980E+02  0.35537056979E+02  0.00000000000E+00 0. -1.
       -4    1    4    4    0  501 -0.27149343516E+02  0.46009538195E+02 -0.84276966947E+02  0.99782621814E+02  0.00000000000E+00 0.  1.
</event>
<event>
 9   1  0.7570500E-01  0.2499983E+03  0.7546771E-02  0.1113306E+00
       21   -1    0    0  503  502  0.00000000000E+00  0.00000000000E+00  0.11662584698E+02  0.11662584698E+02  0.00000000000E+00 0. -1.
       21   -1    0    0  502  503 -0.00000000000E+00 -0.00000000000E+00 -0.13397367614E+04  0.13397367614E+04  0.00000000000E+00 0. -1.
       25    2    1    2    0    0  0.35527136788E-14 -0.14210854715E-13 -0.13280741767E+04  0.13513993461E+04  0.24999834762E+03 0.  0.
       24    2    3    3    0    0  0.11165826882E+02  0.73364563804E+02 -0.34625079330E+03  0.36330565434E+03  0.81205613744E+02 0.  0.
      -24    2    3    3    0    0 -0.11165826882E+02 -0.73364563804E+02 -0.98182338343E+03  0.98809369178E+03  0.82734228601E+02 0.  0.
      -13    1    4    4    0    0 -0.22943225307E+02  0.67113383473E+02 -0.27592474508E+03  0.28489482757E+03  0.00000000000E+00 0.  1.
       14    1    4    4    0    0  0.34109052189E+02  0.62511803313E+01 -0.70326048217E+02  0.78410826769E+02  0.00000000000E+00 0. -1.
        3    1    5    5  501    0 -0.43375210846E+02 -0.62772314868E+02 -0.73563807024E+03  0.73958443927E+03  0.00000000000E+00 0. -1.
       -4    1    5    5    0  501  0.32209383964E+02 -0.10592248936E+02 -0.24618531319E+03  0.24850925251E+03  0.00000000000E+00 0.  1.
</event>
<event>
 9   1  0.7570500E-01  0.2499992E+03  0.7546771E-02  0.1113305E+00
       21   -1    0    0  503  502  0.00000000000E+00  0.00000000000E+00  0.79848669008E+02  0.79848669008E+02  0.00000000000E+00 0.  1.
       21   -1    0    0  502  503 -0.00000000000E+00 -0.00000000000E+00 -0.19568138019E+03  0.19568138019E+03  0.00000000000E+00 0.  1.
       25    2    1    2    0    0  0.00000000000E+00 -0.71054273576E-14 -0.11583271119E+03  0.27553004920E+03  0.24999918206E+03 0.  0.
       24    2    3    3    0    0  0.44402342115E+02  0.29439928237E+02 -0.14693030216E+03  0.17437120832E+03  0.77320936612E+02 0.  0.
      -24    2    3    3    0    0 -0.44402342115E+02 -0.29439928237E+02  0.31097590973E+02  0.10115884088E+03  0.80173396862E+02 0.  0.
      -13    1    4    4    0    0  0.65602243573E+02  0.31142074158E+02 -0.11475236476E+03  0.13579980988E+03  0.00000000000E+00 0.  1.
       14    1    4    4    0    0 -0.21199901458E+02 -0.17021459209E+01 -0.32177937401E+02  0.38571398444E+02  0.00000000000E+00 0. -1.
        3    1    5    5  501    0 -0.38511410065E+02 -0.55930196465E+02  0.14790314089E+02  0.69498697633E+02  0.00000000000E+00 0. -1.
       -4    1    5    5    0  501 -0.58909320505E+01  0.26490268228E+02  0.16307276884E+02  0.31660143250E+02  0.00000000000E+00 0.  1.
</event>
<event>
 9   1  0.7570500E-01  0.2500131E+03  0.7546771E-02  0.1113297E+00
       21   -1    0    0  503  502  0.00000000000E+00  0.00000000000E+00  0.17773687409E+03  0.17773687409E+03  0.00000000000E+00 0.  1.
       21   -1    0    0  502  503 -0.00000000000E+00 -0.00000000000E+00 -0.87920083289E+02  0.87920083289E+02  0.00000000000E+00 0.  1.
       25    2    1    2    0    0 -0.14210854715E-13  0.00000000000E+00  0.89816790798E+02  0.26565695738E+03  0.25001312584E+03 0.  0.
       24    2    3    3    0    0 -0.95124739437E+02  0.13671705834E+02  0.53641317203E+02  0.13632972977E+03  0.80453543826E+02 0.  0.
      -24    2    3    3    0    0  0.95124739437E+02 -0.13671705834E+02  0.36175473595E+02  0.12932722761E+03  0.78620832592E+02 0.  0.
      -13    1    4    4    0    0 -0.26516544187E+02 -0.33012321231E+02  0.17535938091E+02  0.45830662153E+02  0.00000000000E+00 0.  1.
       14    1    4    4    0    0 -0.68608195249E+02  0.46684027065E+02  0.36105379112E+02  0.90499067615E+02  0.00000000000E+00 0. -1.
        3    1    5    5  501    0 -0.73555403660E+00 -0.13242528451E+02 -0.15520190112E+02  0.20415236972E+02  0.00000000000E+00 0. -1.
       -4    1    5    5    0  501  0.95860293473E+02 -0.42917738358E+00  0.51695663707E+02  0.10891199064E+03  0.00000000000E+00 0.  1.
</event>
<event>
 9   1  0.7570500E-01  0.2499990E+03  0.7546771E-02  0.1113305E+00
       21   -1    0    0  503  502  0.00000000000E+00  0.00000000000E+00  0.61976110325E+02  0.61976110325E+02  0.00000000000E+00 0.  1.
       21   -1    0    0  502  503 -0.00000000000E+00 -0.00000000000E+00 -0.25211135615E+03  0.25211135615E+03  0.00000000000E+00 0.  1.
       25    2    1    2    0    0  0.71054273576E-14  0.00000000000E+00 -0.19013524582E+03  0.31408746647E+03  0.24999904978E+03 0.  0.
       24    2    3    3    0    0  0.89987299481E+01 -0.47083893992E+02  0.86785957436E+01  0.94440877547E+02  0.80906681514E+02 0.  0.
      -24    2    3    3    0    0 -0.89987299481E+01  0.47083893992E+02 -0.19881384157E+03  0.21964658893E+03  0.80123718175E+02 0.  0.
      -13    1    4    4    0    0 -0.27128154757E+02 -0.32052135056E+02  0.28329718116E+02  0.50654210790E+02  0.00000000000E+00 0.  1.
       14    1    4    4    0    0  0.36126884706E+02 -0.15031758936E+02 -0.19651122373E+02  0.43786666758E+02  0.00000000000E+00 0. -1.
        3    1    5    5  501    0 -0.44423015186E+02  0.32399489283E+02 -0.12020464858E+03  0.13218278528E+03  0.00000000000E+00 0. -1.
       -4    1    5    5    0  501  0.35424285238E+02  0.14684404709E+02 -0.78609192985E+02  0.87463803645E+02  0.00000000000E+00 0.  1.
</event>
<event>
 9   1  0.7570500E-01  0.2499849E+03  0.7546771E-02  0.1113314E+00
       21   -1    0    0  503  502  0.00000000000E+00  0.00000000000E+00  0.18794406600E+03  0.18794406600E+03  0.00000000000E+00 0. -1.
       21   -1    0    0  502  503 -0.00000000000E+00 -0.00000000000E+00 -0.83126374126E+02  0.83126374126E+02  0.00000000000E+00 0. -1.
       25    2    1    2    0    0 -0.14210854715E-13  0.00000000000E+00  0.10481769187E+03  0.27107044012E+03  0.24998486950E+03 0.  0.
       24    2    3    3    0    0  0.79495214787E+02  0.44186346196E+02  0.83100789033E+02  0.14746329043E+03  0.81041708535E+02 0.  0.
      -24    2    3    3    0    0 -0.79495214787E+02 -0.44186346196E+02  0.21716902839E+02  0.12360714969E+03  0.80840467728E+02 0.  0.
      -13    1    4    4    0    0  0.72402366814E+02  0.19206989702E+01  0.27985587368E+02  0.77646538269E+02  0.00000000000E+00 0.  1.
       14    1    4    4    0    0  0.70928479734E+01  0.42265647226E+02  0.55115201665E+02  0.69816752161E+02  0.00000000000E+00 0. -1.
        1    1    5    5  501    0 -0.33962068191E+02 -0.63663338913E+02  0.13418263190E+02  0.73392728417E+02  0.00000000000E+00 0. -1.
       -2    1    5    5    0  501 -0.45533146596E+02  0.19476992717E+02  0.82986396486E+01  0.50214421278E+02  0.00000000000E+00 0.  1.
</event>
<event>
 9   1  0.7570500E-01  0.2499978E+03  0.7546771E-02  0.1113306E+00
       21   -1    0    0  503  502  0.00000000000E+00  0.00000000000E+00  0.39411192288E+02  0.39411192288E+02  0.00000000000E+00 0. -1.
       21   -1    0    0  502  503 -0.00000000000E+00 -0.00000000000E+00 -0.39645386945E+03  0.39645386945E+03  0.00000000000E+00 0. -1.
       25    2    1    2    0    0  0.00000000000E+00  0.00000000000E+00 -0.35704267716E+03  0.43586506174E+03  0.24999775745E+03 0.  0.
       24    2    3    3    0    0  0.41690346116E+02 -0.27476035361E+02 -0.34256705126E+02  0.99888937295E+02  0.79443441953E+02 0.  0.
      -24    2    3    3    0    0 -0.41690346116E+02  0.27476035361E+02 -0.32278597204E+03  0.33597612445E+03  0.78715659013E+02 0.  0.
      -13    1    4    4    0    0  0.56542587794E+01 -0.23198840719E+02  0.22312630935E+02  0.32680427664E+02  0.00000000000E+00 0.  1.
       14    1    4    4    0    0  0.36036087336E+02 -0.42771946421E+01 -0.56569336061E+02  0.67208509631E+02  0.00000000000E+00 0. -1.
        1    1    5    5  501    0 -0.13448984801E+02  0.35290414291E+02 -0.55752097594E+02  0.67339326691E+02  0.00000000000E+00 0. -1.
       -2    1    5    5    0  501 -0.28241361315E+02 -0.78143789297E+01 -0.26703387444E+03  0.26863679775E+03  0.00000000000E+00 0.  1.
</event>
<event>
 9   1  0.7570500E-01  0.2499986E+03  0.7546771E-02  0.1113306E+00
       21   -1    0    0  503  502  0.00000000000E+00  0.00000000000E+00  0.27961602560E+03  0.27961602560E+03  0.00000000000E+00 0.  1.
       21   -1    0    0  502  503 -0.00000000000E+00 -0.00000000000E+00 -0.55879571519E+02  0.55879571519E+02  0.00000000000E+00 0.  1.
       25    2    1    2    0    0  0.35527136788E-14  0.71054273576E-14  0.22373645408E+03  0.33549559712E+03  0.24999858960E+03 0.  0.
       24    2    3    3    0    0 -0.18480957818E+02 -0.60759331286E+02  0.20664992086E+03  0.23097871337E+03  0.81324867649E+02 0.  0.
      -24    2    3    3    0    0  0.18480957818E+02  0.60759331286E+02  0.17086533226E+02  0.10451688376E+03  0.81231688595E+02 0.  0.
      -13    1    4    4    0    0 -0.38841075796E+02 -0.75810931401E+01  0.46797679990E+02  0.61287233538E+02  0.00000000000E+00 0.  1.
       14    1    4    4    0    0  0.20360117978E+02 -0.53178238146E+02  0.15985224087E+03  0.16969147983E+03  0.00000000000E+00 0. -1.
        1    1    5    5  501    0  0.44207965719E+02  0.60488895409E+02  0.22495675487E+02  0.78225993867E+02  0.00000000000E+00 0. -1.
       -2    1    5    5    0  501 -0.25727007902E+02  0.27043587736E+00 -0.54091422607E+01  0.26290889888E+02  0.00000000000E+00 0.  1.
</event>
<event>
 9   1  0.7570500E-01  0.2500346E+03  0.7546771E-02  0.1113283E+00
       21   -1    0    0  503  502  0.00000000000E+00  0.00000000000E+00  0.62320695827E+02  0.62320695827E+02  0.00000000000E+00 0. -1.
       21   -1    0    0  502  503 -0.00000000000E+00 -0.00000000000E+00 -0.25078860160E+03  0.25078860160E+03  0.00000000000E+00 0. -1.
       25    2    1    2    0    0  0.00000000000E+00  0.00000000000E+00 -0.18846790577E+03  0.31310929743E+03  0.25003455887E+03 0.  0.
       24    2    3    3    0    0 -0.72206114309E+02  0.16947220659E+02 -0.17119348417E+03  0.20306202582E+03  0.80162622694E+02 0.  0.
      -24    2    3    3    0    0  0.72206114309E+02 -0.16947220659E+02 -0.17274421605E+02  0.11004727161E+03  0.79442212422E+02 0.  0.
      -13    1    4    4    0    0 -0.25229617346E+02  0.42855828459E+02 -0.11540612814E+03  0.12566515045E+03  0.00000000000E+00 0.  1.
       14    1    4    4    0    0 -0.46976496963E+02 -0.25908607800E+02 -0.55787356023E+02  0.77396875370E+02  0.00000000000E+00 0. -1.
        3    1    5    5  501    0  0.26918297998E+02 -0.36418389253E+02  0.18725431355E+02  0.49005465229E+02  0.00000000000E+00 0. -1.
       -4    1    5    5    0  501  0.45287816311E+02  0.19471168594E+02 -0.35999852960E+02  0.61041806377E+02  0.00000000000E+00 0.  1.
</event>
<event>
 9   1  0.7570500E-01  0.2500087E+03  0.7546771E-02  0.1113299E+00
       21   -1    0    0  503  502  0.00000000000E+00  0.00000000000E+00  0.52542929394E+03  0.52542929394E+03  0.00000000000E+00 0. -1.
       21   -1    0    0  502  503 -0.00000000000E+00 -0.00000000000E+00 -0.29739659836E+02  0.29739659836E+02  0.00000000000E+00 0. -1.
       25    2    1    2    0    0  0.35527136788E-14 -0.35527136788E-14  0.49568963410E+03  0.55516895378E+03  0.25000870761E+03 0.  0.
       24    2    3    3    0    0  0.10120480372E+02  0.17916807313E+02  0.37017730767E+02  0.89222313033E+02  0.78529438076E+02 0.  0.
      -24    2    3    3    0    0 -0.10120480372E+02 -0.17916807313E+02  0.45867190334E+03  0.46594664074E+03  0.79390937785E+02 0.  0.
      -13    1    4    4    0    0  0.39295925707E+02  0.13645651898E+02 -0.37858769935E+00  0.41599482227E+02  0.00000000000E+00 0.  1.
       14    1    4    4    0    0 -0.29175445335E+02  0.42711554143E+01  0.37396318467E+02  0.47622830806E+02  0.00000000000E+00 0. -1.
        1    1    5    5  501    0  0.22250026196E+02 -0.36714441530E+02  0.29081153303E+03  0.29396319774E+03  0.00000000000E+00 0. -1.
       -2    1    5    5    0  501 -0.32370506568E+02  0.18797634217E+02  0.16786037031E+03  0.17198344301E+03  0.00000000000E+00 0.  1.
</event>
<event>
 9   1  0.7570500E-01  0.2499998E+03  0.7546771E-02  0.1113305E+00
       21   -1    0    0  503  502  0.00000000000E+00  0.00000000000E+00  0.42839433933E+03  0.42839433933E+03  0.00000000000E+00 0.  1.
       21   -1    0    0  502  503 -0.00000000000E+00 -0.00000000000E+00 -0.36473337735E+02  0.36473337735E+02  0.00000000000E+00 0.  1.
       25    2    1    2    0    0  0.00000000000E+00  0.71054273576E-14  0.39192100160E+03  0.46486767707E+03  0.24999977138E+03 0.  0.
       24    2    3    3    0    0  0.93189023762E+02  0.20481479360E+02  0.18577649190E+03  0.22384927996E+03  0.80572390108E+02 0.  0.
      -24    2    3    3    0    0 -0.93189023762E+02 -0.20481479360E+02  0.20614450969E+03  0.24101839711E+03  0.80564407287E+02 0.  0.
      -13    1    4    4    0    0  0.74467502659E+02  0.44146428079E+02  0.96642842415E+02  0.12974650305E+03  0.00000000000E+00 0.  1.
       14    1    4    4    0    0  0.18721521103E+02 -0.23664948720E+02  0.89133649489E+02  0.94102776906E+02  0.00000000000E+00 0. -1.
        1    1    5    5  501    0 -0.10002056370E+03  0.51750546227E-02  0.14482164716E+03  0.17600404164E+03  0.00000000000E+00 0. -1.
       -2    1    5    5    0  501  0.68315399358E+01 -0.20486654414E+02  0.61322862536E+02  0.65014355465E+02  0.00000000000E+00 0.  1.
</event>
<event>
 9   1  0.7570500E-01  0.2499928E+03  0.7546771E-02  0.1113309E+00
       21   -1    0    0  503  502  0.00000000000E+00  0.00000000000E+00  0.30718233749E+03  0.30718233749E+03  0.00000000000E+00 0.  1.
       21   -1    0    0  502  503 -0.00000000000E+00 -0.00000000000E+00 -0.50862619123E+02  0.50862619123E+02  0.00000000000E+00 0.  1.
       25    2    1    2    0    0  0.14210854715E-13  0.35527136788E-14  0.25631971837E+03  0.35804495661E+03  0.24999278576E+03 0.  0.
       24    2    3    3    0    0 -0.93783072323E+02 -0.27716096277E+02  0.10257673121E+03  0.15982011791E+03  0.73871764958E+02 0.  0.
      -24    2    3    3    0    0  0.93783072323E+02  0.27716096277E+02  0.15374298716E+03  0.19822483870E+03  0.78055966645E+02 0.  0.
      -13    1    4    4    0    0 -0.73799780288E+02 -0.18717134564E+02  0.11243577729E+03  0.13578859566E+03  0.00000000000E+00 0.  1.
       14    1    4    4    0    0 -0.19983292035E+02 -0.89989617129E+01 -0.98590460776E+01  0.24031522258E+02  0.00000000000E+00 0. -1.
        3    1    5    5  501    0  0.17402492013E+02 -0.24504460355E+02  0.56500961638E+02  0.63997452852E+02  0.00000000000E+00 0. -1.
       -4    1    5    5    0  501  0.76380580310E+02  0.52220556632E+02  0.97242025523E+02  0.13422738585E+03  0.00000000000E+00 0.  1.
</event>
<event>
 9   1  0.7570500E-01  0.2499990E+03  0.7546771E-02  0.1113305E+00
       21   -1    0    0  503  502  0.00000000000E+00  0.00000000000E+00  0.13827197843E+03  0.13827197843E+03  0.00000000000E+00 0. -1.
       21   -1    0    0  502  503 -0.00000000000E+00 -0.00000000000E+00 -0.11300098350E+03  0.11300098350E+03  0.00000000000E+00 0. -1.
       25    2    1    2    0    0 -0.71054273576E-14  0.00000000000E+00  0.25270994930E+02  0.25127296193E+03  0.24999895642E+03 0.  0.
       24    2    3    3    0    0  0.58338711202E+02 -0.76171484288E+02 -0.18802496579E+01  0.12530057119E+03  0.80567968562E+02 0.  0.
      -24    2    3    3    0    0 -0.58338711202E+02  0.76171484288E+02  0.27151244588E+02  0.12597239074E+03  0.76982809131E+02 0.  0.
      -13    1    4    4    0    0 -0.25077918830E+01 -0.62759828398E+02 -0.42015945093E+01  0.62950285758E+02  0.00000000000E+00 0.  1.
       14    1    4    4    0    0  0.60846503085E+02 -0.13411655891E+02  0.23213448514E+01  0.62350285431E+02  0.00000000000E+00 0. -1.
        1    1    5    5  501    0 -0.76396569952E+02  0.50749117794E+02  0.22590199737E+02  0.94457535334E+02  0.00000000000E+00 0. -1.
       -2    1    5    5    0  501  0.18057858750E+02  0.25422366495E+02  0.45610448505E+01  0.31514855401E+02  0.00000000000E+00 0.  1.
</event>
<event>
 9   1  0.7570500E-01  0.2500006E+03  0.7546771E-02  0.1113304E+00
       21   -1    0    0  503  502  0.00000000000E+00  0.00000000000E+00  0.26838729220E+03  0.26838729220E+03  0.00000000000E+00 0.  1.
       21   -1    0    0  502  503 -0.00000000000E+00 -0.00000000000E+00 -0.58218401996E+02  0.58218401996E+02  0.00000000000E+00 0.  1.
       25    2    1    2    0    0  0.00000000000E+00  0.71054273576E-14  0.21016889020E+03  0.32660569419E+03  0.25000063414E+03 0.  0.
       24    2    3    3    0    0 -0.39997189220E+02 -0.63007002444E+02  0.18387280694E+03  0.21416274907E+03  0.80540775118E+02 0.  0.
      -24    2    3    3    0    0  0.39997189220E+02  0.63007002444E+02  0.26296083264E+02  0.11244294512E+03  0.79889138249E+02 0.  0.
      -13    1    4    4    0    0 -0.62324851172E+02 -0.34494023966E+02  0.99728566902E+02  0.12255615782E+03  0.00000000000E+00 0.  1.
       14    1    4    4    0    0  0.22327661952E+02 -0.28512978477E+02  0.84144240033E+02  0.91606591251E+02  0.00000000000E+00 0. -1.
        3    1    5    5  501    0 -0.22134482232E+02  0.28036590347E+01  0.98041343764E+01  0.24370409487E+02  0.00000000000E+00 0. -1.
       -4    1    5    5    0  501  0.62131671452E+02  0.60203343409E+02  0.16491948887E+02  0.88072535635E+02  0.00000000000E+00 0.  1.
</event>
<event>
 9   1  0.7570500E-01  0.2499994E+03  0.7546771E-02  0.1113305E+00
       21   -1    0    0  503  502  0.00000000000E+00  0.00000000000E+00  0.44147607923E+02  0.44147607923E+02  0.00000000000E+00 0.  1.
       21   -1    0    0  502  503 -0.00000000000E+00 -0.00000000000E+00 -0.35392468636E+03  0.35392468636E+03  0.00000000000E+00 0.  1.
       25    2    1    2    0    0  0.14210854715E-13 -0.71054273576E-14 -0.30977707843E+03  0.39807229428E+03  0.24999942630E+03 0.  0.
       24    2    3    3    0    0  0.74785120857E+02  0.38598924582E+02 -0.22773717771E+03  0.25601456532E+03  0.81219112694E+02 0.  0.
      -24    2    3    3    0    0 -0.74785120857E+02 -0.38598924582E+02 -0.82039900727E+02  0.14205772896E+03  0.79794497082E+02 0.  0.
      -13    1    4    4    0    0  0.66634390540E+02  0.17686054498E+02 -0.22254190424E+03  0.23297604527E+03  0.00000000000E+00 0.  1.
       14    1    4    4    0    0  0.81507303170E+01  0.20912870084E+02 -0.51952734665E+01  0.23038520053E+02  0.00000000000E+00 0. -1.
        1    1    5    5  501    0 -0.59687208508E+02  0.73210252676E+01 -0.69921590547E+02  0.92223582099E+02  0.00000000000E+00 0. -1.
       -2    1    5    5    0  501 -0.15097912349E+02 -0.45919949850E+02 -0.12118310180E+02  0.49834146858E+02  0.00000000000E+00 0.  1.
</event>
<event>
 9   1  0.7570500E-01  0.2499982E+03  0.7546771E-02  0.1113306E+00
       21   -1    0    0  503  502  0.00000000000E+00  0.00000000000E+00  0.32301472408E+02  0.32301472408E+02  0.00000000000E+00 0. -1.
       21   -1    0    0  502  503 -0.00000000000E+00 -0.00000000000E+00 -0.48371730332E+03  0.48371730332E+03  0.00000000000E+00 0. -1.
       25    2    1    2    0    0  0.00000000000E+00  0.71054273576E-14 -0.45141583091E+03  0.51601877573E+03  0.24999824901E+03 0.  0.
       24    2    3    3    0    0  0.24755403888E+02 -0.20727288963E+02 -0.41251854752E+03  0.42123915501E+03  0.78920359452E+02 0.  0.
      -24    2    3    3    0    0 -0.24755403888E+02  0.20727288963E+02 -0.38897283392E+02  0.94779620719E+02  0.80173108452E+02 0.  0.
      -13    1    4    4    0    0  0.86966547938E+01  0.30312177437E+02 -0.13837697472E+03  0.14192479360E+03  0.00000000000E+00 0.  1.
       14    1    4    4    0    0  0.16058749094E+02 -0.51039466400E+02 -0.27414157280E+03  0.27931436141E+03  0.00000000000E+00 0. -1.
        3    1    5    5  501    0 -0.45924025444E+02  0.36684502796E+02 -0.33741566739E+02  0.67773609793E+02  0.00000000000E+00 0. -1.
       -4    1    5    5    0  501  0.21168621556E+02 -0.15957213833E+02 -0.51557166523E+01  0.27006010925E+02  0.00000000000E+00 0.  1.
</event>
<event>
 9   1  0.7570500E-01  0.2500056E+03  0.7546771E-02  0.1113301E+00
       21   -1    0    0  503  502  0.00000000000E+00  0.00000000000E+00  0.13204023503E+04  0.13204023503E+04  0.00000000000E+00 0. -1.
       21   -1    0    0  502  503 -0.00000000000E+00 -0.00000000000E+00 -0.11834042425E+02  0.11834042425E+02  0.00000000000E+00 0. -1.
       25    2    1    2    0    0  0.00000000000E+00  0.00000000000E+00  0.13085683079E+04  0.13322363927E+04  0.25000557939E+03 0.  0.
       24    2    3    3    0    0  0.53739701547E+02  0.34305090037E+02  0.10381273211E+04  0.10432724305E+04  0.81512176058E+02 0.  0.
      -24    2    3    3    0    0 -0.53739701547E+02 -0.34305090037E+02  0.27044098680E+03  0.28896396218E+03  0.79353949956E+02 0.  0.
      -13    1    4    4    0    0  0.12322241550E+02  0.95509427815E+01  0.28440261301E+02  0.32433109745E+02  0.00000000000E+00 0.  1.
       14    1    4    4    0    0  0.41417459997E+02  0.24754147256E+02  0.10096870598E+04  0.10108393208E+04  0.00000000000E+00 0. -1.
        3    1    5    5  501    0  0.10886908773E+02 -0.72397963876E+01  0.43132457146E+01  0.13767480633E+02  0.00000000000E+00 0. -1.
       -4    1    5    5    0  501 -0.64626610321E+02 -0.27065293649E+02  0.26612774108E+03  0.27519648155E+03  0.00000000000E+00 0.  1.
</event>
<event>
 9   1  0.7570500E-01  0.2499976E+03  0.7546771E-02  0.1113306E+00
       21   -1    0    0  503  502  0.00000000000E+00  0.00000000000E+00  0.55582216347E+02  0.55582216347E+02  0.00000000000E+00 0. -1.
       21   -1    0    0  502  503 -0.00000000000E+00 -0.00000000000E+00 -0.28110978453E+03  0.28110978453E+03  0.00000000000E+00 0. -1.
       25    2    1    2    0    0  0.14210854715E-13 -0.22204460493E-14 -0.22552756818E+03  0.33669200087E+03  0.24999763888E+03 0.  0.
       24    2    3    3    0    0 -0.96525836703E+02 -0.18028848622E+00 -0.87306310817E+02  0.15255359558E+03  0.79579758487E+02 0.  0.
      -24    2    3    3    0    0  0.96525836703E+02  0.18028848622E+00 -0.13822125736E+03  0.18413840529E+03  0.74057860230E+02 0.  0.
      -13    1    4    4    0    0 -0.73770212675E+02  0.29002457625E+02 -0.30867945774E+02  0.85064780624E+02  0.00000000000E+00 0.  1.
       14    1    4    4    0    0 -0.22755624028E+02 -0.29182746111E+02 -0.56438365043E+02  0.67488814956E+02  0.00000000000E+00 0. -1.
        3    1    5    5  501    0  0.17339662025E+02  0.23877394548E+01 -0.89374129169E+02  0.91071950367E+02  0.00000000000E+00 0. -1.
       -4    1    5    5    0  501  0.79186174678E+02 -0.22074509686E+01 -0.48847128195E+02  0.93066454927E+02  0.00000000000E+00 0.  1.
</event>
<event>
 9   1  0.7570500E-01  0.2500057E+03  0.7546771E-02  0.1113301E+00
       21   -1    0    0  503  502  0.00000000000E+00  0.00000000000E+00  0.21414830415E+02  0.21414830415E+02  0.00000000000E+00 0. -1.
       21   -1    0    0  502  503 -0.00000000000E+00 -0.00000000000E+00 -0.72966753013E+03  0.72966753013E+03  0.00000000000E+00 0. -1.
       25    2    1    2    0    0  0.00000000000E+00  0.88817841970E-15 -0.70825269972E+03  0.75108236055E+03  0.25000565127E+03 0.  0.
       24    2    3    3    0    0  0.46949820176E+02 -0.64442370185E+01 -0.60518193600E+03  0.61237148674E+03  0.80671235930E+02 0.  0.
      -24    2    3    3    0    0 -0.46949820176E+02  0.64442370185E+01 -0.10307076371E+03  0.13871087380E+03  0.79820488432E+02 0.  0.
      -13    1    4    4    0    0 -0.13356768995E+01 -0.78611288493E+01 -0.44482783019E+03  0.44489929185E+03  0.00000000000E+00 0.  1.
       14    1    4    4    0    0  0.48285497076E+02  0.14168918307E+01 -0.16035410581E+03  0.16747219489E+03  0.00000000000E+00 0. -1.
        3    1    5    5  501    0  0.16190229993E+02 -0.12487834422E+02 -0.58803903903E+01  0.21275538699E+02  0.00000000000E+00 0. -1.
       -4    1    5    5    0  501 -0.63140050170E+02  0.18932071441E+02 -0.97190373323E+02  0.11743533510E+03  0.00000000000E+00 0.  1.
</event>
<event>
 9   1  0.7570500E-01  0.2500013E+03  0.7546771E-02  0.1113304E+00
       21   -1    0    0  503  502  0.00000000000E+00  0.00000000000E+00  0.17518204846E+02  0.17518204846E+02  0.00000000000E+00 0. -1.
       21   -1    0    0  502  503 -0.00000000000E+00 -0.00000000000E+00 -0.89193882146E+03  0.89193882146E+03  0.00000000000E+00 0. -1.
       25    2    1    2    0    0 -0.35527136788E-14  0.00000000000E+00 -0.87442061661E+03  0.90945702631E+03  0.25000133587E+03 0.  0.
       24    2    3    3    0    0  0.12746731808E+01 -0.76825489243E+02 -0.64924258451E+03  0.65865728981E+03  0.80060672533E+02 0.  0.
      -24    2    3    3    0    0 -0.12746731808E+01  0.76825489243E+02 -0.22517803211E+03  0.25079973650E+03  0.79319487495E+02 0.  0.
      -13    1    4    4    0    0 -0.29886716773E+02 -0.32605291270E+02 -0.45108318637E+03  0.45324646924E+03  0.00000000000E+00 0.  1.
       14    1    4    4    0    0  0.31161389954E+02 -0.44220197973E+02 -0.19815939814E+03  0.20541082056E+03  0.00000000000E+00 0. -1.
        3    1    5    5  501    0 -0.32037833606E+02  0.42657311542E+02 -0.17403787141E+03  0.18203090313E+03  0.00000000000E+00 0. -1.
       -4    1    5    5    0  501  0.30763160425E+02  0.34168177701E+02 -0.51140160692E+02  0.68768833365E+02  0.00000000000E+00 0.  1.
</event>
<event>
 9   1  0.7570500E-01  0.2500034E+03  0.7546771E-02  0.1113303E+00
       21   -1    0    0  503  502  0.00000000000E+00  0.00000000000E+00  0.28494083956E+03  0.28494083956E+03  0.00000000000E+00 0.  1.
       21   -1    0    0  502  503 -0.00000000000E+00 -0.00000000000E+00 -0.54837424183E+02  0.54837424183E+02  0.00000000000E+00 0.  1.
       25    2    1    2    0    0  0.17763568394E-14  0.00000000000E+00  0.23010341538E+03  0.33977826375E+03  0.25000337347E+03 0.  0.
       24    2    3    3    0    0 -0.13074143425E+02 -0.68432554383E+02  0.24905443169E+02  0.11070175433E+03  0.82344699809E+02 0.  0.
      -24    2    3    3    0    0  0.13074143425E+02  0.68432554383E+02  0.20519797221E+03  0.22907650942E+03  0.74269049011E+02 0.  0.
      -13    1    4    4    0    0  0.14117118361E+02 -0.75982415664E+01  0.39375391296E+02  0.42514088788E+02  0.00000000000E+00 0.  1.
       14    1    4    4    0    0 -0.27191261786E+02 -0.60834312816E+02 -0.14469948128E+02  0.68187665542E+02  0.00000000000E+00 0. -1.
        1    1    5    5  501    0  0.41523346226E+02  0.26217025596E+02  0.12236296764E+03  0.13184921904E+03  0.00000000000E+00 0. -1.
       -2    1    5    5    0  501 -0.28449202801E+02  0.42215528786E+02  0.82835004577E+02  0.97227290377E+02  0.00000000000E+00 0.  1.
</event>
<event>
 9   1  0.7570500E-01  0.2499987E+03  0.7546771E-02  0.1113306E+00
       21   -1    0    0  503  502  0.00000000000E+00  0.00000000000E+00  0.28708506393E+03  0.28708506393E+03  0.00000000000E+00 0.  1.
       21   -1    0    0  502  503 -0.00000000000E+00 -0.00000000000E+00 -0.54425790737E+02  0.54425790737E+02  0.00000000000E+00 0.  1.
       25    2    1    2    0    0  0.00000000000E+00 -0.53290705182E-14  0.23265927319E+03  0.34151085467E+03  0.24999865290E+03 0.  0.
       24    2    3    3    0    0  0.78599724768E+02 -0.13829726512E+02  0.41521405141E+02  0.11944103779E+03  0.78568163743E+02 0.  0.
      -24    2    3    3    0    0 -0.78599724768E+02  0.13829726512E+02  0.19113786805E+03  0.22206981688E+03  0.80075844650E+02 0.  0.
      -13    1    4    4    0    0  0.21628322669E+02  0.32107775704E+02  0.16703934060E+02  0.42162957857E+02  0.00000000000E+00 0.  1.
       14    1    4    4    0    0  0.56971402098E+02 -0.45937502216E+02  0.24817471081E+02  0.77278079931E+02  0.00000000000E+00 0. -1.
        3    1    5    5  501    0  0.28674381255E+01  0.20977668317E+02  0.10185041152E+02  0.23495102313E+02  0.00000000000E+00 0. -1.
       -4    1    5    5    0  501 -0.81467162893E+02 -0.71479418056E+01  0.18095282690E+03  0.19857471457E+03  0.00000000000E+00 0.  1.
</event>
<event>
 9   1  0.7570500E-01  0.2500028E+03  0.7546771E-02  0.1113303E+00
       21   -1    0    0  503  502  0.00000000000E+00  0.00000000000E+00  0.22427391069E+03  0.22427391069E+03  0.00000000000E+00 0.  1.
       21   -1    0    0  502  503 -0.00000000000E+00 -0.00000000000E+00 -0.69670843971E+02  0.69670843971E+02  0.00000000000E+00 0.  1.
       25    2    1    2    0    0  0.88817841970E-15 -0.14210854715E-13  0.15460306671E+03  0.29394475466E+03  0.25000282109E+03 0.  0.
       24    2    3    3    0    0 -0.18830637973E+00  0.65043549700E+02 -0.55456577428E+01  0.10371670099E+03  0.80595911357E+02 0.  0.
      -24    2    3    3    0    0  0.18830637973E+00 -0.65043549700E+02  0.16014872446E+03  0.19022805367E+03  0.79425434465E+02 0.  0.
      -13    1    4    4    0    0 -0.18511144258E+02  0.26911787673E+02  0.33038098956E+02  0.46458828656E+02  0.00000000000E+00 0.  1.
       14    1    4    4    0    0  0.18322837878E+02  0.38131762027E+02 -0.38583756698E+02  0.57257872333E+02  0.00000000000E+00 0. -1.
        1    1    5    5  501    0  0.43243192429E+01  0.16428029890E+02  0.11030677482E+02  0.20254771011E+02  0.00000000000E+00 0. -1.
       -2    1    5    5    0  501 -0.41360128632E+01 -0.81471579591E+02  0.14911804697E+03  0.16997328266E+03  0.00000000000E+00 0.  1.
</event>
<event>
 9   1  0.7570500E-01  0.2500011E+03  0.7546771E-02  0.1113304E+00
       21   -1    0    0  503  502  0.00000000000E+00  0.00000000000E+00  0.57391731363E+01  0.57391731363E+01  0.00000000000E+00 0. -1.
       21   -1    0    0  502  503 -0.00000000000E+00 -0.00000000000E+00 -0.27225418968E+04  0.27225418968E+04  0.00000000000E+00 0. -1.
       25    2    1    2    0    0 -0.14210854715E-13 -0.35527136788E-14 -0.27168027236E+04  0.27282810699E+04  0.25000111453E+03 0.  0.
       24    2    3    3    0    0 -0.92795354074E+02 -0.27402782658E+02 -0.12670346228E+04  0.12732646226E+04  0.80400084251E+02 0.  0.
      -24    2    3    3    0    0  0.92795354074E+02  0.27402782658E+02 -0.14497681008E+04  0.14550164473E+04  0.76703490866E+02 0.  0.
      -13    1    4    4    0    0 -0.46370478259E+02 -0.22211002773E+02 -0.25389892132E+03  0.25905252777E+03  0.00000000000E+00 0.  1.
       14    1    4    4    0    0 -0.46424875815E+02 -0.51917798847E+01 -0.10131357015E+04  0.10142120949E+04  0.00000000000E+00 0. -1.
        3    1    5    5  501    0  0.22555588209E+02 -0.26482210471E+02 -0.37666030751E+03  0.37826320107E+03  0.00000000000E+00 0. -1.
       -4    1    5    5    0  501  0.70239765866E+02  0.53884993129E+02 -0.10731077933E+04  0.10767532462E+04  0.00000000000E+00 0.  1.
</event>
<event>
 9   1  0.7570500E-01  0.2500033E+03  0.7546771E-02  0.1113303E+00
       21   -1    0    0  503  502  0.00000000000E+00  0.00000000000E+00  0.70660117732E+02  0.70660117732E+02  0.00000000000E+00 0. -1.
       21   -1    0    0  502  503 -0.00000000000E+00 -0.00000000000E+00 -0.22113482183E+03  0.22113482183E+03  0.00000000000E+00 0. -1.
       25    2    1    2    0    0  0.00000000000E+00  0.14210854715E-13 -0.15047470410E+03  0.29179493956E+03  0.25000330034E+03 0.  0.
       24    2    3    3    0    0 -0.15912695335E+02  0.84386251675E+02 -0.12427730264E+03  0.17003694400E+03  0.78060624050E+02 0.  0.
      -24    2    3    3    0    0  0.15912695335E+02 -0.84386251675E+02 -0.26197401459E+02  0.12175799557E+03  0.82246290474E+02 0.  0.
      -13    1    4    4    0    0  0.24460232526E+02  0.67308398174E+02 -0.85312135819E+02  0.11138619285E+03  0.00000000000E+00 0.  1.
       14    1    4    4    0    0 -0.40372927862E+02  0.17077853502E+02 -0.38965166822E+02  0.58650751145E+02  0.00000000000E+00 0. -1.
        1    1    5    5  501    0 -0.40280482851E+01 -0.53065889525E+02 -0.53660488212E+02  0.75575537042E+02  0.00000000000E+00 0. -1.
       -2    1    5    5    0  501  0.19940743620E+02 -0.31320362150E+02  0.27463086754E+02  0.46182458525E+02  0.00000000000E+00 0.  1.
</event>
<event>
 9   1  0.7570500E-01  0.2499953E+03  0.7546771E-02  0.1113308E+00
       21   -1    0    0  503  502  0.00000000000E+00  0.00000000000E+00  0.80243496912E+02  0.80243496912E+02  0.00000000000E+00 0.  1.
       21   -1    0    0  502  503 -0.00000000000E+00 -0.00000000000E+00 -0.19471255901E+03  0.19471255901E+03  0.00000000000E+00 0.  1.
       25    2    1    2    0    0  0.14210854715E-13 -0.35527136788E-14 -0.11446906210E+03  0.27495605592E+03  0.24999533298E+03 0.  0.
       24    2    3    3    0    0  0.95814922851E+02  0.17061483019E+01 -0.43926794687E+02  0.13127128080E+03  0.78225158924E+02 0.  0.
      -24    2    3    3    0    0 -0.95814922851E+02 -0.17061483019E+01 -0.70542267414E+02  0.14368477512E+03  0.80533798665E+02 0.  0.
      -13    1    4    4    0    0  0.28328058569E+02 -0.25451700666E+02 -0.44437533580E+02  0.58523177971E+02  0.00000000000E+00 0.  1.
       14    1    4    4    0    0  0.67486864282E+02  0.27157848968E+02  0.51073889334E+00  0.72748102830E+02  0.00000000000E+00 0. -1.
        3    1    5    5  501    0 -0.15411208337E+02  0.18625424525E+02 -0.53933465097E+02  0.59103556902E+02  0.00000000000E+00 0. -1.
       -4    1    5    5    0  501 -0.80403714515E+02 -0.20331572827E+02 -0.16608802317E+02  0.84581218221E+02  0.00000000000E+00 0.  1.
</event>
<event>
 9   1  0.7570500E-01  0.2499993E+03  0.7546771E-02  0.1113305E+00
       21   -1    0    0  503  502  0.00000000000E+00  0.00000000000E+00  0.51773867108E+03  0.51773867108E+03  0.00000000000E+00 0. -1.
       21   -1    0    0  502  503 -0.00000000000E+00 -0.00000000000E+00 -0.30179156512E+02  0.30179156512E+02  0.00000000000E+00 0. -1.
       25    2    1    2    0    0  0.00000000000E+00 -0.35527136788E-14  0.48755951457E+03  0.54791782759E+03  0.24999933109E+03 0.  0.
       24    2    3    3    0    0 -0.50614710017E+02 -0.92694215620E+01  0.67133253402E+02  0.11695531687E+03  0.80770671566E+02 0.  0.
      -24    2    3    3    0    0  0.50614710017E+02  0.92694215620E+01  0.42042626116E+03  0.43096251072E+03  0.79515240833E+02 0.  0.
      -13    1    4    4    0    0 -0.29868178839E+02 -0.42104595532E+02  0.18776137068E+02  0.54931306149E+02  0.00000000000E+00 0.  1.
       14    1    4    4    0    0 -0.20746531178E+02  0.32835173970E+02  0.48357116334E+02  0.62024010719E+02  0.00000000000E+00 0. -1.
        1    1    5    5  501    0  0.42650465284E+02  0.22904521420E+02  0.11056555628E+03  0.12069971634E+03  0.00000000000E+00 0. -1.
       -2    1    5    5    0  501  0.79642447329E+01 -0.13635099858E+02  0.30986070489E+03  0.31026279438E+03  0.00000000000E+00 0.  1.
</event>
<event>
 9   1  0.7570500E-01  0.2500049E+03  0.7546771E-02  0.1113302E+00
       21   -1    0    0  503  502  0.00000000000E+00  0.00000000000E+00  0.66671930096E+02  0.66671930096E+02  0.00000000000E+00 0. -1.
       21   -1    0    0  502  503 -0.00000000000E+00 -0.00000000000E+00 -0.23436569958E+03  0.23436569958E+03  0.00000000000E+00 0. -1.
       25    2    1    2    0    0  0.00000000000E+00  0.00000000000E+00 -0.16769376949E+03  0.30103762968E+03  0.25000490827E+03 0.  0.
       24    2    3    3    0    0 -0.49445573992E+02  0.87732982475E+02 -0.73070980688E+02  0.14798101234E+03  0.80106621403E+02 0.  0.
      -24    2    3    3    0    0  0.49445573992E+02 -0.87732982475E+02 -0.94622788800E+02  0.15305661734E+03  0.65809687360E+02 0.  0.
      -13    1    4    4    0    0 -0.47181184434E+02  0.98281616501E+01 -0.42518306649E+02  0.64268680757E+02  0.00000000000E+00 0.  1.
       14    1    4    4    0    0 -0.22643895585E+01  0.77904820825E+02 -0.30552674040E+02  0.83712331582E+02  0.00000000000E+00 0. -1.
        1    1    5    5  501    0 -0.89928256900E+01 -0.46663780070E+02 -0.49239349247E+02  0.68431665174E+02  0.00000000000E+00 0. -1.
       -2    1    5    5    0  501  0.58438399682E+02 -0.41069202405E+02 -0.45383439553E+02  0.84624952167E+02  0.00000000000E+00 0.  1.
</event>
<event>
 9   1  0.7570500E-01  0.2499985E+03  0.7546771E-02  0.1113306E+00
       21   -1    0    0  503  502  0.00000000000E+00  0.00000000000E+00  0.83559201539E+02  0.83559201539E+02  0.00000000000E+00 0. -1.
       21   -1    0    0  502  503 -0.00000000000E+00 -0.00000000000E+00 -0.18699094740E+03  0.18699094740E+03  0.00000000000E+00 0. -1.
       25    2    1    2    0    0  0.00000000000E+00 -0.35527136788E-14 -0.10343174586E+03  0.27055014894E+03  0.24999851408E+03 0.  0.
       24    2    3    3    0    0  0.43032527111E+02 -0.67124836619E+01  0.45153977225E+02  0.95503008273E+02  0.72007548934E+02 0.  0.
      -24    2    3    3    0    0 -0.43032527111E+02  0.67124836619E+01 -0.14858572309E+03  0.17504714067E+03  0.81651261621E+02 0.  0.
      -13    1    4    4    0    0  0.17650537948E+02 -0.33051187195E+02  0.98858574090E-01  0.37469083760E+02  0.00000000000E+00 0.  1.
       14    1    4    4    0    0  0.25381989163E+02  0.26338703533E+02  0.45055118651E+02  0.58033924512E+02  0.00000000000E+00 0. -1.
        3    1    5    5  501    0  0.15994907938E+02 -0.11204227238E+02 -0.81938748240E+02  0.84233783313E+02  0.00000000000E+00 0. -1.
       -4    1    5    5    0  501 -0.59027435049E+02  0.17916710900E+02 -0.66646974847E+02  0.90813357356E+02  0.00000000000E+00 0.  1.
</event>
<event>
 9   1  0.7570500E-01  0.2500022E+03  0.7546771E-02  0.1113303E+00
       21   -1    0    0  503  502  0.00000000000E+00  0.00000000000E+00  0.71041063401E+01  0.71041063401E+01  0.00000000000E+00 0.  1.
       21   -1    0    0  502  503 -0.00000000000E+00 -0.00000000000E+00 -0.21994703000E+04  0.21994703000E+04  0.00000000000E+00 0.  1.
       25    2    1    2    0    0 -0.35527136788E-14  0.00000000000E+00 -0.21923661937E+04  0.22065744064E+04  0.25000216722E+03 0.  0.
       24    2    3    3    0    0  0.11144305921E+02 -0.90700097916E+02 -0.13445517531E+04  0.13500181041E+04  0.79867147366E+02 0.  0.
      -24    2    3    3    0    0 -0.11144305921E+02  0.90700097916E+02 -0.84781444058E+03  0.85655630229E+03  0.80923853255E+02 0.  0.
      -13    1    4    4    0    0  0.29786330033E+02 -0.43221489860E+02 -0.32678195315E+03  0.33097094668E+03  0.00000000000E+00 0.  1.
       14    1    4    4    0    0 -0.18642024112E+02 -0.47478608056E+02 -0.10177698000E+04  0.10190471574E+04  0.00000000000E+00 0. -1.
        3    1    5    5  501    0 -0.45329724278E+02  0.65066901893E+02 -0.56063063006E+03  0.56621125827E+03  0.00000000000E+00 0. -1.
       -4    1    5    5    0  501  0.34185418358E+02  0.25633196023E+02 -0.28718381052E+03  0.29034504403E+03  0.00000000000E+00 0.  1.
</event>
<event>
 9   1  0.7570500E-01  0.2500125E+03  0.7546771E-02  0.1113297E+00
       21   -1    0    0  503  502  0.00000000000E+00  0.00000000000E+00  0.19000379725E+02  0.19000379725E+02  0.00000000000E+00 0. -1.
       21   -1    0    0  502  503 -0.00000000000E+00 -0.00000000000E+00 -0.82243407889E+03  0.82243407889E+03  0.00000000000E+00 0. -1.
       25    2    1    2    0    0 -0.71054273576E-14  0.00000000000E+00 -0.80343369917E+03  0.84143445862E+03  0.25001247807E+03 0.  0.
       24    2    3    3    0    0  0.47473803053E+02  0.42202359317E+02 -0.67071500592E+03  0.67830606666E+03  0.78776264169E+02 0.  0.
      -24    2    3    3    0    0 -0.47473803053E+02 -0.42202359317E+02 -0.13271869325E+03  0.16312839196E+03  0.70440184670E+02 0.  0.
      -13    1    4    4    0    0  0.55617552368E+02  0.46806337361E+02 -0.35070660667E+03  0.35816095448E+03  0.00000000000E+00 0.  1.
       14    1    4    4    0    0 -0.81437493151E+01 -0.46039780441E+01 -0.32000839925E+03  0.32014511219E+03  0.00000000000E+00 0. -1.
        3    1    5    5  501    0  0.17325140628E+02 -0.19395471417E+02 -0.32466116221E+02  0.41597998891E+02  0.00000000000E+00 0. -1.
       -4    1    5    5    0  501 -0.64798943681E+02 -0.22806887900E+02 -0.10025257703E+03  0.12153039307E+03  0.00000000000E+00 0.  1.
</event>
<event>
 9   1  0.7570500E-01  0.2500008E+03  0.7546771E-02  0.1113304E+00
       21   -1    0    0  503  502  0.00000000000E+00  0.00000000000E+00  0.45979153263E+02  0.45979153263E+02  0.00000000000E+00 0.  1.
       21   -1    0    0  502  503 -0.00000000000E+00 -0.00000000000E+00 -0.33983017240E+03  0.33983017240E+03  0.00000000000E+00 0.  1.
       25    2    1    2    0    0  0.00000000000E+00  0.00000000000E+00 -0.29385101914E+03  0.38580932567E+03  0.25000082864E+03 0.  0.
       24    2    3    3    0    0  0.56911324148E+02  0.16936141234E+02 -0.25630026812E+03  0.27512278648E+03  0.80479739724E+02 0.  0.
      -24    2    3    3    0    0 -0.56911324148E+02 -0.16936141234E+02 -0.37550751021E+02  0.11068653919E+03  0.85531978575E+02 0.  0.
      -13    1    4    4    0    0  0.17128557589E+02 -0.32075001181E+02 -0.10762305738E+03  0.11359980487E+03  0.00000000000E+00 0.  1.
       14    1    4    4    0    0  0.39782766559E+02  0.49011142415E+02 -0.14867721074E+03  0.16152298161E+03  0.00000000000E+00 0. -1.
        1    1    5    5  501    0 -0.70088402399E+02 -0.85867623100E+01 -0.53337253105E+02  0.88492820084E+02  0.00000000000E+00 0. -1.
       -2    1    5    5    0  501  0.13177078250E+02 -0.83493789237E+01  0.15786502083E+02  0.22193719104E+02  0.00000000000E+00 0.  1.
</event>
<event>
 9   1  0.7570500E-01  0.2500010E+03  0.7546771E-02  0.1113304E+00
       21   -1    0    0  503  502  0.00000000000E+00  0.00000000000E+00  0.20446190391E+02  0.20446190391E+02  0.00000000000E+00 0. -1.
       21   -1    0    0  502  503 -0.00000000000E+00 -0.00000000000E+00 -0.76420728929E+03  0.76420728929E+03  0.00000000000E+00 0. -1.
       25    2    1    2    0    0  0.71054273576E-14  0.00000000000E+00 -0.74376109889E+03  0.78465347968E+03  0.25000102188E+03 0.  0.
       24    2    3    3    0    0 -0.46404106790E+02 -0.58250763343E+02 -0.57506516731E+03  0.58450870041E+03  0.73511778886E+02 0.  0.
      -24    2    3    3    0    0  0.46404106790E+02  0.58250763343E+02 -0.16869593158E+03  0.20014477927E+03  0.77801817336E+02 0.  0.
      -13    1    4    4    0    0 -0.10452001497E+02 -0.46253619526E+02 -0.47736652289E+03  0.47971599809E+03  0.00000000000E+00 0.  1.
       14    1    4    4    0    0 -0.35952105294E+02 -0.11997143817E+02 -0.97698644428E+02  0.10479270231E+03  0.00000000000E+00 0. -1.
        3    1    5    5  501    0  0.31512543014E+02  0.13332417018E+02 -0.14147029117E+03  0.14554943145E+03  0.00000000000E+00 0. -1.
       -4    1    5    5    0  501  0.14891563777E+02  0.44918346326E+02 -0.27225640410E+02  0.54595347824E+02  0.00000000000E+00 0.  1.
</event>
<event>
 9   1  0.7570500E-01  0.2499962E+03  0.7546771E-02  0.1113307E+00
       21   -1    0    0  503  502  0.00000000000E+00  0.00000000000E+00  0.67241589327E+03  0.67241589327E+03  0.00000000000E+00 0. -1.
       21   -1    0    0  502  503 -0.00000000000E+00 -0.00000000000E+00 -0.23236401971E+02  0.23236401971E+02  0.00000000000E+00 0. -1.
       25    2    1    2    0    0  0.35527136788E-14  0.14210854715E-13  0.64917949130E+03  0.69565229524E+03  0.24999620787E+03 0.  0.
       24    2    3    3    0    0  0.15181397979E+02 -0.95065760976E+02  0.30584413266E+03  0.33100139425E+03  0.82178560198E+02 0.  0.
      -24    2    3    3    0    0 -0.15181397979E+02  0.95065760976E+02  0.34333535864E+03  0.36465090099E+03  0.76309484006E+02 0.  0.
      -13    1    4    4    0    0  0.42861428210E+02 -0.84131039512E+02  0.25710081509E+03  0.27389042144E+03  0.00000000000E+00 0.  1.
       14    1    4    4    0    0 -0.27680030231E+02 -0.10934721464E+02  0.48743317574E+02  0.57110972809E+02  0.00000000000E+00 0. -1.
        1    1    5    5  501    0 -0.44226194384E+02  0.58060712518E+02  0.16914321302E+03  0.18421842774E+03  0.00000000000E+00 0. -1.
       -2    1    5    5    0  501  0.29044796405E+02  0.37005048458E+02  0.17419214562E+03  0.18043247325E+03  0.00000000000E+00 0.  1.
</event>
<event>
 9   1  0.7570500E-01  0.2499572E+03  0.7546771E-02  0.1113332E+00
       21   -1    0    0  503  502  0.00000000000E+00  0.00000000000E+00  0.20006460609E+03  0.20006460609E+03  0.00000000000E+00 0.  1.
       21   -1    0    0  502  503 -0.00000000000E+00 -0.00000000000E+00 -0.78073048760E+02  0.78073048760E+02  0.00000000000E+00 0.  1.
       25    2    1    2    0    0  0.00000000000E+00 -0.14210854715E-13  0.12199155733E+03  0.27813765485E+03  0.24995722631E+03 0.  0.
       24    2    3    3    0    0 -0.14985191971E+02 -0.66551976373E+02  0.16945027683E+02  0.12918475861E+03  0.10838748247E+03 0.  0.
      -24    2    3    3    0    0  0.14985191971E+02  0.66551976373E+02  0.10504652965E+03  0.14895289624E+03  0.80613090564E+02 0.  0.
      -13    1    4    4    0    0 -0.55612259829E+02 -0.18174500053E+02  0.28311061018E+02  0.64996554304E+02  0.00000000000E+00 0.  1.
       14    1    4    4    0    0  0.40627067858E+02 -0.48377476321E+02 -0.11366033334E+02  0.64188204303E+02  0.00000000000E+00 0. -1.
        3    1    5    5  501    0 -0.33387265848E+02  0.24255853914E+02  0.43921392619E+02  0.60267277186E+02  0.00000000000E+00 0. -1.
       -4    1    5    5    0  501  0.48372457819E+02  0.42296122459E+02  0.61125137028E+02  0.88685619055E+02  0.00000000000E+00 0.  1.
</event>
<event>
 9   1  0.7570500E-01  0.2500108E+03  0.7546771E-02  0.1113298E+00
       21   -1    0    0  503  502  0.00000000000E+00  0.00000000000E+00  0.46294288073E+03  0.46294288073E+03  0.00000000000E+00 0.  1.
       21   -1    0    0  502  503 -0.00000000000E+00 -0.00000000000E+00 -0.33754387851E+02  0.33754387851E+02  0.00000000000E+00 0.  1.
       25    2    1    2    0    0  0.00000000000E+00  0.00000000000E+00  0.42918849288E+03  0.49669726859E+03  0.25001082816E+03 0.  0.
       24    2    3    3    0    0 -0.77577403855E+02 -0.39634569638E+02  0.14574459140E+03  0.18165652933E+03  0.64563581270E+02 0.  0.
      -24    2    3    3    0    0  0.77577403855E+02  0.39634569638E+02  0.28344390149E+03  0.31504073926E+03  0.10640051411E+03 0.  0.
      -13    1    4    4    0    0 -0.26971878341E+02 -0.31623115533E+02  0.11410445078E+03  0.12143858260E+03  0.00000000000E+00 0.  1.
       14    1    4    4    0    0 -0.50605525514E+02 -0.80114541054E+01  0.31640140622E+02  0.60217946726E+02  0.00000000000E+00 0. -1.
        1    1    5    5  501    0  0.81888463719E+02 -0.96954304125E+01  0.21726182224E+03  0.23238421044E+03  0.00000000000E+00 0. -1.
       -2    1    5    5    0  501 -0.43110598636E+01  0.49330000050E+02  0.66182079247E+02  0.82656528814E+02  0.00000000000E+00 0.  1.
</event>
<event>
 9   1  0.7570500E-01  0.2500006E+03  0.7546771E-02  0.1113304E+00
       21   -1    0    0  503  502  0.00000000000E+00  0.00000000000E+00  0.50886026055E+03  0.50886026055E+03  0.00000000000E+00 0.  1.
       21   -1    0    0  502  503 -0.00000000000E+00 -0.00000000000E+00 -0.30706027290E+02  0.30706027290E+02  0.00000000000E+00 0.  1.
       25    2    1    2    0    0  0.14210854715E-13  0.35527136788E-14  0.47815423326E+03  0.53956628784E+03  0.25000061638E+03 0.  0.
       24    2    3    3    0    0  0.94175881772E+02 -0.13698797213E+02  0.23379160231E+03  0.26457798036E+03  0.79285816068E+02 0.  0.
      -24    2    3    3    0    0 -0.94175881772E+02  0.13698797213E+02  0.24436263095E+03  0.27498830748E+03  0.82756994217E+02 0.  0.
      -13    1    4    4    0    0  0.85472635241E+02  0.20975017043E+02  0.17119626724E+03  0.19249333659E+03  0.00000000000E+00 0.  1.
       14    1    4    4    0    0  0.87032465310E+01 -0.34673814255E+02  0.62595335069E+02  0.72084643771E+02  0.00000000000E+00 0. -1.
        3    1    5    5  501    0 -0.87220148219E+02  0.26257383167E+02  0.24419621477E+03  0.26063114882E+03  0.00000000000E+00 0. -1.
       -4    1    5    5    0  501 -0.69557335535E+01 -0.12558585955E+02  0.16641618047E+00  0.14357158660E+02  0.00000000000E+00 0.  1.
</event>
<event>
 9   1  0.7570500E-01  0.2499958E+03  0.7546771E-02  0.1113307E+00
       21   -1    0    0  503  502  0.00000000000E+00  0.00000000000E+00  0.68346990008E+02  0.68346990008E+02  0.00000000000E+00 0.  1.
       21   -1    0    0  502  503 -0.00000000000E+00 -0.00000000000E+00 -0.22860523494E+03  0.22860523494E+03  0.00000000000E+00 0.  1.
       25    2    1    2    0    0  0.00000000000E+00  0.00000000000E+00 -0.16025824493E+03  0.29695222495E+03  0.24999583763E+03 0.  0.
       24    2    3    3    0    0 -0.59972581760E+02  0.49289697163E+02 -0.14706847062E+02  0.11321338614E+03  0.81085107390E+02 0.  0.
      -24    2    3    3    0    0  0.59972581760E+02 -0.49289697163E+02 -0.14555139787E+03  0.18373883881E+03  0.80923214575E+02 0.  0.
      -13    1    4    4    0    0 -0.41397969958E+02 -0.11468757055E+02  0.11525656736E+02  0.44476567631E+02  0.00000000000E+00 0.  1.
       14    1    4    4    0    0 -0.18574611802E+02  0.60758454219E+02 -0.26232503798E+02  0.68736818505E+02  0.00000000000E+00 0. -1.
        1    1    5    5  501    0  0.16241720654E+02 -0.61080610599E+02 -0.10694583593E+03  0.12422578759E+03  0.00000000000E+00 0. -1.
       -2    1    5    5    0  501  0.43730861106E+02  0.11790913436E+02 -0.38605561946E+02  0.59513051223E+02  0.00000000000E+00 0.  1.
</event>
<event>
 9   1  0.7570500E-01  0.2499955E+03  0.7546771E-02  0.1113308E+00
       21   -1    0    0  503  502  0.00000000000E+00  0.00000000000E+00  0.64997916980E+02  0.64997916980E+02  0.00000000000E+00 0.  1.
       21   -1    0    0  502  503 -0.00000000000E+00 -0.00000000000E+00 -0.24038364648E+03  0.24038364648E+03  0.00000000000E+00 0.  1.
       25    2    1    2    0    0  0.44408920985E-15 -0.14210854715E-13 -0.17538572950E+03  0.30538156346E+03  0.24999549034E+03 0.  0.
       24    2    3    3    0    0  0.39643519927E+01 -0.92800204598E+02 -0.77643617202E+02  0.14590248036E+03  0.81433460095E+02 0.  0.
      -24    2    3    3    0    0 -0.39643519927E+01  0.92800204598E+02 -0.97742112301E+02  0.15947908310E+03  0.85161396010E+02 0.  0.
      -13    1    4    4    0    0 -0.27190142898E+00 -0.58691179870E+02  0.24525646036E+01  0.58743030209E+02  0.00000000000E+00 0.  1.
       14    1    4    4    0    0  0.42362534217E+01 -0.34109024727E+02 -0.80096181806E+02  0.87159450152E+02  0.00000000000E+00 0. -1.
        3    1    5    5  501    0 -0.12488473116E+02  0.81258671983E+02 -0.11220907297E+03  0.13910359373E+03  0.00000000000E+00 0. -1.
       -4    1    5    5    0  501  0.85241211231E+01  0.11541532615E+02  0.14466960669E+02  0.20375489369E+02  0.00000000000E+00 0.  1.
</event>
<event>
 9   1  0.7570500E-01  0.2500001E+03  0.7546771E-02  0.1113305E+00
       21   -1    0    0  503  502  0.00000000000E+00  0.00000000000E+00  0.94522075030E+03  0.94522075030E+03  0.00000000000E+00 0. -1.
       21   -1    0    0  502  503 -0.00000000000E+00 -0.00000000000E+00 -0.16530544899E+02  0.16530544899E+02  0.00000000000E+00 0. -1.
       25    2    1    2    0    0  0.35527136788E-14 -0.71054273576E-14  0.92869020540E+03  0.96175129520E+03  0.25000011242E+03 0.  0.
       24    2    3    3    0    0 -0.56976292809E+01 -0.62053173620E+02  0.74025019360E+03  0.74766707605E+03  0.84573330018E+02 0.  0.
      -24    2    3    3    0    0  0.56976292809E+01  0.62053173620E+02  0.18844001180E+03  0.21408421915E+03  0.80245594927E+02 0.  0.
      -13    1    4    4    0    0 -0.35482603954E+02 -0.43812965528E+02  0.25483799012E+03  0.26099998532E+03  0.00000000000E+00 0.  1.
       14    1    4    4    0    0  0.29784974674E+02 -0.18240208092E+02  0.48541220348E+03  0.48666709073E+03  0.00000000000E+00 0. -1.
        3    1    5    5  501    0 -0.37158976403E+02  0.24526166258E+02  0.87668819913E+02  0.98326722428E+02  0.00000000000E+00 0. -1.
       -4    1    5    5    0  501  0.42856605684E+02  0.37527007362E+02  0.10077119189E+03  0.11575749672E+03  0.00000000000E+00 0.  1.
</event>
<event>
 9   1  0.7570500E-01  0.2499943E+03  0.7546771E-02  0.1113308E+00
       21   -1    0    0  503  502  0.00000000000E+00  0.00000000000E+00  0.60770401186E+03  0.60770401186E+03  0.00000000000E+00 0.  1.
       21   -1    0    0  502  503 -0.00000000000E+00 -0.00000000000E+00 -0.25710351731E+02  0.25710351731E+02  0.00000000000E+00 0.  1.
       25    2    1    2    0    0  0.00000000000E+00  0.88817841970E-15  0.58199366012E+03  0.63341436359E+03  0.24999427108E+03 0.  0.
       24    2    3    3    0    0  0.38018300103E+02  0.20537963323E+01  0.49898938930E+03  0.50679980374E+03  0.80037623733E+02 0.  0.
      -24    2    3    3    0    0 -0.38018300103E+02 -0.20537963323E+01  0.83004270824E+02  0.12661455985E+03  0.87703640567E+02 0.  0.
      -13    1    4    4    0    0 -0.12176147469E+02  0.79138231691E+01  0.17837736453E+02  0.23001565297E+02  0.00000000000E+00 0.  1.
       14    1    4    4    0    0  0.50194447572E+02 -0.58600268368E+01  0.48115165285E+03  0.48379823844E+03  0.00000000000E+00 0. -1.
        3    1    5    5  501    0 -0.41543774150E+02 -0.38624289589E+02  0.63026460509E+02  0.84794195799E+02  0.00000000000E+00 0. -1.
       -4    1    5    5    0  501  0.35254740468E+01  0.36570493257E+02  0.19977810315E+02  0.41820364050E+02  0.00000000000E+00 0.  1.
</event>
<event>
 9   1  0.7570500E-01  0.2499976E+03  0.7546771E-02  0.1113306E+00
       21   -1    0    0  503  502  0.00000000000E+00  0.00000000000E+00  0.27059196861E+02  0.27059196861E+02  0.00000000000E+00 0. -1.
       21   -1    0    0  502  503 -0.00000000000E+00 -0.00000000000E+00 -0.57742648059E+03  0.57742648059E+03  0.00000000000E+00 0. -1.
       25    2    1    2    0    0  0.00000000000E+00 -0.71054273576E-14 -0.55036728373E+03  0.60448567745E+03  0.24999757447E+03 0.  0.
       24    2    3    3    0    0 -0.86161677193E+02  0.44312316837E+02 -0.26569547575E+03  0.29323592726E+03  0.77497142925E+02 0.  0.
      -24    2    3    3    0    0  0.86161677193E+02 -0.44312316837E+02 -0.28467180798E+03  0.31124975019E+03  0.80317823024E+02 0.  0.
      -13    1    4    4    0    0  0.42539616103E+01 -0.10678099567E+02 -0.63524581274E+01  0.13132849044E+02  0.00000000000E+00 0.  1.
       14    1    4    4    0    0 -0.90415638804E+02  0.54990416404E+02 -0.25934301762E+03  0.28010307822E+03  0.00000000000E+00 0. -1.
        3    1    5    5  501    0  0.12175774865E+02 -0.14046227662E+02 -0.17255829132E+03  0.17355664755E+03  0.00000000000E+00 0. -1.
       -4    1    5    5    0  501  0.73985902328E+02 -0.30266089175E+02 -0.11211351666E+03  0.13769310264E+03  0.00000000000E+00 0.  1.
</event>
<event>
 9   1  0.7570500E-01  0.2500014E+03  0.7546771E-02  0.1113304E+00
       21   -1    0    0  503  502  0.00000000000E+00  0.00000000000E+00  0.15473806322E+03  0.15473806322E+03  0.00000000000E+00 0. -1.
       21   -1    0    0  502  503 -0.00000000000E+00 -0.00000000000E+00 -0.10097825785E+03  0.10097825785E+03  0.00000000000E+00 0. -1.
       25    2    1    2    0    0  0.00000000000E+00 -0.71054273576E-14  0.53759805365E+02  0.25571632107E+03  0.25000144037E+03 0.  0.
       24    2    3    3    0    0  0.68322596795E+02 -0.56623314630E+02 -0.86907085568E+01  0.12035648129E+03  0.80845390591E+02 0.  0.
      -24    2    3    3    0    0 -0.68322596795E+02  0.56623314630E+02  0.62450513922E+02  0.13535983978E+03  0.80919976177E+02 0.  0.
      -13    1    4    4    0    0  0.74173687502E+01 -0.54840532648E+02 -0.19098329995E+02  0.58542698852E+02  0.00000000000E+00 0.  1.
       14    1    4    4    0    0  0.60905228045E+02 -0.17827819823E+01  0.10407621438E+02  0.61813782434E+02  0.00000000000E+00 0. -1.
        3    1    5    5  501    0 -0.72335041096E+02  0.97726132731E+01  0.35590105604E+02  0.81206636166E+02  0.00000000000E+00 0. -1.
       -4    1    5    5    0  501  0.40124443009E+01  0.46850701357E+02  0.26860408318E+02  0.54153203617E+02  0.00000000000E+00 0.  1.
</event>
<event>
 9   1  0.7570500E-01  0.2500022E+03  0.7546771E-02  0.1113303E+00
       21   -1    0    0  503  502  0.00000000000E+00  0.00000000000E+00  0.20974983418E+03  0.20974983418E+03  0.00000000000E+00 0. -1.
       21   -1    0    0  502  503 -0.00000000000E+00 -0.00000000000E+00 -0.74494844060E+02  0.74494844060E+02  0.00000000000E+00 0. -1.
       25    2    1    2    0    0  0.00000000000E+00  0.00000000000E+00  0.13525499012E+03  0.28424467824E+03  0.25000224950E+03 0.  0.
       24    2    3    3    0    0 -0.24297299686E+01 -0.44430769213E+02 -0.28094019117E+02  0.95767569238E+02  0.80013477408E+02 0.  0.
      -24    2    3    3    0    0  0.24297299686E+01  0.44430769213E+02  0.16334900924E+03  0.18847710900E+03  0.82829493291E+02 0.  0.
      -13    1    4    4    0    0 -0.86035058165E+01 -0.67096555973E+02 -0.16793448268E+02  0.69699268580E+02  0.00000000000E+00 0.  1.
       14    1    4    4    0    0  0.61737758478E+01  0.22665786760E+02 -0.11300570849E+02  0.26068300658E+02  0.00000000000E+00 0. -1.
        1    1    5    5  501    0  0.16947684915E+02  0.62145007322E+02  0.83796945787E+02  0.10569368043E+03  0.00000000000E+00 0. -1.
       -2    1    5    5    0  501 -0.14517954946E+02 -0.17714238109E+02  0.79552063451E+02  0.82783428576E+02  0.00000000000E+00 0.  1.
</event>
<event>
 9   1  0.7570500E-01  0.2500041E+03  0.7546771E-02  0.1113302E+00
       21   -1    0    0  503  502  0.00000000000E+00  0.00000000000E+00  0.15035665482E+04  0.15035665482E+04  0.00000000000E+00 0. -1.
       21   -1    0    0  502  503 -0.00000000000E+00 -0.00000000000E+00 -0.10392301378E+02  0.10392301378E+02  0.00000000000E+00 0. -1.
       25    2    1    2    0    0  0.00000000000E+00  0.00000000000E+00  0.14931742468E+04  0.15139588496E+04  0.25000413366E+03 0.  0.
       24    2    3    3    0    0  0.56111102850E+02  0.38461202676E+02  0.11426031421E+04  0.11474278130E+04  0.80130678748E+02 0.  0.
      -24    2    3    3    0    0 -0.56111102850E+02 -0.38461202676E+02  0.35057110476E+03  0.36653103664E+03  0.82566224054E+02 0.  0.
      -13    1    4    4    0    0  0.71406437836E+01 -0.22630811558E+02  0.40136944667E+03  0.40207036094E+03  0.00000000000E+00 0.  1.
       14    1    4    4    0    0  0.48970459066E+02  0.61092014234E+02  0.74123369542E+03  0.74535745203E+03  0.00000000000E+00 0. -1.
        1    1    5    5  501    0 -0.48892634211E+02 -0.11524280452E+02  0.32446748175E+03  0.32833282722E+03  0.00000000000E+00 0. -1.
       -2    1    5    5    0  501 -0.72184686385E+01 -0.26936922225E+02  0.26103623010E+02  0.38198209417E+02  0.00000000000E+00 0.  1.
</event>
<event>
 9   1  0.7570500E-01  0.2500555E+03  0.7546771E-02  0.1113270E+00
       21   -1    0    0  503  502  0.00000000000E+00  0.00000000000E+00  0.15695109935E+03  0.15695109935E+03  0.00000000000E+00 0. -1.
       21   -1    0    0  502  503 -0.00000000000E+00 -0.00000000000E+00 -0.99597513399E+02  0.99597513399E+02  0.00000000000E+00 0. -1.
       25    2    1    2    0    0 -0.35527136788E-14  0.00000000000E+00  0.57353585953E+02  0.25654861275E+03  0.25005550760E+03 0.  0.
       24    2    3    3    0    0 -0.97360573093E+01  0.88345819357E+02  0.69341221068E+02  0.13621897589E+03  0.76469796938E+02 0.  0.
      -24    2    3    3    0    0  0.97360573093E+01 -0.88345819357E+02 -0.11987635114E+02  0.12032963686E+03  0.80223085840E+02 0.  0.
      -13    1    4    4    0    0 -0.38265695926E+02  0.30326686758E+02  0.47114573839E+02  0.67850972598E+02  0.00000000000E+00 0.  1.
       14    1    4    4    0    0  0.28529638617E+02  0.58019132599E+02  0.22226647229E+02  0.68368003293E+02  0.00000000000E+00 0. -1.
        3    1    5    5  501    0  0.36945575708E+02 -0.23377654837E+02  0.12968260642E+02  0.45603356172E+02  0.00000000000E+00 0. -1.
       -4    1    5    5    0  501 -0.27209518398E+02 -0.64968164520E+02 -0.24955895757E+02  0.74726280689E+02  0.00000000000E+00 0.  1.
</event>
<event>
 9   1  0.7570500E-01  0.2500009E+03  0.7546771E-02  0.1113304E+00
       21   -1    0    0  503  502  0.00000000000E+00  0.00000000000E+00  0.83688468443E+01  0.83688468443E+01  0.00000000000E+00 0.  1.
       21   -1    0    0  502  503 -0.00000000000E+00 -0.00000000000E+00 -0.18670569103E+04  0.18670569103E+04  0.00000000000E+00 0.  1.
       25    2    1    2    0    0  0.00000000000E+00 -0.14210854715E-13 -0.18586880634E+04  0.18754257571E+04  0.25000090665E+03 0.  0.
       24    2    3    3    0    0 -0.70529450261E+02  0.64020030538E+02 -0.96033952255E+03  0.96829444564E+03  0.79178072853E+02 0.  0.
      -24    2    3    3    0    0  0.70529450261E+02 -0.64020030538E+02 -0.89834854087E+03  0.90713131147E+03  0.82365937741E+02 0.  0.
      -13    1    4    4    0    0 -0.64674610991E+02  0.16920649890E+02 -0.73365948666E+03  0.73669895892E+03  0.00000000000E+00 0.  1.
       14    1    4    4    0    0 -0.58548392700E+01  0.47099380648E+02 -0.22668003588E+03  0.23159548672E+03  0.00000000000E+00 0. -1.
        3    1    5    5  501    0  0.56918109978E+02 -0.74905716808E+02 -0.85848297632E+03  0.86362234702E+03  0.00000000000E+00 0. -1.
       -4    1    5    5    0  501  0.13611340284E+02  0.10885686270E+02 -0.39865564550E+02  0.43508964441E+02  0.00000000000E+00 0.  1.
</event>
<event>
 9   1  0.7570500E-01  0.2499868E+03  0.7546771E-02  0.1113313E+00
       21   -1    0    0  503  502  0.00000000000E+00  0.00000000000E+00  0.14860256335E+04  0.14860256335E+04  0.00000000000E+00 0.  1.
       21   -1    0    0  502  503 -0.00000000000E+00 -0.00000000000E+00 -0.10513515815E+02  0.10513515815E+02  0.00000000000E+00 0.  1.
       25    2    1    2    0    0 -0.71054273576E-14  0.00000000000E+00  0.14755121177E+04  0.14965391493E+04  0.24998683165E+03 0.  0.
       24    2    3    3    0    0 -0.34259122760E+02 -0.12040534472E+02  0.12831431834E+04  0.12861239630E+04  0.79622592246E+02 0.  0.
      -24    2    3    3    0    0  0.34259122760E+02  0.12040534472E+02  0.19236893427E+03  0.21041518627E+03  0.77136773208E+02 0.  0.
      -13    1    4    4    0    0 -0.44123060132E+02 -0.80991115266E+01  0.34304457569E+03  0.34596534646E+03  0.00000000000E+00 0.  1.
       14    1    4    4    0    0  0.98639373727E+01 -0.39414229455E+01  0.94009860773E+03  0.94015861658E+03  0.00000000000E+00 0. -1.
        3    1    5    5  501    0 -0.24115265115E+02  0.17324364641E+01  0.37814326314E+02  0.44882854436E+02  0.00000000000E+00 0. -1.
       -4    1    5    5    0  501  0.58374387875E+02  0.10308098008E+02  0.15455460795E+03  0.16553233184E+03  0.00000000000E+00 0.  1.
</event>
<event>
 9   1  0.7570500E-01  0.2500026E+03  0.7546771E-02  0.1113303E+00
       21   -1    0    0  503  502  0.00000000000E+00  0.00000000000E+00  0.77021157465E+02  0.77021157465E+02  0.00000000000E+00 0. -1.
       21   -1    0    0  502  503 -0.00000000000E+00 -0.00000000000E+00 -0.20287059938E+03  0.20287059938E+03  0.00000000000E+00 0. -1.
       25    2    1    2    0    0 -0.53290705182E-14 -0.14210854715E-13 -0.12584944191E+03  0.27989175684E+03  0.25000262702E+03 0.  0.
       24    2    3    3    0    0  0.15623393339E+02  0.74135049838E+02  0.39051316226E+00  0.11081477990E+03  0.80868207039E+02 0.  0.
      -24    2    3    3    0    0 -0.15623393339E+02 -0.74135049838E+02 -0.12623995507E+03  0.16907697694E+03  0.83128826774E+02 0.  0.
      -13    1    4    4    0    0  0.44488072765E+02  0.47293574168E+02 -0.17914119679E+02  0.67355671326E+02  0.00000000000E+00 0.  1.
       14    1    4    4    0    0 -0.28864679426E+02  0.26841475670E+02  0.18304632841E+02  0.43459108573E+02  0.00000000000E+00 0. -1.
        3    1    5    5  501    0 -0.12503940255E+02 -0.30855607498E+02  0.23377275667E+01  0.33374870879E+02  0.00000000000E+00 0. -1.
       -4    1    5    5    0  501 -0.31194530841E+01 -0.43279442340E+02 -0.12857768264E+03  0.13570210606E+03  0.00000000000E+00 0.  1.
</event>
<event>
 9   1  0.7570500E-01  0.2500023E+03  0.7546771E-02  0.1113303E+00
       21   -1    0    0  503  502  0.00000000000E+00  0.00000000000E+00  0.42378742145E+03  0.42378742145E+03  0.00000000000E+00 0. -1.
       21   -1    0    0  502  503 -0.00000000000E+00 -0.00000000000E+00 -0.36870567069E+02  0.36870567069E+02  0.00000000000E+00 0. -1.
       25    2    1    2    0    0  0.00000000000E+00  0.17763568394E-14  0.38691685438E+03  0.46065798852E+03  0.25000226036E+03 0.  0.
       24    2    3    3    0    0  0.85191625979E+02 -0.22356203361E+01  0.27473402554E+03  0.29851479438E+03  0.79810316012E+02 0.  0.
      -24    2    3    3    0    0 -0.85191625979E+02  0.22356203361E+01  0.11218282885E+03  0.16214319414E+03  0.80267161298E+02 0.  0.
      -13    1    4    4    0    0 -0.38084307203E+01  0.23182679860E+02  0.69810025971E+02  0.73657182379E+02  0.00000000000E+00 0.  1.
       14    1    4    4    0    0  0.89000056699E+02 -0.25418300196E+02  0.20492399956E+03  0.22485761200E+03  0.00000000000E+00 0. -1.
        3    1    5    5  501    0 -0.26013221574E+02  0.17556893077E+02  0.92879226811E+02  0.98038170955E+02  0.00000000000E+00 0. -1.
       -4    1    5    5    0  501 -0.59178404404E+02 -0.15321272740E+02  0.19303602039E+02  0.64105023188E+02  0.00000000000E+00 0.  1.
</event>
<event>
 9   1  0.7570500E-01  0.2499959E+03  0.7546771E-02  0.1113307E+00
       21   -1    0    0  503  502  0.00000000000E+00  0.00000000000E+00  0.16272543973E+04  0.16272543973E+04  0.00000000000E+00 0.  1.
       21   -1    0    0  502  503 -0.00000000000E+00 -0.00000000000E+00 -0.96017507359E+01  0.96017507359E+01  0.00000000000E+00 0.  1.
       25    2    1    2    0    0 -0.17763568394E-14 -0.88817841970E-15  0.16176526466E+04  0.16368561481E+04  0.24999592882E+03 0.  0.
       24    2    3    3    0    0  0.29785607917E+01  0.76149207455E+01  0.18376572642E+03  0.20063962972E+03  0.80122156512E+02 0.  0.
      -24    2    3    3    0    0 -0.29785607917E+01 -0.76149207455E+01  0.14338869202E+04  0.14362165183E+04  0.81359258170E+02 0.  0.
      -13    1    4    4    0    0  0.15793678291E+02 -0.32369024666E+02  0.11018478949E+03  0.11592187829E+03  0.00000000000E+00 0.  1.
       14    1    4    4    0    0 -0.12815117500E+02  0.39983945411E+02  0.73580936939E+02  0.84717751434E+02  0.00000000000E+00 0. -1.
        1    1    5    5  501    0  0.27875764173E+02  0.41535752233E+01  0.11605348228E+04  0.11608769898E+04  0.00000000000E+00 0. -1.
       -2    1    5    5    0  501 -0.30854324965E+02 -0.11768495969E+02  0.27335209733E+03  0.27533952855E+03  0.00000000000E+00 0.  1.
</event>
<event>
 9   1  0.7570500E-01  0.2500005E+03  0.7546771E-02  0.1113305E+00
       21   -1    0    0  503  502  0.00000000000E+00  0.00000000000E+00  0.19592232264E+03  0.19592232264E+03  0.00000000000E+00 0. -1.
       21   -1    0    0  502  503 -0.00000000000E+00 -0.00000000000E+00 -0.79751304267E+02  0.79751304267E+02  0.00000000000E+00 0. -1.
       25    2    1    2    0    0  0.00000000000E+00 -0.71054273576E-14  0.11617101837E+03  0.27567362691E+03  0.25000048612E+03 0.  0.
       24    2    3    3    0    0  0.33133270739E+02 -0.48369600353E+02 -0.25779700505E+02  0.10195493370E+03  0.79327067762E+02 0.  0.
      -24    2    3    3    0    0 -0.33133270739E+02  0.48369600353E+02  0.14195071888E+03  0.17371869321E+03  0.81183409089E+02 0.  0.
      -13    1    4    4    0    0  0.50304009874E+01  0.11593439923E+02  0.18419195995E+02  0.22337850489E+02  0.00000000000E+00 0.  1.
       14    1    4    4    0    0  0.28102869751E+02 -0.59963040276E+02 -0.44198896500E+02  0.79617083212E+02  0.00000000000E+00 0. -1.
        3    1    5    5  501    0 -0.14710483463E+02  0.52618589485E+02  0.14464632807E+03  0.15462106747E+03  0.00000000000E+00 0. -1.
       -4    1    5    5    0  501 -0.18422787275E+02 -0.42489891318E+01 -0.26956091930E+01  0.19097625731E+02  0.00000000000E+00 0.  1.
</event>
<event>
 9   1  0.7570500E-01  0.2499972E+03  0.7546771E-02  0.1113307E+00
       21   -1    0    0  503  502  0.00000000000E+00  0.00000000000E+00  0.29079493407E+02  0.29079493407E+02  0.00000000000E+00 0. -1.
       21   -1    0    0  502  503 -0.00000000000E+00 -0.00000000000E+00 -0.53730815714E+03  0.53730815714E+03  0.00000000000E+00 0. -1.
       25    2    1    2    0    0  0.00000000000E+00  0.00000000000E+00 -0.50822866373E+03  0.56638765055E+03  0.24999719209E+03 0.  0.
       24    2    3    3    0    0  0.68401796398E+02 -0.17123656986E+02 -0.11457259610E+03  0.15851726997E+03  0.83838056530E+02 0.  0.
      -24    2    3    3    0    0 -0.68401796398E+02  0.17123656986E+02 -0.39365606763E+03  0.40787038058E+03  0.80131906181E+02 0.  0.
      -13    1    4    4    0    0  0.42324016679E+02  0.32538199227E+02 -0.58706157296E+02  0.79350297423E+02  0.00000000000E+00 0.  1.
       14    1    4    4    0    0  0.26077779718E+02 -0.49661856213E+02 -0.55866438804E+02  0.79166972547E+02  0.00000000000E+00 0. -1.
        3    1    5    5  501    0 -0.59144295658E+02 -0.76660271760E+01 -0.13161738334E+03  0.14449896636E+03  0.00000000000E+00 0. -1.
       -4    1    5    5    0  501 -0.92575007396E+01  0.24789684162E+02 -0.26203868429E+03  0.26337141422E+03  0.00000000000E+00 0.  1.
</event>
<event>
 9   1  0.7570500E-01  0.2499940E+03  0.7546771E-02  0.1113309E+00
       21   -1    0    0  503  502  0.00000000000E+00  0.00000000000E+00  0.47942222978E+03  0.47942222978E+03  0.00000000000E+00 0.  1.
       21   -1    0    0  502  503 -0.00000000000E+00 -0.00000000000E+00 -0.32589761054E+02  0.32589761054E+02  0.00000000000E+00 0.  1.
       25    2    1    2    0    0  0.00000000000E+00  0.00000000000E+00  0.44683246873E+03  0.51201199083E+03  0.24999404723E+03 0.  0.
       24    2    3    3    0    0  0.66205199363E+02  0.49802730493E+02  0.31182657595E+03  0.33278744676E+03  0.81536684182E+02 0.  0.
      -24    2    3    3    0    0 -0.66205199363E+02 -0.49802730493E+02  0.13500589277E+03  0.17922454407E+03  0.83853477719E+02 0.  0.
      -13    1    4    4    0    0 -0.13402475141E+02  0.58293630014E+01  0.11547981306E+03  0.11640100960E+03  0.00000000000E+00 0.  1.
       14    1    4    4    0    0  0.79607674503E+02  0.43973367492E+02  0.19634676289E+03  0.21638643716E+03  0.00000000000E+00 0. -1.
        1    1    5    5  501    0 -0.83280805505E+01 -0.21681053571E+01  0.92804400648E+02  0.93202544955E+02  0.00000000000E+00 0. -1.
       -2    1    5    5    0  501 -0.57877118812E+02 -0.47634625136E+02  0.42201492127E+02  0.86021999114E+02  0.00000000000E+00 0.  1.
</event>
<event>
 9   1  0.7570500E-01  0.2500018E+03  0.7546771E-02  0.1113304E+00
       21   -1    0    0  503  502  0.00000000000E+00  0.00000000000E+00  0.93586305353E+02  0.93586305353E+02  0.00000000000E+00 0. -1.
       21   -1    0    0  502  503 -0.00000000000E+00 -0.00000000000E+00 -0.16696053425E+03  0.16696053425E+03  0.00000000000E+00 0. -1.
       25    2    1    2    0    0  0.14210854715E-13  0.00000000000E+00 -0.73374228901E+02  0.26054683961E+03  0.25000175632E+03 0.  0.
       24    2    3    3    0    0 -0.33247520411E+02  0.86195864474E+02 -0.62596914498E+02  0.13793885731E+03  0.81077925383E+02 0.  0.
      -24    2    3    3    0    0  0.33247520411E+02 -0.86195864474E+02 -0.10777314403E+02  0.12260798230E+03  0.79883929249E+02 0.  0.
      -13    1    4    4    0    0 -0.47941038241E+02  0.37337582832E+02 -0.62145947694E+02  0.86916954929E+02  0.00000000000E+00 0.  1.
       14    1    4    4    0    0  0.14693517830E+02  0.48858281642E+02 -0.45096680435E+00  0.51021902378E+02  0.00000000000E+00 0. -1.
        3    1    5    5  501    0 -0.11129551712E+02 -0.72797318157E+02  0.45513254217E+01  0.73783677160E+02  0.00000000000E+00 0. -1.
       -4    1    5    5    0  501  0.44377072123E+02 -0.13398546317E+02 -0.15328639825E+02  0.48824305141E+02  0.00000000000E+00 0.  1.
</event>
<event>
 9   1  0.7570500E-01  0.2499979E+03  0.7546771E-02  0.1113306E+00
       21   -1    0    0  503  502  0.00000000000E+00  0.00000000000E+00  0.36669275083E+02  0.36669275083E+02  0.00000000000E+00 0.  1.
       21   -1    0    0  502  503 -0.00000000000E+00 -0.00000000000E+00 -0.42609889015E+03  0.42609889015E+03  0.00000000000E+00 0.  1.
       25    2    1    2    0    0  0.00000000000E+00  0.35527136788E-14 -0.38942961506E+03  0.46276816523E+03  0.24999789931E+03 0.  0.
       24    2    3    3    0    0 -0.64080553683E+02 -0.19954469829E+02 -0.63291256598E+02  0.11949254524E+03  0.75948581159E+02 0.  0.
      -24    2    3    3    0    0  0.64080553683E+02  0.19954469829E+02 -0.32613835846E+03  0.34327561999E+03  0.83471097926E+02 0.  0.
      -13    1    4    4    0    0 -0.50032356740E+02  0.97008893432E+01 -0.69411530956E+02  0.86112162931E+02  0.00000000000E+00 0.  1.
       14    1    4    4    0    0 -0.14048196943E+02 -0.29655359172E+02  0.61202743581E+01  0.33380382310E+02  0.00000000000E+00 0. -1.
        1    1    5    5  501    0  0.56295418639E+02 -0.18016105406E+02 -0.12291110027E+03  0.13638509003E+03  0.00000000000E+00 0. -1.
       -2    1    5    5    0  501  0.77851350437E+01  0.37970575235E+02 -0.20322725819E+03  0.20689052995E+03  0.00000000000E+00 0.  1.
</event>
<event>
 9   1  0.7570500E-01  0.2500048E+03  0.7546771E-02  0.1113302E+00
       21   -1    0    0  503  502  0.00000000000E+00  0.00000000000E+00  0.12617893608E+04  0.12617893608E+04  0.00000000000E+00 0. -1.
       21   -1    0    0  502  503 -0.00000000000E+00 -0.00000000000E+00 -0.12383679165E+02  0.12383679165E+02  0.00000000000E+00 0. -1.
       25    2    1    2    0    0  0.00000000000E+00  0.00000000000E+00  0.12494056817E+04  0.12741730400E+04  0.25000475690E+03 0.  0.
       24    2    3    3    0    0  0.93565547832E+02 -0.12453004540E+02  0.73122715507E+03  0.74122014196E+03  0.76187646497E+02 0.  0.
      -24    2    3    3    0    0 -0.93565547832E+02  0.12453004540E+02  0.51817852661E+03  0.53295289805E+03  0.81364716140E+02 0.  0.
      -13    1    4    4    0    0  0.72912631151E+02  0.22275440667E+02  0.56663856616E+03  0.57174444615E+03  0.00000000000E+00 0.  1.
       14    1    4    4    0    0  0.20652916681E+02 -0.34728445207E+02  0.16458858891E+03  0.16947569581E+03  0.00000000000E+00 0. -1.
        3    1    5    5  501    0 -0.21973052354E+02  0.18355294627E+02  0.33455767268E+03  0.33578053580E+03  0.00000000000E+00 0. -1.
       -4    1    5    5    0  501 -0.71592495478E+02 -0.59022900868E+01  0.18362085393E+03  0.19717236225E+03  0.00000000000E+00 0.  1.
</event>
<event>
 9   1  0.7570500E-01  0.2499995E+03  0.7546771E-02  0.1113305E+00
       21   -1    0    0  503  502  0.00000000000E+00  0.00000000000E+00  0.43269885502E+03  0.43269885502E+03  0.00000000000E+00 0.  1.
       21   -1    0    0  502  503 -0.00000000000E+00 -0.00000000000E+00 -0.36110426909E+02  0.36110426909E+02  0.00000000000E+00 0.  1.
       25    2    1    2    0    0 -0.14210854715E-13 -0.71054273576E-14  0.39658842811E+03  0.46880928193E+03  0.24999952302E+03 0.  0.
       24    2    3    3    0    0 -0.49010780270E+02  0.49528684319E+02  0.73692985976E+02  0.12902590305E+03  0.79761396189E+02 0.  0.
      -24    2    3    3    0    0  0.49010780270E+02 -0.49528684319E+02  0.32289544214E+03  0.33978337889E+03  0.79599816961E+02 0.  0.
      -13    1    4    4    0    0  0.10379351812E+02  0.15063898095E+02  0.54851909972E+02  0.57822002710E+02  0.00000000000E+00 0.  1.
       14    1    4    4    0    0 -0.59390132082E+02  0.34464786224E+02  0.18841076004E+02  0.71203900337E+02  0.00000000000E+00 0. -1.
        1    1    5    5  501    0  0.66324257281E+02 -0.16347115621E+02  0.21368866068E+03  0.22434121110E+03  0.00000000000E+00 0. -1.
       -2    1    5    5    0  501 -0.17313477010E+02 -0.33181568698E+02  0.10920678146E+03  0.11544216779E+03  0.00000000000E+00 0.  1.
</event>
<event>
 9   1  0.7570500E-01  0.2500009E+03  0.7546771E-02  0.1113304E+00
       21   -1    0    0  503  502  0.00000000000E+00  0.00000000000E+00  0.32480223022E+03  0.32480223022E+03  0.00000000000E+00 0.  1.
       21   -1    0    0  502  503 -0.00000000000E+00 -0.00000000000E+00 -0.48106527083E+02  0.48106527083E+02  0.00000000000E+00 0.  1.
       25    2    1    2    0    0  0.00000000000E+00 -0.35527136788E-14  0.27669570314E+03  0.37290875731E+03  0.25000085828E+03 0.  0.
       24    2    3    3    0    0  0.74222430158E+02  0.18690523284E+02  0.21773396510E+03  0.24688711370E+03  0.87674754357E+02 0.  0.
      -24    2    3    3    0    0 -0.74222430158E+02 -0.18690523284E+02  0.58961738040E+02  0.12602164361E+03  0.80911453494E+02 0.  0.
      -13    1    4    4    0    0  0.13515671570E+02  0.32467943354E+02  0.21977375161E+02  0.41471022927E+02  0.00000000000E+00 0.  1.
       14    1    4    4    0    0  0.60706758588E+02 -0.13777420070E+02  0.19575658994E+03  0.20541609077E+03  0.00000000000E+00 0. -1.
        1    1    5    5  501    0 -0.12015601891E+02 -0.13509753757E+02 -0.18947682734E+02  0.26189746398E+02  0.00000000000E+00 0. -1.
       -2    1    5    5    0  501 -0.62206828267E+02 -0.51807695265E+01  0.77909420774E+02  0.99831897214E+02  0.00000000000E+00 0.  1.
</event>
<event>
 9   1  0.7570500E-01  0.2499984E+03  0.7546771E-02  0.1113306E+00
       21   -1    0    0  503  502  0.00000000000E+00  0.00000000000E+00  0.39902401638E+03  0.39902401638E+03  0.00000000000E+00 0. -1.
       21   -1    0    0  502  503 -0.00000000000E+00 -0.00000000000E+00 -0.39157536322E+02  0.39157536322E+02  0.00000000000E+00 0. -1.
       25    2    1    2    0    0  0.00000000000E+00  0.00000000000E+00  0.35986648006E+03  0.43818155270E+03  0.24999837931E+03 0.  0.
       24    2    3    3    0    0  0.33235081983E+02 -0.86910510950E+02  0.20159781535E+03  0.23775349114E+03  0.85011974493E+02 0.  0.
      -24    2    3    3    0    0 -0.33235081983E+02  0.86910510950E+02  0.15826866471E+03  0.20042806156E+03  0.80401679367E+02 0.  0.
      -13    1    4    4    0    0 -0.75602307193E+00 -0.60067244387E+02  0.44404012610E+02  0.74701818954E+02  0.00000000000E+00 0.  1.
       14    1    4    4    0    0  0.33991105055E+02 -0.26843266563E+02  0.15719380274E+03  0.16305167219E+03  0.00000000000E+00 0. -1.
        3    1    5    5  501    0 -0.14395879106E+02  0.97756326145E+01 -0.56459601733E+01  0.18294294043E+02  0.00000000000E+00 0. -1.
       -4    1    5    5    0  501 -0.18839202877E+02  0.77134878335E+02  0.16391462488E+03  0.18213376752E+03  0.00000000000E+00 0.  1.
</event>
<event>
 9   1  0.7570500E-01  0.2500020E+03  0.7546771E-02  0.1113304E+00
       21   -1    0    0  503  502  0.00000000000E+00  0.00000000000E+00  0.51664363320E+03  0.51664363320E+03  0.00000000000E+00 0.  1.
       21   -1    0    0  502  503 -0.00000000000E+00 -0.00000000000E+00 -0.30243775045E+02  0.30243775045E+02  0.00000000000E+00 0.  1.
       25    2    1    2    0    0  0.00000000000E+00 -0.71054273576E-14  0.48639985815E+03  0.54688740824E+03  0.25000203056E+03 0.  0.
       24    2    3    3    0    0 -0.34288871241E+02  0.46635266646E+02  0.41155165983E+03  0.42340065723E+03  0.80887409656E+02 0.  0.
      -24    2    3    3    0    0  0.34288871241E+02 -0.46635266646E+02  0.74848198316E+02  0.12348675101E+03  0.79348283528E+02 0.  0.
      -13    1    4    4    0    0 -0.38126467195E+02 -0.10901012609E+02  0.12629637710E+03  0.13237535437E+03  0.00000000000E+00 0.  1.
       14    1    4    4    0    0  0.38375959534E+01  0.57536279254E+02  0.28525528273E+03  0.29102530285E+03  0.00000000000E+00 0. -1.
        3    1    5    5  501    0  0.31444907124E+02 -0.44002675662E+02  0.58714370213E+01  0.54401207911E+02  0.00000000000E+00 0. -1.
       -4    1    5    5    0  501  0.28439641172E+01 -0.26325909831E+01  0.68976761295E+02  0.69085543104E+02  0.00000000000E+00 0.  1.
</event>
<event>
 9   1  0.7570500E-01  0.2499949E+03  0.7546771E-02  0.1113308E+00
       21   -1    0    0  503  502  0.00000000000E+00  0.00000000000E+00  0.27702396355E+02  0.27702396355E+02  0.00000000000E+00 0. -1.
       21   -1    0    0  502  503 -0.00000000000E+00 -0.00000000000E+00 -0.56400766489E+03  0.56400766489E+03  0.00000000000E+00 0. -1.
       25    2    1    2    0    0  0.00000000000E+00  0.00000000000E+00 -0.53630526854E+03  0.59171006125E+03  0.24999491099E+03 0.  0.
       24    2    3    3    0    0 -0.83703614779E+02  0.14282214545E+02 -0.37029358117E+03  0.38780428734E+03  0.77875235124E+02 0.  0.
      -24    2    3    3    0    0  0.83703614779E+02 -0.14282214545E+02 -0.16601168737E+03  0.20390577391E+03  0.82507014917E+02 0.  0.
      -13    1    4    4    0    0  0.51478021395E+01  0.71987861497E+01 -0.14860005257E+03  0.14886335349E+03  0.00000000000E+00 0.  1.
       14    1    4    4    0    0 -0.88851416918E+02  0.70834283953E+01 -0.22169352860E+03  0.23894093385E+03  0.00000000000E+00 0. -1.
        3    1    5    5  501    0  0.94886342151E+02  0.61624945323E+01 -0.13245698549E+03  0.16305289715E+03  0.00000000000E+00 0. -1.
       -4    1    5    5    0  501 -0.11182727373E+02 -0.20444709077E+02 -0.33554701879E+02  0.40852876752E+02  0.00000000000E+00 0.  1.
</event>
<event>
 9   1  0.7570500E-01  0.2500025E+03  0.7546771E-02  0.1113303E+00
       21   -1    0    0  503  502  0.00000000000E+00  0.00000000000E+00  0.33682350608E+02  0.33682350608E+02  0.00000000000E+00 0. -1.
       21   -1    0    0  502  503 -0.00000000000E+00 -0.00000000000E+00 -0.46390215028E+03  0.46390215028E+03  0.00000000000E+00 0. -1.
       25    2    1    2    0    0  0.14210854715E-13  0.35527136788E-14 -0.43021979967E+03  0.49758450089E+03  0.25000251898E+03 0.  0.
       24    2    3    3    0    0 -0.94456391424E+02 -0.11862222406E+02 -0.23009855918E+03  0.26157470036E+03  0.80082799231E+02 0.  0.
      -24    2    3    3    0    0  0.94456391424E+02  0.11862222406E+02 -0.20012124049E+03  0.23600980052E+03  0.81175075275E+02 0.  0.
      -13    1    4    4    0    0 -0.32870079574E+02  0.17258591442E+02 -0.23269227489E+02  0.43815043737E+02  0.00000000000E+00 0.  1.
       14    1    4    4    0    0 -0.61586311850E+02 -0.29120813848E+02 -0.20682933169E+03  0.21775965663E+03  0.00000000000E+00 0. -1.
        1    1    5    5  501    0  0.98243080020E+02  0.32851284426E+02 -0.16084984625E+03  0.19132062800E+03  0.00000000000E+00 0. -1.
       -2    1    5    5    0  501 -0.37866885956E+01 -0.20989062020E+02 -0.39271394248E+02  0.44689172527E+02  0.00000000000E+00 0.  1.
</event>
<event>
 9   1  0.7570500E-01  0.2499961E+03  0.7546771E-02  0.1113307E+00
       21   -1    0    0  503  502  0.00000000000E+00  0.00000000000E+00  0.21379319138E+03  0.21379319138E+03  0.00000000000E+00 0. -1.
       21   -1    0    0  502  503 -0.00000000000E+00 -0.00000000000E+00 -0.73082382788E+02  0.73082382788E+02  0.00000000000E+00 0. -1.
       25    2    1    2    0    0  0.00000000000E+00 -0.35527136788E-14  0.14071080859E+03  0.28687557417E+03  0.24999612677E+03 0.  0.
       24    2    3    3    0    0 -0.90506821007E+02 -0.19101468595E+02  0.10850249976E+03  0.16099818981E+03  0.74774821400E+02 0.  0.
      -24    2    3    3    0    0  0.90506821007E+02  0.19101468595E+02  0.32208308832E+02  0.12587738436E+03  0.79065732047E+02 0.  0.
      -13    1    4    4    0    0 -0.43505572632E+02  0.66407868408E+01  0.96528649261E+02  0.10608777040E+03  0.00000000000E+00 0.  1.
       14    1    4    4    0    0 -0.47001248375E+02 -0.25742255436E+02  0.11973850497E+02  0.54910419407E+02  0.00000000000E+00 0. -1.
        1    1    5    5  501    0  0.38735147417E+02  0.25720411552E+02 -0.21287719894E+02  0.51138226740E+02  0.00000000000E+00 0. -1.
       -2    1    5    5    0  501  0.51771673591E+02 -0.66189429573E+01  0.53496028726E+02  0.74739157620E+02  0.00000000000E+00 0.  1.
</event>
<event>
 9   1  0.7570500E-01  0.2500001E+03  0.7546771E-02  0.1113305E+00
       21   -1    0    0  503  502  0.00000000000E+00  0.00000000000E+00  0.29176942336E+03  0.29176942336E+03  0.00000000000E+00 0.  1.
       21   -1    0    0  502  503 -0.00000000000E+00 -0.00000000000E+00 -0.53552598868E+02  0.53552598868E+02  0.00000000000E+00 0.  1.
       25    2    1    2    0    0  0.00000000000E+00  0.00000000000E+00  0.23821682449E+03  0.34532202223E+03  0.25000008713E+03 0.  0.
       24    2    3    3    0    0  0.63609778257E+02  0.67626828965E+02  0.83515379877E+02  0.14836202871E+03  0.80105436778E+02 0.  0.
      -24    2    3    3    0    0 -0.63609778257E+02 -0.67626828965E+02  0.15470144462E+03  0.19695999352E+03  0.79000697433E+02 0.  0.
      -13    1    4    4    0    0  0.16747205981E+02  0.57985630798E+02  0.80240703573E+02  0.10040603964E+03  0.00000000000E+00 0.  1.
       14    1    4    4    0    0  0.46862572276E+02  0.96411981673E+01  0.32746763042E+01  0.47955989066E+02  0.00000000000E+00 0. -1.
        1    1    5    5  501    0 -0.29329021746E+02  0.12254896588E+02  0.23313898869E+02  0.39419689083E+02  0.00000000000E+00 0. -1.
       -2    1    5    5    0  501 -0.34280756511E+02 -0.79881725553E+02  0.13138754575E+03  0.15754030444E+03  0.00000000000E+00 0.  1.
</event>
<event>
 9   1  0.7570500E-01  0.2499979E+03  0.7546771E-02  0.1113306E+00
       21   -1    0    0  503  502  0.00000000000E+00  0.00000000000E+00  0.44664142205E+02  0.44664142205E+02  0.00000000000E+00 0. -1.
       21   -1    0    0  502  503 -0.00000000000E+00 -0.00000000000E+00 -0.34982736246E+03  0.34982736246E+03  0.00000000000E+00 0. -1.
       25    2    1    2    0    0  0.00000000000E+00  0.00000000000E+00 -0.30516322026E+03  0.39449150467E+03  0.24999791250E+03 0.  0.
       24    2    3    3    0    0 -0.25606203882E+02  0.89214089920E+02 -0.18316895889E+03  0.22066956888E+03  0.80804452921E+02 0.  0.
      -24    2    3    3    0    0  0.25606203882E+02 -0.89214089920E+02 -0.12199426137E+03  0.17382193579E+03  0.81955073281E+02 0.  0.
      -13    1    4    4    0    0 -0.24233243400E+02  0.65029716359E+02 -0.50551090650E+02  0.85857596410E+02  0.00000000000E+00 0.  1.
       14    1    4    4    0    0 -0.13729604818E+01  0.24184373561E+02 -0.13261786824E+03  0.13481197247E+03  0.00000000000E+00 0. -1.
        1    1    5    5  501    0  0.30286446927E+02 -0.72896963958E+02 -0.37054353439E+02  0.87202415853E+02  0.00000000000E+00 0. -1.
       -2    1    5    5    0  501 -0.46802430454E+01 -0.16317125962E+02 -0.84939907929E+02  0.86619519934E+02  0.00000000000E+00 0.  1.
</event>
<event>
 9   1  0.7570500E-01  0.2499725E+03  0.7546771E-02  0.1113322E+00
       21   -1    0    0  503  502  0.00000000000E+00  0.00000000000E+00  0.12510704932E+02  0.12510704932E+02  0.00000000000E+00 0.  1.
       21   -1    0    0  502  503 -0.00000000000E+00 -0.00000000000E+00 -0.12486561225E+04  0.12486561225E+04  0.00000000000E+00 0.  1.
       25    2    1    2    0    0  0.35527136788E-14 -0.35527136788E-14 -0.12361454176E+04  0.12611668275E+04  0.24997254497E+03 0.  0.
       24    2    3    3    0    0 -0.11910746551E+02  0.17250779432E+02 -0.14890468613E+03  0.17094477405E+03  0.81302244432E+02 0.  0.
      -24    2    3    3    0    0  0.11910746551E+02 -0.17250779432E+02 -0.10872407315E+04  0.10902220534E+04  0.77796287201E+02 0.  0.
      -13    1    4    4    0    0  0.10844196544E+02 -0.27277814940E+02 -0.30094153292E+02  0.42039669943E+02  0.00000000000E+00 0.  1.
       14    1    4    4    0    0 -0.22754943095E+02  0.44528594372E+02 -0.11881053283E+03  0.12890510410E+03  0.00000000000E+00 0. -1.
        1    1    5    5  501    0 -0.26708628341E+02 -0.17872755803E+02 -0.76500882359E+03  0.76568354194E+03  0.00000000000E+00 0. -1.
       -2    1    5    5    0  501  0.38619374892E+02  0.62197637101E+00 -0.32223190789E+03  0.32453851148E+03  0.00000000000E+00 0.  1.
</event>
<event>
 9   1  0.7570500E-01  0.2500011E+03  0.7546771E-02  0.1113304E+00
       21   -1    0    0  503  502  0.00000000000E+00  0.00000000000E+00  0.23584187718E+03  0.23584187718E+03  0.00000000000E+00 0.  1.
       21   -1    0    0  502  503 -0.00000000000E+00 -0.00000000000E+00 -0.66252602564E+02  0.66252602564E+02  0.00000000000E+00 0.  1.
       25    2    1    2    0    0  0.00000000000E+00  0.00000000000E+00  0.16958927462E+03  0.30209447975E+03  0.25000110525E+03 0.  0.
       24    2    3    3    0    0 -0.73466502796E+01 -0.67200308518E+02  0.17172480916E+03  0.20221700667E+03  0.82658653347E+02 0.  0.
      -24    2    3    3    0    0  0.73466502796E+01  0.67200308518E+02 -0.21355345368E+01  0.99877473074E+02  0.73492138251E+02 0.  0.
      -13    1    4    4    0    0  0.20501256038E+02  0.11247223676E+02  0.33302919380E+02  0.40692578915E+02  0.00000000000E+00 0.  1.
       14    1    4    4    0    0 -0.27847906317E+02 -0.78447532194E+02  0.13842188978E+03  0.16152442776E+03  0.00000000000E+00 0. -1.
        3    1    5    5  501    0 -0.46335714007E+01  0.58449965776E+02  0.28981467066E+02  0.65404846276E+02  0.00000000000E+00 0. -1.
       -4    1    5    5    0  501  0.11980221680E+02  0.87503427425E+01 -0.31117001603E+02  0.34472626798E+02  0.00000000000E+00 0.  1.
</event>
<event>
 9   1  0.7570500E-01  0.2500021E+03  0.7546771E-02  0.1113303E+00
       21   -1    0    0  503  502  0.00000000000E+00  0.00000000000E+00  0.18715842883E+02  0.18715842883E+02  0.00000000000E+00 0. -1.
       21   -1    0    0  502  503 -0.00000000000E+00 -0.00000000000E+00 -0.83486852546E+03  0.83486852546E+03  0.00000000000E+00 0. -1.
       25    2    1    2    0    0  0.00000000000E+00 -0.17763568394E-14 -0.81615268257E+03  0.85358436834E+03  0.25000214519E+03 0.  0.
       24    2    3    3    0    0  0.75257560169E+02 -0.12408111520E+02 -0.20387081622E+03  0.23180342118E+03  0.79698524271E+02 0.  0.
      -24    2    3    3    0    0 -0.75257560169E+02  0.12408111520E+02 -0.61228186635E+03  0.62178094716E+03  0.76842701607E+02 0.  0.
      -13    1    4    4    0    0  0.48670036475E+02 -0.42275181631E+02 -0.15970326393E+03  0.17222397029E+03  0.00000000000E+00 0.  1.
       14    1    4    4    0    0  0.26587523694E+02  0.29867070110E+02 -0.44167552286E+02  0.59579450888E+02  0.00000000000E+00 0. -1.
        3    1    5    5  501    0 -0.52778918014E+02 -0.52583846202E+01 -0.15930627261E+03  0.16790400022E+03  0.00000000000E+00 0. -1.
       -4    1    5    5    0  501 -0.22478642154E+02  0.17666496141E+02 -0.45297559374E+03  0.45387694694E+03  0.00000000000E+00 0.  1.
</event>
<event>
 9   1  0.7570500E-01  0.2500005E+03  0.7546771E-02  0.1113304E+00
       21   -1    0    0  503  502  0.00000000000E+00  0.00000000000E+00  0.56294059125E+03  0.56294059125E+03  0.00000000000E+00 0. -1.
       21   -1    0    0  502  503 -0.00000000000E+00 -0.00000000000E+00 -0.27756151578E+02  0.27756151578E+02  0.00000000000E+00 0. -1.
       25    2    1    2    0    0 -0.71054273576E-14  0.00000000000E+00  0.53518443968E+03  0.59069674283E+03  0.25000051504E+03 0.  0.
       24    2    3    3    0    0 -0.32847093412E+02  0.42688198713E+02  0.78353406612E+02  0.12379190639E+03  0.79271469679E+02 0.  0.
      -24    2    3    3    0    0  0.32847093412E+02 -0.42688198713E+02  0.45683103306E+03  0.46690483644E+03  0.80026993369E+02 0.  0.
      -13    1    4    4    0    0  0.25217201909E+02  0.19473072089E+02  0.16681893828E+02  0.35963778867E+02  0.00000000000E+00 0.  1.
       14    1    4    4    0    0 -0.58064295321E+02  0.23215126624E+02  0.61671512784E+02  0.87828127524E+02  0.00000000000E+00 0. -1.
        1    1    5    5  501    0 -0.90119253427E+01 -0.39322380629E+02  0.34669716130E+03  0.34903636783E+03  0.00000000000E+00 0. -1.
       -2    1    5    5    0  501  0.41859018755E+02 -0.33658180841E+01  0.11013387176E+03  0.11786846861E+03  0.00000000000E+00 0.  1.
</event>
<event>
 9   1  0.7570500E-01  0.2500028E+03  0.7546771E-02  0.1113303E+00
       21   -1    0    0  503  502  0.00000000000E+00  0.00000000000E+00  0.69851230658E+02  0.69851230658E+02  0.00000000000E+00 0. -1.
       21   -1    0    0  502  503 -0.00000000000E+00 -0.00000000000E+00 -0.22369464019E+03  0.22369464019E+03  0.00000000000E+00 0. -1.
       25    2    1    2    0    0  0.00000000000E+00  0.00000000000E+00 -0.15384340954E+03  0.29354587085E+03  0.25000276726E+03 0.  0.
       24    2    3    3    0    0 -0.73202797591E+02 -0.58029608531E+02 -0.11156258444E+03  0.16549394202E+03  0.78841293483E+02 0.  0.
      -24    2    3    3    0    0  0.73202797591E+02  0.58029608531E+02 -0.42280825095E+02  0.12805192883E+03  0.76704258449E+02 0.  0.
      -13    1    4    4    0    0 -0.21665626395E+02 -0.30111128362E+02  0.25763160105E+01  0.37184900464E+02  0.00000000000E+00 0.  1.
       14    1    4    4    0    0 -0.51537171196E+02 -0.27918480169E+02 -0.11413890045E+03  0.12830904156E+03  0.00000000000E+00 0. -1.
        3    1    5    5  501    0  0.36370314252E+02 -0.18053607628E+00  0.14127815770E+02  0.39018297381E+02  0.00000000000E+00 0. -1.
       -4    1    5    5    0  501  0.36832483339E+02  0.58210144608E+02 -0.56408640865E+02  0.89033631446E+02  0.00000000000E+00 0.  1.
</event>
<event>
 9   1  0.7570500E-01  0.2499986E+03  0.7546771E-02  0.1113306E+00
       21   -1    0    0  503  502  0.00000000000E+00  0.00000000000E+00  0.36832971135E+02  0.36832971135E+02  0.00000000000E+00 0. -1.
       21   -1    0    0  502  503 -0.00000000000E+00 -0.00000000000E+00 -0.42420752487E+03  0.42420752487E+03  0.00000000000E+00 0. -1.
       25    2    1    2    0    0  0.71054273576E-14  0.00000000000E+00 -0.38737455373E+03  0.46104049600E+03  0.24999858814E+03 0.  0.
       24    2    3    3    0    0  0.30921457154E+02  0.48180717633E+02 -0.53906236479E+02  0.11337185389E+03  0.81668701829E+02 0.  0.
      -24    2    3    3    0    0 -0.30921457154E+02 -0.48180717633E+02 -0.33346831725E+03  0.34766864211E+03  0.79967793725E+02 0.  0.
      -13    1    4    4    0    0 -0.92502154295E+01  0.56577137906E+02 -0.40525519346E+02  0.70205816977E+02  0.00000000000E+00 0.  1.
       14    1    4    4    0    0  0.40171672584E+02 -0.83964202729E+01 -0.13380717133E+02  0.43166036910E+02  0.00000000000E+00 0. -1.
        1    1    5    5  501    0 -0.49484182624E+02 -0.40948761256E+01 -0.19273065725E+03  0.19902401509E+03  0.00000000000E+00 0. -1.
       -2    1    5    5    0  501  0.18562725470E+02 -0.44085841508E+02 -0.14073766001E+03  0.14864462702E+03  0.00000000000E+00 0.  1.
</event>
<event>
 9   1  0.7570500E-01  0.2499955E+03  0.7546771E-02  0.1113308E+00
       21   -1    0    0  503  502  0.00000000000E+00  0.00000000000E+00  0.76392421930E+01  0.76392421930E+01  0.00000000000E+00 0.  1.
       21   -1    0    0  502  503 -0.00000000000E+00 -0.00000000000E+00 -0.20452859976E+04  0.20452859976E+04  0.00000000000E+00 0.  1.
       25    2    1    2    0    0  0.00000000000E+00  0.88817841970E-15 -0.20376467554E+04  0.20529252398E+04  0.24999548067E+03 0.  0.
       24    2    3    3    0    0  0.88389508562E+02 -0.67809421872E+01 -0.13197982689E+04  0.13252988918E+04  0.81798505768E+02 0.  0.
      -24    2    3    3    0    0 -0.88389508562E+02  0.67809421872E+01 -0.71784848649E+03  0.72762634800E+03  0.79214685188E+02 0.  0.
      -13    1    4    4    0    0  0.36333171924E+02 -0.22326546013E+01 -0.10415828171E+04  0.10422187145E+04  0.00000000000E+00 0.  1.
       14    1    4    4    0    0  0.52056336637E+02 -0.45482875859E+01 -0.27821545182E+03  0.28308017722E+03  0.00000000000E+00 0. -1.
        3    1    5    5  501    0 -0.68306223204E+01  0.30401332213E+02 -0.27069095967E+03  0.27247842859E+03  0.00000000000E+00 0. -1.
       -4    1    5    5    0  501 -0.81558886242E+02 -0.23620390026E+02 -0.44715752682E+03  0.45514791940E+03  0.00000000000E+00 0.  1.
</event>
<event>
 9   1  0.7570500E-01  0.2500008E+03  0.7546771E-02  0.1113304E+00
       21   -1    0    0  503  502  0.00000000000E+00  0.00000000000E+00  0.53254054734E+02  0.53254054734E+02  0.00000000000E+00 0. -1.
       21   -1    0    0  502  503 -0.00000000000E+00 -0.00000000000E+00 -0.29340683071E+03  0.29340683071E+03  0.00000000000E+00 0. -1.
       25    2    1    2    0    0 -0.88817841970E-15  0.00000000000E+00 -0.24015277598E+03  0.34666088545E+03  0.25000082738E+03 0.  0.
       24    2    3    3    0    0  0.63782163030E+01 -0.90426315668E+02 -0.77852760559E+02  0.14395727884E+03  0.80281041315E+02 0.  0.
      -24    2    3    3    0    0 -0.63782163030E+01  0.90426315668E+02 -0.16230001542E+03  0.20270360661E+03  0.80807530089E+02 0.  0.
      -13    1    4    4    0    0  0.10749748029E+02 -0.87686127505E+02 -0.92811218399E+02  0.12813405597E+03  0.00000000000E+00 0.  1.
       14    1    4    4    0    0 -0.43715317257E+01 -0.27401881632E+01  0.14958457840E+02  0.15823222862E+02  0.00000000000E+00 0. -1.
        3    1    5    5  501    0 -0.22250497399E+02  0.32496118050E+02 -0.12714911530E+03  0.13310890219E+03  0.00000000000E+00 0. -1.
       -4    1    5    5    0  501  0.15872281096E+02  0.57930197618E+02 -0.35150900125E+02  0.69594704417E+02  0.00000000000E+00 0.  1.
</event>
<event>
 9   1  0.7570500E-01  0.2500039E+03  0.7546771E-02  0.1113302E+00
       21   -1    0    0  503  502  0.00000000000E+00  0.00000000000E+00  0.41783221815E+02  0.41783221815E+02  0.00000000000E+00 0.  1.
       21   -1    0    0  502  503 -0.00000000000E+00 -0.00000000000E+00 -0.37396566592E+03  0.37396566592E+03  0.00000000000E+00 0.  1.
       25    2    1    2    0    0  0.00000000000E+00  0.00000000000E+00 -0.33218244411E+03  0.41574888774E+03  0.25000392293E+03 0.  0.
       24    2    3    3    0    0 -0.43558831171E+02  0.48674206024E+02 -0.55876134608E+02  0.11978968655E+03  0.83431867289E+02 0.  0.
      -24    2    3    3    0    0  0.43558831171E+02 -0.48674206024E+02 -0.27630630950E+03  0.29595920119E+03  0.83547124397E+02 0.  0.
      -13    1    4    4    0    0 -0.20219799174E+02  0.64574821365E+02 -0.60982215380E+02  0.91091044705E+02  0.00000000000E+00 0.  1.
       14    1    4    4    0    0 -0.23339031997E+02 -0.15900615340E+02  0.51060807713E+01  0.28698641842E+02  0.00000000000E+00 0. -1.
        3    1    5    5  501    0 -0.10116104789E+02  0.16497073070E+02 -0.31147740912E+02  0.36669752656E+02  0.00000000000E+00 0. -1.
       -4    1    5    5    0  501  0.53674935960E+02 -0.65171279095E+02 -0.24515856859E+03  0.25928944853E+03  0.00000000000E+00 0.  1.
</event>
<event>
 9   1  0.7570500E-01  0.2500054E+03  0.7546771E-02  0.1113301E+00
       21   -1    0    0  503  502  0.00000000000E+00  0.00000000000E+00  0.22190933007E+02  0.22190933007E+02  0.00000000000E+00 0. -1.
       21   -1    0    0  502  503 -0.00000000000E+00 -0.00000000000E+00 -0.70414710443E+03  0.70414710443E+03  0.00000000000E+00 0. -1.
       25    2    1    2    0    0  0.00000000000E+00 -0.35527136788E-14 -0.68195617142E+03  0.72633803744E+03  0.25000544971E+03 0.  0.
       24    2    3    3    0    0  0.33854228856E+02  0.17346182962E+02 -0.10737191271E+03  0.14470354359E+03  0.89237822778E+02 0.  0.
      -24    2    3    3    0    0 -0.33854228856E+02 -0.17346182962E+02 -0.57458425872E+03  0.58163449385E+03  0.81881714657E+02 0.  0.
      -13    1    4    4    0    0  0.24262483843E+02  0.42944491391E+02 -0.20121051786E+02  0.53270575256E+02  0.00000000000E+00 0.  1.
       14    1    4    4    0    0  0.95917450129E+01 -0.25598308430E+02 -0.87250860921E+02  0.91432968333E+02  0.00000000000E+00 0. -1.
        3    1    5    5  501    0 -0.40625206638E+02  0.85816113476E+01 -0.51032777247E+03  0.51201414709E+03  0.00000000000E+00 0. -1.
       -4    1    5    5    0  501  0.67709777820E+01 -0.25927794309E+02 -0.64256486247E+02  0.69620346758E+02  0.00000000000E+00 0.  1.
</event>
<event>
 9   1  0.7570500E-01  0.2500915E+03  0.7546771E-02  0.1113247E+00
       21   -1    0    0  503  502  0.00000000000E+00  0.00000000000E+00  0.19782308348E+02  0.19782308348E+02  0.00000000000E+00 0.  1.
       21   -1    0    0  502  503 -0.00000000000E+00 -0.00000000000E+00 -0.79042515755E+03  0.79042515755E+03  0.00000000000E+00 0.  1.
       25    2    1    2    0    0  0.35527136788E-14 -0.14210854715E-13 -0.77064284920E+03  0.81020746590E+03  0.25009145681E+03 0.  0.
       24    2    3    3    0    0 -0.28723752714E+02  0.85534275351E+02 -0.27709360133E+03  0.30233953482E+03  0.80542933809E+02 0.  0.
      -24    2    3    3    0    0  0.28723752714E+02 -0.85534275351E+02 -0.49354924787E+03  0.50786793108E+03  0.78726165369E+02 0.  0.
      -13    1    4    4    0    0 -0.26247916578E+02 -0.60912139095E+01 -0.90870410789E+02  0.94781261695E+02  0.00000000000E+00 0.  1.
       14    1    4    4    0    0 -0.24758361366E+01  0.91625489261E+02 -0.18622319054E+03  0.20755827313E+03  0.00000000000E+00 0. -1.
        1    1    5    5  501    0  0.28055505090E+02 -0.69512476678E+02 -0.19535912340E+03  0.20924694234E+03  0.00000000000E+00 0. -1.
       -2    1    5    5    0  501  0.66824762443E+00 -0.16021798673E+02 -0.29819012447E+03  0.29862098874E+03  0.00000000000E+00 0.  1.
</event>
<event>
 9   1  0.7570500E-01  0.2500028E+03  0.7546771E-02  0.1113303E+00
       21   -1    0    0  503  502  0.00000000000E+00  0.00000000000E+00  0.34779722837E+03  0.34779722837E+03  0.00000000000E+00 0.  1.
       21   -1    0    0  502  503 -0.00000000000E+00 -0.00000000000E+00 -0.44926595984E+02  0.44926595984E+02  0.00000000000E+00 0.  1.
       25    2    1    2    0    0 -0.71054273576E-14  0.00000000000E+00  0.30287063239E+03  0.39272382435E+03  0.25000276449E+03 0.  0.
       24    2    3    3    0    0  0.58069842916E+02  0.36745897420E+02  0.25447038258E+03  0.27562426506E+03  0.80567935625E+02 0.  0.
      -24    2    3    3    0    0 -0.58069842916E+02 -0.36745897420E+02  0.48400249812E+02  0.11709955929E+03  0.81531312823E+02 0.  0.
      -13    1    4    4    0    0  0.61839573975E+02 -0.47266835625E+01  0.12359123487E+03  0.13827967235E+03  0.00000000000E+00 0.  1.
       14    1    4    4    0    0 -0.37697310586E+01  0.41472580983E+02  0.13087914770E+03  0.13734459272E+03  0.00000000000E+00 0. -1.
        1    1    5    5  501    0  0.61953200917E+01  0.69408369863E+01 -0.14429627143E+02  0.17168906447E+02  0.00000000000E+00 0. -1.
       -2    1    5    5    0  501 -0.64265163008E+02 -0.43686734406E+02  0.62829876955E+02  0.99930652843E+02  0.00000000000E+00 0.  1.
</event>
<event>
 9   1  0.7570500E-01  0.2499943E+03  0.7546771E-02  0.1113308E+00
       21   -1    0    0  503  502  0.00000000000E+00  0.00000000000E+00  0.13753792999E+03  0.13753792999E+03  0.00000000000E+00 0.  1.
       21   -1    0    0  502  503 -0.00000000000E+00 -0.00000000000E+00 -0.11359987595E+03  0.11359987595E+03  0.00000000000E+00 0.  1.
       25    2    1    2    0    0  0.00000000000E+00  0.71054273576E-14  0.23938054044E+02  0.25113780594E+03  0.24999433422E+03 0.  0.
       24    2    3    3    0    0  0.75558914637E+02  0.55939293918E+02 -0.28746503866E+01  0.12434425922E+03  0.81331894122E+02 0.  0.
      -24    2    3    3    0    0 -0.75558914637E+02 -0.55939293918E+02  0.26812704431E+02  0.12679354672E+03  0.80742356829E+02 0.  0.
      -13    1    4    4    0    0  0.36718547583E+02  0.29163363003E+02 -0.42080417054E+02  0.63004086992E+02  0.00000000000E+00 0.  1.
       14    1    4    4    0    0  0.38840367053E+02  0.26775930915E+02  0.39205766667E+02  0.61340172230E+02  0.00000000000E+00 0. -1.
        1    1    5    5  501    0 -0.11519070365E+02 -0.33416088541E+01 -0.25924851427E+02  0.28564895472E+02  0.00000000000E+00 0. -1.
       -2    1    5    5    0  501 -0.64039844272E+02 -0.52597685064E+02  0.52737555858E+02  0.98228651249E+02  0.00000000000E+00 0.  1.
</event>
<event>
 9   1  0.7570500E-01  0.2499982E+03  0.7546771E-02  0.1113306E+00
       21   -1    0    0  503  502  0.00000000000E+00  0.00000000000E+00  0.12147406527E+03  0.12147406527E+03  0.00000000000E+00 0.  1.
       21   -1    0    0  502  503 -0.00000000000E+00 -0.00000000000E+00 -0.12862637716E+03  0.12862637716E+03  0.00000000000E+00 0.  1.
       25    2    1    2    0    0  0.00000000000E+00 -0.88817841970E-15 -0.71523118912E+01  0.25010044243E+03  0.24999815147E+03 0.  0.
       24    2    3    3    0    0 -0.58258183588E+02  0.66204969869E+01 -0.80984304307E+02  0.12851826509E+03  0.80750479769E+02 0.  0.
      -24    2    3    3    0    0  0.58258183588E+02 -0.66204969869E+01  0.73831992416E+02  0.12158217734E+03  0.76767283446E+02 0.  0.
      -13    1    4    4    0    0 -0.37934986016E+02 -0.23999952765E+02 -0.63634235109E+01  0.45338218486E+02  0.00000000000E+00 0.  1.
       14    1    4    4    0    0 -0.20323197573E+02  0.30620449752E+02 -0.74620880796E+02  0.83180046606E+02  0.00000000000E+00 0. -1.
        1    1    5    5  501    0  0.30600900885E+02 -0.85352404669E+01 -0.99834695582E+01  0.33300677609E+02  0.00000000000E+00 0. -1.
       -2    1    5    5    0  501  0.27657282703E+02  0.19147434800E+01  0.83815461974E+02  0.88281499733E+02  0.00000000000E+00 0.  1.
</event>
<event>
 9   1  0.7570500E-01  0.2499999E+03  0.7546771E-02  0.1113305E+00
       21   -1    0    0  503  502  0.00000000000E+00  0.00000000000E+00  0.63442406755E+02  0.63442406755E+02  0.00000000000E+00 0.  1.
       21   -1    0    0  502  503 -0.00000000000E+00 -0.00000000000E+00 -0.24628622023E+03  0.24628622023E+03  0.00000000000E+00 0.  1.
       25    2    1    2    0    0 -0.14210854715E-13  0.00000000000E+00 -0.18284381347E+03  0.30972862698E+03  0.24999992449E+03 0.  0.
       24    2    3    3    0    0 -0.56754891787E+02 -0.20516117509E+02 -0.18764620158E+03  0.21283512076E+03  0.80284885515E+02 0.  0.
      -24    2    3    3    0    0  0.56754891787E+02  0.20516117509E+02  0.48023881117E+01  0.96893506219E+02  0.75652229289E+02 0.  0.
      -13    1    4    4    0    0 -0.98133552837E+01 -0.12053233773E+02 -0.15323109011E+03  0.15401736708E+03  0.00000000000E+00 0.  1.
       14    1    4    4    0    0 -0.46941536503E+02 -0.84628837357E+01 -0.34415111472E+02  0.58817753681E+02  0.00000000000E+00 0. -1.
        3    1    5    5  501    0  0.48983605426E+02 -0.36684263878E+01  0.32818706941E+02  0.59075531974E+02  0.00000000000E+00 0. -1.
       -4    1    5    5    0  501  0.77712863609E+01  0.24184543897E+02 -0.28016318830E+02  0.37817974245E+02  0.00000000000E+00 0.  1.
</event>
<event>
 9   1  0.7570500E-01  0.2499939E+03  0.7546771E-02  0.1113309E+00
       21   -1    0    0  503  502  0.00000000000E+00  0.00000000000E+00  0.18569608005E+03  0.18569608005E+03  0.00000000000E+00 0.  1.
       21   -1    0    0  502  503 -0.00000000000E+00 -0.00000000000E+00 -0.84138776970E+02  0.84138776970E+02  0.00000000000E+00 0.  1.
       25    2    1    2    0    0  0.14210854715E-13  0.14210854715E-13  0.10155730308E+03  0.26983485702E+03  0.24999392844E+03 0.  0.
       24    2    3    3    0    0  0.75725273870E+02  0.56530303075E+02  0.65082647979E+02  0.14210490764E+03  0.83833534098E+02 0.  0.
      -24    2    3    3    0    0 -0.75725273870E+02 -0.56530303075E+02  0.36474655104E+02  0.12772994938E+03  0.77810971177E+02 0.  0.
      -13    1    4    4    0    0  0.52182605125E+02  0.40087767178E+02 -0.53728403193E+01  0.66022123323E+02  0.00000000000E+00 0.  1.
       14    1    4    4    0    0  0.23542668746E+02  0.16442535897E+02  0.70455488298E+02  0.76082784319E+02  0.00000000000E+00 0. -1.
        1    1    5    5  501    0 -0.51188459523E+02 -0.72647427234E+02  0.41268025507E+02  0.97984473267E+02  0.00000000000E+00 0. -1.
       -2    1    5    5    0  501 -0.24536814347E+02  0.16117124159E+02 -0.47933704035E+01  0.29745476114E+02  0.00000000000E+00 0.  1.
</event>
<event>
 9   1  0.7570500E-01  0.2500027E+03  0.7546771E-02  0.1113303E+00
       21   -1    0    0  503  502  0.00000000000E+00  0.00000000000E+00  0.87459617932E+02  0.87459617932E+02  0.00000000000E+00 0.  1.
       21   -1    0    0  502  503 -0.00000000000E+00 -0.00000000000E+00 -0.17865774716E+03  0.17865774716E+03  0.00000000000E+00 0.  1.
       25    2    1    2    0    0  0.00000000000E+00  0.00000000000E+00 -0.91198129227E+02  0.26611736509E+03  0.25000270644E+03 0.  0.
       24    2    3    3    0    0 -0.69190644894E+02 -0.59445048518E+02 -0.98935453000E+01  0.12096720753E+03  0.78829714738E+02 0.  0.
      -24    2    3    3    0    0  0.69190644894E+02  0.59445048518E+02 -0.81304583927E+02  0.14515015756E+03  0.78339477515E+02 0.  0.
      -13    1    4    4    0    0 -0.18905530563E+02 -0.59559724106E+02  0.15861732060E+02  0.64469949320E+02  0.00000000000E+00 0.  1.
       14    1    4    4    0    0 -0.50285114330E+02  0.11467558776E+00 -0.25755277360E+02  0.56497258213E+02  0.00000000000E+00 0. -1.
        3    1    5    5  501    0  0.34778011957E+01  0.35781341731E+02 -0.63664213856E+02  0.73113142753E+02  0.00000000000E+00 0. -1.
       -4    1    5    5    0  501  0.65712843698E+02  0.23663706787E+02 -0.17640370071E+02  0.72037014805E+02  0.00000000000E+00 0.  1.
</event>
<event>
 9   1  0.7570500E-01  0.2499956E+03  0.7546771E-02  0.1113308E+00
       21   -1    0    0  503  502  0.00000000000E+00  0.00000000000E+00  0.89162682946E+02  0.89162682946E+02  0.00000000000E+00 0. -1.
       21   -1    0    0  502  503 -0.00000000000E+00 -0.00000000000E+00 -0.17523529673E+03  0.17523529673E+03  0.00000000000E+00 0. -1.
       25    2    1    2    0    0  0.00000000000E+00  0.35527136788E-14 -0.86072613786E+02  0.26439797968E+03  0.24999559359E+03 0.  0.
       24    2    3    3    0    0 -0.91158764454E+02  0.26461270391E+02 -0.31674136899E+02  0.12828686971E+03  0.80275468391E+02 0.  0.
      -24    2    3    3    0    0  0.91158764454E+02 -0.26461270391E+02 -0.54398476887E+02  0.13611110996E+03  0.80974815839E+02 0.  0.
      -13    1    4    4    0    0 -0.37034248407E+02 -0.16507536282E+02 -0.42039519003E+02  0.58406810109E+02  0.00000000000E+00 0.  1.
       14    1    4    4    0    0 -0.54124516047E+02  0.42968806673E+02  0.10365382104E+02  0.69880059605E+02  0.00000000000E+00 0. -1.
        3    1    5    5  501    0  0.18130133793E+02 -0.99511387275E+01 -0.57570162607E+02  0.61172302032E+02  0.00000000000E+00 0. -1.
       -4    1    5    5    0  501  0.73028630661E+02 -0.16510131663E+02  0.31716857200E+01  0.74938807931E+02  0.00000000000E+00 0.  1.
</event>
<event>
 9   1  0.7570500E-01  0.2500015E+03  0.7546771E-02  0.1113304E+00
       21   -1    0    0  503  502  0.00000000000E+00  0.00000000000E+00  0.14239460708E+02  0.14239460708E+02  0.00000000000E+00 0. -1.
       21   -1    0    0  502  503 -0.00000000000E+00 -0.00000000000E+00 -0.10973155852E+04  0.10973155852E+04  0.00000000000E+00 0. -1.
       25    2    1    2    0    0 -0.35527136788E-14 -0.14210854715E-13 -0.10830761245E+04  0.11115550459E+04  0.25000145728E+03 0.  0.
       24    2    3    3    0    0  0.10308883714E+02 -0.93877681486E+02 -0.48031884353E+03  0.49591220025E+03  0.79394122858E+02 0.  0.
      -24    2    3    3    0    0 -0.10308883714E+02  0.93877681486E+02 -0.60275728095E+03  0.61564284564E+03  0.82343679116E+02 0.  0.
      -13    1    4    4    0    0  0.36144918040E+02 -0.53919661402E+02 -0.17010103605E+03  0.18206632707E+03  0.00000000000E+00 0.  1.
       14    1    4    4    0    0 -0.25836034326E+02 -0.39958020084E+02 -0.31021780748E+03  0.31384587318E+03  0.00000000000E+00 0. -1.
        1    1    5    5  501    0  0.15476694137E+02  0.90203411629E+02 -0.35838546948E+03  0.36988691281E+03  0.00000000000E+00 0. -1.
       -2    1    5    5    0  501 -0.25785577851E+02  0.36742698571E+01 -0.24437181146E+03  0.24575593283E+03  0.00000000000E+00 0.  1.
</event>
<event>
 9   1  0.7570500E-01  0.2499983E+03  0.7546771E-02  0.1113306E+00
       21   -1    0    0  503  502  0.00000000000E+00  0.00000000000E+00  0.11154869958E+02  0.11154869958E+02  0.00000000000E+00 0. -1.
       21   -1    0    0  502  503 -0.00000000000E+00 -0.00000000000E+00 -0.14007149241E+04  0.14007149241E+04  0.00000000000E+00 0. -1.
       25    2    1    2    0    0  0.00000000000E+00  0.00000000000E+00 -0.13895600542E+04  0.14118697941E+04  0.24999834261E+03 0.  0.
       24    2    3    3    0    0  0.44609749506E+02 -0.79451936598E+02 -0.53249569364E+03  0.54629386852E+03  0.81133760220E+02 0.  0.
      -24    2    3    3    0    0 -0.44609749506E+02  0.79451936598E+02 -0.85706436051E+03  0.86557592556E+03  0.79747883130E+02 0.  0.
      -13    1    4    4    0    0 -0.76646229263E+01 -0.73547671347E+01 -0.57611683367E+01  0.12084291655E+02  0.00000000000E+00 0.  1.
       14    1    4    4    0    0  0.52274372433E+02 -0.72097169464E+02 -0.52673452531E+03  0.53420957686E+03  0.00000000000E+00 0. -1.
        3    1    5    5  501    0 -0.54424346565E+02  0.59277372607E+02 -0.40290827987E+03  0.41086603460E+03  0.00000000000E+00 0. -1.
       -4    1    5    5    0  501  0.98145970581E+01  0.20174563991E+02 -0.45415608065E+03  0.45470989096E+03  0.00000000000E+00 0.  1.
</event>
<event>
 9   1  0.7570500E-01  0.2499970E+03  0.7546771E-02  0.1113307E+00
       21   -1    0    0  503  502  0.00000000000E+00  0.00000000000E+00  0.86503964388E+03  0.86503964388E+03  0.00000000000E+00 0.  1.
       21   -1    0    0  502  503 -0.00000000000E+00 -0.00000000000E+00 -0.18062317944E+02  0.18062317944E+02  0.00000000000E+00 0.  1.
       25    2    1    2    0    0 -0.14210854715E-13  0.35527136788E-14  0.84697732594E+03  0.88310196183E+03  0.24999696864E+03 0.  0.
       24    2    3    3    0    0 -0.94755830782E+02  0.16537102027E+02  0.39221361759E+03  0.41155500878E+03  0.79333852878E+02 0.  0.
      -24    2    3    3    0    0  0.94755830782E+02 -0.16537102027E+02  0.45476370834E+03  0.47154695305E+03  0.79336973054E+02 0.  0.
      -13    1    4    4    0    0 -0.60900120880E+02 -0.86349906447E+00  0.34765912928E+03  0.35295387875E+03  0.00000000000E+00 0.  1.
       14    1    4    4    0    0 -0.33855709903E+02  0.17400601092E+02  0.44554488314E+02  0.58601130026E+02  0.00000000000E+00 0. -1.
        3    1    5    5  501    0  0.66891072619E+02 -0.69084238233E+01  0.42259625995E+03  0.42791323985E+03  0.00000000000E+00 0. -1.
       -4    1    5    5    0  501  0.27864758164E+02 -0.96286782039E+01  0.32167448398E+02  0.43633713203E+02  0.00000000000E+00 0.  1.
</event>
<event>
 9   1  0.7570500E-01  0.2500002E+03  0.7546771E-02  0.1113305E+00
       21   -1    0    0  503  502  0.00000000000E+00  0.00000000000E+00  0.13450967181E+03  0.13450967181E+03  0.00000000000E+00 0. -1.
       21   -1    0    0  502  503 -0.00000000000E+00 -0.00000000000E+00 -0.11616280675E+03  0.11616280675E+03  0.00000000000E+00 0. -1.
       25    2    1    2    0    0 -0.14210854715E-13  0.00000000000E+00  0.18346865064E+02  0.25067247856E+03  0.25000016810E+03 0.  0.
       24    2    3    3    0    0  0.84939515349E+02  0.44670958790E+02  0.17194605686E+02  0.12534805592E+03  0.78779850412E+02 0.  0.
      -24    2    3    3    0    0 -0.84939515349E+02 -0.44670958790E+02  0.11522593778E+01  0.12532442264E+03  0.80589499200E+02 0.  0.
      -13    1    4    4    0    0  0.57629060828E+02  0.55516083920E+02 -0.15373241409E+02  0.81483009132E+02  0.00000000000E+00 0.  1.
       14    1    4    4    0    0  0.27310454521E+02 -0.10845125130E+02  0.32567847095E+02  0.43865046787E+02  0.00000000000E+00 0. -1.
        1    1    5    5  501    0 -0.70169564583E+02 -0.53082973902E+02  0.29048810504E+02  0.92657451421E+02  0.00000000000E+00 0. -1.
       -2    1    5    5    0  501 -0.14769950766E+02  0.84120151122E+01 -0.27896551126E+02  0.32666971219E+02  0.00000000000E+00 0.  1.
</event>
<event>
 9   1  0.7570500E-01  0.2499979E+03  0.7546771E-02  0.1113306E+00
       21   -1    0    0  503  502  0.00000000000E+00  0.00000000000E+00  0.36802571724E+03  0.36802571724E+03  0.00000000000E+00 0.  1.
       21   -1    0    0  502  503 -0.00000000000E+00 -0.00000000000E+00 -0.42455570019E+02  0.42455570019E+02  0.00000000000E+00 0.  1.
       25    2    1    2    0    0  0.14210854715E-13  0.00000000000E+00  0.32557014722E+03  0.41048128726E+03  0.24999793285E+03 0.  0.
       24    2    3    3    0    0 -0.85887265205E+02  0.45027921469E+02  0.15959339582E+03  0.20167806277E+03  0.76156765809E+02 0.  0.
      -24    2    3    3    0    0  0.85887265205E+02 -0.45027921469E+02  0.16597675141E+03  0.20880322449E+03  0.81525263042E+02 0.  0.
      -13    1    4    4    0    0 -0.42204276111E+02  0.50836914451E+02  0.47909031218E+02  0.81614141331E+02  0.00000000000E+00 0.  1.
       14    1    4    4    0    0 -0.43682989093E+02 -0.58089929823E+01  0.11168436460E+03  0.12006392144E+03  0.00000000000E+00 0. -1.
        3    1    5    5  501    0  0.39441524336E+02 -0.57526073800E+02  0.13393978417E+03  0.15101241271E+03  0.00000000000E+00 0. -1.
       -4    1    5    5    0  501  0.46445740869E+02  0.12498152331E+02  0.32036967235E+02  0.57790811780E+02  0.00000000000E+00 0.  1.
</event>
<event>
 9   1  0.7570500E-01  0.2500034E+03  0.7546771E-02  0.1113303E+00
       21   -1    0    0  503  502  0.00000000000E+00  0.00000000000E+00  0.62085100236E+02  0.62085100236E+02  0.00000000000E+00 0. -1.
       21   -1    0    0  502  503 -0.00000000000E+00 -0.00000000000E+00 -0.25167760729E+03  0.25167760729E+03  0.00000000000E+00 0. -1.
       25    2    1    2    0    0  0.14210854715E-13  0.00000000000E+00 -0.18959250705E+03  0.31376270752E+03  0.25000343578E+03 0.  0.
       24    2    3    3    0    0  0.67413055880E+02  0.46249483359E+02 -0.51890142624E+02  0.12629681893E+03  0.81084923118E+02 0.  0.
      -24    2    3    3    0    0 -0.67413055880E+02 -0.46249483359E+02 -0.13770236443E+03  0.18746588859E+03  0.97457597970E+02 0.  0.
      -13    1    4    4    0    0  0.70733965114E+02  0.22807698985E+01 -0.27659856379E+02  0.75983967960E+02  0.00000000000E+00 0.  1.
       14    1    4    4    0    0 -0.33209092339E+01  0.43968713461E+02 -0.24230286245E+02  0.50312850973E+02  0.00000000000E+00 0. -1.
        3    1    5    5  501    0 -0.89456074392E+01 -0.48006441937E+02 -0.14270194086E+02  0.50875149131E+02  0.00000000000E+00 0. -1.
       -4    1    5    5    0  501 -0.58467448441E+02  0.17569585778E+01 -0.12343217034E+03  0.13659073946E+03  0.00000000000E+00 0.  1.
</event>
<event>
 9   1  0.7570500E-01  0.2499925E+03  0.7546771E-02  0.1113310E+00
       21   -1    0    0  503  502  0.00000000000E+00  0.00000000000E+00  0.52910585001E+03  0.52910585001E+03  0.00000000000E+00 0.  1.
       21   -1    0    0  502  503 -0.00000000000E+00 -0.00000000000E+00 -0.29529177300E+02  0.29529177300E+02  0.00000000000E+00 0.  1.
       25    2    1    2    0    0 -0.14210854715E-13  0.00000000000E+00  0.49957667271E+03  0.55863502731E+03  0.24999248353E+03 0.  0.
       24    2    3    3    0    0 -0.60584271957E+02 -0.72025628722E+02  0.21853649825E+03  0.25171750948E+03  0.82130130345E+02 0.  0.
      -24    2    3    3    0    0  0.60584271957E+02  0.72025628722E+02  0.28104017446E+03  0.30691751783E+03  0.79728526188E+02 0.  0.
      -13    1    4    4    0    0 -0.65465952260E+02 -0.17641710836E+02  0.95618335228E+02  0.11721726365E+03  0.00000000000E+00 0.  1.
       14    1    4    4    0    0  0.48816803024E+01 -0.54383917885E+02  0.12291816302E+03  0.13450024582E+03  0.00000000000E+00 0. -1.
        3    1    5    5  501    0 -0.65108965551E+01  0.53254948872E+02  0.12535945105E+03  0.13635788690E+03  0.00000000000E+00 0. -1.
       -4    1    5    5    0  501  0.67095168512E+02  0.18770679850E+02  0.15568072342E+03  0.17055963093E+03  0.00000000000E+00 0.  1.
</event>
<event>
 9   1  0.7570500E-01  0.2500001E+03  0.7546771E-02  0.1113305E+00
       21   -1    0    0  503  502  0.00000000000E+00  0.00000000000E+00  0.28253685535E+03  0.28253685535E+03  0.00000000000E+00 0. -1.
       21   -1    0    0  502  503 -0.00000000000E+00 -0.00000000000E+00 -0.55302568890E+02  0.55302568890E+02  0.00000000000E+00 0. -1.
       25    2    1    2    0    0  0.00000000000E+00  0.00000000000E+00  0.22723428646E+03  0.33783942424E+03  0.25000011125E+03 0.  0.
       24    2    3    3    0    0 -0.37486522646E+02  0.80598642706E+02  0.16605387122E+03  0.20379809920E+03  0.77835702004E+02 0.  0.
      -24    2    3    3    0    0  0.37486522646E+02 -0.80598642706E+02  0.61180415238E+02  0.13404132503E+03  0.79515111906E+02 0.  0.
      -13    1    4    4    0    0 -0.94503872232E+01 -0.83313329231E+01 -0.83576937136E+00  0.12626141033E+02  0.00000000000E+00 0.  1.
       14    1    4    4    0    0 -0.28036135423E+02  0.88929975629E+02  0.16688964059E+03  0.19117195817E+03  0.00000000000E+00 0. -1.
        3    1    5    5  501    0 -0.16380532952E+01 -0.80103467727E+02  0.42153891404E+02  0.90532863210E+02  0.00000000000E+00 0. -1.
       -4    1    5    5    0  501  0.39124575941E+02 -0.49517497834E+00  0.19026523834E+02  0.43508461821E+02  0.00000000000E+00 0.  1.
</event>
<event>
 9   1  0.7570500E-01  0.2499933E+03  0.7546771E-02  0.1113309E+00
       21   -1    0    0  503  502  0.00000000000E+00  0.00000000000E+00  0.15559952496E+03  0.15559952496E+03  0.00000000000E+00 0.  1.
       21   -1    0    0  502  503 -0.00000000000E+00 -0.00000000000E+00 -0.10041266977E+03  0.10041266977E+03  0.00000000000E+00 0.  1.
       25    2    1    2    0    0  0.00000000000E+00  0.00000000000E+00  0.55186855191E+02  0.25601219472E+03  0.24999330963E+03 0.  0.
       24    2    3    3    0    0 -0.95031343839E+02 -0.95651913597E+01  0.13478247296E+02  0.12287797557E+03  0.76124138955E+02 0.  0.
      -24    2    3    3    0    0  0.95031343839E+02  0.95651913597E+01  0.41708607895E+02  0.13313421915E+03  0.82841192289E+02 0.  0.
      -13    1    4    4    0    0  0.49694357531E+01  0.43858622093E+01 -0.16310805853E+02  0.17606063348E+02  0.00000000000E+00 0.  1.
       14    1    4    4    0    0 -0.10000077959E+03 -0.13951053569E+02  0.29789053149E+02  0.10527191222E+03  0.00000000000E+00 0. -1.
        1    1    5    5  501    0  0.57897447090E+02  0.31653827262E+02  0.57106820469E+02  0.87265503517E+02  0.00000000000E+00 0. -1.
       -2    1    5    5    0  501  0.37133896749E+02 -0.22088635903E+02 -0.15398212574E+02  0.45868715638E+02  0.00000000000E+00 0.  1.
</event>
<event>
 8   1  0.7570500E-01  0.2518238E+03  0.7546771E-02  0.1112158E+00
       21   -1    0    0  503  502  0.00000000000E+00  0.00000000000E+00  0.66666185141E+02  0.66666185141E+02  0.00000000000E+00 0. -1.
       21   -1    0    0  502  503 -0.00000000000E+00 -0.00000000000E+00 -0.23780883656E+03  0.23780883656E+03  0.00000000000E+00 0. -1.
       24    2    1    2    0    0  0.18049066020E+02 -0.89869170257E+02 -0.50966945252E+02  0.13259522452E+03  0.81127230381E+02 0.  0.
      -24    2    1    2    0    0 -0.18049066020E+02  0.89869170257E+02 -0.12017570616E+03  0.17187979718E+03  0.81842701447E+02 0.  0.
      -13    1    3    3    0    0  0.44103836822E+02 -0.59020975123E+02 -0.55102604788E+02  0.92005005197E+02  0.00000000000E+00 0.  1.
       14    1    3    3    0    0 -0.26054770802E+02 -0.30848195133E+02  0.41356595360E+01  0.40590219319E+02  0.00000000000E+00 0. -1.
        3    1    4    4  501    0  0.16034571679E+02  0.39139302298E+01 -0.58371986793E+02  0.60660655955E+02  0.00000000000E+00 0. -1.
       -4    1    4    4    0  501 -0.34083637699E+02  0.85955240027E+02 -0.61803719370E+02  0.11121914122E+03  0.00000000000E+00 0.  1.
</event>
<event>
 9   1  0.7570500E-01  0.2499995E+03  0.7546771E-02  0.1113305E+00
       21   -1    0    0  503  502  0.00000000000E+00  0.00000000000E+00  0.34414183909E+03  0.34414183909E+03  0.00000000000E+00 0.  1.
       21   -1    0    0  502  503 -0.00000000000E+00 -0.00000000000E+00 -0.45402608524E+02  0.45402608524E+02  0.00000000000E+00 0.  1.
       25    2    1    2    0    0  0.00000000000E+00  0.71054273576E-14  0.29873923057E+03  0.38954444762E+03  0.24999949758E+03 0.  0.
       24    2    3    3    0    0 -0.70418058739E+02 -0.48163664577E+02  0.82098218800E+02  0.14321655978E+03  0.80575578709E+02 0.  0.
      -24    2    3    3    0    0  0.70418058739E+02  0.48163664577E+02  0.21664101177E+03  0.24632788783E+03  0.80409320115E+02 0.  0.
      -13    1    4    4    0    0 -0.59269193130E+02 -0.52860096004E+02  0.96128733317E+02  0.12469065872E+03  0.00000000000E+00 0.  1.
       14    1    4    4    0    0 -0.11148865610E+02  0.46964314269E+01 -0.14030514517E+02  0.18525901061E+02  0.00000000000E+00 0. -1.
        3    1    5    5  501    0  0.39648033953E+02  0.51292027461E+02  0.65885089397E+02  0.92432049000E+02  0.00000000000E+00 0. -1.
       -4    1    5    5    0  501  0.30770024787E+02 -0.31283628843E+01  0.15075592237E+03  0.15389583883E+03  0.00000000000E+00 0.  1.
</event>
<event>
 9   1  0.7570500E-01  0.2499935E+03  0.7546771E-02  0.1113309E+00
       21   -1    0    0  503  502  0.00000000000E+00  0.00000000000E+00  0.14530432300E+03  0.14530432300E+03  0.00000000000E+00 0. -1.
       21   -1    0    0  502  503 -0.00000000000E+00 -0.00000000000E+00 -0.10752730580E+03  0.10752730580E+03  0.00000000000E+00 0. -1.
       25    2    1    2    0    0  0.71054273576E-14  0.00000000000E+00  0.37777017202E+02  0.25283162881E+03  0.24999345891E+03 0.  0.
       24    2    3    3    0    0  0.56409738534E+02  0.43886322237E+02 -0.38993390076E+02  0.11979810204E+03  0.87880788016E+02 0.  0.
      -24    2    3    3    0    0 -0.56409738534E+02 -0.43886322237E+02  0.76770407278E+02  0.13303352676E+03  0.81830042947E+02 0.  0.
      -13    1    4    4    0    0  0.36557324710E+02  0.21594964497E+02  0.24938236961E+02  0.49241203725E+02  0.00000000000E+00 0.  1.
       14    1    4    4    0    0  0.19852413824E+02  0.22291357740E+02 -0.63931627037E+02  0.70556898317E+02  0.00000000000E+00 0. -1.
        3    1    5    5  501    0 -0.45022190827E+02 -0.29880899891E+02  0.93778342532E+02  0.10823235825E+03  0.00000000000E+00 0. -1.
       -4    1    5    5    0  501 -0.11387547707E+02 -0.14005422346E+02 -0.17007935254E+02  0.24801168510E+02  0.00000000000E+00 0.  1.
</event>
<event>
 9   1  0.7570500E-01  0.2500022E+03  0.7546771E-02  0.1113303E+00
       21   -1    0    0  503  502  0.00000000000E+00  0.00000000000E+00  0.99820665208E+02  0.99820665208E+02  0.00000000000E+00 0.  1.
       21   -1    0    0  502  503 -0.00000000000E+00 -0.00000000000E+00 -0.15653341529E+03  0.15653341529E+03  0.00000000000E+00 0.  1.
       25    2    1    2    0    0 -0.35527136788E-14  0.00000000000E+00 -0.56712750085E+02  0.25635408050E+03  0.25000215712E+03 0.  0.
       24    2    3    3    0    0  0.27649830718E+02  0.67337638467E+02 -0.93084020844E+02  0.14244940945E+03  0.79550792733E+02 0.  0.
      -24    2    3    3    0    0 -0.27649830718E+02 -0.67337638467E+02  0.36371270759E+02  0.11390467105E+03  0.79702785749E+02 0.  0.
      -13    1    4    4    0    0  0.54166386303E+02  0.45130287062E+02 -0.76689794366E+02  0.10417324405E+03  0.00000000000E+00 0.  1.
       14    1    4    4    0    0 -0.26516555585E+02  0.22207351405E+02 -0.16394226478E+02  0.38276165408E+02  0.00000000000E+00 0. -1.
        3    1    5    5  501    0 -0.35406460790E+02 -0.63076649958E+02  0.56585587941E+02  0.91837955107E+02  0.00000000000E+00 0. -1.
       -4    1    5    5    0  501  0.77566300725E+01 -0.42609885091E+01 -0.20214317182E+02  0.22066715938E+02  0.00000000000E+00 0.  1.
</event>
<event>
 9   1  0.7570500E-01  0.2499986E+03  0.7546771E-02  0.1113306E+00
       21   -1    0    0  503  502  0.00000000000E+00  0.00000000000E+00  0.66652452603E+02  0.66652452603E+02  0.00000000000E+00 0.  1.
       21   -1    0    0  502  503 -0.00000000000E+00 -0.00000000000E+00 -0.23442243173E+03  0.23442243173E+03  0.00000000000E+00 0.  1.
       25    2    1    2    0    0  0.00000000000E+00  0.00000000000E+00 -0.16776997913E+03  0.30107488433E+03  0.24999864016E+03 0.  0.
       24    2    3    3    0    0 -0.89788717231E+02 -0.39338388279E+02 -0.96916624182E+02  0.15909663740E+03  0.79431640129E+02 0.  0.
      -24    2    3    3    0    0  0.89788717231E+02  0.39338388279E+02 -0.70853354947E+02  0.14197824694E+03  0.74351208208E+02 0.  0.
      -13    1    4    4    0    0  0.71560329799E+01 -0.11651030224E+02  0.60832002891E+01  0.14965314532E+02  0.00000000000E+00 0.  1.
       14    1    4    4    0    0 -0.96944750210E+02 -0.27687358055E+02 -0.10299982447E+03  0.14413132286E+03  0.00000000000E+00 0. -1.
        3    1    5    5  501    0  0.53082295305E+02  0.36896241798E+01  0.16517525471E+01  0.53235999924E+02  0.00000000000E+00 0. -1.
       -4    1    5    5    0  501  0.36706421926E+02  0.35648764099E+02 -0.72505107494E+02  0.88742247014E+02  0.00000000000E+00 0.  1.
</event>
<event>
 9   1  0.7570500E-01  0.2499913E+03  0.7546771E-02  0.1113310E+00
       21   -1    0    0  503  502  0.00000000000E+00  0.00000000000E+00  0.17966604426E+03  0.17966604426E+03  0.00000000000E+00 0.  1.
       21   -1    0    0  502  503 -0.00000000000E+00 -0.00000000000E+00 -0.86960871515E+02  0.86960871515E+02  0.00000000000E+00 0.  1.
       25    2    1    2    0    0  0.00000000000E+00 -0.17763568394E-14  0.92705172745E+02  0.26662691577E+03  0.24999132617E+03 0.  0.
       24    2    3    3    0    0 -0.18001337807E+02  0.14609477409E+02 -0.50087346847E+02  0.98955905198E+02  0.82134303835E+02 0.  0.
      -24    2    3    3    0    0  0.18001337807E+02 -0.14609477409E+02  0.14279251959E+03  0.16767101058E+03  0.84772514081E+02 0.  0.
      -13    1    4    4    0    0 -0.28410381110E+01 -0.25094636944E+02 -0.50489996404E+02  0.56453981594E+02  0.00000000000E+00 0.  1.
       14    1    4    4    0    0 -0.15160299696E+02  0.39704114353E+02  0.40264955777E+00  0.42501923604E+02  0.00000000000E+00 0. -1.
        1    1    5    5  501    0  0.38331080446E+02  0.12284598710E+02  0.12102001054E+03  0.12753833167E+03  0.00000000000E+00 0. -1.
       -2    1    5    5    0  501 -0.20329742639E+02 -0.26894076119E+02  0.21772509054E+02  0.40132678911E+02  0.00000000000E+00 0.  1.
</event>
<event>
 9   1  0.7570500E-01  0.2499984E+03  0.7546771E-02  0.1113306E+00
       21   -1    0    0  503  502  0.00000000000E+00  0.00000000000E+00  0.35902619779E+02  0.35902619779E+02  0.00000000000E+00 0.  1.
       21   -1    0    0  502  503 -0.00000000000E+00 -0.00000000000E+00 -0.43519940482E+03  0.43519940482E+03  0.00000000000E+00 0.  1.
       25    2    1    2    0    0 -0.71054273576E-14  0.00000000000E+00 -0.39929678504E+03  0.47110202460E+03  0.24999839007E+03 0.  0.
       24    2    3    3    0    0 -0.26562286543E+02  0.85505630029E+02 -0.25053357721E+03  0.27990580008E+03  0.86967900836E+02 0.  0.
      -24    2    3    3    0    0  0.26562286543E+02 -0.85505630029E+02 -0.14876320783E+03  0.19119622452E+03  0.80054584082E+02 0.  0.
      -13    1    4    4    0    0 -0.46780887957E+02  0.33485253152E+02 -0.18545288136E+03  0.19417127713E+03  0.00000000000E+00 0.  1.
       14    1    4    4    0    0  0.20218601414E+02  0.52020376877E+02 -0.65080695852E+02  0.85734522954E+02  0.00000000000E+00 0. -1.
        1    1    5    5  501    0  0.84930132023E+01 -0.85952715689E+02 -0.14998885229E+03  0.17307991339E+03  0.00000000000E+00 0. -1.
       -2    1    5    5    0  501  0.18069273341E+02  0.44708565952E+00  0.12256444567E+01  0.18116311131E+02  0.00000000000E+00 0.  1.
</event>
<event>
 9   1  0.7570500E-01  0.2499791E+03  0.7546771E-02  0.1113318E+00
       21   -1    0    0  503  502  0.00000000000E+00  0.00000000000E+00  0.14643148761E+02  0.14643148761E+02  0.00000000000E+00 0. -1.
       21   -1    0    0  502  503 -0.00000000000E+00 -0.00000000000E+00 -0.10668734256E+04  0.10668734256E+04  0.00000000000E+00 0. -1.
       25    2    1    2    0    0  0.35527136788E-14  0.00000000000E+00 -0.10522302769E+04  0.10815165744E+04  0.24997908937E+03 0.  0.
       24    2    3    3    0    0 -0.39279372277E+01  0.94437171962E+02 -0.46720878237E+03  0.48365277114E+03  0.81866651136E+02 0.  0.
      -24    2    3    3    0    0  0.39279372277E+01 -0.94437171962E+02 -0.58502149450E+03  0.59786380325E+03  0.79102276031E+02 0.  0.
      -13    1    4    4    0    0  0.24152538279E+02  0.24959926172E+02 -0.57724983131E+02  0.67368514139E+02  0.00000000000E+00 0.  1.
       14    1    4    4    0    0 -0.28080475507E+02  0.69477245790E+02 -0.40948379924E+03  0.41628425700E+03  0.00000000000E+00 0. -1.
        3    1    5    5  501    0 -0.34723106895E+02 -0.55815550578E+02 -0.38217580403E+03  0.38778784796E+03  0.00000000000E+00 0. -1.
       -4    1    5    5    0  501  0.38651044122E+02 -0.38621621384E+02 -0.20284569047E+03  0.21007595529E+03  0.00000000000E+00 0.  1.
</event>
<event>
 9   1  0.7570500E-01  0.2500875E+03  0.7546771E-02  0.1113250E+00
       21   -1    0    0  503  502  0.00000000000E+00  0.00000000000E+00  0.63800599636E+03  0.63800599636E+03  0.00000000000E+00 0. -1.
       21   -1    0    0  502  503 -0.00000000000E+00 -0.00000000000E+00 -0.24507516128E+02  0.24507516128E+02  0.00000000000E+00 0. -1.
       25    2    1    2    0    0  0.00000000000E+00  0.35527136788E-14  0.61349848023E+03  0.66251351248E+03  0.25008752264E+03 0.  0.
       24    2    3    3    0    0 -0.94293259657E+02  0.61958564185E+01  0.30641091844E+03  0.33105424825E+03  0.82338671925E+02 0.  0.
      -24    2    3    3    0    0  0.94293259657E+02 -0.61958564185E+01  0.30708756179E+03  0.33145926423E+03  0.81442407785E+02 0.  0.
      -13    1    4    4    0    0 -0.77557541020E+02 -0.31795612774E+02  0.20458820300E+03  0.22109379450E+03  0.00000000000E+00 0.  1.
       14    1    4    4    0    0 -0.16735718636E+02  0.37991469192E+02  0.10182271544E+03  0.10996045375E+03  0.00000000000E+00 0. -1.
        3    1    5    5  501    0  0.30827417581E+01 -0.27861789461E+02  0.10513645908E+03  0.10880927184E+03  0.00000000000E+00 0. -1.
       -4    1    5    5    0  501  0.91210517899E+02  0.21665933042E+02  0.20195110270E+03  0.22264999239E+03  0.00000000000E+00 0.  1.
</event>
<event>
 9   1  0.7570500E-01  0.2500008E+03  0.7546771E-02  0.1113304E+00
       21   -1    0    0  503  502  0.00000000000E+00  0.00000000000E+00  0.14063483419E+03  0.14063483419E+03  0.00000000000E+00 0.  1.
       21   -1    0    0  502  503 -0.00000000000E+00 -0.00000000000E+00 -0.11110405751E+03  0.11110405751E+03  0.00000000000E+00 0.  1.
       25    2    1    2    0    0 -0.35527136788E-14 -0.14210854715E-13  0.29530776677E+02  0.25173889170E+03  0.25000080564E+03 0.  0.
       24    2    3    3    0    0  0.17677086625E+02 -0.70604713509E+02  0.77262222805E+02  0.13391552740E+03  0.81648101295E+02 0.  0.
      -24    2    3    3    0    0 -0.17677086625E+02  0.70604713509E+02 -0.47731446128E+02  0.11782336430E+03  0.79413785100E+02 0.  0.
      -13    1    4    4    0    0 -0.29412139703E+02 -0.14529652366E+02  0.40073610468E+02  0.51788792376E+02  0.00000000000E+00 0.  1.
       14    1    4    4    0    0  0.47089226328E+02 -0.56075061143E+02  0.37188612336E+02  0.82126735025E+02  0.00000000000E+00 0. -1.
        3    1    5    5  501    0 -0.36633749627E+02  0.26416593225E+01 -0.21428265520E+02  0.42522706157E+02  0.00000000000E+00 0. -1.
       -4    1    5    5    0  501  0.18956663001E+02  0.67963054187E+02 -0.26303180608E+02  0.75300658142E+02  0.00000000000E+00 0.  1.
</event>
<event>
 9   1  0.7570500E-01  0.2500072E+03  0.7546771E-02  0.1113300E+00
       21   -1    0    0  503  502  0.00000000000E+00  0.00000000000E+00  0.27295505811E+02  0.27295505811E+02  0.00000000000E+00 0. -1.
       21   -1    0    0  502  503 -0.00000000000E+00 -0.00000000000E+00 -0.57247162234E+03  0.57247162234E+03  0.00000000000E+00 0. -1.
       25    2    1    2    0    0  0.14210854715E-13  0.00000000000E+00 -0.54517611653E+03  0.59976712815E+03  0.25000721985E+03 0.  0.
       24    2    3    3    0    0 -0.85685115978E+02 -0.32123798472E+02 -0.33163252743E+03  0.35375251057E+03  0.82382206563E+02 0.  0.
      -24    2    3    3    0    0  0.85685115978E+02  0.32123798472E+02 -0.21354358910E+03  0.24601461758E+03  0.80922494332E+02 0.  0.
      -13    1    4    4    0    0 -0.79982542348E+02 -0.32218800320E+02 -0.33579649855E+03  0.34669085164E+03  0.00000000000E+00 0.  1.
       14    1    4    4    0    0 -0.57025736299E+01  0.95001847810E-01  0.41639711196E+01  0.70616589298E+01  0.00000000000E+00 0. -1.
        3    1    5    5  501    0  0.22614192485E+02 -0.24265105952E+02 -0.33804687699E+02  0.47359835082E+02  0.00000000000E+00 0. -1.
       -4    1    5    5    0  501  0.63070923493E+02  0.56388904424E+02 -0.17973890140E+03  0.19865478250E+03  0.00000000000E+00 0.  1.
</event>
<event>
 9   1  0.7570500E-01  0.2499953E+03  0.7546771E-02  0.1113308E+00
       21   -1    0    0  503  502  0.00000000000E+00  0.00000000000E+00  0.29968878494E+02  0.29968878494E+02  0.00000000000E+00 0.  1.
       21   -1    0    0  502  503 -0.00000000000E+00 -0.00000000000E+00 -0.52135449310E+03  0.52135449310E+03  0.00000000000E+00 0.  1.
       25    2    1    2    0    0  0.35527136788E-14  0.00000000000E+00 -0.49138561461E+03  0.55132337160E+03  0.24999527560E+03 0.  0.
       24    2    3    3    0    0 -0.11325816552E+01  0.65765316234E+02 -0.39046294209E+03  0.40588552207E+03  0.89192983560E+02 0.  0.
      -24    2    3    3    0    0  0.11325816552E+01 -0.65765316234E+02 -0.10092267252E+03  0.14543784953E+03  0.81488788721E+02 0.  0.
      -13    1    4    4    0    0 -0.38878229256E+02  0.22187771134E+02 -0.25125969423E+03  0.25521608069E+03  0.00000000000E+00 0.  1.
       14    1    4    4    0    0  0.37745647600E+02  0.43577545100E+02 -0.13920324786E+03  0.15066944137E+03  0.00000000000E+00 0. -1.
        3    1    5    5  501    0 -0.15534725785E+02  0.12488430116E+02 -0.40626509611E+02  0.45252644952E+02  0.00000000000E+00 0. -1.
       -4    1    5    5    0  501  0.16667307440E+02 -0.78253746350E+02 -0.60296162906E+02  0.10018520458E+03  0.00000000000E+00 0.  1.
</event>
<event>
 9   1  0.7570500E-01  0.2499791E+03  0.7546771E-02  0.1113318E+00
       21   -1    0    0  503  502  0.00000000000E+00  0.00000000000E+00  0.12401813652E+04  0.12401813652E+04  0.00000000000E+00 0. -1.
       21   -1    0    0  502  503 -0.00000000000E+00 -0.00000000000E+00 -0.12596855175E+02  0.12596855175E+02  0.00000000000E+00 0. -1.
       25    2    1    2    0    0  0.00000000000E+00 -0.35527136788E-14  0.12275845100E+04  0.12527782203E+04  0.24997907951E+03 0.  0.
       24    2    3    3    0    0  0.50197431367E+02  0.29269644514E+02  0.21841502379E+03  0.23874353208E+03  0.76921110801E+02 0.  0.
      -24    2    3    3    0    0 -0.50197431367E+02 -0.29269644514E+02  0.10091694862E+04  0.10140346883E+04  0.80416434342E+02 0.  0.
      -13    1    4    4    0    0  0.29427308589E+02 -0.20222010097E+02  0.13428025610E+03  0.13894633267E+03  0.00000000000E+00 0.  1.
       14    1    4    4    0    0  0.20770122778E+02  0.49491654611E+02  0.84134767686E+02  0.99797199410E+02  0.00000000000E+00 0. -1.
        3    1    5    5  501    0 -0.12384024825E+02  0.66977925698E+01  0.72352836444E+03  0.72366533608E+03  0.00000000000E+00 0. -1.
       -4    1    5    5    0  501 -0.37813406542E+02 -0.35967437084E+02  0.28564112176E+03  0.29036935218E+03  0.00000000000E+00 0.  1.
</event>
<event>
 9   1  0.7570500E-01  0.2500037E+03  0.7546771E-02  0.1113303E+00
       21   -1    0    0  503  502  0.00000000000E+00  0.00000000000E+00  0.57524345949E+03  0.57524345949E+03  0.00000000000E+00 0.  1.
       21   -1    0    0  502  503 -0.00000000000E+00 -0.00000000000E+00 -0.27163210000E+02  0.27163210000E+02  0.00000000000E+00 0.  1.
       25    2    1    2    0    0  0.00000000000E+00  0.17763568394E-14  0.54808024949E+03  0.60240666949E+03  0.25000367110E+03 0.  0.
       24    2    3    3    0    0  0.59635937749E+02 -0.11974794068E+02  0.93145332746E+02  0.13638462115E+03  0.78897852381E+02 0.  0.
      -24    2    3    3    0    0 -0.59635937749E+02  0.11974794068E+02  0.45493491674E+03  0.46602204834E+03  0.80690335854E+02 0.  0.
      -13    1    4    4    0    0  0.18479443949E+01 -0.34643805324E+02  0.18555663262E+02  0.39343624450E+02  0.00000000000E+00 0.  1.
       14    1    4    4    0    0  0.57787993354E+02  0.22669011256E+02  0.74589669483E+02  0.97040996702E+02  0.00000000000E+00 0. -1.
        1    1    5    5  501    0 -0.42001055423E+02 -0.12643446957E+02  0.93025583165E+02  0.10284796804E+03  0.00000000000E+00 0. -1.
       -2    1    5    5    0  501 -0.17634882326E+02  0.24618241025E+02  0.36190933358E+03  0.36317408029E+03  0.00000000000E+00 0.  1.
</event>
<event>
 9   1  0.7570500E-01  0.2499987E+03  0.7546771E-02  0.1113306E+00
       21   -1    0    0  503  502  0.00000000000E+00  0.00000000000E+00  0.56942954761E+02  0.56942954761E+02  0.00000000000E+00 0. -1.
       21   -1    0    0  502  503 -0.00000000000E+00 -0.00000000000E+00 -0.27439451227E+03  0.27439451227E+03  0.00000000000E+00 0. -1.
       25    2    1    2    0    0  0.00000000000E+00  0.00000000000E+00 -0.21745155751E+03  0.33133746703E+03  0.24999867439E+03 0.  0.
       24    2    3    3    0    0  0.44097167129E+02  0.20074098379E+02 -0.22000988300E+03  0.23933653079E+03  0.80809014209E+02 0.  0.
      -24    2    3    3    0    0 -0.44097167129E+02 -0.20074098379E+02  0.25583254841E+01  0.92000936249E+02  0.78167113717E+02 0.  0.
      -13    1    4    4    0    0 -0.10127177706E+02  0.34820059167E+02 -0.64640956080E+02  0.74117807925E+02  0.00000000000E+00 0.  1.
       14    1    4    4    0    0  0.54224344834E+02 -0.14745960787E+02 -0.15536892692E+03  0.16521872286E+03  0.00000000000E+00 0. -1.
        1    1    5    5  501    0 -0.11259245058E+02 -0.41309776915E+02 -0.19560259600E+02  0.47073049865E+02  0.00000000000E+00 0. -1.
       -2    1    5    5    0  501 -0.32837922071E+02  0.21235678535E+02  0.22118585084E+02  0.44927886384E+02  0.00000000000E+00 0.  1.
</event>
<event>
 9   1  0.7570500E-01  0.2499613E+03  0.7546771E-02  0.1113329E+00
       21   -1    0    0  503  502  0.00000000000E+00  0.00000000000E+00  0.66606483982E+03  0.66606483982E+03  0.00000000000E+00 0.  1.
       21   -1    0    0  502  503 -0.00000000000E+00 -0.00000000000E+00 -0.23451409440E+02  0.23451409440E+02  0.00000000000E+00 0.  1.
       25    2    1    2    0    0  0.00000000000E+00  0.00000000000E+00  0.64261343038E+03  0.68951624926E+03  0.24996127118E+03 0.  0.
       24    2    3    3    0    0 -0.16197192520E+01  0.39636499498E+02  0.78635651756E+02  0.11985090976E+03  0.81283450104E+02 0.  0.
      -24    2    3    3    0    0  0.16197192520E+01 -0.39636499498E+02  0.56397777862E+03  0.56966533950E+03  0.69813957493E+02 0.  0.
      -13    1    4    4    0    0 -0.19883874490E+02 -0.19817991757E+02  0.21043151905E+02  0.35084690452E+02  0.00000000000E+00 0.  1.
       14    1    4    4    0    0  0.18264155238E+02  0.59454491255E+02  0.57592499851E+02  0.84766219309E+02  0.00000000000E+00 0. -1.
        3    1    5    5  501    0 -0.23371144358E+02  0.93091035103E+01  0.15968497848E+03  0.16165445292E+03  0.00000000000E+00 0. -1.
       -4    1    5    5    0  501  0.24990863610E+02 -0.48945603008E+02  0.40429280015E+03  0.40801088658E+03  0.00000000000E+00 0.  1.
</event>
<event>
 9   1  0.7570500E-01  0.2500034E+03  0.7546771E-02  0.1113303E+00
       21   -1    0    0  503  502  0.00000000000E+00  0.00000000000E+00  0.14151687240E+03  0.14151687240E+03  0.00000000000E+00 0. -1.
       21   -1    0    0  502  503 -0.00000000000E+00 -0.00000000000E+00 -0.11041388578E+03  0.11041388578E+03  0.00000000000E+00 0. -1.
       25    2    1    2    0    0  0.71054273576E-14  0.00000000000E+00  0.31102986619E+02  0.25193075819E+03  0.25000342227E+03 0.  0.
       24    2    3    3    0    0 -0.39479419408E+02 -0.31068913132E+02  0.96333545042E+02  0.13694566991E+03  0.83367035973E+02 0.  0.
      -24    2    3    3    0    0  0.39479419408E+02  0.31068913132E+02 -0.65230558423E+02  0.11498508828E+03  0.80266075362E+02 0.  0.
      -13    1    4    4    0    0 -0.32343756280E+01 -0.53105079577E+02  0.66119928496E+02  0.84867282311E+02  0.00000000000E+00 0.  1.
       14    1    4    4    0    0 -0.36245043780E+02  0.22036166445E+02  0.30213616546E+02  0.52078387600E+02  0.00000000000E+00 0. -1.
        1    1    5    5  501    0  0.61211721126E+02  0.14957532659E+02 -0.27975439085E+02  0.68943656550E+02  0.00000000000E+00 0. -1.
       -2    1    5    5    0  501 -0.21732301718E+02  0.16111380473E+02 -0.37255119338E+02  0.46041431728E+02  0.00000000000E+00 0.  1.
</event>
<event>
 9   1  0.7570500E-01  0.2499974E+03  0.7546771E-02  0.1113306E+00
       21   -1    0    0  503  502  0.00000000000E+00  0.00000000000E+00  0.20895176244E+03  0.20895176244E+03  0.00000000000E+00 0. -1.
       21   -1    0    0  502  503 -0.00000000000E+00 -0.00000000000E+00 -0.74776447051E+02  0.74776447051E+02  0.00000000000E+00 0. -1.
       25    2    1    2    0    0 -0.53290705182E-14  0.00000000000E+00  0.13417531539E+03  0.28372820949E+03  0.24999736319E+03 0.  0.
       24    2    3    3    0    0  0.95841690953E+01 -0.94030918910E+02  0.78131646130E+02  0.14745522493E+03  0.81882960525E+02 0.  0.
      -24    2    3    3    0    0 -0.95841690953E+01  0.94030918910E+02  0.56043669259E+02  0.13627298456E+03  0.80596299223E+02 0.  0.
      -13    1    4    4    0    0 -0.12201140854E+02 -0.10556903724E+01  0.44591872768E+02  0.46243025823E+02  0.00000000000E+00 0.  1.
       14    1    4    4    0    0  0.21785309950E+02 -0.92975228538E+02  0.33539773362E+02  0.10121219911E+03  0.00000000000E+00 0. -1.
        3    1    5    5  501    0  0.26068387514E+02  0.26484229188E+02  0.46156882336E+02  0.59257345623E+02  0.00000000000E+00 0. -1.
       -4    1    5    5    0  501 -0.35652556609E+02  0.67546689723E+02  0.98867869231E+01  0.77015638937E+02  0.00000000000E+00 0.  1.
</event>
<event>
 9   1  0.7570500E-01  0.2500028E+03  0.7546771E-02  0.1113303E+00
       21   -1    0    0  503  502  0.00000000000E+00  0.00000000000E+00  0.16765285801E+03  0.16765285801E+03  0.00000000000E+00 0. -1.
       21   -1    0    0  502  503 -0.00000000000E+00 -0.00000000000E+00 -0.93200622049E+02  0.93200622049E+02  0.00000000000E+00 0. -1.
       25    2    1    2    0    0  0.00000000000E+00  0.00000000000E+00  0.74452235960E+02  0.26085348006E+03  0.25000280522E+03 0.  0.
       24    2    3    3    0    0 -0.74733290849E+02  0.10924991591E+02 -0.23608288494E+02  0.11274654240E+03  0.80311962592E+02 0.  0.
      -24    2    3    3    0    0  0.74733290849E+02 -0.10924991591E+02  0.98060524454E+02  0.14810693766E+03  0.81334976016E+02 0.  0.
      -13    1    4    4    0    0 -0.81198491134E+02  0.27173193408E+02 -0.34311899849E+02  0.92243611561E+02  0.00000000000E+00 0.  1.
       14    1    4    4    0    0  0.64652002850E+01 -0.16248201817E+02  0.10703611355E+02  0.20502930841E+02  0.00000000000E+00 0. -1.
        3    1    5    5  501    0  0.57478145213E+02  0.27720564143E+02  0.36848723269E+02  0.73688501546E+02  0.00000000000E+00 0. -1.
       -4    1    5    5    0  501  0.17255145636E+02 -0.38645555734E+02  0.61211801186E+02  0.74418436112E+02  0.00000000000E+00 0.  1.
</event>
<event>
 9   1  0.7570500E-01  0.2499989E+03  0.7546771E-02  0.1113306E+00
       21   -1    0    0  503  502  0.00000000000E+00  0.00000000000E+00  0.24539047035E+03  0.24539047035E+03  0.00000000000E+00 0. -1.
       21   -1    0    0  502  503 -0.00000000000E+00 -0.00000000000E+00 -0.63673447320E+02  0.63673447320E+02  0.00000000000E+00 0. -1.
       25    2    1    2    0    0  0.00000000000E+00  0.00000000000E+00  0.18171702303E+03  0.30906391767E+03  0.24999885749E+03 0.  0.
       24    2    3    3    0    0 -0.80563331691E+02  0.38920027811E+01  0.27885503912E+02  0.11768489947E+03  0.81034166470E+02 0.  0.
      -24    2    3    3    0    0  0.80563331691E+02 -0.38920027811E+01  0.15383151912E+03  0.19137901820E+03  0.80350446392E+02 0.  0.
      -13    1    4    4    0    0 -0.46705761752E+02  0.17770009788E+02 -0.22998436519E+02  0.55010267323E+02  0.00000000000E+00 0.  1.
       14    1    4    4    0    0 -0.33857569939E+02 -0.13878007007E+02  0.50883940431E+02  0.62674632144E+02  0.00000000000E+00 0. -1.
        3    1    5    5  501    0 -0.12715173603E+02  0.10252934140E+02  0.42014794395E+02  0.45078168178E+02  0.00000000000E+00 0. -1.
       -4    1    5    5    0  501  0.93278505293E+02 -0.14144936921E+02  0.11181672473E+03  0.14630085003E+03  0.00000000000E+00 0.  1.
</event>
<event>
 9   1  0.7570500E-01  0.2500263E+03  0.7546771E-02  0.1113288E+00
       21   -1    0    0  503  502  0.00000000000E+00  0.00000000000E+00  0.18327718774E+03  0.18327718774E+03  0.00000000000E+00 0. -1.
       21   -1    0    0  502  503 -0.00000000000E+00 -0.00000000000E+00 -0.85271306472E+02  0.85271306472E+02  0.00000000000E+00 0. -1.
       25    2    1    2    0    0  0.71054273576E-14  0.00000000000E+00  0.98005881263E+02  0.26854849421E+03  0.25002628058E+03 0.  0.
       24    2    3    3    0    0 -0.43191967144E+02 -0.85844818683E+02  0.48635978452E+02  0.13406143362E+03  0.79825626603E+02 0.  0.
      -24    2    3    3    0    0  0.43191967144E+02  0.85844818683E+02  0.49369902811E+02  0.13448706059E+03  0.80090593969E+02 0.  0.
      -13    1    4    4    0    0  0.18376298820E+02 -0.17977053344E+02  0.31804752375E+02  0.40895049564E+02  0.00000000000E+00 0.  1.
       14    1    4    4    0    0 -0.61568265964E+02 -0.67867765339E+02  0.16831226077E+02  0.93166384051E+02  0.00000000000E+00 0. -1.
        1    1    5    5  501    0  0.48880494677E+02  0.46081733949E+02  0.62972880935E+02  0.92078296557E+02  0.00000000000E+00 0. -1.
       -2    1    5    5    0  501 -0.56885275331E+01  0.39763084734E+02 -0.13602978123E+02  0.42408764034E+02  0.00000000000E+00 0.  1.
</event>
<event>
 9   1  0.7570500E-01  0.2499993E+03  0.7546771E-02  0.1113305E+00
       21   -1    0    0  503  502  0.00000000000E+00  0.00000000000E+00  0.20906829695E+02  0.20906829695E+02  0.00000000000E+00 0.  1.
       21   -1    0    0  502  503 -0.00000000000E+00 -0.00000000000E+00 -0.74735942800E+03  0.74735942800E+03  0.00000000000E+00 0.  1.
       25    2    1    2    0    0  0.00000000000E+00  0.14210854715E-13 -0.72645259830E+03  0.76826625769E+03  0.24999933026E+03 0.  0.
       24    2    3    3    0    0 -0.49115503768E+00  0.54890315131E+02 -0.11817817692E+03  0.15257875048E+03  0.79378874204E+02 0.  0.
      -24    2    3    3    0    0  0.49115503768E+00 -0.54890315131E+02 -0.60827442138E+03  0.61568750721E+03  0.77846945353E+02 0.  0.
      -13    1    4    4    0    0 -0.31319187324E+02  0.35205005820E+02 -0.10244412301E+03  0.11276117359E+03  0.00000000000E+00 0.  1.
       14    1    4    4    0    0  0.30828032287E+02  0.19685309311E+02 -0.15734053912E+02  0.39817576896E+02  0.00000000000E+00 0. -1.
        3    1    5    5  501    0  0.45175609576E+01 -0.44310730286E+02 -0.60003666425E+03  0.60168749997E+03  0.00000000000E+00 0. -1.
       -4    1    5    5    0  501 -0.40264059199E+01 -0.10579584845E+02 -0.82377571241E+01  0.14000007234E+02  0.00000000000E+00 0.  1.
</event>
<event>
 9   1  0.7570500E-01  0.2500004E+03  0.7546771E-02  0.1113305E+00
       21   -1    0    0  503  502  0.00000000000E+00  0.00000000000E+00  0.47221576500E+03  0.47221576500E+03  0.00000000000E+00 0. -1.
       21   -1    0    0  502  503 -0.00000000000E+00 -0.00000000000E+00 -0.33088801859E+02  0.33088801859E+02  0.00000000000E+00 0. -1.
       25    2    1    2    0    0  0.71054273576E-14 -0.71054273576E-14  0.43912696314E+03  0.50530456686E+03  0.25000043106E+03 0.  0.
       24    2    3    3    0    0  0.27663147904E+02  0.33111105102E+02  0.54227000974E+02  0.10969224561E+03  0.85030736088E+02 0.  0.
      -24    2    3    3    0    0 -0.27663147904E+02 -0.33111105102E+02  0.38489996217E+03  0.39561232125E+03  0.80619680056E+02 0.  0.
      -13    1    4    4    0    0  0.37416222738E+02  0.52763329114E+02  0.58646986544E+02  0.87312150666E+02  0.00000000000E+00 0.  1.
       14    1    4    4    0    0 -0.97530748339E+01 -0.19652224012E+02 -0.44199855707E+01  0.22380094946E+02  0.00000000000E+00 0. -1.
        3    1    5    5  501    0 -0.49734156482E+02 -0.41431193499E+02  0.23032388963E+03  0.23924699424E+03  0.00000000000E+00 0. -1.
       -4    1    5    5    0  501  0.22071008578E+02  0.83200883969E+01  0.15457607253E+03  0.15636532701E+03  0.00000000000E+00 0.  1.
</event>
<event>
 8   1  0.7570500E-01  0.2498578E+03  0.7546771E-02  0.1113395E+00
       21   -1    0    0  503  502  0.00000000000E+00  0.00000000000E+00  0.50119392271E+02  0.50119392271E+02  0.00000000000E+00 0. -1.
       21   -1    0    0  502  503 -0.00000000000E+00 -0.00000000000E+00 -0.31140114544E+03  0.31140114544E+03  0.00000000000E+00 0. -1.
       24    2    1    2    0    0 -0.41491839800E+02  0.85939475291E+02 -0.10226897049E+03  0.16009501166E+03  0.77873642841E+02 0.  0.
      -24    2    1    2    0    0  0.41491839800E+02 -0.85939475291E+02 -0.15901278268E+03  0.20142552605E+03  0.78613047945E+02 0.  0.
      -13    1    3    3    0    0  0.16051826717E+02  0.49360156738E+02 -0.26905994717E+02  0.58463824421E+02  0.00000000000E+00 0.  1.
       14    1    3    3    0    0 -0.57543666516E+02  0.36579318553E+02 -0.75362975772E+02  0.10163118724E+03  0.00000000000E+00 0. -1.
        1    1    4    4  501    0  0.49413486564E+02 -0.50703918911E+02 -0.14734562342E+03  0.16347266679E+03  0.00000000000E+00 0. -1.
       -2    1    4    4    0  501 -0.79216467647E+01 -0.35235556380E+02 -0.11667159260E+02  0.37952859261E+02  0.00000000000E+00 0.  1.
</event>
<event>
 9   1  0.7570500E-01  0.2500048E+03  0.7546771E-02  0.1113302E+00
       21   -1    0    0  503  502  0.00000000000E+00  0.00000000000E+00  0.53922336473E+03  0.53922336473E+03  0.00000000000E+00 0. -1.
       21   -1    0    0  502  503 -0.00000000000E+00 -0.00000000000E+00 -0.28977969205E+02  0.28977969205E+02  0.00000000000E+00 0. -1.
       25    2    1    2    0    0  0.00000000000E+00  0.00000000000E+00  0.51024539552E+03  0.56820133393E+03  0.25000478441E+03 0.  0.
       24    2    3    3    0    0  0.16040082027E+02  0.75554288112E+02  0.11754279253E+03  0.15998123712E+03  0.76236169043E+02 0.  0.
      -24    2    3    3    0    0 -0.16040082027E+02 -0.75554288112E+02  0.39270260299E+03  0.40822009681E+03  0.80390163342E+02 0.  0.
      -13    1    4    4    0    0 -0.96582306071E+01  0.31969746532E+02  0.15491975476E+01  0.33432710402E+02  0.00000000000E+00 0.  1.
       14    1    4    4    0    0  0.25698312634E+02  0.43584541581E+02  0.11599359498E+03  0.12654852672E+03  0.00000000000E+00 0. -1.
        3    1    5    5  501    0 -0.59970312470E+01 -0.55829366345E+02  0.10003392933E+03  0.11471560290E+03  0.00000000000E+00 0. -1.
       -4    1    5    5    0  501 -0.10043050780E+02 -0.19724921767E+02  0.29266867366E+03  0.29350449392E+03  0.00000000000E+00 0.  1.
</event>
<event>
 9   1  0.7570500E-01  0.2500396E+03  0.7546771E-02  0.1113280E+00
       21   -1    0    0  503  502  0.00000000000E+00  0.00000000000E+00  0.18522871771E+03  0.18522871771E+03  0.00000000000E+00 0. -1.
       21   -1    0    0  502  503 -0.00000000000E+00 -0.00000000000E+00 -0.84381865667E+02  0.84381865667E+02  0.00000000000E+00 0. -1.
       25    2    1    2    0    0  0.00000000000E+00  0.35527136788E-14  0.10084685204E+03  0.26961058337E+03  0.25003955507E+03 0.  0.
       24    2    3    3    0    0 -0.90526333868E+02 -0.17611523243E+02  0.74227608941E+02  0.14388101322E+03  0.81773009983E+02 0.  0.
      -24    2    3    3    0    0  0.90526333868E+02  0.17611523243E+02  0.26619243097E+02  0.12572957015E+03  0.81204420034E+02 0.  0.
      -13    1    4    4    0    0 -0.84486573537E+02 -0.18904034538E+02  0.91242517981E+02  0.12577973095E+03  0.00000000000E+00 0.  1.
       14    1    4    4    0    0 -0.60397603309E+01  0.12925112946E+01 -0.17014909039E+02  0.18101282273E+02  0.00000000000E+00 0. -1.
        3    1    5    5  501    0  0.16679629455E+02  0.20543755215E+02  0.42568586050E+02  0.50123252442E+02  0.00000000000E+00 0. -1.
       -4    1    5    5    0  501  0.73846704412E+02 -0.29322319721E+01 -0.15949342953E+02  0.75606317709E+02  0.00000000000E+00 0.  1.
</event>
<event>
 9   1  0.7570500E-01  0.2499988E+03  0.7546771E-02  0.1113306E+00
       21   -1    0    0  503  502  0.00000000000E+00  0.00000000000E+00  0.72229202488E+03  0.72229202488E+03  0.00000000000E+00 0.  1.
       21   -1    0    0  502  503 -0.00000000000E+00 -0.00000000000E+00 -0.21632318040E+02  0.21632318040E+02  0.00000000000E+00 0.  1.
       25    2    1    2    0    0  0.00000000000E+00  0.00000000000E+00  0.70065970684E+03  0.74392434292E+03  0.24999880640E+03 0.  0.
       24    2    3    3    0    0  0.65922310538E+02  0.62596556654E+02  0.50148293874E+03  0.51587825241E+03  0.79882122744E+02 0.  0.
      -24    2    3    3    0    0 -0.65922310538E+02 -0.62596556654E+02  0.19917676810E+03  0.22804609050E+03  0.63793060067E+02 0.  0.
      -13    1    4    4    0    0  0.57588603587E+02  0.70756930234E+02  0.28860630474E+03  0.30268232452E+03  0.00000000000E+00 0.  1.
       14    1    4    4    0    0  0.83337069511E+01 -0.81603735800E+01  0.21287663399E+03  0.21319592789E+03  0.00000000000E+00 0. -1.
        1    1    5    5  501    0 -0.47137906008E+02 -0.44126186111E+02  0.18913544490E+03  0.19985324366E+03  0.00000000000E+00 0. -1.
       -2    1    5    5    0  501 -0.18784404530E+02 -0.18470370543E+02  0.10041323194E+02  0.28192846842E+02  0.00000000000E+00 0.  1.
</event>
<event>
 9   1  0.7570500E-01  0.2499937E+03  0.7546771E-02  0.1113309E+00
       21   -1    0    0  503  502  0.00000000000E+00  0.00000000000E+00  0.55166260870E+02  0.55166260870E+02  0.00000000000E+00 0. -1.
       21   -1    0    0  502  503 -0.00000000000E+00 -0.00000000000E+00 -0.28322054796E+03  0.28322054796E+03  0.00000000000E+00 0. -1.
       25    2    1    2    0    0 -0.71054273576E-14  0.00000000000E+00 -0.22805428709E+03  0.33838680883E+03  0.24999374898E+03 0.  0.
       24    2    3    3    0    0  0.36697073677E+02  0.71154081292E+02 -0.17899611032E+03  0.21433960648E+03  0.86557962636E+02 0.  0.
      -24    2    3    3    0    0 -0.36697073677E+02 -0.71154081292E+02 -0.49058176771E+02  0.12404720235E+03  0.81064327552E+02 0.  0.
      -13    1    4    4    0    0 -0.28595959073E+02  0.23411772698E+02 -0.52918092858E+02  0.64545832770E+02  0.00000000000E+00 0.  1.
       14    1    4    4    0    0  0.65293032750E+02  0.47742308594E+02 -0.12607801746E+03  0.14979377371E+03  0.00000000000E+00 0. -1.
        3    1    5    5  501    0  0.25903896193E+00 -0.46208143853E+02  0.12656459464E+02  0.47910809069E+02  0.00000000000E+00 0. -1.
       -4    1    5    5    0  501 -0.36956112639E+02 -0.24945937439E+02 -0.61714636234E+02  0.76136393280E+02  0.00000000000E+00 0.  1.
</event>
<event>
 9   1  0.7570500E-01  0.2499997E+03  0.7546771E-02  0.1113305E+00
       21   -1    0    0  503  502  0.00000000000E+00  0.00000000000E+00  0.18791233780E+02  0.18791233780E+02  0.00000000000E+00 0. -1.
       21   -1    0    0  502  503 -0.00000000000E+00 -0.00000000000E+00 -0.83150303393E+03  0.83150303393E+03  0.00000000000E+00 0. -1.
       25    2    1    2    0    0  0.00000000000E+00  0.71054273576E-14 -0.81271180015E+03  0.85029426771E+03  0.24999974319E+03 0.  0.
       24    2    3    3    0    0 -0.26387190112E+02 -0.27835001673E+02 -0.14505427190E+03  0.17644910075E+03  0.92857268094E+02 0.  0.
      -24    2    3    3    0    0  0.26387190112E+02  0.27835001673E+02 -0.66765752825E+03  0.67384516696E+03  0.82641774485E+02 0.  0.
      -13    1    4    4    0    0 -0.66591668441E+01  0.34364939977E+02 -0.56157562263E+02  0.66173751609E+02  0.00000000000E+00 0.  1.
       14    1    4    4    0    0 -0.19728023268E+02 -0.62199941650E+02 -0.88896709640E+02  0.11027534914E+03  0.00000000000E+00 0. -1.
        1    1    5    5  501    0  0.26767873713E+01  0.52090945905E+02 -0.28881627275E+03  0.29348845163E+03  0.00000000000E+00 0. -1.
       -2    1    5    5    0  501  0.23710402740E+02 -0.24255944232E+02 -0.37884125550E+03  0.38035671533E+03  0.00000000000E+00 0.  1.
</event>
<event>
 9   1  0.7570500E-01  0.2500091E+03  0.7546771E-02  0.1113299E+00
       21   -1    0    0  503  502  0.00000000000E+00  0.00000000000E+00  0.66184784422E+02  0.66184784422E+02  0.00000000000E+00 0. -1.
       21   -1    0    0  502  503 -0.00000000000E+00 -0.00000000000E+00 -0.23609867810E+03  0.23609867810E+03  0.00000000000E+00 0. -1.
       25    2    1    2    0    0 -0.71054273576E-14  0.14210854715E-13 -0.16991389368E+03  0.30228346252E+03  0.25000912073E+03 0.  0.
       24    2    3    3    0    0  0.52939123117E+02  0.71386251737E+02 -0.43500702210E+02  0.12817024444E+03  0.81466267704E+02 0.  0.
      -24    2    3    3    0    0 -0.52939123117E+02 -0.71386251737E+02 -0.12641319147E+03  0.17411321808E+03  0.80228237176E+02 0.  0.
      -13    1    4    4    0    0  0.14322551190E+02  0.49554147848E+02  0.15950763864E+02  0.53992368992E+02  0.00000000000E+00 0.  1.
       14    1    4    4    0    0  0.38616571927E+02  0.21832103889E+02 -0.59451466074E+02  0.74177875447E+02  0.00000000000E+00 0. -1.
        1    1    5    5  501    0 -0.67399756655E+02 -0.26323988500E+02 -0.74064421274E+02  0.10354331493E+03  0.00000000000E+00 0. -1.
       -2    1    5    5    0  501  0.14460633538E+02 -0.45062263237E+02 -0.52348770197E+02  0.70569903156E+02  0.00000000000E+00 0.  1.
</event>
<event>
 9   1  0.7570500E-01  0.2500002E+03  0.7546771E-02  0.1113305E+00
       21   -1    0    0  503  502  0.00000000000E+00  0.00000000000E+00  0.18062531470E+03  0.18062531470E+03  0.00000000000E+00 0. -1.
       21   -1    0    0  502  503 -0.00000000000E+00 -0.00000000000E+00 -0.86505167334E+02  0.86505167334E+02  0.00000000000E+00 0. -1.
       25    2    1    2    0    0  0.00000000000E+00  0.00000000000E+00  0.94120147367E+02  0.26713048203E+03  0.25000018458E+03 0.  0.
       24    2    3    3    0    0 -0.73260147043E+02  0.31361121556E+02  0.30949077691E+02  0.11805330883E+03  0.81413569057E+02 0.  0.
      -24    2    3    3    0    0  0.73260147043E+02 -0.31361121556E+02  0.63171069676E+02  0.14907717320E+03  0.10900848791E+03 0.  0.
      -13    1    4    4    0    0 -0.19204984122E+02  0.51003311365E+02  0.25836350665E+02  0.60313234045E+02  0.00000000000E+00 0.  1.
       14    1    4    4    0    0 -0.54055162921E+02 -0.19642189809E+02  0.51127270261E+01  0.57740074788E+02  0.00000000000E+00 0. -1.
        3    1    5    5  501    0 -0.39778711078E+01 -0.12444646907E+02  0.68159292599E+02  0.69400157513E+02  0.00000000000E+00 0. -1.
       -4    1    5    5    0  501  0.77238018151E+02 -0.18916474649E+02 -0.49882229236E+01  0.79677015688E+02  0.00000000000E+00 0.  1.
</event>
<event>
 9   1  0.7570500E-01  0.2499977E+03  0.7546771E-02  0.1113306E+00
       21   -1    0    0  503  502  0.00000000000E+00  0.00000000000E+00  0.16516910364E+03  0.16516910364E+03  0.00000000000E+00 0. -1.
       21   -1    0    0  502  503 -0.00000000000E+00 -0.00000000000E+00 -0.94598245890E+02  0.94598245890E+02  0.00000000000E+00 0. -1.
       25    2    1    2    0    0  0.00000000000E+00  0.00000000000E+00  0.70570857754E+02  0.25976734954E+03  0.24999765983E+03 0.  0.
       24    2    3    3    0    0  0.29773829799E+02 -0.76619897065E+02  0.88693262282E+02  0.14333838431E+03  0.76956533680E+02 0.  0.
      -24    2    3    3    0    0 -0.29773829799E+02  0.76619897065E+02 -0.18122404528E+02  0.11642896522E+03  0.80437508849E+02 0.  0.
      -13    1    4    4    0    0 -0.97470393775E+01 -0.63287961965E+02  0.28459859814E+02  0.70073779169E+02  0.00000000000E+00 0.  1.
       14    1    4    4    0    0  0.39520869177E+02 -0.13331935099E+02  0.60233402468E+02  0.73264605144E+02  0.00000000000E+00 0. -1.
        1    1    5    5  501    0  0.56283110530E+00 -0.70388991052E+01 -0.26142065509E+02  0.27078967273E+02  0.00000000000E+00 0. -1.
       -2    1    5    5    0  501 -0.30336660905E+02  0.83658796170E+02  0.80196609815E+01  0.89349997950E+02  0.00000000000E+00 0.  1.
</event>
<event>
 9   1  0.7570500E-01  0.2500007E+03  0.7546771E-02  0.1113304E+00
       21   -1    0    0  503  502  0.00000000000E+00  0.00000000000E+00  0.70321895709E+03  0.70321895709E+03  0.00000000000E+00 0.  1.
       21   -1    0    0  502  503 -0.00000000000E+00 -0.00000000000E+00 -0.22219383771E+02  0.22219383771E+02  0.00000000000E+00 0.  1.
       25    2    1    2    0    0  0.71054273576E-14 -0.71054273576E-14  0.68099957332E+03  0.72543834086E+03  0.25000073506E+03 0.  0.
       24    2    3    3    0    0 -0.58072183870E+02  0.26012693152E+02  0.13291966253E+03  0.16788062614E+03  0.80419084792E+02 0.  0.
      -24    2    3    3    0    0  0.58072183870E+02 -0.26012693152E+02  0.54807991079E+03  0.55755771473E+03  0.80187142988E+02 0.  0.
      -13    1    4    4    0    0 -0.12735445436E+02  0.23262320608E+02 -0.92788329312E+00  0.26536542690E+02  0.00000000000E+00 0.  1.
       14    1    4    4    0    0 -0.45336738434E+02  0.27503725441E+01  0.13384754583E+03  0.14134408345E+03  0.00000000000E+00 0. -1.
        1    1    5    5  501    0  0.40807160272E+02 -0.36880280883E+02  0.16482752246E+03  0.17376274517E+03  0.00000000000E+00 0. -1.
       -2    1    5    5    0  501  0.17265023598E+02  0.10867587731E+02  0.38325238833E+03  0.38379496956E+03  0.00000000000E+00 0.  1.
</event>
<event>
 9   1  0.7570500E-01  0.2500007E+03  0.7546771E-02  0.1113304E+00
       21   -1    0    0  503  502  0.00000000000E+00  0.00000000000E+00  0.49408858405E+02  0.49408858405E+02  0.00000000000E+00 0. -1.
       21   -1    0    0  502  503 -0.00000000000E+00 -0.00000000000E+00 -0.31624073472E+03  0.31624073472E+03  0.00000000000E+00 0. -1.
       25    2    1    2    0    0  0.00000000000E+00 -0.14210854715E-13 -0.26683187631E+03  0.36564959312E+03  0.25000074947E+03 0.  0.
       24    2    3    3    0    0  0.66251843704E+02  0.47627634769E+02 -0.65595701625E+02  0.13340583065E+03  0.82683862953E+02 0.  0.
      -24    2    3    3    0    0 -0.66251843704E+02 -0.47627634769E+02 -0.20123617469E+03  0.23224376247E+03  0.82361816490E+02 0.  0.
      -13    1    4    4    0    0  0.58583967673E+02  0.66094865130E+02 -0.70277039490E+02  0.11286928167E+03  0.00000000000E+00 0.  1.
       14    1    4    4    0    0  0.76678760306E+01 -0.18467230361E+02  0.46813378648E+01  0.20536548985E+02  0.00000000000E+00 0. -1.
        1    1    5    5  501    0 -0.28827190598E+02  0.22404817633E+02 -0.61342034144E+02  0.71385067934E+02  0.00000000000E+00 0. -1.
       -2    1    5    5    0  501 -0.37424653105E+02 -0.70032452402E+02 -0.13989414054E+03  0.16085869454E+03  0.00000000000E+00 0.  1.
</event>
<event>
 9   1  0.7570500E-01  0.2499994E+03  0.7546771E-02  0.1113305E+00
       21   -1    0    0  503  502  0.00000000000E+00  0.00000000000E+00  0.34513410898E+02  0.34513410898E+02  0.00000000000E+00 0.  1.
       21   -1    0    0  502  503 -0.00000000000E+00 -0.00000000000E+00 -0.45272031590E+03  0.45272031590E+03  0.00000000000E+00 0.  1.
       25    2    1    2    0    0  0.14210854715E-13  0.00000000000E+00 -0.41820690500E+03  0.48723372679E+03  0.24999937828E+03 0.  0.
       24    2    3    3    0    0 -0.73008163304E+02  0.73525259072E+02 -0.23633333636E+03  0.26529676466E+03  0.61585483953E+02 0.  0.
      -24    2    3    3    0    0  0.73008163304E+02 -0.73525259072E+02 -0.18187356864E+03  0.22193696214E+03  0.73768994582E+02 0.  0.
      -13    1    4    4    0    0  0.10313899869E+02  0.94220896812E+01 -0.43237066715E+02  0.45437828321E+02  0.00000000000E+00 0.  1.
       14    1    4    4    0    0 -0.83322063173E+02  0.64103169391E+02 -0.19309626964E+03  0.21985893634E+03  0.00000000000E+00 0. -1.
        3    1    5    5  501    0  0.25363111067E+02 -0.32445907463E+02 -0.14105861912E+03  0.14694746797E+03  0.00000000000E+00 0. -1.
       -4    1    5    5    0  501  0.47645052237E+02 -0.41079351608E+02 -0.40814949520E+02  0.74989494168E+02  0.00000000000E+00 0.  1.
</event>
<event>
 9   1  0.7570500E-01  0.2499223E+03  0.7546771E-02  0.1113354E+00
       21   -1    0    0  503  502  0.00000000000E+00  0.00000000000E+00  0.33827893344E+02  0.33827893344E+02  0.00000000000E+00 0. -1.
       21   -1    0    0  502  503 -0.00000000000E+00 -0.00000000000E+00 -0.46160995543E+03  0.46160995543E+03  0.00000000000E+00 0. -1.
       25    2    1    2    0    0  0.00000000000E+00  0.00000000000E+00 -0.42778206209E+03  0.49543784878E+03  0.24992232665E+03 0.  0.
       24    2    3    3    0    0  0.11663974402E+02 -0.40265721285E+02 -0.38379062207E+03  0.39502083984E+03  0.83599316458E+02 0.  0.
      -24    2    3    3    0    0 -0.11663974402E+02  0.40265721285E+02 -0.43991440020E+02  0.10041700893E+03  0.79943431743E+02 0.  0.
      -13    1    4    4    0    0  0.27509449964E+02 -0.59002158592E+02 -0.32241525491E+03  0.32892190738E+03  0.00000000000E+00 0.  1.
       14    1    4    4    0    0 -0.15845475562E+02  0.18736437307E+02 -0.61375367158E+02  0.66098932461E+02  0.00000000000E+00 0. -1.
        3    1    5    5  501    0 -0.24778432528E+02 -0.13014758358E+02 -0.34999645265E+02  0.44814393027E+02  0.00000000000E+00 0. -1.
       -4    1    5    5    0  501  0.13114458126E+02  0.53280479643E+02 -0.89917947542E+01  0.55602615908E+02  0.00000000000E+00 0.  1.
</event>
<event>
 9   1  0.7570500E-01  0.2499963E+03  0.7546771E-02  0.1113307E+00
       21   -1    0    0  503  502  0.00000000000E+00  0.00000000000E+00  0.17515359395E+02  0.17515359395E+02  0.00000000000E+00 0.  1.
       21   -1    0    0  502  503 -0.00000000000E+00 -0.00000000000E+00 -0.89204807560E+03  0.89204807560E+03  0.00000000000E+00 0.  1.
       25    2    1    2    0    0  0.00000000000E+00 -0.14210854715E-13 -0.87453271620E+03  0.90956343499E+03  0.24999634111E+03 0.  0.
       24    2    3    3    0    0  0.22296146282E+02 -0.93007355324E+02 -0.44119900551E+03  0.45860423611E+03  0.80708095201E+02 0.  0.
      -24    2    3    3    0    0 -0.22296146282E+02  0.93007355324E+02 -0.43333371069E+03  0.45095919889E+03  0.80240936887E+02 0.  0.
      -13    1    4    4    0    0 -0.24018941090E+02 -0.61439997770E+02 -0.18686594219E+03  0.19816826993E+03  0.00000000000E+00 0.  1.
       14    1    4    4    0    0  0.46315087372E+02 -0.31567357554E+02 -0.25433306332E+03  0.26043596617E+03  0.00000000000E+00 0. -1.
        3    1    5    5  501    0 -0.25173888244E+02  0.60249274058E+02 -0.12640692059E+03  0.14227582102E+03  0.00000000000E+00 0. -1.
       -4    1    5    5    0  501  0.28777419615E+01  0.32758081265E+02 -0.30692679011E+03  0.30868337787E+03  0.00000000000E+00 0.  1.
</event>
<event>
 9   1  0.7570500E-01  0.2500046E+03  0.7546771E-02  0.1113302E+00
       21   -1    0    0  503  502  0.00000000000E+00  0.00000000000E+00  0.48749454174E+03  0.48749454174E+03  0.00000000000E+00 0.  1.
       21   -1    0    0  502  503 -0.00000000000E+00 -0.00000000000E+00 -0.32052816138E+02  0.32052816138E+02  0.00000000000E+00 0.  1.
       25    2    1    2    0    0 -0.35527136788E-14  0.00000000000E+00  0.45544172560E+03  0.51954735788E+03  0.25000458327E+03 0.  0.
       24    2    3    3    0    0  0.28534460363E+02 -0.87048728762E+02  0.17818693725E+03  0.21679351863E+03  0.82807901220E+02 0.  0.
      -24    2    3    3    0    0 -0.28534460363E+02  0.87048728762E+02  0.27725478835E+03  0.30275383925E+03  0.79987329684E+02 0.  0.
      -13    1    4    4    0    0 -0.32264885203E+01 -0.89150959477E+02  0.11066003133E+03  0.14214058652E+03  0.00000000000E+00 0.  1.
       14    1    4    4    0    0  0.31760948884E+02  0.21022307152E+01  0.67526905926E+02  0.74652932106E+02  0.00000000000E+00 0. -1.
        1    1    5    5  501    0 -0.52948136227E+02  0.55994619145E+02  0.22071409871E+03  0.23378112814E+03  0.00000000000E+00 0. -1.
       -2    1    5    5    0  501  0.24413675864E+02  0.31054109617E+02  0.56540689635E+02  0.68972711109E+02  0.00000000000E+00 0.  1.
</event>
<event>
 9   1  0.7570500E-01  0.2499763E+03  0.7546771E-02  0.1113320E+00
       21   -1    0    0  503  502  0.00000000000E+00  0.00000000000E+00  0.10309757985E+02  0.10309757985E+02  0.00000000000E+00 0.  1.
       21   -1    0    0  502  503 -0.00000000000E+00 -0.00000000000E+00 -0.15152668752E+04  0.15152668752E+04  0.00000000000E+00 0.  1.
       25    2    1    2    0    0  0.00000000000E+00  0.00000000000E+00 -0.15049571172E+04  0.15255766332E+04  0.24997627700E+03 0.  0.
       24    2    3    3    0    0  0.26263899692E+02  0.80661804783E+01 -0.13113351777E+04  0.13139714653E+04  0.78525202574E+02 0.  0.
      -24    2    3    3    0    0 -0.26263899692E+02 -0.80661804783E+01 -0.19362193946E+03  0.21160516791E+03  0.80823486390E+02 0.  0.
      -13    1    4    4    0    0  0.39830490396E+01  0.39056268037E+02 -0.42336307696E+03  0.42517943469E+03  0.00000000000E+00 0.  1.
       14    1    4    4    0    0  0.22280850653E+02 -0.30990087558E+02 -0.88797210079E+03  0.88879203057E+03  0.00000000000E+00 0. -1.
        3    1    5    5  501    0  0.10594062342E+01 -0.36124033950E+02 -0.14358829089E+03  0.14806642243E+03  0.00000000000E+00 0. -1.
       -4    1    5    5    0  501 -0.27323305927E+02  0.28057853472E+02 -0.50033648568E+02  0.63538745480E+02  0.00000000000E+00 0.  1.
</event>
<event>
 9   1  0.7570500E-01  0.2499998E+03  0.7546771E-02  0.1113305E+00
       21   -1    0    0  503  502  0.00000000000E+00  0.00000000000E+00  0.16761896572E+02  0.16761896572E+02  0.00000000000E+00 0.  1.
       21   -1    0    0  502  503 -0.00000000000E+00 -0.00000000000E+00 -0.93217237521E+03  0.93217237521E+03  0.00000000000E+00 0.  1.
       25    2    1    2    0    0 -0.14210854715E-13  0.00000000000E+00 -0.91541047864E+03  0.94893427178E+03  0.24999981552E+03 0.  0.
       24    2    3    3    0    0 -0.83705772425E+02 -0.27776220084E+02 -0.59551965136E+03  0.60741731071E+03  0.80832910762E+02 0.  0.
      -24    2    3    3    0    0  0.83705772425E+02  0.27776220084E+02 -0.31989082728E+03  0.34151696107E+03  0.80780681972E+02 0.  0.
      -13    1    4    4    0    0  0.12333940480E+02 -0.97954900133E+01 -0.17445832082E+03  0.17516787210E+03  0.00000000000E+00 0.  1.
       14    1    4    4    0    0 -0.96039712905E+02 -0.17980730071E+02 -0.42106133054E+03  0.43224943862E+03  0.00000000000E+00 0. -1.
        1    1    5    5  501    0  0.80897527429E+02  0.20028052655E+02 -0.32232403668E+03  0.33292389139E+03  0.00000000000E+00 0. -1.
       -2    1    5    5    0  501  0.28082449957E+01  0.77481674299E+01  0.24332094005E+01  0.85930696764E+01  0.00000000000E+00 0.  1.
</event>
<event>
 9   1  0.7570500E-01  0.2499414E+03  0.7546771E-02  0.1113342E+00
       21   -1    0    0  503  502  0.00000000000E+00  0.00000000000E+00  0.35281157753E+02  0.35281157753E+02  0.00000000000E+00 0.  1.
       21   -1    0    0  502  503 -0.00000000000E+00 -0.00000000000E+00 -0.44266322048E+03  0.44266322048E+03  0.00000000000E+00 0.  1.
       25    2    1    2    0    0  0.14210854715E-13  0.00000000000E+00 -0.40738206272E+03  0.47794437823E+03  0.24994136043E+03 0.  0.
       24    2    3    3    0    0  0.41584252558E+02  0.67193618567E+02 -0.30144069108E+03  0.32135185685E+03  0.78462049552E+02 0.  0.
      -24    2    3    3    0    0 -0.41584252558E+02 -0.67193618567E+02 -0.10594137164E+03  0.15659252138E+03  0.83984588416E+02 0.  0.
      -13    1    4    4    0    0 -0.18489928335E+02  0.39684154731E+02 -0.14674138194E+03  0.15313308839E+03  0.00000000000E+00 0.  1.
       14    1    4    4    0    0  0.60074180894E+02  0.27509463835E+02 -0.15469930914E+03  0.16821876845E+03  0.00000000000E+00 0. -1.
        3    1    5    5  501    0 -0.45474286013E+02 -0.63770017792E+02 -0.11904584172E+03  0.14250066066E+03  0.00000000000E+00 0. -1.
       -4    1    5    5    0  501  0.38900334550E+01 -0.34236007745E+01  0.13104470081E+02  0.14091860723E+02  0.00000000000E+00 0.  1.
</event>
<event>
 9   1  0.7570500E-01  0.2500246E+03  0.7546771E-02  0.1113289E+00
       21   -1    0    0  503  502  0.00000000000E+00  0.00000000000E+00  0.86648834811E+03  0.86648834811E+03  0.00000000000E+00 0. -1.
       21   -1    0    0  502  503 -0.00000000000E+00 -0.00000000000E+00 -0.18036101263E+02  0.18036101263E+02  0.00000000000E+00 0. -1.
       25    2    1    2    0    0  0.00000000000E+00  0.00000000000E+00  0.84845224685E+03  0.88452444938E+03  0.25002457151E+03 0.  0.
       24    2    3    3    0    0  0.36899087845E+02 -0.84956503689E+02  0.37422843917E+03  0.39396647509E+03  0.81138823045E+02 0.  0.
      -24    2    3    3    0    0 -0.36899087845E+02  0.84956503689E+02  0.47422380767E+03  0.49055797429E+03  0.84733441844E+02 0.  0.
      -13    1    4    4    0    0  0.21948279548E+02 -0.92885940290E+02  0.23393669091E+03  0.25265767400E+03  0.00000000000E+00 0.  1.
       14    1    4    4    0    0  0.14950808297E+02  0.79294366014E+01  0.14029174826E+03  0.14130880109E+03  0.00000000000E+00 0. -1.
        1    1    5    5  501    0 -0.22057264832E+02  0.91506099066E+02  0.27476482448E+03  0.29044035165E+03  0.00000000000E+00 0. -1.
       -2    1    5    5    0  501 -0.14841823013E+02 -0.65495953775E+01  0.19945898320E+03  0.20011762263E+03  0.00000000000E+00 0.  1.
</event>
<event>
 9   1  0.7570500E-01  0.2500015E+03  0.7546771E-02  0.1113304E+00
       21   -1    0    0  503  502  0.00000000000E+00  0.00000000000E+00  0.13323030433E+03  0.13323030433E+03  0.00000000000E+00 0. -1.
       21   -1    0    0  502  503 -0.00000000000E+00 -0.00000000000E+00 -0.11727955948E+03  0.11727955948E+03  0.00000000000E+00 0. -1.
       25    2    1    2    0    0 -0.35527136788E-14  0.00000000000E+00  0.15950744851E+02  0.25050986382E+03  0.25000153121E+03 0.  0.
       24    2    3    3    0    0  0.27649084442E+02 -0.58314280085E+02  0.82594162369E+02  0.12942608620E+03  0.75922914848E+02 0.  0.
      -24    2    3    3    0    0 -0.27649084442E+02  0.58314280085E+02 -0.66643417518E+02  0.12108377762E+03  0.77813295597E+02 0.  0.
      -13    1    4    4    0    0 -0.20140299408E+02 -0.39839421420E+02  0.21076435836E+02  0.49366256763E+02  0.00000000000E+00 0.  1.
       14    1    4    4    0    0  0.47789383849E+02 -0.18474858666E+02  0.61517726533E+02  0.80059829435E+02  0.00000000000E+00 0. -1.
        1    1    5    5  501    0 -0.50047586989E+02  0.59964840230E+02 -0.46406134465E+02  0.90851925368E+02  0.00000000000E+00 0. -1.
       -2    1    5    5    0  501  0.22398502547E+02 -0.16505601444E+01 -0.20237283053E+02  0.30231852251E+02  0.00000000000E+00 0.  1.
</event>
<event>
 9   1  0.7570500E-01  0.2500013E+03  0.7546771E-02  0.1113304E+00
       21   -1    0    0  503  502  0.00000000000E+00  0.00000000000E+00  0.34731818453E+03  0.34731818453E+03  0.00000000000E+00 0. -1.
       21   -1    0    0  502  503 -0.00000000000E+00 -0.00000000000E+00 -0.44988034628E+02  0.44988034628E+02  0.00000000000E+00 0. -1.
       25    2    1    2    0    0  0.00000000000E+00  0.35527136788E-14  0.30233014990E+03  0.39230621915E+03  0.25000130010E+03 0.  0.
       24    2    3    3    0    0 -0.91673071435E+02 -0.20618020847E+02  0.12968520355E+03  0.17906962941E+03  0.80116323848E+02 0.  0.
      -24    2    3    3    0    0  0.91673071435E+02  0.20618020847E+02  0.17264494635E+03  0.21323658975E+03  0.82671100736E+02 0.  0.
      -13    1    4    4    0    0 -0.90416985467E+02  0.79023308422E+01  0.11634206072E+03  0.14755728781E+03  0.00000000000E+00 0.  1.
       14    1    4    4    0    0 -0.12560859677E+01 -0.28520351689E+02  0.13343142832E+02  0.31512341599E+02  0.00000000000E+00 0. -1.
        1    1    5    5  501    0  0.80936626630E+01 -0.21546513993E+02  0.72882501342E+02  0.76430482417E+02  0.00000000000E+00 0. -1.
       -2    1    5    5    0  501  0.83579408772E+02  0.42164534840E+02  0.99762445005E+02  0.13680610733E+03  0.00000000000E+00 0.  1.
</event>
<event>
 9   1  0.7570500E-01  0.2500203E+03  0.7546771E-02  0.1113292E+00
       21   -1    0    0  503  502  0.00000000000E+00  0.00000000000E+00  0.46806784647E+03  0.46806784647E+03  0.00000000000E+00 0. -1.
       21   -1    0    0  502  503 -0.00000000000E+00 -0.00000000000E+00 -0.33387332328E+02  0.33387332328E+02  0.00000000000E+00 0. -1.
       25    2    1    2    0    0 -0.14210854715E-13 -0.17763568394E-14  0.43468051414E+03  0.50145517879E+03  0.25002029311E+03 0.  0.
       24    2    3    3    0    0  0.88547420476E+02  0.39311079047E+01  0.14454231198E+03  0.18721850801E+03  0.79386337022E+02 0.  0.
      -24    2    3    3    0    0 -0.88547420476E+02 -0.39311079047E+01  0.29013820215E+03  0.31423667078E+03  0.81904881625E+02 0.  0.
      -13    1    4    4    0    0  0.45724490063E+02 -0.29660354441E+02  0.10998498559E+03  0.12274837137E+03  0.00000000000E+00 0.  1.
       14    1    4    4    0    0  0.42822930413E+02  0.33591462346E+02  0.34557326390E+02  0.64470136644E+02  0.00000000000E+00 0. -1.
        1    1    5    5  501    0 -0.46247560894E+02 -0.83140323424E+00  0.25499285744E+03  0.25915417316E+03  0.00000000000E+00 0. -1.
       -2    1    5    5    0  501 -0.42299859582E+02 -0.30997046704E+01  0.35145344716E+02  0.55082497627E+02  0.00000000000E+00 0.  1.
</event>
<event>
 9   1  0.7570500E-01  0.2499736E+03  0.7546771E-02  0.1113322E+00
       21   -1    0    0  503  502  0.00000000000E+00  0.00000000000E+00  0.25308012845E+03  0.25308012845E+03  0.00000000000E+00 0. -1.
       21   -1    0    0  502  503 -0.00000000000E+00 -0.00000000000E+00 -0.61726279694E+02  0.61726279694E+02  0.00000000000E+00 0. -1.
       25    2    1    2    0    0  0.00000000000E+00 -0.71054273576E-14  0.19135384876E+03  0.31480640815E+03  0.24997355695E+03 0.  0.
       24    2    3    3    0    0 -0.83713194521E+02  0.24743237364E+02  0.14252400372E+03  0.18591564972E+03  0.81433472481E+02 0.  0.
      -24    2    3    3    0    0  0.83713194521E+02 -0.24743237364E+02  0.48829845039E+02  0.12889075843E+03  0.81291740727E+02 0.  0.
      -13    1    4    4    0    0 -0.41746665150E+01  0.18059580771E+02  0.86336268320E+02  0.88303609924E+02  0.00000000000E+00 0.  1.
       14    1    4    4    0    0 -0.79538528006E+02  0.66836565931E+01  0.56187735402E+02  0.97612039792E+02  0.00000000000E+00 0. -1.
        1    1    5    5  501    0  0.23891151488E+02 -0.44475566552E+02  0.22304585373E+01  0.50535513106E+02  0.00000000000E+00 0. -1.
       -2    1    5    5    0  501  0.59822043033E+02  0.19732329188E+02  0.46599386501E+02  0.78355245326E+02  0.00000000000E+00 0.  1.
</event>
<event>
 9   1  0.7570500E-01  0.2499996E+03  0.7546771E-02  0.1113305E+00
       21   -1    0    0  503  502  0.00000000000E+00  0.00000000000E+00  0.67675882629E+02  0.67675882629E+02  0.00000000000E+00 0.  1.
       21   -1    0    0  502  503 -0.00000000000E+00 -0.00000000000E+00 -0.23087907742E+03  0.23087907742E+03  0.00000000000E+00 0.  1.
       25    2    1    2    0    0  0.00000000000E+00  0.28421709430E-13 -0.16320319479E+03  0.29855496005E+03  0.24999956276E+03 0.  0.
       24    2    3    3    0    0 -0.28883880636E+02 -0.75767458467E+02 -0.13753483798E+03  0.18172357113E+03  0.86790773265E+02 0.  0.
      -24    2    3    3    0    0  0.28883880636E+02  0.75767458467E+02 -0.25668356814E+02  0.11683138892E+03  0.80098205796E+02 0.  0.
      -13    1    4    4    0    0  0.62763285713E+01 -0.21984566187E+02 -0.10907778072E+03  0.11144808521E+03  0.00000000000E+00 0.  1.
       14    1    4    4    0    0 -0.35160209207E+02 -0.53782892280E+02 -0.28457057259E+02  0.70275485920E+02  0.00000000000E+00 0. -1.
        3    1    5    5  501    0  0.22695167950E+02 -0.85154235503E+01 -0.21201173104E+02  0.32203615131E+02  0.00000000000E+00 0. -1.
       -4    1    5    5    0  501  0.61887126864E+01  0.84282882017E+02 -0.44671837101E+01  0.84627773787E+02  0.00000000000E+00 0.  1.
</event>
<event>
 9   1  0.7570500E-01  0.2499960E+03  0.7546771E-02  0.1113307E+00
       21   -1    0    0  503  502  0.00000000000E+00  0.00000000000E+00  0.70246647612E+03  0.70246647612E+03  0.00000000000E+00 0.  1.
       21   -1    0    0  502  503 -0.00000000000E+00 -0.00000000000E+00 -0.22242337538E+02  0.22242337538E+02  0.00000000000E+00 0.  1.
       25    2    1    2    0    0  0.00000000000E+00  0.00000000000E+00  0.68022413858E+03  0.72470881365E+03  0.24999597173E+03 0.  0.
       24    2    3    3    0    0 -0.90872292677E+01  0.68828442240E+02  0.52915420528E+03  0.53969199044E+03  0.80270414180E+02 0.  0.
      -24    2    3    3    0    0  0.90872292677E+01 -0.68828442240E+02  0.15106993330E+03  0.18501682321E+03  0.81173689859E+02 0.  0.
      -13    1    4    4    0    0 -0.32982373626E+02 -0.28560519286E+00  0.16007124167E+03  0.16343414867E+03  0.00000000000E+00 0.  1.
       14    1    4    4    0    0  0.23895144358E+02  0.69114047433E+02  0.36908296360E+03  0.37625784177E+03  0.00000000000E+00 0. -1.
        1    1    5    5  501    0  0.89663438418E+01 -0.62219508311E+02  0.16114204038E+03  0.17296941843E+03  0.00000000000E+00 0. -1.
       -2    1    5    5    0  501  0.12088542593E+00 -0.66089339295E+01 -0.10072107073E+02  0.12047404777E+02  0.00000000000E+00 0.  1.
</event>
<event>
 9   1  0.7570500E-01  0.2499992E+03  0.7546771E-02  0.1113305E+00
       21   -1    0    0  503  502  0.00000000000E+00  0.00000000000E+00  0.30699621775E+03  0.30699621775E+03  0.00000000000E+00 0.  1.
       21   -1    0    0  502  503 -0.00000000000E+00 -0.00000000000E+00 -0.50896074446E+02  0.50896074446E+02  0.00000000000E+00 0.  1.
       25    2    1    2    0    0 -0.71054273576E-14  0.71054273576E-14  0.25610014331E+03  0.35789229220E+03  0.24999921883E+03 0.  0.
       24    2    3    3    0    0  0.20673403400E+02  0.11861623496E+02 -0.67017821005E+01  0.84570697340E+02  0.80865327831E+02 0.  0.
      -24    2    3    3    0    0 -0.20673403400E+02 -0.11861623496E+02  0.26280192541E+03  0.27332159486E+03  0.71216251646E+02 0.  0.
      -13    1    4    4    0    0  0.39793191039E+02  0.34692155599E+02  0.39591985931E+01  0.52940711807E+02  0.00000000000E+00 0.  1.
       14    1    4    4    0    0 -0.19119787639E+02 -0.22830532103E+02 -0.10660980694E+02  0.31629985533E+02  0.00000000000E+00 0. -1.
        1    1    5    5  501    0  0.72880749553E+01  0.21645727637E+02  0.16025631014E+03  0.16187568842E+03  0.00000000000E+00 0. -1.
       -2    1    5    5    0  501 -0.27961478355E+02 -0.33507351133E+02  0.10254561527E+03  0.11144590644E+03  0.00000000000E+00 0.  1.
</event>
<event>
 9   1  0.7570500E-01  0.2499783E+03  0.7546771E-02  0.1113319E+00
       21   -1    0    0  503  502  0.00000000000E+00  0.00000000000E+00  0.10038000226E+03  0.10038000226E+03  0.00000000000E+00 0. -1.
       21   -1    0    0  502  503 -0.00000000000E+00 -0.00000000000E+00 -0.15563151498E+03  0.15563151498E+03  0.00000000000E+00 0. -1.
       25    2    1    2    0    0  0.00000000000E+00  0.00000000000E+00 -0.55251512719E+02  0.25601151723E+03  0.24997833366E+03 0.  0.
       24    2    3    3    0    0  0.92543468506E+02  0.10298894975E+02 -0.13304272557E+01  0.12173799338E+03  0.78409235396E+02 0.  0.
      -24    2    3    3    0    0 -0.92543468506E+02 -0.10298894975E+02 -0.53921085464E+02  0.13427352385E+03  0.80321447625E+02 0.  0.
      -13    1    4    4    0    0  0.10691437699E+03  0.90750016228E+01 -0.69532201168E+00  0.10730108636E+03  0.00000000000E+00 0.  1.
       14    1    4    4    0    0 -0.14370908485E+02  0.12238933522E+01 -0.63510524404E+00  0.14436907020E+02  0.00000000000E+00 0. -1.
        3    1    5    5  501    0 -0.10260080849E+02  0.10771599446E+02 -0.46719207767E+02  0.49030408809E+02  0.00000000000E+00 0. -1.
       -4    1    5    5    0  501 -0.82283387657E+02 -0.21070494421E+02 -0.72018776969E+01  0.85243115040E+02  0.00000000000E+00 0.  1.
</event>
<event>
 9   1  0.7570500E-01  0.2500169E+03  0.7546771E-02  0.1113294E+00
       21   -1    0    0  503  502  0.00000000000E+00  0.00000000000E+00  0.53787604662E+03  0.53787604662E+03  0.00000000000E+00 0. -1.
       21   -1    0    0  502  503 -0.00000000000E+00 -0.00000000000E+00 -0.29053364770E+02  0.29053364770E+02  0.00000000000E+00 0. -1.
       25    2    1    2    0    0  0.00000000000E+00  0.17763568394E-14  0.50882268185E+03  0.56692941139E+03  0.25001687130E+03 0.  0.
       24    2    3    3    0    0  0.91830316585E+02 -0.45116358557E+01  0.31686397558E+03  0.33948805099E+03  0.79976220474E+02 0.  0.
      -24    2    3    3    0    0 -0.91830316585E+02  0.45116358557E+01  0.19195870627E+03  0.22744136041E+03  0.80176465418E+02 0.  0.
      -13    1    4    4    0    0  0.43031177354E+02 -0.36081048638E+02  0.21496696431E+03  0.22218082734E+03  0.00000000000E+00 0.  1.
       14    1    4    4    0    0  0.48799139231E+02  0.31569412782E+02  0.10189701127E+03  0.11730722364E+03  0.00000000000E+00 0. -1.
        3    1    5    5  501    0 -0.68714381589E+02  0.12508286159E+02  0.56622021067E+02  0.89912049968E+02  0.00000000000E+00 0. -1.
       -4    1    5    5    0  501 -0.23115934996E+02 -0.79966503032E+01  0.13533668521E+03  0.13752931044E+03  0.00000000000E+00 0.  1.
</event>
<event>
 9   1  0.7570500E-01  0.2500193E+03  0.7546771E-02  0.1113293E+00
       21   -1    0    0  503  502  0.00000000000E+00  0.00000000000E+00  0.27538934437E+02  0.27538934437E+02  0.00000000000E+00 0.  1.
       21   -1    0    0  502  503 -0.00000000000E+00 -0.00000000000E+00 -0.56746592087E+03  0.56746592087E+03  0.00000000000E+00 0.  1.
       25    2    1    2    0    0 -0.71054273576E-14  0.00000000000E+00 -0.53992698643E+03  0.59500485531E+03  0.25001925358E+03 0.  0.
       24    2    3    3    0    0  0.61219190089E+02  0.70460158364E+02 -0.32234954429E+03  0.34529973229E+03  0.81303464069E+02 0.  0.
      -24    2    3    3    0    0 -0.61219190089E+02 -0.70460158364E+02 -0.21757744215E+03  0.24970512301E+03  0.79374315589E+02 0.  0.
      -13    1    4    4    0    0  0.89257200234E+01  0.70865949669E+02 -0.19155184939E+03  0.20443522766E+03  0.00000000000E+00 0.  1.
       14    1    4    4    0    0  0.52293470066E+02 -0.40579130505E+00 -0.13079769489E+03  0.14086450464E+03  0.00000000000E+00 0. -1.
        1    1    5    5  501    0 -0.17357063945E+02  0.13296936460E+01 -0.10858658422E+01  0.17441756179E+02  0.00000000000E+00 0. -1.
       -2    1    5    5    0  501 -0.43862126144E+02 -0.71789852010E+02 -0.21649157630E+03  0.23226336683E+03  0.00000000000E+00 0.  1.
</event>
<event>
 9   1  0.7570500E-01  0.2500047E+03  0.7546771E-02  0.1113302E+00
       21   -1    0    0  503  502  0.00000000000E+00  0.00000000000E+00  0.14928804252E+03  0.14928804252E+03  0.00000000000E+00 0.  1.
       21   -1    0    0  502  503 -0.00000000000E+00 -0.00000000000E+00 -0.10466734781E+03  0.10466734781E+03  0.00000000000E+00 0.  1.
       25    2    1    2    0    0  0.71054273576E-14 -0.14210854715E-13  0.44620694719E+02  0.25395539033E+03  0.25000466772E+03 0.  0.
       24    2    3    3    0    0 -0.50623574692E+02  0.38840606087E+02  0.94324765937E+02  0.13868514663E+03  0.79152191565E+02 0.  0.
      -24    2    3    3    0    0  0.50623574692E+02 -0.38840606087E+02 -0.49704071219E+02  0.11527024371E+03  0.82130356096E+02 0.  0.
      -13    1    4    4    0    0 -0.79727548467E+01  0.52304746864E+02  0.70083623601E+02  0.87812673695E+02  0.00000000000E+00 0.  1.
       14    1    4    4    0    0 -0.42650819845E+02 -0.13464140777E+02  0.24241142336E+02  0.50872472930E+02  0.00000000000E+00 0. -1.
        3    1    5    5  501    0  0.59185112228E+02 -0.14918039308E+02 -0.18209790745E+01  0.61063420892E+02  0.00000000000E+00 0. -1.
       -4    1    5    5    0  501 -0.85615375361E+01 -0.23922566779E+02 -0.47883092144E+02  0.54206822814E+02  0.00000000000E+00 0.  1.
</event>
<event>
 9   1  0.7570500E-01  0.2499989E+03  0.7546771E-02  0.1113306E+00
       21   -1    0    0  503  502  0.00000000000E+00  0.00000000000E+00  0.51843293950E+02  0.51843293950E+02  0.00000000000E+00 0. -1.
       21   -1    0    0  502  503 -0.00000000000E+00 -0.00000000000E+00 -0.30138625745E+03  0.30138625745E+03  0.00000000000E+00 0. -1.
       25    2    1    2    0    0  0.71054273576E-14  0.00000000000E+00 -0.24954296350E+03  0.35322955140E+03  0.24999885070E+03 0.  0.
       24    2    3    3    0    0  0.32275813494E+02 -0.33153931194E+02 -0.11100683478E+02  0.96953344413E+02  0.84473750532E+02 0.  0.
      -24    2    3    3    0    0 -0.32275813494E+02  0.33153931194E+02 -0.23844228002E+03  0.25627620698E+03  0.81742657624E+02 0.  0.
      -13    1    4    4    0    0 -0.28152149053E+02 -0.17765235502E+02 -0.93298429864E+01  0.34571564311E+02  0.00000000000E+00 0.  1.
       14    1    4    4    0    0  0.60427962547E+02 -0.15388695692E+02 -0.17708404920E+01  0.62381780102E+02  0.00000000000E+00 0. -1.
        3    1    5    5  501    0 -0.29076528499E+02  0.88886964360E+01 -0.19834002320E+02  0.36302080959E+02  0.00000000000E+00 0. -1.
       -4    1    5    5    0  501 -0.31992849947E+01  0.24265234758E+02 -0.21860827770E+03  0.21997412603E+03  0.00000000000E+00 0.  1.
</event>
<event>
 9   1  0.7570500E-01  0.2499992E+03  0.7546771E-02  0.1113305E+00
       21   -1    0    0  503  502  0.00000000000E+00  0.00000000000E+00  0.43776799930E+03  0.43776799930E+03  0.00000000000E+00 0.  1.
       21   -1    0    0  502  503 -0.00000000000E+00 -0.00000000000E+00 -0.35692196383E+02  0.35692196383E+02  0.00000000000E+00 0.  1.
       25    2    1    2    0    0  0.71054273576E-14  0.00000000000E+00  0.40207580292E+03  0.47346019569E+03  0.24999921121E+03 0.  0.
       24    2    3    3    0    0 -0.25679562761E+02 -0.77638974080E+02  0.10547350668E+03  0.15536967602E+03  0.79547629614E+02 0.  0.
      -24    2    3    3    0    0  0.25679562761E+02  0.77638974080E+02  0.29660229624E+03  0.31809051966E+03  0.80755224736E+02 0.  0.
      -13    1    4    4    0    0  0.38030774742E+01 -0.49627831022E+02  0.10327420836E+03  0.11464269328E+03  0.00000000000E+00 0.  1.
       14    1    4    4    0    0 -0.29482640235E+02 -0.28011143058E+02  0.21992983226E+01  0.40726982748E+02  0.00000000000E+00 0. -1.
        1    1    5    5  501    0 -0.20535050407E+02  0.17210505552E+02  0.15545688132E+03  0.15774895165E+03  0.00000000000E+00 0. -1.
       -2    1    5    5    0  501  0.46214613168E+02  0.60428468529E+02  0.14114541492E+03  0.16034156801E+03  0.00000000000E+00 0.  1.
</event>
<event>
 9   1  0.7570500E-01  0.2499971E+03  0.7546771E-02  0.1113307E+00
       21   -1    0    0  503  502  0.00000000000E+00  0.00000000000E+00  0.24823220303E+02  0.24823220303E+02  0.00000000000E+00 0. -1.
       21   -1    0    0  502  503 -0.00000000000E+00 -0.00000000000E+00 -0.62943639879E+03  0.62943639879E+03  0.00000000000E+00 0. -1.
       25    2    1    2    0    0 -0.35527136788E-14  0.00000000000E+00 -0.60461317848E+03  0.65425961909E+03  0.24999710713E+03 0.  0.
       24    2    3    3    0    0  0.26252939373E+02 -0.88300651076E+02 -0.36883543916E+03  0.38841683524E+03  0.79635638441E+02 0.  0.
      -24    2    3    3    0    0 -0.26252939373E+02  0.88300651076E+02 -0.23577773932E+03  0.26584278385E+03  0.81209738081E+02 0.  0.
      -13    1    4    4    0    0  0.53839561041E+02 -0.46268992948E+02 -0.19824825908E+03  0.21057514162E+03  0.00000000000E+00 0.  1.
       14    1    4    4    0    0 -0.27586621668E+02 -0.42031658128E+02 -0.17058718008E+03  0.17784169361E+03  0.00000000000E+00 0. -1.
        1    1    5    5  501    0  0.27276054978E+02  0.35965557642E+02 -0.11741464434E+03  0.12579230190E+03  0.00000000000E+00 0. -1.
       -2    1    5    5    0  501 -0.53528994351E+02  0.52335093434E+02 -0.11836309498E+03  0.14005048195E+03  0.00000000000E+00 0.  1.
</event>
<event>
 9   1  0.7570500E-01  0.2499996E+03  0.7546771E-02  0.1113305E+00
       21   -1    0    0  503  502  0.00000000000E+00  0.00000000000E+00  0.44383417103E+02  0.44383417103E+02  0.00000000000E+00 0.  1.
       21   -1    0    0  502  503 -0.00000000000E+00 -0.00000000000E+00 -0.35204477837E+03  0.35204477837E+03  0.00000000000E+00 0.  1.
       25    2    1    2    0    0  0.00000000000E+00  0.71054273576E-14 -0.30766136127E+03  0.39642819548E+03  0.24999960190E+03 0.  0.
       24    2    3    3    0    0  0.29764004825E+02  0.62442155366E+02 -0.26175776210E+03  0.28295930220E+03  0.82243066154E+02 0.  0.
      -24    2    3    3    0    0 -0.29764004825E+02 -0.62442155366E+02 -0.45903599170E+02  0.11346889328E+03  0.77350698609E+02 0.  0.
      -13    1    4    4    0    0 -0.24189472359E+02 -0.95915848381E+00 -0.57707402896E+02  0.62579508683E+02  0.00000000000E+00 0.  1.
       14    1    4    4    0    0  0.53953477184E+02  0.63401313849E+02 -0.20405035920E+03  0.22037979351E+03  0.00000000000E+00 0. -1.
        1    1    5    5  501    0 -0.30390114889E+02 -0.78265177918E+02 -0.25709560971E+02  0.87806484287E+02  0.00000000000E+00 0. -1.
       -2    1    5    5    0  501  0.62611006421E+00  0.15823022552E+02 -0.20194038199E+02  0.25662408992E+02  0.00000000000E+00 0.  1.
</event>
<event>
 9   1  0.7570500E-01  0.2500081E+03  0.7546771E-02  0.1113300E+00
       21   -1    0    0  503  502  0.00000000000E+00  0.00000000000E+00  0.20536378495E+02  0.20536378495E+02  0.00000000000E+00 0. -1.
       21   -1    0    0  502  503 -0.00000000000E+00 -0.00000000000E+00 -0.76089443616E+03  0.76089443616E+03  0.00000000000E+00 0. -1.
       25    2    1    2    0    0  0.00000000000E+00  0.00000000000E+00 -0.74035805767E+03  0.78143081466E+03  0.25000812896E+03 0.  0.
       24    2    3    3    0    0  0.78016422900E+02 -0.12586882624E+02 -0.54328928986E+03  0.55482467034E+03  0.80138445733E+02 0.  0.
      -24    2    3    3    0    0 -0.78016422900E+02  0.12586882624E+02 -0.19706876781E+03  0.22660614432E+03  0.79178617957E+02 0.  0.
      -13    1    4    4    0    0  0.67944083771E+01  0.20633569014E+02 -0.25787482718E+03  0.25878820423E+03  0.00000000000E+00 0.  1.
       14    1    4    4    0    0  0.71222014523E+02 -0.33220451638E+02 -0.28541446268E+03  0.29603646611E+03  0.00000000000E+00 0. -1.
        1    1    5    5  501    0 -0.11609135191E+02  0.13861532338E+02  0.58579042948E+00  0.18090252875E+02  0.00000000000E+00 0. -1.
       -2    1    5    5    0  501 -0.66407287708E+02 -0.12746497147E+01 -0.19765455824E+03  0.20851589144E+03  0.00000000000E+00 0.  1.
</event>
<event>
 9   1  0.7570500E-01  0.2499984E+03  0.7546771E-02  0.1113306E+00
       21   -1    0    0  503  502  0.00000000000E+00  0.00000000000E+00  0.55427252496E+03  0.55427252496E+03  0.00000000000E+00 0.  1.
       21   -1    0    0  502  503 -0.00000000000E+00 -0.00000000000E+00 -0.28189754145E+02  0.28189754145E+02  0.00000000000E+00 0.  1.
       25    2    1    2    0    0  0.44408920985E-15  0.14210854715E-13  0.52608277082E+03  0.58246227911E+03  0.24999844966E+03 0.  0.
       24    2    3    3    0    0 -0.33079943397E+01  0.79899912111E+02  0.14762277245E+03  0.18737888114E+03  0.83207111279E+02 0.  0.
      -24    2    3    3    0    0  0.33079943397E+01 -0.79899912111E+02  0.37845999837E+03  0.39508339797E+03  0.80398894325E+02 0.  0.
      -13    1    4    4    0    0 -0.63160005104E+01 -0.69563323157E+01  0.70688476226E+02  0.71310189265E+02  0.00000000000E+00 0.  1.
       14    1    4    4    0    0  0.30080061707E+01  0.86856244427E+02  0.76934296226E+02  0.11606869187E+03  0.00000000000E+00 0. -1.
        1    1    5    5  501    0 -0.29516179426E+01 -0.83073091131E+02  0.37903396335E+03  0.38804200274E+03  0.00000000000E+00 0. -1.
       -2    1    5    5    0  501  0.62596122823E+01  0.31731790199E+01 -0.57396498317E+00  0.70413952325E+01  0.00000000000E+00 0.  1.
</event>
<event>
 9   1  0.7570500E-01  0.2500055E+03  0.7546771E-02  0.1113301E+00
       21   -1    0    0  503  502  0.00000000000E+00  0.00000000000E+00  0.13197892301E+02  0.13197892301E+02  0.00000000000E+00 0.  1.
       21   -1    0    0  502  503 -0.00000000000E+00 -0.00000000000E+00 -0.11839528142E+04  0.11839528142E+04  0.00000000000E+00 0.  1.
       25    2    1    2    0    0  0.14210854715E-13  0.14210854715E-13 -0.11707549219E+04  0.11971507065E+04  0.25000545378E+03 0.  0.
       24    2    3    3    0    0  0.33558739256E+02  0.75404650999E+02 -0.40696781623E+03  0.42457233232E+03  0.88469268955E+02 0.  0.
      -24    2    3    3    0    0 -0.33558739256E+02 -0.75404650999E+02 -0.76378710563E+03  0.77257837415E+03  0.81820236471E+02 0.  0.
      -13    1    4    4    0    0  0.46710849049E+02  0.13505471865E+02 -0.26080237264E+03  0.26529639795E+03  0.00000000000E+00 0.  1.
       14    1    4    4    0    0 -0.13152109793E+02  0.61899179134E+02 -0.14616544359E+03  0.15927593437E+03  0.00000000000E+00 0. -1.
        1    1    5    5  501    0 -0.55240188512E+02 -0.65445094584E+02 -0.46356301820E+03  0.47140769051E+03  0.00000000000E+00 0. -1.
       -2    1    5    5    0  501  0.21681449256E+02 -0.99595564146E+01 -0.30022408743E+03  0.30117068363E+03  0.00000000000E+00 0.  1.
</event>
<event>
 9   1  0.7570500E-01  0.2500035E+03  0.7546771E-02  0.1113303E+00
       21   -1    0    0  503  502  0.00000000000E+00  0.00000000000E+00  0.62247775995E+02  0.62247775995E+02  0.00000000000E+00 0. -1.
       21   -1    0    0  502  503 -0.00000000000E+00 -0.00000000000E+00 -0.25102005457E+03  0.25102005457E+03  0.00000000000E+00 0. -1.
       25    2    1    2    0    0  0.00000000000E+00  0.00000000000E+00 -0.18877227857E+03  0.31326783056E+03  0.25000352099E+03 0.  0.
       24    2    3    3    0    0 -0.41996324773E+02 -0.56029580230E+02 -0.13281214416E+02  0.10794267090E+03  0.81069256746E+02 0.  0.
      -24    2    3    3    0    0  0.41996324773E+02  0.56029580230E+02 -0.17549106416E+03  0.20532515966E+03  0.80363564110E+02 0.  0.
      -13    1    4    4    0    0 -0.25224351393E+02 -0.21044615483E+02 -0.46454769614E+02  0.56896303605E+02  0.00000000000E+00 0.  1.
       14    1    4    4    0    0 -0.16771973379E+02 -0.34984964747E+02  0.33173555198E+02  0.51046367294E+02  0.00000000000E+00 0. -1.
        1    1    5    5  501    0  0.56087236494E+02  0.95992823413E+01 -0.79477730469E+02  0.97747807953E+02  0.00000000000E+00 0. -1.
       -2    1    5    5    0  501 -0.14090911721E+02  0.46430297889E+02 -0.96013333686E+02  0.10757735171E+03  0.00000000000E+00 0.  1.
</event>
<event>
 9   1  0.7570500E-01  0.2500006E+03  0.7546771E-02  0.1113304E+00
       21   -1    0    0  503  502  0.00000000000E+00  0.00000000000E+00  0.30709598412E+02  0.30709598412E+02  0.00000000000E+00 0.  1.
       21   -1    0    0  502  503 -0.00000000000E+00 -0.00000000000E+00 -0.50880101681E+03  0.50880101681E+03  0.00000000000E+00 0.  1.
       25    2    1    2    0    0 -0.35527136788E-14  0.00000000000E+00 -0.47809141840E+03  0.53951061523E+03  0.25000059918E+03 0.  0.
       24    2    3    3    0    0  0.20586124208E+02 -0.87493424480E+02 -0.17948370664E+03  0.21691440132E+03  0.82210514606E+02 0.  0.
      -24    2    3    3    0    0 -0.20586124208E+02  0.87493424480E+02 -0.29860771176E+03  0.32259621391E+03  0.82600628740E+02 0.  0.
      -13    1    4    4    0    0 -0.12564875180E+02  0.11017319899E+02 -0.15670886380E+02  0.22909258084E+02  0.00000000000E+00 0.  1.
       14    1    4    4    0    0  0.33150999389E+02 -0.98510744378E+02 -0.16381282026E+03  0.19400514323E+03  0.00000000000E+00 0. -1.
        3    1    5    5  501    0 -0.22508991843E+02  0.95335849443E+02 -0.19070790466E+03  0.21439469164E+03  0.00000000000E+00 0. -1.
       -4    1    5    5    0  501  0.19228676345E+01 -0.78424249637E+01 -0.10789980710E+03  0.10820152227E+03  0.00000000000E+00 0.  1.
</event>
<event>
 9   1  0.7570500E-01  0.2500121E+03  0.7546771E-02  0.1113297E+00
       21   -1    0    0  503  502  0.00000000000E+00  0.00000000000E+00  0.20036998761E+03  0.20036998761E+03  0.00000000000E+00 0. -1.
       21   -1    0    0  502  503 -0.00000000000E+00 -0.00000000000E+00 -0.77988269376E+02  0.77988269376E+02  0.00000000000E+00 0. -1.
       25    2    1    2    0    0  0.00000000000E+00 -0.71054273576E-14  0.12238171824E+03  0.27835825699E+03  0.25001206826E+03 0.  0.
       24    2    3    3    0    0 -0.20002962163E+02  0.31001000445E+02  0.16009624118E+03  0.18374317657E+03  0.82277384320E+02 0.  0.
      -24    2    3    3    0    0  0.20002962163E+02 -0.31001000445E+02 -0.37714522943E+02  0.94615080424E+02  0.78539465741E+02 0.  0.
      -13    1    4    4    0    0 -0.26026597588E+02 -0.22915823414E+02  0.77737627472E+02  0.85121427794E+02  0.00000000000E+00 0.  1.
       14    1    4    4    0    0  0.60236354248E+01  0.53916823860E+02  0.82358613710E+02  0.98621748773E+02  0.00000000000E+00 0. -1.
        3    1    5    5  501    0  0.19739738744E+02 -0.56001376363E+02 -0.36252722353E+02  0.69570621085E+02  0.00000000000E+00 0. -1.
       -4    1    5    5    0  501  0.26322341933E+00  0.25000375917E+02 -0.14618005900E+01  0.25044459338E+02  0.00000000000E+00 0.  1.
</event>
<event>
 9   1  0.7570500E-01  0.2499968E+03  0.7546771E-02  0.1113307E+00
       21   -1    0    0  503  502  0.00000000000E+00  0.00000000000E+00  0.27331790075E+03  0.27331790075E+03  0.00000000000E+00 0. -1.
       21   -1    0    0  502  503 -0.00000000000E+00 -0.00000000000E+00 -0.57166399480E+02  0.57166399480E+02  0.00000000000E+00 0. -1.
       25    2    1    2    0    0 -0.71054273576E-14  0.35527136788E-14  0.21615150127E+03  0.33048430023E+03  0.24999680238E+03 0.  0.
       24    2    3    3    0    0  0.36503358613E+02  0.92380889434E+01  0.23370882794E+03  0.24982413303E+03  0.79840113401E+02 0.  0.
      -24    2    3    3    0    0 -0.36503358613E+02 -0.92380889434E+01 -0.17557326675E+02  0.80660167200E+02  0.69137293666E+02 0.  0.
      -13    1    4    4    0    0  0.60539986824E+02  0.16558536938E+02  0.17698285081E+03  0.18778233312E+03  0.00000000000E+00 0.  1.
       14    1    4    4    0    0 -0.24036628211E+02 -0.73204479943E+01  0.56725977130E+02  0.62041799909E+02  0.00000000000E+00 0. -1.
        3    1    5    5  501    0  0.11893514714E+02 -0.11887110628E+02 -0.26488231826E+02  0.31374918591E+02  0.00000000000E+00 0. -1.
       -4    1    5    5    0  501 -0.48396873327E+02  0.26490216843E+01  0.89309051508E+01  0.49285248609E+02  0.00000000000E+00 0.  1.
</event>
<event>
 9   1  0.7570500E-01  0.2499827E+03  0.7546771E-02  0.1113316E+00
       21   -1    0    0  503  502  0.00000000000E+00  0.00000000000E+00  0.12335174548E+03  0.12335174548E+03  0.00000000000E+00 0. -1.
       21   -1    0    0  502  503 -0.00000000000E+00 -0.00000000000E+00 -0.12665273679E+03  0.12665273679E+03  0.00000000000E+00 0. -1.
       25    2    1    2    0    0  0.00000000000E+00  0.00000000000E+00 -0.33009913114E+01  0.25000448227E+03  0.24998268862E+03 0.  0.
       24    2    3    3    0    0 -0.85596788742E+02  0.36715754227E+02 -0.54303602332E+01  0.12260907819E+03  0.79552752251E+02 0.  0.
      -24    2    3    3    0    0  0.85596788742E+02 -0.36715754227E+02  0.21293689218E+01  0.12739540408E+03  0.86891874864E+02 0.  0.
      -13    1    4    4    0    0 -0.60422842406E+02  0.11394750762E+02 -0.39641893352E+02  0.73159004489E+02  0.00000000000E+00 0.  1.
       14    1    4    4    0    0 -0.25173946336E+02  0.25321003465E+02  0.34211533118E+02  0.49450073700E+02  0.00000000000E+00 0. -1.
        1    1    5    5  501    0  0.37683060685E+02 -0.12701802021E+02 -0.42096623456E+02  0.57909192220E+02  0.00000000000E+00 0. -1.
       -2    1    5    5    0  501  0.47913728057E+02 -0.24013952206E+02  0.44225992378E+02  0.69486211860E+02  0.00000000000E+00 0.  1.
</event>
<event>
 9   1  0.7570500E-01  0.2499915E+03  0.7546771E-02  0.1113310E+00
       21   -1    0    0  503  502  0.00000000000E+00  0.00000000000E+00  0.10285425698E+03  0.10285425698E+03  0.00000000000E+00 0.  1.
       21   -1    0    0  502  503 -0.00000000000E+00 -0.00000000000E+00 -0.15190370438E+03  0.15190370438E+03  0.00000000000E+00 0.  1.
       25    2    1    2    0    0  0.00000000000E+00  0.00000000000E+00 -0.49049447397E+02  0.25475796137E+03  0.24999154104E+03 0.  0.
       24    2    3    3    0    0  0.82541578113E+02 -0.40061178566E+02 -0.31403474741E+01  0.12177616435E+03  0.80009763633E+02 0.  0.
      -24    2    3    3    0    0 -0.82541578113E+02  0.40061178566E+02 -0.45909099923E+02  0.13298179701E+03  0.84607935419E+02 0.  0.
      -13    1    4    4    0    0  0.14691389613E+02 -0.61457937274E+00 -0.34311092591E+02  0.37329153638E+02  0.00000000000E+00 0.  1.
       14    1    4    4    0    0  0.67850188501E+02 -0.39446599193E+02  0.31170745117E+02  0.84447010714E+02  0.00000000000E+00 0. -1.
        3    1    5    5  501    0 -0.36901158540E+02  0.55554743662E+02 -0.51769746062E+02  0.84428263349E+02  0.00000000000E+00 0. -1.
       -4    1    5    5    0  501 -0.45640419573E+02 -0.15493565096E+02  0.58606461389E+01  0.48553533665E+02  0.00000000000E+00 0.  1.
</event>
<event>
 9   1  0.7570500E-01  0.2500010E+03  0.7546771E-02  0.1113304E+00
       21   -1    0    0  503  502  0.00000000000E+00  0.00000000000E+00  0.28514708995E+03  0.28514708995E+03  0.00000000000E+00 0.  1.
       21   -1    0    0  502  503 -0.00000000000E+00 -0.00000000000E+00 -0.54796722314E+02  0.54796722314E+02  0.00000000000E+00 0.  1.
       25    2    1    2    0    0  0.00000000000E+00 -0.71054273576E-14  0.23035036763E+03  0.33994381226E+03  0.25000100725E+03 0.  0.
       24    2    3    3    0    0 -0.42700264898E+02  0.53917819516E+02  0.20659008831E+03  0.23165488082E+03  0.79082711991E+02 0.  0.
      -24    2    3    3    0    0  0.42700264898E+02 -0.53917819516E+02  0.23760279326E+02  0.10828893144E+03  0.80196620353E+02 0.  0.
      -13    1    4    4    0    0 -0.25939735724E+02  0.57016330826E+02  0.69714608945E+02  0.93722241601E+02  0.00000000000E+00 0.  1.
       14    1    4    4    0    0 -0.16760529174E+02 -0.30985113098E+01  0.13687547936E+03  0.13793263922E+03  0.00000000000E+00 0. -1.
        3    1    5    5  501    0  0.56129372548E+02 -0.67062678140E+01  0.11284203572E+02  0.57643852585E+02  0.00000000000E+00 0. -1.
       -4    1    5    5    0  501 -0.13429107650E+02 -0.47211551702E+02  0.12476075754E+02  0.50645078859E+02  0.00000000000E+00 0.  1.
</event>
<event>
 9   1  0.7570500E-01  0.2499926E+03  0.7546771E-02  0.1113309E+00
       21   -1    0    0  503  502  0.00000000000E+00  0.00000000000E+00  0.15180605823E+03  0.15180605823E+03  0.00000000000E+00 0.  1.
       21   -1    0    0  502  503 -0.00000000000E+00 -0.00000000000E+00 -0.10292129856E+03  0.10292129856E+03  0.00000000000E+00 0.  1.
       25    2    1    2    0    0  0.71054273576E-14 -0.71054273576E-14  0.48884759669E+02  0.25472735680E+03  0.24999261304E+03 0.  0.
       24    2    3    3    0    0 -0.42715011833E+02 -0.59932478751E+02 -0.40571677512E+02  0.11384859594E+03  0.76804736412E+02 0.  0.
      -24    2    3    3    0    0  0.42715011833E+02  0.59932478751E+02  0.89456437182E+02  0.14087876086E+03  0.80174165809E+02 0.  0.
      -13    1    4    4    0    0 -0.47572150740E+02 -0.11398912932E+02 -0.42832079378E+02  0.65020241202E+02  0.00000000000E+00 0.  1.
       14    1    4    4    0    0  0.48571389067E+01 -0.48533565819E+02  0.22604018660E+01  0.48828354734E+02  0.00000000000E+00 0. -1.
        3    1    5    5  501    0 -0.83830937712E+01  0.44263100537E+02  0.11733819547E+02  0.46552989716E+02  0.00000000000E+00 0. -1.
       -4    1    5    5    0  501  0.51098105605E+02  0.15669378214E+02  0.77722617635E+02  0.94325771144E+02  0.00000000000E+00 0.  1.
</event>
<event>
 9   1  0.7570500E-01  0.2500012E+03  0.7546771E-02  0.1113304E+00
       21   -1    0    0  503  502  0.00000000000E+00  0.00000000000E+00  0.58851311963E+02  0.58851311963E+02  0.00000000000E+00 0.  1.
       21   -1    0    0  502  503 -0.00000000000E+00 -0.00000000000E+00 -0.26550213917E+03  0.26550213917E+03  0.00000000000E+00 0.  1.
       25    2    1    2    0    0  0.00000000000E+00 -0.35527136788E-14 -0.20665082721E+03  0.32435345113E+03  0.25000119375E+03 0.  0.
       24    2    3    3    0    0 -0.12965922230E+01  0.55158878709E+01 -0.22737969950E+03  0.24069801135E+03  0.78752134904E+02 0.  0.
      -24    2    3    3    0    0  0.12965922230E+01 -0.55158878709E+01  0.20728872295E+02  0.83655439783E+02  0.80848254701E+02 0.  0.
      -13    1    4    4    0    0 -0.21687398410E+02 -0.27867729020E+02 -0.68412713814E+02  0.76988654891E+02  0.00000000000E+00 0.  1.
       14    1    4    4    0    0  0.20390806187E+02  0.33383616890E+02 -0.15896698569E+03  0.16370935646E+03  0.00000000000E+00 0. -1.
        3    1    5    5  501    0 -0.25031221132E+02 -0.33093689959E+02  0.18590518896E+02  0.45468249793E+02  0.00000000000E+00 0. -1.
       -4    1    5    5    0  501  0.26327813355E+02  0.27577802088E+02  0.21383533985E+01  0.38187189989E+02  0.00000000000E+00 0.  1.
</event>
<event>
 9   1  0.7570500E-01  0.2499957E+03  0.7546771E-02  0.1113308E+00
       21   -1    0    0  503  502  0.00000000000E+00  0.00000000000E+00  0.41453417505E+02  0.41453417505E+02  0.00000000000E+00 0.  1.
       21   -1    0    0  502  503 -0.00000000000E+00 -0.00000000000E+00 -0.37691616820E+03  0.37691616820E+03  0.00000000000E+00 0.  1.
       25    2    1    2    0    0  0.71054273576E-14 -0.71054273576E-14 -0.33546275070E+03  0.41836958571E+03  0.24999570624E+03 0.  0.
       24    2    3    3    0    0  0.45615660409E+02 -0.33069089108E+02 -0.29732940206E+03  0.31235617982E+03  0.77377364993E+02 0.  0.
      -24    2    3    3    0    0 -0.45615660409E+02  0.33069089108E+02 -0.38133348642E+02  0.10601340589E+03  0.81303977894E+02 0.  0.
      -13    1    4    4    0    0 -0.19624473678E+01 -0.41024450468E+02 -0.19429658953E+03  0.19859008394E+03  0.00000000000E+00 0.  1.
       14    1    4    4    0    0  0.47578107777E+02  0.79553613605E+01 -0.10303281252E+03  0.11376609587E+03  0.00000000000E+00 0. -1.
        1    1    5    5  501    0  0.17251111390E+02  0.28243741892E+02 -0.25326486263E+02  0.41674221129E+02  0.00000000000E+00 0. -1.
       -2    1    5    5    0  501 -0.62866771798E+02  0.48253472154E+01 -0.12806862378E+02  0.64339184764E+02  0.00000000000E+00 0.  1.
</event>
<event>
 9   1  0.7570500E-01  0.2500030E+03  0.7546771E-02  0.1113303E+00
       21   -1    0    0  503  502  0.00000000000E+00  0.00000000000E+00  0.22986411219E+03  0.22986411219E+03  0.00000000000E+00 0.  1.
       21   -1    0    0  502  503 -0.00000000000E+00 -0.00000000000E+00 -0.67976584888E+02  0.67976584888E+02  0.00000000000E+00 0.  1.
       25    2    1    2    0    0  0.00000000000E+00  0.00000000000E+00  0.16188752731E+03  0.29784069708E+03  0.25000301866E+03 0.  0.
       24    2    3    3    0    0 -0.39125928491E+02  0.46608037356E+02  0.31125282543E+01  0.11043103121E+03  0.92098737208E+02 0.  0.
      -24    2    3    3    0    0  0.39125928491E+02 -0.46608037356E+02  0.15877499905E+03  0.18740966587E+03  0.78801872519E+02 0.  0.
      -13    1    4    4    0    0  0.13372022359E+02  0.51691624753E+02 -0.13609094534E+02  0.55100294968E+02  0.00000000000E+00 0.  1.
       14    1    4    4    0    0 -0.52497950850E+02 -0.50835873972E+01  0.16721622788E+02  0.55330736241E+02  0.00000000000E+00 0. -1.
        1    1    5    5  501    0  0.70833072714E+01 -0.62823292856E+02  0.10943663841E+03  0.12638558934E+03  0.00000000000E+00 0. -1.
       -2    1    5    5    0  501  0.32042621220E+02  0.16215255500E+02  0.49338360641E+02  0.61024076529E+02  0.00000000000E+00 0.  1.
</event>
<event>
 9   1  0.7570500E-01  0.2500009E+03  0.7546771E-02  0.1113304E+00
       21   -1    0    0  503  502  0.00000000000E+00  0.00000000000E+00  0.16049658109E+03  0.16049658109E+03  0.00000000000E+00 0. -1.
       21   -1    0    0  502  503 -0.00000000000E+00 -0.00000000000E+00 -0.97354831284E+02  0.97354831284E+02  0.00000000000E+00 0. -1.
       25    2    1    2    0    0  0.00000000000E+00 -0.71054273576E-14  0.63141749809E+02  0.25785141238E+03  0.25000094059E+03 0.  0.
       24    2    3    3    0    0 -0.72551958017E+02 -0.59524263531E+02  0.52813568399E+02  0.13474463733E+03  0.80993331341E+02 0.  0.
      -24    2    3    3    0    0  0.72551958017E+02  0.59524263531E+02  0.10328181410E+02  0.12310677505E+03  0.79004317413E+02 0.  0.
      -13    1    4    4    0    0 -0.58259241570E+02 -0.79737686216E+02  0.37492520677E+02  0.10563108888E+03  0.00000000000E+00 0.  1.
       14    1    4    4    0    0 -0.14292716447E+02  0.20213422686E+02  0.15321047722E+02  0.29113548451E+02  0.00000000000E+00 0. -1.
        1    1    5    5  501    0  0.70235501039E+02  0.48456045302E+02 -0.22616638296E+02  0.88275286804E+02  0.00000000000E+00 0. -1.
       -2    1    5    5    0  501  0.23164569783E+01  0.11068218229E+02  0.32944819706E+02  0.34831488242E+02  0.00000000000E+00 0.  1.
</event>
<event>
 9   1  0.7570500E-01  0.2500203E+03  0.7546771E-02  0.1113292E+00
       21   -1    0    0  503  502  0.00000000000E+00  0.00000000000E+00  0.19094233371E+03  0.19094233371E+03  0.00000000000E+00 0.  1.
       21   -1    0    0  502  503 -0.00000000000E+00 -0.00000000000E+00 -0.81844311009E+02  0.81844311009E+02  0.00000000000E+00 0.  1.
       25    2    1    2    0    0 -0.14210854715E-13  0.71054273576E-14  0.10909802271E+03  0.27278664472E+03  0.25002034913E+03 0.  0.
       24    2    3    3    0    0  0.72022272220E+02 -0.61334472340E+02  0.70332433685E+02  0.14269168143E+03  0.80406091372E+02 0.  0.
      -24    2    3    3    0    0 -0.72022272220E+02  0.61334472340E+02  0.38765589021E+02  0.13009496329E+03  0.80453734457E+02 0.  0.
      -13    1    4    4    0    0  0.38063803771E+02 -0.77647678815E+02  0.48393759677E+02  0.99095767611E+02  0.00000000000E+00 0.  1.
       14    1    4    4    0    0  0.33958468449E+02  0.16313206475E+02  0.21938674008E+02  0.43595913824E+02  0.00000000000E+00 0. -1.
        3    1    5    5  501    0 -0.55392938904E+02  0.10012972331E+02 -0.10236682497E+02  0.57213870380E+02  0.00000000000E+00 0. -1.
       -4    1    5    5    0  501 -0.16629333316E+02  0.51321500009E+02  0.49002271518E+02  0.72881092909E+02  0.00000000000E+00 0.  1.
</event>
<event>
 9   1  0.7570500E-01  0.2500013E+03  0.7546771E-02  0.1113304E+00
       21   -1    0    0  503  502  0.00000000000E+00  0.00000000000E+00  0.38684558973E+02  0.38684558973E+02  0.00000000000E+00 0.  1.
       21   -1    0    0  502  503 -0.00000000000E+00 -0.00000000000E+00 -0.40391201303E+03  0.40391201303E+03  0.00000000000E+00 0.  1.
       25    2    1    2    0    0 -0.35527136788E-14  0.14210854715E-13 -0.36522745405E+03  0.44259657200E+03  0.25000126470E+03 0.  0.
       24    2    3    3    0    0 -0.12731826949E+02 -0.91826409190E+02 -0.13084786367E+03  0.18011715511E+03  0.82017298754E+02 0.  0.
      -24    2    3    3    0    0  0.12731826949E+02  0.91826409190E+02 -0.23437959038E+03  0.26247941689E+03  0.73262971963E+02 0.  0.
      -13    1    4    4    0    0  0.23295527357E+02 -0.50706884239E+01 -0.52994405453E+02  0.58110244237E+02  0.00000000000E+00 0.  1.
       14    1    4    4    0    0 -0.36027354306E+02 -0.86755720766E+02 -0.77853458218E+02  0.12200691087E+03  0.00000000000E+00 0. -1.
        3    1    5    5  501    0  0.21793446923E+02  0.88488300318E+02 -0.23572621350E+03  0.25272906709E+03  0.00000000000E+00 0. -1.
       -4    1    5    5    0  501 -0.90616199742E+01  0.33381088722E+01  0.13466231162E+01  0.97503497997E+01  0.00000000000E+00 0.  1.
</event>
<event>
 9   1  0.7570500E-01  0.2499929E+03  0.7546771E-02  0.1113309E+00
       21   -1    0    0  503  502  0.00000000000E+00  0.00000000000E+00  0.11101287868E+03  0.11101287868E+03  0.00000000000E+00 0. -1.
       21   -1    0    0  502  503 -0.00000000000E+00 -0.00000000000E+00 -0.14074142588E+03  0.14074142588E+03  0.00000000000E+00 0. -1.
       25    2    1    2    0    0  0.00000000000E+00  0.00000000000E+00 -0.29728547195E+02  0.25175430456E+03  0.24999288659E+03 0.  0.
       24    2    3    3    0    0 -0.45325093466E+02 -0.84425592549E+02  0.13669563592E+02  0.12410756985E+03  0.77677455861E+02 0.  0.
      -24    2    3    3    0    0  0.45325093466E+02  0.84425592549E+02 -0.43398110787E+02  0.12764673471E+03  0.72306625481E+02 0.  0.
      -13    1    4    4    0    0 -0.50729316070E+02 -0.13901394969E+02  0.69886896557E+01  0.53061794863E+02  0.00000000000E+00 0.  1.
       14    1    4    4    0    0  0.54042226032E+01 -0.70524197580E+02  0.66808739362E+01  0.71045774982E+02  0.00000000000E+00 0. -1.
        1    1    5    5  501    0  0.15730718223E+02  0.59967875795E+02 -0.59578447194E+02  0.85983678645E+02  0.00000000000E+00 0. -1.
       -2    1    5    5    0  501  0.29594375243E+02  0.24457716754E+02  0.16180336407E+02  0.41663056070E+02  0.00000000000E+00 0.  1.
</event>
<event>
 9   1  0.7570500E-01  0.2499950E+03  0.7546771E-02  0.1113308E+00
       21   -1    0    0  503  502  0.00000000000E+00  0.00000000000E+00  0.54913869580E+02  0.54913869580E+02  0.00000000000E+00 0. -1.
       21   -1    0    0  502  503 -0.00000000000E+00 -0.00000000000E+00 -0.28452515677E+03  0.28452515677E+03  0.00000000000E+00 0. -1.
       25    2    1    2    0    0 -0.35527136788E-14  0.00000000000E+00 -0.22961128719E+03  0.33943902635E+03  0.24999501876E+03 0.  0.
       24    2    3    3    0    0 -0.22194626131E+02  0.76972485615E+02 -0.16889645737E+03  0.20366020770E+03  0.80833791931E+02 0.  0.
      -24    2    3    3    0    0  0.22194626131E+02 -0.76972485615E+02 -0.60714829815E+02  0.13577881864E+03  0.91281060808E+02 0.  0.
      -13    1    4    4    0    0  0.63245663768E+01  0.48317070896E+02 -0.26156934279E+02  0.55305738317E+02  0.00000000000E+00 0.  1.
       14    1    4    4    0    0 -0.28519192508E+02  0.28655414718E+02 -0.14273952309E+03  0.14835446939E+03  0.00000000000E+00 0. -1.
        3    1    5    5  501    0  0.47893159079E+02 -0.60501567011E+02 -0.11712534916E+02  0.78047279078E+02  0.00000000000E+00 0. -1.
       -4    1    5    5    0  501 -0.25698532948E+02 -0.16470918604E+02 -0.49002294899E+02  0.57731539566E+02  0.00000000000E+00 0.  1.
</event>
<event>
 9   1  0.7570500E-01  0.2499705E+03  0.7546771E-02  0.1113323E+00
       21   -1    0    0  503  502  0.00000000000E+00  0.00000000000E+00  0.44190364748E+03  0.44190364748E+03  0.00000000000E+00 0.  1.
       21   -1    0    0  502  503 -0.00000000000E+00 -0.00000000000E+00 -0.35350043230E+02  0.35350043230E+02  0.00000000000E+00 0.  1.
       25    2    1    2    0    0 -0.71054273576E-14  0.00000000000E+00  0.40655360425E+03  0.47725369071E+03  0.24997050260E+03 0.  0.
       24    2    3    3    0    0  0.20482136360E+02  0.33746414474E+02  0.36946244311E+03  0.38034240962E+03  0.81237388486E+02 0.  0.
      -24    2    3    3    0    0 -0.20482136360E+02 -0.33746414474E+02  0.37091161140E+02  0.96911281089E+02  0.80359839273E+02 0.  0.
      -13    1    4    4    0    0 -0.79761820689E+01  0.54509716541E+02  0.22385658094E+03  0.23053567513E+03  0.00000000000E+00 0.  1.
       14    1    4    4    0    0  0.28458318429E+02 -0.20763302067E+02  0.14560586217E+03  0.14980673449E+03  0.00000000000E+00 0. -1.
        3    1    5    5  501    0 -0.42421293760E+02 -0.29719110117E+02 -0.20766727045E+01  0.51837286194E+02  0.00000000000E+00 0. -1.
       -4    1    5    5    0  501  0.21939157400E+02 -0.40273043569E+01  0.39167833845E+02  0.45073994896E+02  0.00000000000E+00 0.  1.
</event>
<event>
 9   1  0.7570500E-01  0.2500006E+03  0.7546771E-02  0.1113304E+00
       21   -1    0    0  503  502  0.00000000000E+00  0.00000000000E+00  0.22488370486E+03  0.22488370486E+03  0.00000000000E+00 0.  1.
       21   -1    0    0  502  503 -0.00000000000E+00 -0.00000000000E+00 -0.69480707046E+02  0.69480707046E+02  0.00000000000E+00 0.  1.
       25    2    1    2    0    0 -0.26645352591E-14  0.00000000000E+00  0.15540299782E+03  0.29436441191E+03  0.25000063053E+03 0.  0.
       24    2    3    3    0    0 -0.50877251140E+00  0.23176845041E+02 -0.33806782872E+02  0.88220744965E+02  0.78118987952E+02 0.  0.
      -24    2    3    3    0    0  0.50877251140E+00 -0.23176845041E+02  0.18920978069E+03  0.20614366694E+03  0.78469390954E+02 0.  0.
      -13    1    4    4    0    0 -0.34411729671E+01 -0.29011747491E+02 -0.12207909098E+02  0.31663168010E+02  0.00000000000E+00 0.  1.
       14    1    4    4    0    0  0.29324004557E+01  0.52188592531E+02 -0.21598873774E+02  0.56557576956E+02  0.00000000000E+00 0. -1.
        1    1    5    5  501    0 -0.33840331849E+02 -0.10681165442E+02  0.44647165226E+02  0.57031786905E+02  0.00000000000E+00 0. -1.
       -2    1    5    5    0  501  0.34349104360E+02 -0.12495679598E+02  0.14456261546E+03  0.14911188004E+03  0.00000000000E+00 0.  1.
</event>
<event>
 9   1  0.7570500E-01  0.2500016E+03  0.7546771E-02  0.1113304E+00
       21   -1    0    0  503  502  0.00000000000E+00  0.00000000000E+00  0.28085694652E+03  0.28085694652E+03  0.00000000000E+00 0. -1.
       21   -1    0    0  502  503 -0.00000000000E+00 -0.00000000000E+00 -0.55634018224E+02  0.55634018224E+02  0.00000000000E+00 0. -1.
       25    2    1    2    0    0  0.00000000000E+00 -0.14210854715E-13  0.22522292830E+03  0.33649096475E+03  0.25000160385E+03 0.  0.
       24    2    3    3    0    0  0.32611935522E+02  0.39507389475E+02  0.53156433875E+01  0.96987645308E+02  0.82182571852E+02 0.  0.
      -24    2    3    3    0    0 -0.32611935522E+02 -0.39507389475E+02  0.21990728491E+03  0.23950331944E+03  0.79863971249E+02 0.  0.
      -13    1    4    4    0    0 -0.22664583573E+02  0.32310867078E+02 -0.65190758034E+01  0.40002172806E+02  0.00000000000E+00 0.  1.
       14    1    4    4    0    0  0.55276519095E+02  0.71965223962E+01  0.11834719191E+02  0.56985472501E+02  0.00000000000E+00 0. -1.
        3    1    5    5  501    0 -0.72919518295E+01  0.24497429082E+02  0.70901120777E+02  0.75367536251E+02  0.00000000000E+00 0. -1.
       -4    1    5    5    0  501 -0.25319983693E+02 -0.64004818557E+02  0.14900616414E+03  0.16413578319E+03  0.00000000000E+00 0.  1.
</event>
<event>
 8   1  0.7570500E-01  0.2496432E+03  0.7546771E-02  0.1113531E+00
       21   -1    0    0  503  502  0.00000000000E+00  0.00000000000E+00  0.37750630126E+02  0.37750630126E+02  0.00000000000E+00 0.  1.
       21   -1    0    0  502  503 -0.00000000000E+00 -0.00000000000E+00 -0.41271974711E+03  0.41271974711E+03  0.00000000000E+00 0.  1.
       24    2    1    2    0    0 -0.41192196669E+02 -0.27109781244E+02 -0.40066125015E+02  0.10286936865E+03  0.80901639828E+02 0.  0.
      -24    2    1    2    0    0  0.41192196669E+02  0.27109781244E+02 -0.33490299197E+03  0.34760100859E+03  0.78960178806E+02 0.  0.
      -13    1    3    3    0    0 -0.53620321526E+02  0.86758931134E+01 -0.11750720473E+02  0.55574179557E+02  0.00000000000E+00 0.  1.
       14    1    3    3    0    0  0.12428124857E+02 -0.35785674358E+02 -0.28315404543E+02  0.47295189091E+02  0.00000000000E+00 0. -1.
        3    1    4    4  501    0 -0.86392647124E+01  0.39864988184E+02 -0.17196455942E+03  0.17673614196E+03  0.00000000000E+00 0. -1.
       -4    1    4    4    0  501  0.49831461381E+02 -0.12755206940E+02 -0.16293843255E+03  0.17086486663E+03  0.00000000000E+00 0.  1.
</event>
<event>
 9   1  0.7570500E-01  0.2499717E+03  0.7546771E-02  0.1113323E+00
       21   -1    0    0  503  502  0.00000000000E+00  0.00000000000E+00  0.19734726118E+03  0.19734726118E+03  0.00000000000E+00 0.  1.
       21   -1    0    0  502  503 -0.00000000000E+00 -0.00000000000E+00 -0.79157207315E+02  0.79157207315E+02  0.00000000000E+00 0.  1.
       25    2    1    2    0    0 -0.17763568394E-14  0.00000000000E+00  0.11819005386E+03  0.27650446849E+03  0.24997166292E+03 0.  0.
       24    2    3    3    0    0  0.13784280872E+02  0.76205949289E+02  0.11805757286E+03  0.16485319968E+03  0.85097789802E+02 0.  0.
      -24    2    3    3    0    0 -0.13784280872E+02 -0.76205949289E+02  0.13248100258E+00  0.11165126881E+03  0.80427825841E+02 0.  0.
      -13    1    4    4    0    0 -0.81311109533E+01 -0.53222021367E+00  0.72505280009E+02  0.72961728686E+02  0.00000000000E+00 0.  1.
       14    1    4    4    0    0  0.21915391825E+02  0.76738169503E+02  0.45552292849E+02  0.91891470993E+02  0.00000000000E+00 0. -1.
        1    1    5    5  501    0  0.37836731289E+01 -0.87799793610E+02 -0.97079469223E+01  0.88415859288E+02  0.00000000000E+00 0. -1.
       -2    1    5    5    0  501 -0.17567954001E+02  0.11593844320E+02  0.98404279249E+01  0.23235409522E+02  0.00000000000E+00 0.  1.
</event>
<event>
 9   1  0.7570500E-01  0.2500086E+03  0.7546771E-02  0.1113299E+00
       21   -1    0    0  503  502  0.00000000000E+00  0.00000000000E+00  0.13628276930E+03  0.13628276930E+03  0.00000000000E+00 0.  1.
       21   -1    0    0  502  503 -0.00000000000E+00 -0.00000000000E+00 -0.11465921490E+03  0.11465921490E+03  0.00000000000E+00 0.  1.
       25    2    1    2    0    0  0.00000000000E+00  0.71054273576E-14  0.21623554393E+02  0.25094198420E+03  0.25000860251E+03 0.  0.
       24    2    3    3    0    0  0.73545275237E+02  0.38206616027E+02  0.59880693137E+02  0.12949322198E+03  0.79461588905E+02 0.  0.
      -24    2    3    3    0    0 -0.73545275237E+02 -0.38206616027E+02 -0.38257138744E+02  0.12144876221E+03  0.80109550994E+02 0.  0.
      -13    1    4    4    0    0  0.40070087355E+02  0.52107479016E+02  0.80186974502E+01  0.66220093468E+02  0.00000000000E+00 0.  1.
       14    1    4    4    0    0  0.33475187883E+02 -0.13900862990E+02  0.51861995687E+02  0.63273128517E+02  0.00000000000E+00 0. -1.
        1    1    5    5  501    0 -0.24446127088E+02 -0.17857957451E+02 -0.57451718660E+02  0.64940124353E+02  0.00000000000E+00 0. -1.
       -2    1    5    5    0  501 -0.49099148149E+02 -0.20348658576E+02  0.19194579916E+02  0.56508637862E+02  0.00000000000E+00 0.  1.
</event>
<event>
 9   1  0.7570500E-01  0.2499991E+03  0.7546771E-02  0.1113305E+00
       21   -1    0    0  503  502  0.00000000000E+00  0.00000000000E+00  0.72229873841E+02  0.72229873841E+02  0.00000000000E+00 0.  1.
       21   -1    0    0  502  503 -0.00000000000E+00 -0.00000000000E+00 -0.21632175289E+03  0.21632175289E+03  0.00000000000E+00 0.  1.
       25    2    1    2    0    0  0.00000000000E+00  0.00000000000E+00 -0.14409187905E+03  0.28855162673E+03  0.24999914336E+03 0.  0.
       24    2    3    3    0    0 -0.39654006572E+02 -0.73204174234E+02 -0.12517188702E+03  0.17099684848E+03  0.81490057853E+02 0.  0.
      -24    2    3    3    0    0  0.39654006572E+02  0.73204174234E+02 -0.18919992030E+02  0.11755477825E+03  0.80807601301E+02 0.  0.
      -13    1    4    4    0    0 -0.50560406433E+02 -0.93297361454E+01 -0.61357666323E+02  0.80050995570E+02  0.00000000000E+00 0.  1.
       14    1    4    4    0    0  0.10906399861E+02 -0.63874438089E+02 -0.63814220698E+02  0.90945852915E+02  0.00000000000E+00 0. -1.
        3    1    5    5  501    0  0.21157685621E+02  0.44253323357E+02 -0.50850495892E+02  0.70652510369E+02  0.00000000000E+00 0. -1.
       -4    1    5    5    0  501  0.18496320951E+02  0.28950850877E+02  0.31930503863E+02  0.46902267879E+02  0.00000000000E+00 0.  1.
</event>
<event>
 8   1  0.7570500E-01  0.2501456E+03  0.7546771E-02  0.1113213E+00
       21   -1    0    0  503  502  0.00000000000E+00  0.00000000000E+00  0.58039869019E+02  0.58039869019E+02  0.00000000000E+00 0. -1.
       21   -1    0    0  502  503 -0.00000000000E+00 -0.00000000000E+00 -0.26952511301E+03  0.26952511301E+03  0.00000000000E+00 0. -1.
       24    2    1    2    0    0  0.79301254723E+02 -0.45720029253E+02 -0.70397468642E+02  0.14053205589E+03  0.80090230772E+02 0.  0.
      -24    2    1    2    0    0 -0.79301254723E+02  0.45720029253E+02 -0.14108777535E+03  0.18703292614E+03  0.81832420424E+02 0.  0.
      -13    1    3    3    0    0  0.27254585696E+02 -0.82815148531E+01  0.16211303811E+02  0.32775025568E+02  0.00000000000E+00 0.  1.
       14    1    3    3    0    0  0.52046669027E+02 -0.37438514400E+02 -0.86608772453E+02  0.10775703032E+03  0.00000000000E+00 0. -1.
        3    1    4    4  501    0 -0.48065689755E+02 -0.16138009595E+02 -0.40533248151E+02  0.64912942400E+02  0.00000000000E+00 0. -1.
       -4    1    4    4    0  501 -0.31235564968E+02  0.61858038848E+02 -0.10055452720E+03  0.12211998374E+03  0.00000000000E+00 0.  1.
</event>
<event>
 9   1  0.7570500E-01  0.2499946E+03  0.7546771E-02  0.1113308E+00
       21   -1    0    0  503  502  0.00000000000E+00  0.00000000000E+00  0.59059613621E+02  0.59059613621E+02  0.00000000000E+00 0. -1.
       21   -1    0    0  502  503 -0.00000000000E+00 -0.00000000000E+00 -0.26455167063E+03  0.26455167063E+03  0.00000000000E+00 0. -1.
       25    2    1    2    0    0  0.00000000000E+00 -0.14210854715E-13 -0.20549205701E+03  0.32361128425E+03  0.24999455554E+03 0.  0.
       24    2    3    3    0    0 -0.53506946508E+02  0.67585084886E+02 -0.50691153261E+02  0.12875079018E+03  0.81095227540E+02 0.  0.
      -24    2    3    3    0    0  0.53506946508E+02 -0.67585084886E+02 -0.15480090375E+03  0.19486049407E+03  0.81095963673E+02 0.  0.
      -13    1    4    4    0    0 -0.47010085117E+01  0.62795163160E+02 -0.48812691632E+02  0.79674405312E+02  0.00000000000E+00 0.  1.
       14    1    4    4    0    0 -0.48805937996E+02  0.47899217260E+01 -0.18784616282E+01  0.49076384870E+02  0.00000000000E+00 0. -1.
        3    1    5    5  501    0  0.60233539793E+02 -0.53653094908E+02 -0.15946153481E+03  0.17870286789E+03  0.00000000000E+00 0. -1.
       -4    1    5    5    0  501 -0.67265932850E+01 -0.13931989978E+02  0.46606310562E+01  0.16157626181E+02  0.00000000000E+00 0.  1.
</event>
<event>
 8   1  0.7570500E-01  0.2501214E+03  0.7546771E-02  0.1113228E+00
       21   -1    0    0  503  502  0.00000000000E+00  0.00000000000E+00  0.78892721830E+02  0.78892721830E+02  0.00000000000E+00 0.  1.
       21   -1    0    0  502  503 -0.00000000000E+00 -0.00000000000E+00 -0.19824613600E+03  0.19824613600E+03  0.00000000000E+00 0.  1.
       24    2    1    2    0    0  0.60024924706E+02 -0.56775584241E+02 -0.10924656302E+03  0.15900129918E+03  0.80747402778E+02 0.  0.
      -24    2    1    2    0    0 -0.60024924706E+02  0.56775584241E+02 -0.10106851144E+02  0.11813755865E+03  0.83832426736E+02 0.  0.
      -13    1    3    3    0    0  0.24129859990E+02 -0.31028397514E+02  0.19465583814E+01  0.39354805107E+02  0.00000000000E+00 0.  1.
       14    1    3    3    0    0  0.35895064715E+02 -0.25747186726E+02 -0.11119312140E+03  0.11964649407E+03  0.00000000000E+00 0. -1.
        1    1    4    4  501    0  0.11732411344E+02  0.39090939174E+02 -0.16356985819E+02  0.43969330067E+02  0.00000000000E+00 0. -1.
       -2    1    4    4    0  501 -0.71757336049E+02  0.17684645066E+02  0.62501346743E+01  0.74168228585E+02  0.00000000000E+00 0.  1.
</event>
<event>
 9   1  0.7570500E-01  0.2500029E+03  0.7546771E-02  0.1113303E+00
       21   -1    0    0  503  502  0.00000000000E+00  0.00000000000E+00  0.12127026095E+03  0.12127026095E+03  0.00000000000E+00 0.  1.
       21   -1    0    0  502  503 -0.00000000000E+00 -0.00000000000E+00 -0.12884744683E+03  0.12884744683E+03  0.00000000000E+00 0.  1.
       25    2    1    2    0    0  0.00000000000E+00 -0.35527136788E-14 -0.75771858807E+01  0.25011770778E+03  0.25000290798E+03 0.  0.
       24    2    3    3    0    0  0.82760882209E+02 -0.19248503815E+02 -0.44736431282E+02  0.12537451537E+03  0.80607396043E+02 0.  0.
      -24    2    3    3    0    0 -0.82760882209E+02  0.19248503815E+02  0.37159245402E+02  0.12474319241E+03  0.83427729268E+02 0.  0.
      -13    1    4    4    0    0  0.45841359219E+02  0.49484508155E+01 -0.62606043910E+02  0.77752389768E+02  0.00000000000E+00 0.  1.
       14    1    4    4    0    0  0.36919522990E+02 -0.24196954631E+02  0.17869612628E+02  0.47622125600E+02  0.00000000000E+00 0. -1.
        3    1    5    5  501    0 -0.57961336616E+02  0.42187956146E+02  0.51266296907E+02  0.88133837909E+02  0.00000000000E+00 0. -1.
       -4    1    5    5    0  501 -0.24799545593E+02 -0.22939452330E+02 -0.14107051505E+02  0.36609354501E+02  0.00000000000E+00 0.  1.
</event>
<event>
 9   1  0.7570500E-01  0.2499984E+03  0.7546771E-02  0.1113306E+00
       21   -1    0    0  503  502  0.00000000000E+00  0.00000000000E+00  0.63660096757E+02  0.63660096757E+02  0.00000000000E+00 0. -1.
       21   -1    0    0  502  503 -0.00000000000E+00 -0.00000000000E+00 -0.24544111856E+03  0.24544111856E+03  0.00000000000E+00 0. -1.
       25    2    1    2    0    0  0.00000000000E+00  0.35527136788E-14 -0.18178102180E+03  0.30910121531E+03  0.24999844284E+03 0.  0.
       24    2    3    3    0    0  0.87834302485E+02  0.13007561389E+02 -0.13690478901E+03  0.18194808292E+03  0.80486783261E+02 0.  0.
      -24    2    3    3    0    0 -0.87834302485E+02 -0.13007561389E+02 -0.44876232788E+02  0.12715313239E+03  0.79183214512E+02 0.  0.
      -13    1    4    4    0    0  0.65236576914E+02  0.40517844514E+02 -0.60877045814E+02  0.97997558125E+02  0.00000000000E+00 0.  1.
       14    1    4    4    0    0  0.22597725571E+02 -0.27510283125E+02 -0.76027743196E+02  0.83950524799E+02  0.00000000000E+00 0. -1.
        3    1    5    5  501    0 -0.31102026851E+02  0.26420228847E+02  0.61436379710E+01  0.41268739430E+02  0.00000000000E+00 0. -1.
       -4    1    5    5    0  501 -0.56732275633E+02 -0.39427790236E+02 -0.51019870759E+02  0.85884392958E+02  0.00000000000E+00 0.  1.
</event>
<event>
 9   1  0.7570500E-01  0.2500013E+03  0.7546771E-02  0.1113304E+00
       21   -1    0    0  503  502  0.00000000000E+00  0.00000000000E+00  0.11355716909E+03  0.11355716909E+03  0.00000000000E+00 0. -1.
       21   -1    0    0  502  503 -0.00000000000E+00 -0.00000000000E+00 -0.13759730942E+03  0.13759730942E+03  0.00000000000E+00 0. -1.
       25    2    1    2    0    0 -0.71054273576E-14  0.00000000000E+00 -0.24040140326E+02  0.25115447851E+03  0.25000128745E+03 0.  0.
       24    2    3    3    0    0  0.53176279841E+02 -0.26353231873E+02  0.63290659517E+02  0.11834737979E+03  0.80487173849E+02 0.  0.
      -24    2    3    3    0    0 -0.53176279841E+02  0.26353231873E+02 -0.87330799844E+02  0.13280709871E+03  0.80553381678E+02 0.  0.
      -13    1    4    4    0    0  0.28187925014E+02 -0.54861971294E+02  0.33922720876E+02  0.70392797945E+02  0.00000000000E+00 0.  1.
       14    1    4    4    0    0  0.24988354826E+02  0.28508739421E+02  0.29367938641E+02  0.47954581849E+02  0.00000000000E+00 0. -1.
        3    1    5    5  501    0  0.20189642615E+01 -0.17348547198E+02 -0.50330487873E+02  0.53274818781E+02  0.00000000000E+00 0. -1.
       -4    1    5    5    0  501 -0.55195244102E+02  0.43701779071E+02 -0.37000311971E+02  0.79532279934E+02  0.00000000000E+00 0.  1.
</event>
<event>
 9   1  0.7570500E-01  0.2500078E+03  0.7546771E-02  0.1113300E+00
       21   -1    0    0  503  502  0.00000000000E+00  0.00000000000E+00  0.21508439193E+02  0.21508439193E+02  0.00000000000E+00 0. -1.
       21   -1    0    0  502  503 -0.00000000000E+00 -0.00000000000E+00 -0.72650423832E+03  0.72650423832E+03  0.00000000000E+00 0. -1.
       25    2    1    2    0    0  0.00000000000E+00  0.00000000000E+00 -0.70499579913E+03  0.74801267751E+03  0.25000777774E+03 0.  0.
       24    2    3    3    0    0 -0.79227672999E+02  0.12121781298E+02 -0.23791460629E+03  0.26720630906E+03  0.91498032570E+02 0.  0.
      -24    2    3    3    0    0  0.79227672999E+02 -0.12121781298E+02 -0.46708119283E+03  0.48080636845E+03  0.81153937010E+02 0.  0.
      -13    1    4    4    0    0  0.80637445743E+01 -0.61766020921E+01  0.27697482974E+01  0.10528337741E+02  0.00000000000E+00 0.  1.
       14    1    4    4    0    0 -0.87291417573E+02  0.18298383390E+02 -0.24068435459E+03  0.25667797132E+03  0.00000000000E+00 0. -1.
        3    1    5    5  501    0  0.55099442774E+02 -0.35832101738E+02 -0.17789648434E+03  0.18964980161E+03  0.00000000000E+00 0. -1.
       -4    1    5    5    0  501  0.24128230225E+02  0.23710320440E+02 -0.28918470849E+03  0.29115656684E+03  0.00000000000E+00 0.  1.
</event>
<event>
 9   1  0.7570500E-01  0.2499999E+03  0.7546771E-02  0.1113305E+00
       21   -1    0    0  503  502  0.00000000000E+00  0.00000000000E+00  0.16898153253E+03  0.16898153253E+03  0.00000000000E+00 0. -1.
       21   -1    0    0  502  503 -0.00000000000E+00 -0.00000000000E+00 -0.92465678432E+02  0.92465678432E+02  0.00000000000E+00 0. -1.
       25    2    1    2    0    0 -0.35527136788E-14  0.00000000000E+00  0.76515854093E+02  0.26144721096E+03  0.24999993638E+03 0.  0.
       24    2    3    3    0    0  0.23123832943E+02  0.92944036959E+02  0.29681822291E+02  0.12779612853E+03  0.79230891932E+02 0.  0.
      -24    2    3    3    0    0 -0.23123832943E+02 -0.92944036959E+02  0.46834031802E+02  0.13365108243E+03  0.80597020063E+02 0.  0.
      -13    1    4    4    0    0  0.39163139569E+02  0.96794072629E+02  0.35528626119E+02  0.11029563577E+03  0.00000000000E+00 0.  1.
       14    1    4    4    0    0 -0.16039306626E+02 -0.38500356694E+01 -0.58468038277E+01  0.17500492756E+02  0.00000000000E+00 0. -1.
        3    1    5    5  501    0 -0.22599206564E+02 -0.63886789016E+02  0.69293640298E+02  0.96921899144E+02  0.00000000000E+00 0. -1.
       -4    1    5    5    0  501 -0.52462637914E+00 -0.29057247944E+02 -0.22459608495E+02  0.36729183284E+02  0.00000000000E+00 0.  1.
</event>
<event>
 9   1  0.7570500E-01  0.2500133E+03  0.7546771E-02  0.1113296E+00
       21   -1    0    0  503  502  0.00000000000E+00  0.00000000000E+00  0.29222918677E+03  0.29222918677E+03  0.00000000000E+00 0.  1.
       21   -1    0    0  502  503 -0.00000000000E+00 -0.00000000000E+00 -0.53473996284E+02  0.53473996284E+02  0.00000000000E+00 0.  1.
       25    2    1    2    0    0 -0.17763568394E-14  0.00000000000E+00  0.23875519048E+03  0.34570318305E+03  0.25001329923E+03 0.  0.
       24    2    3    3    0    0 -0.10394910210E+02 -0.30225542213E+02  0.23751298244E+03  0.25239057108E+03  0.79164044744E+02 0.  0.
      -24    2    3    3    0    0  0.10394910210E+02  0.30225542213E+02  0.12422080440E+01  0.93312611977E+02  0.87658786854E+02 0.  0.
      -13    1    4    4    0    0 -0.37198011413E+02 -0.31699759106E+02  0.89608188327E+02  0.10206955568E+03  0.00000000000E+00 0.  1.
       14    1    4    4    0    0  0.26803101203E+02  0.14742168934E+01  0.14790479411E+03  0.15032101540E+03  0.00000000000E+00 0. -1.
        1    1    5    5  501    0  0.21180492089E+02  0.58568074350E+02  0.61866667254E+01  0.62586799114E+02  0.00000000000E+00 0. -1.
       -2    1    5    5    0  501 -0.10785581878E+02 -0.28342532138E+02 -0.49444586814E+01  0.30725812863E+02  0.00000000000E+00 0.  1.
</event>
<event>
 9   1  0.7570500E-01  0.2499989E+03  0.7546771E-02  0.1113305E+00
       21   -1    0    0  503  502  0.00000000000E+00  0.00000000000E+00  0.10437728517E+02  0.10437728517E+02  0.00000000000E+00 0. -1.
       21   -1    0    0  502  503 -0.00000000000E+00 -0.00000000000E+00 -0.14969606171E+04  0.14969606171E+04  0.00000000000E+00 0. -1.
       25    2    1    2    0    0  0.00000000000E+00  0.00000000000E+00 -0.14865228886E+04  0.15073983457E+04  0.24999894818E+03 0.  0.
       24    2    3    3    0    0 -0.37024425073E+02  0.11625178664E+02 -0.12760655729E+04  0.12790959536E+04  0.78975687843E+02 0.  0.
      -24    2    3    3    0    0  0.37024425073E+02 -0.11625178664E+02 -0.21045731573E+03  0.22830239209E+03  0.79521994819E+02 0.  0.
      -13    1    4    4    0    0  0.14210006949E+02  0.26519193661E+02 -0.67387550738E+03  0.67454680444E+03  0.00000000000E+00 0.  1.
       14    1    4    4    0    0 -0.51234432022E+02 -0.14894014997E+02 -0.60219006551E+03  0.60454914913E+03  0.00000000000E+00 0. -1.
        1    1    5    5  501    0  0.35260277021E+02  0.19753746120E+02 -0.18019731682E+03  0.18467422833E+03  0.00000000000E+00 0. -1.
       -2    1    5    5    0  501  0.17641480521E+01 -0.31378924784E+02 -0.30259998908E+02  0.43628163758E+02  0.00000000000E+00 0.  1.
</event>
<event>
 8   1  0.7570500E-01  0.2497240E+03  0.7546771E-02  0.1113479E+00
       21   -1    0    0  503  502  0.00000000000E+00  0.00000000000E+00  0.49376970778E+03  0.49376970778E+03  0.00000000000E+00 0. -1.
       21   -1    0    0  502  503 -0.00000000000E+00 -0.00000000000E+00 -0.31574479013E+02  0.31574479013E+02  0.00000000000E+00 0. -1.
       24    2    1    2    0    0 -0.50476957397E+02 -0.61373992941E+02  0.33561643986E+03  0.35448837351E+03  0.81908009451E+02 0.  0.
      -24    2    1    2    0    0  0.50476957397E+02  0.61373992941E+02  0.12657878890E+03  0.17085581328E+03  0.82793894059E+02 0.  0.
      -13    1    3    3    0    0 -0.51300332875E+02 -0.75662777286E+02  0.22365282196E+03  0.24161366847E+03  0.00000000000E+00 0.  1.
       14    1    3    3    0    0  0.82337547785E+00  0.14288784345E+02  0.11196361790E+03  0.11287470505E+03  0.00000000000E+00 0. -1.
        1    1    4    4  501    0  0.28567493362E+02  0.48953243197E+02  0.18110783849E+02  0.59502287251E+02  0.00000000000E+00 0. -1.
       -2    1    4    4    0  501  0.21909464035E+02  0.12420749743E+02  0.10846800505E+03  0.11135352602E+03  0.00000000000E+00 0.  1.
</event>
<event>
 9   1  0.7570500E-01  0.2500038E+03  0.7546771E-02  0.1113302E+00
       21   -1    0    0  503  502  0.00000000000E+00  0.00000000000E+00  0.28258003650E+02  0.28258003650E+02  0.00000000000E+00 0. -1.
       21   -1    0    0  502  503 -0.00000000000E+00 -0.00000000000E+00 -0.55295739141E+03  0.55295739141E+03  0.00000000000E+00 0. -1.
       25    2    1    2    0    0  0.00000000000E+00  0.00000000000E+00 -0.52469938776E+03  0.58121539506E+03  0.25000377585E+03 0.  0.
       24    2    3    3    0    0  0.63884750384E+02  0.69338901737E+02 -0.30099499119E+03  0.32554386860E+03  0.80570968952E+02 0.  0.
      -24    2    3    3    0    0 -0.63884750384E+02 -0.69338901737E+02 -0.22370439658E+03  0.25567152646E+03  0.80219248129E+02 0.  0.
      -13    1    4    4    0    0  0.38629610278E+01  0.22884716119E+02 -0.18798405693E+03  0.18941129417E+03  0.00000000000E+00 0.  1.
       14    1    4    4    0    0  0.60021789357E+02  0.46454185617E+02 -0.11301093426E+03  0.13613257443E+03  0.00000000000E+00 0. -1.
        1    1    5    5  501    0 -0.44634303777E+02 -0.80963038387E+02 -0.13138403794E+03  0.16065179764E+03  0.00000000000E+00 0. -1.
       -2    1    5    5    0  501 -0.19250446607E+02  0.11624136650E+02 -0.92320358633E+02  0.95019728823E+02  0.00000000000E+00 0.  1.
</event>
<event>
 9   1  0.7570500E-01  0.2500044E+03  0.7546771E-02  0.1113302E+00
       21   -1    0    0  503  502  0.00000000000E+00  0.00000000000E+00  0.79074680872E+02  0.79074680872E+02  0.00000000000E+00 0.  1.
       21   -1    0    0  502  503 -0.00000000000E+00 -0.00000000000E+00 -0.19760492883E+03  0.19760492883E+03  0.00000000000E+00 0.  1.
       25    2    1    2    0    0  0.00000000000E+00  0.71054273576E-14 -0.11853024796E+03  0.27667960970E+03  0.25000437345E+03 0.  0.
       24    2    3    3    0    0 -0.26223218875E+02  0.60487633937E+02  0.17041534171E+02  0.10727714481E+03  0.82894878273E+02 0.  0.
      -24    2    3    3    0    0  0.26223218875E+02 -0.60487633937E+02 -0.13557178213E+03  0.16940246490E+03  0.77272737336E+02 0.  0.
      -13    1    4    4    0    0 -0.43672282991E+02  0.62464405760E+02 -0.80605743483E+01  0.76642306511E+02  0.00000000000E+00 0.  1.
       14    1    4    4    0    0  0.17449064116E+02 -0.19767718229E+01  0.25102108520E+02  0.30634838297E+02  0.00000000000E+00 0. -1.
        1    1    5    5  501    0 -0.86782380763E+01 -0.31781377955E+01 -0.84687357757E+02  0.85190145790E+02  0.00000000000E+00 0. -1.
       -2    1    5    5    0  501  0.34901456951E+02 -0.57309496141E+02 -0.50884424373E+02  0.84212319105E+02  0.00000000000E+00 0.  1.
</event>
<event>
 9   1  0.7570500E-01  0.2499952E+03  0.7546771E-02  0.1113308E+00
       21   -1    0    0  503  502  0.00000000000E+00  0.00000000000E+00  0.17177109829E+03  0.17177109829E+03  0.00000000000E+00 0.  1.
       21   -1    0    0  502  503 -0.00000000000E+00 -0.00000000000E+00 -0.90960555983E+02  0.90960555983E+02  0.00000000000E+00 0.  1.
       25    2    1    2    0    0  0.00000000000E+00  0.00000000000E+00  0.80810542310E+02  0.26273165428E+03  0.24999515677E+03 0.  0.
       24    2    3    3    0    0 -0.57848959728E+02 -0.66993399165E+02  0.77793993830E+02  0.14372840162E+03  0.82288093201E+02 0.  0.
      -24    2    3    3    0    0  0.57848959728E+02  0.66993399165E+02  0.30165484800E+01  0.11900325266E+03  0.79486205751E+02 0.  0.
      -13    1    4    4    0    0 -0.74828570928E+02 -0.37307033796E+02  0.69024187964E+02  0.10842263750E+03  0.00000000000E+00 0.  1.
       14    1    4    4    0    0  0.16979611200E+02 -0.29686365368E+02  0.87698058658E+01  0.35305764122E+02  0.00000000000E+00 0. -1.
        3    1    5    5  501    0  0.24848438215E+01  0.39795577219E+02  0.31736123727E+02  0.50961200577E+02  0.00000000000E+00 0. -1.
       -4    1    5    5    0  501  0.55364115907E+02  0.27197821946E+02 -0.28719575247E+02  0.68042052079E+02  0.00000000000E+00 0.  1.
</event>
<event>
 9   1  0.7570500E-01  0.2500056E+03  0.7546771E-02  0.1113301E+00
       21   -1    0    0  503  502  0.00000000000E+00  0.00000000000E+00  0.37067762519E+03  0.37067762519E+03  0.00000000000E+00 0. -1.
       21   -1    0    0  502  503 -0.00000000000E+00 -0.00000000000E+00 -0.42154406360E+02  0.42154406360E+02  0.00000000000E+00 0. -1.
       25    2    1    2    0    0  0.00000000000E+00  0.00000000000E+00  0.32852321882E+03  0.41283203155E+03  0.25000556186E+03 0.  0.
       24    2    3    3    0    0 -0.31105083695E+02  0.85805479608E+02  0.19079627347E+03  0.23173400001E+03  0.94695946207E+02 0.  0.
      -24    2    3    3    0    0  0.31105083695E+02 -0.85805479608E+02  0.13772694536E+03  0.18109803154E+03  0.74146334952E+02 0.  0.
      -13    1    4    4    0    0 -0.95367920459E+01  0.36474314976E+02  0.46837763587E+01  0.37990312140E+02  0.00000000000E+00 0.  1.
       14    1    4    4    0    0 -0.21568291649E+02  0.49331164632E+02  0.18611249711E+03  0.19374368787E+03  0.00000000000E+00 0. -1.
        3    1    5    5  501    0  0.37419733508E+02 -0.34273640946E+02  0.24107852617E+02  0.56179244186E+02  0.00000000000E+00 0. -1.
       -4    1    5    5    0  501 -0.63146498139E+01 -0.51531838662E+02  0.11361909274E+03  0.12491878735E+03  0.00000000000E+00 0.  1.
</event>
<event>
 9   1  0.7570500E-01  0.2500083E+03  0.7546771E-02  0.1113300E+00
       21   -1    0    0  503  502  0.00000000000E+00  0.00000000000E+00  0.20437392735E+02  0.20437392735E+02  0.00000000000E+00 0. -1.
       21   -1    0    0  502  503 -0.00000000000E+00 -0.00000000000E+00 -0.76458064702E+03  0.76458064702E+03  0.00000000000E+00 0. -1.
       25    2    1    2    0    0 -0.71054273576E-14  0.71054273576E-14 -0.74414325429E+03  0.78501803976E+03  0.25000827955E+03 0.  0.
       24    2    3    3    0    0  0.44768723943E+02 -0.40292700727E+02 -0.60888407905E+03  0.61711024111E+03  0.80358494167E+02 0.  0.
      -24    2    3    3    0    0 -0.44768723943E+02  0.40292700727E+02 -0.13525917524E+03  0.16790779865E+03  0.79184872203E+02 0.  0.
      -13    1    4    4    0    0  0.25383856633E+02 -0.64182438926E+02 -0.45183905499E+03  0.45708014314E+03  0.00000000000E+00 0.  1.
       14    1    4    4    0    0  0.19384867310E+02  0.23889738199E+02 -0.15704502406E+03  0.16003009796E+03  0.00000000000E+00 0. -1.
        1    1    5    5  501    0 -0.53163680300E+02  0.31432256268E+02 -0.14135954313E+03  0.15426238709E+03  0.00000000000E+00 0. -1.
       -2    1    5    5    0  501  0.83949563572E+01  0.88604444584E+01  0.61003678902E+01  0.13645411560E+02  0.00000000000E+00 0.  1.
</event>
<event>
 9   1  0.7570500E-01  0.2500090E+03  0.7546771E-02  0.1113299E+00
       21   -1    0    0  503  502  0.00000000000E+00  0.00000000000E+00  0.22087372806E+03  0.22087372806E+03  0.00000000000E+00 0. -1.
       21   -1    0    0  502  503 -0.00000000000E+00 -0.00000000000E+00 -0.70746876063E+02  0.70746876063E+02  0.00000000000E+00 0. -1.
       25    2    1    2    0    0 -0.14210854715E-13  0.71054273576E-14  0.15012685200E+03  0.29162060413E+03  0.25000900996E+03 0.  0.
       24    2    3    3    0    0 -0.64478558411E+02  0.53192666304E+02  0.14580017694E+03  0.18524825015E+03  0.77924824949E+02 0.  0.
      -24    2    3    3    0    0  0.64478558411E+02 -0.53192666304E+02  0.43266750579E+01  0.10637235398E+03  0.65646121976E+02 0.  0.
      -13    1    4    4    0    0 -0.74115301472E+02  0.31050277213E+02  0.13832028066E+03  0.15996780197E+03  0.00000000000E+00 0.  1.
       14    1    4    4    0    0  0.96367430608E+01  0.22142389091E+02  0.74798962864E+01  0.25280448175E+02  0.00000000000E+00 0. -1.
        3    1    5    5  501    0  0.51566446297E+02 -0.46908066713E+02  0.30834330799E+02  0.76224806082E+02  0.00000000000E+00 0. -1.
       -4    1    5    5    0  501  0.12912112114E+02 -0.62845995910E+01 -0.26507655741E+02  0.30147547896E+02  0.00000000000E+00 0.  1.
</event>
<event>
 9   1  0.7570500E-01  0.2500288E+03  0.7546771E-02  0.1113287E+00
       21   -1    0    0  503  502  0.00000000000E+00  0.00000000000E+00  0.33400275360E+02  0.33400275360E+02  0.00000000000E+00 0. -1.
       21   -1    0    0  502  503 -0.00000000000E+00 -0.00000000000E+00 -0.46791821329E+03  0.46791821329E+03  0.00000000000E+00 0. -1.
       25    2    1    2    0    0  0.14210854715E-13  0.00000000000E+00 -0.43451793793E+03  0.50131848865E+03  0.25002877570E+03 0.  0.
       24    2    3    3    0    0 -0.74073636087E+02  0.60271481153E+02 -0.21258983397E+03  0.24684094256E+03  0.81341615519E+02 0.  0.
      -24    2    3    3    0    0  0.74073636087E+02 -0.60271481153E+02 -0.22192810396E+03  0.25447754608E+03  0.79919854418E+02 0.  0.
      -13    1    4    4    0    0 -0.46523654311E+01  0.17384623635E+02  0.11712797480E+01  0.18034454228E+02  0.00000000000E+00 0.  1.
       14    1    4    4    0    0 -0.69421270656E+02  0.42886857518E+02 -0.21376111371E+03  0.22880648833E+03  0.00000000000E+00 0. -1.
        3    1    5    5  501    0  0.47221792198E+01 -0.52425212879E+02 -0.72915167488E+02  0.89929547824E+02  0.00000000000E+00 0. -1.
       -4    1    5    5    0  501  0.69351456867E+02 -0.78462682735E+01 -0.14901293647E+03  0.16454799826E+03  0.00000000000E+00 0.  1.
</event>
<event>
 9   1  0.7570500E-01  0.2499997E+03  0.7546771E-02  0.1113305E+00
       21   -1    0    0  503  502  0.00000000000E+00  0.00000000000E+00  0.10754556269E+04  0.10754556269E+04  0.00000000000E+00 0. -1.
       21   -1    0    0  502  503 -0.00000000000E+00 -0.00000000000E+00 -0.14528694273E+02  0.14528694273E+02  0.00000000000E+00 0. -1.
       25    2    1    2    0    0  0.00000000000E+00  0.35527136788E-14  0.10609269326E+04  0.10899843212E+04  0.24999972806E+03 0.  0.
       24    2    3    3    0    0  0.93502678009E+02  0.19912842263E+02  0.53440807212E+03  0.54883320546E+03  0.80539603871E+02 0.  0.
      -24    2    3    3    0    0 -0.93502678009E+02 -0.19912842263E+02  0.52651886053E+03  0.54115111573E+03  0.80517994768E+02 0.  0.
      -13    1    4    4    0    0  0.51239937106E+02 -0.29621915445E+02  0.22556289117E+03  0.23319864258E+03  0.00000000000E+00 0.  1.
       14    1    4    4    0    0  0.42262740903E+02  0.49534757709E+02  0.30884518095E+03  0.31563456288E+03  0.00000000000E+00 0. -1.
        1    1    5    5  501    0 -0.84080655493E+02 -0.22605948522E+02  0.25497655173E+03  0.26943204611E+03  0.00000000000E+00 0. -1.
       -2    1    5    5    0  501 -0.94220225159E+01  0.26931062591E+01  0.27154230880E+03  0.27171906962E+03  0.00000000000E+00 0.  1.
</event>
<event>
 9   1  0.7570500E-01  0.2499995E+03  0.7546771E-02  0.1113305E+00
       21   -1    0    0  503  502  0.00000000000E+00  0.00000000000E+00  0.39188796082E+02  0.39188796082E+02  0.00000000000E+00 0.  1.
       21   -1    0    0  502  503 -0.00000000000E+00 -0.00000000000E+00 -0.39870931653E+03  0.39870931653E+03  0.00000000000E+00 0.  1.
       25    2    1    2    0    0 -0.35527136788E-14 -0.71054273576E-14 -0.35952052045E+03  0.43789811261E+03  0.24999950481E+03 0.  0.
       24    2    3    3    0    0  0.15128404000E+02  0.53796416476E+02 -0.32119922417E+03  0.33252230081E+03  0.65415715939E+02 0.  0.
      -24    2    3    3    0    0 -0.15128404000E+02 -0.53796416476E+02 -0.38321296275E+02  0.10537581181E+03  0.80700786441E+02 0.  0.
      -13    1    4    4    0    0  0.37039386638E+02  0.12343595195E+02 -0.15419922458E+03  0.15906502244E+03  0.00000000000E+00 0.  1.
       14    1    4    4    0    0 -0.21910982638E+02  0.41452821281E+02 -0.16699999960E+03  0.17345727836E+03  0.00000000000E+00 0. -1.
        1    1    5    5  501    0 -0.18007649572E+01 -0.70828439418E+02 -0.43497712024E+02  0.83138207439E+02  0.00000000000E+00 0. -1.
       -2    1    5    5    0  501 -0.13327639043E+02  0.17032022942E+02  0.51764157487E+01  0.22237604367E+02  0.00000000000E+00 0.  1.
</event>
<event>
 9   1  0.7570500E-01  0.2500019E+03  0.7546771E-02  0.1113304E+00
       21   -1    0    0  503  502  0.00000000000E+00  0.00000000000E+00  0.26906309691E+02  0.26906309691E+02  0.00000000000E+00 0. -1.
       21   -1    0    0  502  503 -0.00000000000E+00 -0.00000000000E+00 -0.58072775169E+03  0.58072775169E+03  0.00000000000E+00 0. -1.
       25    2    1    2    0    0  0.00000000000E+00 -0.71054273576E-14 -0.55382144200E+03  0.60763406138E+03  0.25000192586E+03 0.  0.
       24    2    3    3    0    0 -0.81837659762E+02 -0.44602206421E+02 -0.33127382515E+03  0.35337406708E+03  0.80275305570E+02 0.  0.
      -24    2    3    3    0    0  0.81837659762E+02  0.44602206421E+02 -0.22254761685E+03  0.25425999430E+03  0.80211866716E+02 0.  0.
      -13    1    4    4    0    0 -0.57702381670E+02  0.80708191253E+01 -0.10810007793E+03  0.12280199436E+03  0.00000000000E+00 0.  1.
       14    1    4    4    0    0 -0.24135278092E+02 -0.52673025547E+02 -0.22317374722E+03  0.23057207272E+03  0.00000000000E+00 0. -1.
        1    1    5    5  501    0 -0.11313859022E+02  0.22980223549E+02 -0.31366964336E+02  0.40496673098E+02  0.00000000000E+00 0. -1.
       -2    1    5    5    0  501  0.93151518784E+02  0.21621982872E+02 -0.19118065251E+03  0.21376332120E+03  0.00000000000E+00 0.  1.
</event>
<event>
 9   1  0.7570500E-01  0.2500014E+03  0.7546771E-02  0.1113304E+00
       21   -1    0    0  503  502  0.00000000000E+00  0.00000000000E+00  0.32726741023E+03  0.32726741023E+03  0.00000000000E+00 0.  1.
       21   -1    0    0  502  503 -0.00000000000E+00 -0.00000000000E+00 -0.47744350959E+02  0.47744350959E+02  0.00000000000E+00 0.  1.
       25    2    1    2    0    0  0.00000000000E+00  0.00000000000E+00  0.27952305927E+03  0.37501176119E+03  0.25000136073E+03 0.  0.
       24    2    3    3    0    0 -0.81072018112E+02 -0.49077920046E+02  0.16368930841E+03  0.20566055036E+03  0.80751210087E+02 0.  0.
      -24    2    3    3    0    0  0.81072018112E+02  0.49077920046E+02  0.11583375086E+03  0.16935121083E+03  0.79253141345E+02 0.  0.
      -13    1    4    4    0    0 -0.58622206296E+02 -0.42828550869E+02  0.46587700620E+02  0.86262747983E+02  0.00000000000E+00 0.  1.
       14    1    4    4    0    0 -0.22449811816E+02 -0.62493691774E+01  0.11710160779E+03  0.11939780238E+03  0.00000000000E+00 0. -1.
        1    1    5    5  501    0  0.32917877198E+02  0.56240455681E+02  0.32456064878E+02  0.72800904127E+02  0.00000000000E+00 0. -1.
       -2    1    5    5    0  501  0.48154140914E+02 -0.71625356342E+01  0.83377685981E+02  0.96550306698E+02  0.00000000000E+00 0.  1.
</event>
<event>
 9   1  0.7570500E-01  0.2500007E+03  0.7546771E-02  0.1113304E+00
       21   -1    0    0  503  502  0.00000000000E+00  0.00000000000E+00  0.32450322666E+04  0.32450322666E+04  0.00000000000E+00 0.  1.
       21   -1    0    0  502  503 -0.00000000000E+00 -0.00000000000E+00 -0.48150793837E+01  0.48150793837E+01  0.00000000000E+00 0.  1.
       25    2    1    2    0    0 -0.71054273576E-14  0.00000000000E+00  0.32402171872E+04  0.32498473460E+04  0.25000070373E+03 0.  0.
       24    2    3    3    0    0  0.60697587397E+02 -0.69527349675E+02  0.19466830424E+04  0.19505499514E+04  0.80944400744E+02 0.  0.
      -24    2    3    3    0    0 -0.60697587397E+02  0.69527349675E+02  0.12935341448E+04  0.12992973945E+04  0.80155387861E+02 0.  0.
      -13    1    4    4    0    0  0.40950151722E+02 -0.58691979813E+02  0.18456279867E+04  0.18470149779E+04  0.00000000000E+00 0.  1.
       14    1    4    4    0    0  0.19747435675E+02 -0.10835369863E+02  0.10105505572E+03  0.10353497352E+03  0.00000000000E+00 0. -1.
        3    1    5    5  501    0 -0.33199398661E+02  0.59444480329E+02  0.11827158149E+04  0.11846740248E+04  0.00000000000E+00 0. -1.
       -4    1    5    5    0  501 -0.27498188736E+02  0.10082869346E+02  0.11081832993E+03  0.11462336972E+03  0.00000000000E+00 0.  1.
</event>
<event>
 9   1  0.7570500E-01  0.2500034E+03  0.7546771E-02  0.1113303E+00
       21   -1    0    0  503  502  0.00000000000E+00  0.00000000000E+00  0.28568724336E+03  0.28568724336E+03  0.00000000000E+00 0. -1.
       21   -1    0    0  502  503 -0.00000000000E+00 -0.00000000000E+00 -0.54694183746E+02  0.54694183746E+02  0.00000000000E+00 0. -1.
       25    2    1    2    0    0  0.00000000000E+00  0.00000000000E+00  0.23099305961E+03  0.34038142711E+03  0.25000344463E+03 0.  0.
       24    2    3    3    0    0  0.13563660430E+02  0.84805415386E+02  0.54133624755E+02  0.12774304029E+03  0.77536466589E+02 0.  0.
      -24    2    3    3    0    0 -0.13563660430E+02 -0.84805415386E+02  0.17685943486E+03  0.21263838681E+03  0.80993163198E+02 0.  0.
      -13    1    4    4    0    0 -0.13595130093E+02  0.69867893502E+02  0.63475433427E+02  0.95370229912E+02  0.00000000000E+00 0.  1.
       14    1    4    4    0    0  0.27158790523E+02  0.14937521884E+02 -0.93418086719E+01  0.32372810381E+02  0.00000000000E+00 0. -1.
        1    1    5    5  501    0  0.32231805508E+02 -0.37211864398E+02  0.53457632991E+02  0.72672764247E+02  0.00000000000E+00 0. -1.
       -2    1    5    5    0  501 -0.45795465938E+02 -0.47593550988E+02  0.12340180187E+03  0.13996562257E+03  0.00000000000E+00 0.  1.
</event>
<event>
 9   1  0.7570500E-01  0.2500388E+03  0.7546771E-02  0.1113280E+00
       21   -1    0    0  503  502  0.00000000000E+00  0.00000000000E+00  0.67119111573E+02  0.67119111573E+02  0.00000000000E+00 0. -1.
       21   -1    0    0  502  503 -0.00000000000E+00 -0.00000000000E+00 -0.23286743790E+03  0.23286743790E+03  0.00000000000E+00 0. -1.
       25    2    1    2    0    0  0.00000000000E+00  0.00000000000E+00 -0.16574832633E+03  0.29998654947E+03  0.25003884135E+03 0.  0.
       24    2    3    3    0    0  0.26194438450E+02  0.82896879535E+02 -0.13158793507E+03  0.17713083344E+03  0.80634398725E+02 0.  0.
      -24    2    3    3    0    0 -0.26194438450E+02 -0.82896879535E+02 -0.34160391254E+02  0.12285571603E+03  0.79803216652E+02 0.  0.
      -13    1    4    4    0    0 -0.54402518642E+01  0.59863108430E+01  0.10039162529E+02  0.12892518844E+02  0.00000000000E+00 0.  1.
       14    1    4    4    0    0  0.31634690314E+02  0.76910568692E+02 -0.14162709760E+03  0.16423831460E+03  0.00000000000E+00 0. -1.
        1    1    5    5  501    0 -0.77705134310E+01 -0.84620052208E+02 -0.11164668100E+01  0.84983413751E+02  0.00000000000E+00 0. -1.
       -2    1    5    5    0  501 -0.18423925019E+02  0.17231726729E+01 -0.33043924445E+02  0.37872302278E+02  0.00000000000E+00 0.  1.
</event>
<event>
 9   1  0.7570500E-01  0.2499994E+03  0.7546771E-02  0.1113305E+00
       21   -1    0    0  503  502  0.00000000000E+00  0.00000000000E+00  0.46740523154E+02  0.46740523154E+02  0.00000000000E+00 0.  1.
       21   -1    0    0  502  503 -0.00000000000E+00 -0.00000000000E+00 -0.33429071361E+03  0.33429071361E+03  0.00000000000E+00 0.  1.
       25    2    1    2    0    0  0.00000000000E+00 -0.71054273576E-14 -0.28755019045E+03  0.38103123676E+03  0.24999938271E+03 0.  0.
       24    2    3    3    0    0 -0.19380054049E+02  0.50555783997E+02 -0.29622027748E+02  0.10117306335E+03  0.80168886915E+02 0.  0.
      -24    2    3    3    0    0  0.19380054049E+02 -0.50555783997E+02 -0.25792816271E+03  0.27985817341E+03  0.94139185881E+02 0.  0.
      -13    1    4    4    0    0 -0.18137650727E+02  0.36557513276E+02 -0.57173701676E+02  0.70244276024E+02  0.00000000000E+00 0.  1.
       14    1    4    4    0    0 -0.12424033217E+01  0.13998270721E+02  0.27551673928E+02  0.30928787325E+02  0.00000000000E+00 0. -1.
        3    1    5    5  501    0 -0.92689229061E+01 -0.29934262051E+01 -0.19770571834E+03  0.19794550916E+03  0.00000000000E+00 0. -1.
       -4    1    5    5    0  501  0.28648976955E+02 -0.47562357792E+02 -0.60222444361E+02  0.81912664247E+02  0.00000000000E+00 0.  1.
</event>
<event>
 9   1  0.7570500E-01  0.2500137E+03  0.7546771E-02  0.1113296E+00
       21   -1    0    0  503  502  0.00000000000E+00  0.00000000000E+00  0.67054446951E+03  0.67054446951E+03  0.00000000000E+00 0. -1.
       21   -1    0    0  502  503 -0.00000000000E+00 -0.00000000000E+00 -0.23304506961E+02  0.23304506961E+02  0.00000000000E+00 0. -1.
       25    2    1    2    0    0  0.00000000000E+00  0.00000000000E+00  0.64723996255E+03  0.69384897647E+03  0.25001366569E+03 0.  0.
       24    2    3    3    0    0  0.92756662756E+02  0.28268388794E+02  0.34262652752E+03  0.36448076127E+03  0.77784238044E+02 0.  0.
      -24    2    3    3    0    0 -0.92756662756E+02 -0.28268388794E+02  0.30461343503E+03  0.32936821520E+03  0.79316934455E+02 0.  0.
      -13    1    4    4    0    0  0.48803918462E+02  0.24836257611E+02  0.72905447775E+02  0.91180406145E+02  0.00000000000E+00 0.  1.
       14    1    4    4    0    0  0.43952744294E+02  0.34321311830E+01  0.26972107974E+03  0.27330035513E+03  0.00000000000E+00 0. -1.
        3    1    5    5  501    0 -0.82996786464E+02  0.64795865455E+01  0.16052201663E+03  0.18082524555E+03  0.00000000000E+00 0. -1.
       -4    1    5    5    0  501 -0.97598762915E+01 -0.34747975340E+02  0.14409141840E+03  0.14854296965E+03  0.00000000000E+00 0.  1.
</event>
<event>
 9   1  0.7570500E-01  0.2500001E+03  0.7546771E-02  0.1113305E+00
       21   -1    0    0  503  502  0.00000000000E+00  0.00000000000E+00  0.53865770613E+02  0.53865770613E+02  0.00000000000E+00 0.  1.
       21   -1    0    0  502  503 -0.00000000000E+00 -0.00000000000E+00 -0.29007318304E+03  0.29007318304E+03  0.00000000000E+00 0.  1.
       25    2    1    2    0    0  0.00000000000E+00  0.00000000000E+00 -0.23620741243E+03  0.34393895365E+03  0.25000012431E+03 0.  0.
       24    2    3    3    0    0  0.49332471234E+02  0.32550063323E+02 -0.24391099981E+02  0.10648751965E+03  0.85155544406E+02 0.  0.
      -24    2    3    3    0    0 -0.49332471234E+02 -0.32550063323E+02 -0.21181631245E+03  0.23745143400E+03  0.89575855843E+02 0.  0.
      -13    1    4    4    0    0  0.44454446363E+02  0.44493949582E+02  0.15318541628E+02  0.64734589428E+02  0.00000000000E+00 0.  1.
       14    1    4    4    0    0  0.48780248710E+01 -0.11943886259E+02 -0.39709641609E+02  0.41752930224E+02  0.00000000000E+00 0. -1.
        3    1    5    5  501    0 -0.38930678628E+02 -0.57656286856E+02 -0.19083029360E+03  0.20311584406E+03  0.00000000000E+00 0. -1.
       -4    1    5    5    0  501 -0.10401792605E+02  0.25106223532E+02 -0.20986018841E+02  0.34335589936E+02  0.00000000000E+00 0.  1.
</event>
<event>
 9   1  0.7570500E-01  0.2499961E+03  0.7546771E-02  0.1113307E+00
       21   -1    0    0  503  502  0.00000000000E+00  0.00000000000E+00  0.82135012716E+02  0.82135012716E+02  0.00000000000E+00 0.  1.
       21   -1    0    0  502  503 -0.00000000000E+00 -0.00000000000E+00 -0.19022955812E+03  0.19022955812E+03  0.00000000000E+00 0.  1.
       25    2    1    2    0    0  0.00000000000E+00  0.00000000000E+00 -0.10809454541E+03  0.27236457084E+03  0.24999605737E+03 0.  0.
       24    2    3    3    0    0 -0.36298931887E+02 -0.79635704222E+02 -0.40105099247E+02  0.13014715470E+03  0.87580848636E+02 0.  0.
      -24    2    3    3    0    0  0.36298931887E+02  0.79635704222E+02 -0.67989446161E+02  0.14221741614E+03  0.89127834156E+02 0.  0.
      -13    1    4    4    0    0  0.59620887568E+01 -0.12163757449E+02  0.24248687843E+02  0.27775931303E+02  0.00000000000E+00 0.  1.
       14    1    4    4    0    0 -0.42261020644E+02 -0.67471946773E+02 -0.64353787090E+02  0.10237122340E+03  0.00000000000E+00 0. -1.
        1    1    5    5  501    0  0.32108842896E+02  0.31259781060E+02  0.13982471036E+02  0.46943169901E+02  0.00000000000E+00 0. -1.
       -2    1    5    5    0  501  0.41900889911E+01  0.48375923162E+02 -0.81971917197E+02  0.95274246240E+02  0.00000000000E+00 0.  1.
</event>
<event>
 9   1  0.7570500E-01  0.2500080E+03  0.7546771E-02  0.1113300E+00
       21   -1    0    0  503  502  0.00000000000E+00  0.00000000000E+00  0.53808201576E+02  0.53808201576E+02  0.00000000000E+00 0.  1.
       21   -1    0    0  502  503 -0.00000000000E+00 -0.00000000000E+00 -0.29040175567E+03  0.29040175567E+03  0.00000000000E+00 0.  1.
       25    2    1    2    0    0  0.00000000000E+00 -0.14210854715E-13 -0.23659355409E+03  0.34420995724E+03  0.25000796953E+03 0.  0.
       24    2    3    3    0    0  0.69651117513E+01  0.64194090245E+02 -0.21515231652E+03  0.23918525475E+03  0.82156392212E+02 0.  0.
      -24    2    3    3    0    0 -0.69651117513E+01 -0.64194090245E+02 -0.21441237569E+02  0.10502470249E+03  0.80006671353E+02 0.  0.
      -13    1    4    4    0    0  0.17498456165E+02 -0.88754867577E+01 -0.10343204103E+03  0.10527657548E+03  0.00000000000E+00 0.  1.
       14    1    4    4    0    0 -0.10533344414E+02  0.73069577003E+02 -0.11172027549E+03  0.13390867927E+03  0.00000000000E+00 0. -1.
        1    1    5    5  501    0  0.21906975805E+02 -0.55077242490E+02 -0.38104039351E+02  0.70465140631E+02  0.00000000000E+00 0. -1.
       -2    1    5    5    0  501 -0.28872087556E+02 -0.91168477547E+01  0.16662801782E+02  0.34559561862E+02  0.00000000000E+00 0.  1.
</event>
<event>
 9   1  0.7570500E-01  0.2500010E+03  0.7546771E-02  0.1113304E+00
       21   -1    0    0  503  502  0.00000000000E+00  0.00000000000E+00  0.57896572268E+02  0.57896572268E+02  0.00000000000E+00 0. -1.
       21   -1    0    0  502  503 -0.00000000000E+00 -0.00000000000E+00 -0.26987991434E+03  0.26987991434E+03  0.00000000000E+00 0. -1.
       25    2    1    2    0    0  0.00000000000E+00 -0.14210854715E-13 -0.21198334207E+03  0.32777648661E+03  0.25000097571E+03 0.  0.
       24    2    3    3    0    0 -0.43559872718E+01  0.95405833289E+02 -0.97289761068E+02  0.15831128623E+03  0.80473089219E+02 0.  0.
      -24    2    3    3    0    0  0.43559872718E+01 -0.95405833289E+02 -0.11469358100E+03  0.16946520038E+03  0.80265739672E+02 0.  0.
      -13    1    4    4    0    0 -0.16555188189E+02  0.39307705827E+02 -0.91073905562E+02  0.10056652658E+03  0.00000000000E+00 0.  1.
       14    1    4    4    0    0  0.12199200918E+02  0.56098127462E+02 -0.62158555062E+01  0.57744759654E+02  0.00000000000E+00 0. -1.
        3    1    5    5  501    0  0.25758282249E+02 -0.75741793188E+02 -0.11536857421E+03  0.14039307766E+03  0.00000000000E+00 0. -1.
       -4    1    5    5    0  501 -0.21402294977E+02 -0.19664040101E+02  0.67499320790E+00  0.29072122716E+02  0.00000000000E+00 0.  1.
</event>
<event>
 9   1  0.7570500E-01  0.2499931E+03  0.7546771E-02  0.1113309E+00
       21   -1    0    0  503  502  0.00000000000E+00  0.00000000000E+00  0.22958442902E+03  0.22958442902E+03  0.00000000000E+00 0.  1.
       21   -1    0    0  502  503 -0.00000000000E+00 -0.00000000000E+00 -0.68053985688E+02  0.68053985688E+02  0.00000000000E+00 0.  1.
       25    2    1    2    0    0  0.00000000000E+00  0.00000000000E+00  0.16153044333E+03  0.29763841471E+03  0.24999308348E+03 0.  0.
       24    2    3    3    0    0 -0.42749451365E+02  0.56401077519E+02  0.41571105378E+01  0.10757921075E+03  0.80916054527E+02 0.  0.
      -24    2    3    3    0    0  0.42749451365E+02 -0.56401077519E+02  0.15737333280E+03  0.19005920396E+03  0.79671437774E+02 0.  0.
      -13    1    4    4    0    0 -0.29742945923E+02  0.41901708501E+01  0.34550903819E+02  0.45781713802E+02  0.00000000000E+00 0.  1.
       14    1    4    4    0    0 -0.13006505442E+02  0.52210906669E+02 -0.30393793281E+02  0.61797496948E+02  0.00000000000E+00 0. -1.
        1    1    5    5  501    0 -0.23374490468E+02 -0.21527888684E+02  0.49064372695E+02  0.58456218350E+02  0.00000000000E+00 0. -1.
       -2    1    5    5    0  501  0.66123941833E+02 -0.34873188836E+02  0.10830896010E+03  0.13160298561E+03  0.00000000000E+00 0.  1.
</event>
<event>
 9   1  0.7570500E-01  0.2499999E+03  0.7546771E-02  0.1113305E+00
       21   -1    0    0  503  502  0.00000000000E+00  0.00000000000E+00  0.22882056821E+03  0.22882056821E+03  0.00000000000E+00 0. -1.
       21   -1    0    0  502  503 -0.00000000000E+00 -0.00000000000E+00 -0.68284898850E+02  0.68284898850E+02  0.00000000000E+00 0. -1.
       25    2    1    2    0    0  0.14210854715E-13  0.00000000000E+00  0.16053566936E+03  0.29710546706E+03  0.24999991484E+03 0.  0.
       24    2    3    3    0    0  0.83275371073E+02 -0.30169606526E+02  0.26117660809E+02  0.11680900246E+03  0.71534734673E+02 0.  0.
      -24    2    3    3    0    0 -0.83275371073E+02  0.30169606526E+02  0.13441800855E+03  0.18029646460E+03  0.81201117838E+02 0.  0.
      -13    1    4    4    0    0 -0.26229157768E+01 -0.27327444711E+02  0.19091714096E+01  0.27519336058E+02  0.00000000000E+00 0.  1.
       14    1    4    4    0    0  0.85898286850E+02 -0.28421618147E+01  0.24208489399E+02  0.89289666404E+02  0.00000000000E+00 0. -1.
        3    1    5    5  501    0 -0.80703255442E+02  0.91837435459E+01  0.54954030620E+02  0.98067844199E+02  0.00000000000E+00 0. -1.
       -4    1    5    5    0  501 -0.25721156310E+01  0.20985862980E+02  0.79463977934E+02  0.82228620400E+02  0.00000000000E+00 0.  1.
</event>
<event>
 9   1  0.7570500E-01  0.2500032E+03  0.7546771E-02  0.1113303E+00
       21   -1    0    0  503  502  0.00000000000E+00  0.00000000000E+00  0.20153777228E+02  0.20153777228E+02  0.00000000000E+00 0. -1.
       21   -1    0    0  502  503 -0.00000000000E+00 -0.00000000000E+00 -0.77530887674E+03  0.77530887674E+03  0.00000000000E+00 0. -1.
       25    2    1    2    0    0  0.00000000000E+00  0.14210854715E-13 -0.75515509951E+03  0.79546265397E+03  0.25000321906E+03 0.  0.
       24    2    3    3    0    0  0.48565480399E+02  0.73627521947E+02 -0.25655602186E+03  0.28301101064E+03  0.80589217125E+02 0.  0.
      -24    2    3    3    0    0 -0.48565480399E+02 -0.73627521947E+02 -0.49859907765E+03  0.51245164333E+03  0.78905187660E+02 0.  0.
      -13    1    4    4    0    0  0.18424188320E+02  0.96260564435E+01 -0.45711841415E+01  0.21283970550E+02  0.00000000000E+00 0.  1.
       14    1    4    4    0    0  0.30141292079E+02  0.64001465503E+02 -0.25198483771E+03  0.26172704009E+03  0.00000000000E+00 0. -1.
        1    1    5    5  501    0 -0.30524727560E+02 -0.72265208826E+02 -0.22553235441E+03  0.23878622717E+03  0.00000000000E+00 0. -1.
       -2    1    5    5    0  501 -0.18040752839E+02 -0.13623131206E+01 -0.27306672324E+03  0.27366541616E+03  0.00000000000E+00 0.  1.
</event>
<event>
 9   1  0.7570500E-01  0.2500000E+03  0.7546771E-02  0.1113305E+00
       21   -1    0    0  503  502  0.00000000000E+00  0.00000000000E+00  0.10932395205E+03  0.10932395205E+03  0.00000000000E+00 0. -1.
       21   -1    0    0  502  503 -0.00000000000E+00 -0.00000000000E+00 -0.14292390291E+03  0.14292390291E+03  0.00000000000E+00 0. -1.
       25    2    1    2    0    0 -0.71054273576E-14  0.14210854715E-13 -0.33599950859E+02  0.25224785497E+03  0.25000004728E+03 0.  0.
       24    2    3    3    0    0  0.35635827177E+02 -0.39391487380E+02 -0.99815288255E+02  0.13690341183E+03  0.77187116438E+02 0.  0.
      -24    2    3    3    0    0 -0.35635827177E+02  0.39391487380E+02  0.66215337396E+02  0.11534444314E+03  0.78091409259E+02 0.  0.
      -13    1    4    4    0    0  0.45678118663E+02 -0.48782507499E+02 -0.10300849939E+03  0.12278833214E+03  0.00000000000E+00 0.  1.
       14    1    4    4    0    0 -0.10042291487E+02  0.93910201195E+01  0.31932111388E+01  0.14115079687E+02  0.00000000000E+00 0. -1.
        1    1    5    5  501    0  0.37922280903E+01  0.40200685527E+01 -0.16344470977E+02  0.17253512007E+02  0.00000000000E+00 0. -1.
       -2    1    5    5    0  501 -0.39428055267E+02  0.35371418827E+02  0.82559808373E+02  0.98090931133E+02  0.00000000000E+00 0.  1.
</event>
<event>
 9   1  0.7570500E-01  0.2499953E+03  0.7546771E-02  0.1113308E+00
       21   -1    0    0  503  502  0.00000000000E+00  0.00000000000E+00  0.65124892290E+02  0.65124892290E+02  0.00000000000E+00 0. -1.
       21   -1    0    0  502  503 -0.00000000000E+00 -0.00000000000E+00 -0.23991466162E+03  0.23991466162E+03  0.00000000000E+00 0. -1.
       25    2    1    2    0    0  0.00000000000E+00 -0.35527136788E-14 -0.17478976933E+03  0.30503955391E+03  0.24999533193E+03 0.  0.
       24    2    3    3    0    0  0.47133955093E+02 -0.17152485353E+02  0.11569079900E+02  0.95749607101E+02  0.80736151591E+02 0.  0.
      -24    2    3    3    0    0 -0.47133955093E+02  0.17152485353E+02 -0.18635884923E+03  0.20928994681E+03  0.80974339595E+02 0.  0.
      -13    1    4    4    0    0  0.32766370931E+02 -0.41739657722E+02 -0.16693374278E+02  0.55628255729E+02  0.00000000000E+00 0.  1.
       14    1    4    4    0    0  0.14367584162E+02  0.24587172369E+02  0.28262454178E+02  0.40121351371E+02  0.00000000000E+00 0. -1.
        3    1    5    5  501    0 -0.88510404380E+01 -0.27841815399E+02 -0.10338496690E+03  0.10743350959E+03  0.00000000000E+00 0. -1.
       -4    1    5    5    0  501 -0.38282914655E+02  0.44994300752E+02 -0.82973882333E+02  0.10185643722E+03  0.00000000000E+00 0.  1.
</event>
<event>
 9   1  0.7570500E-01  0.2500020E+03  0.7546771E-02  0.1113304E+00
       21   -1    0    0  503  502  0.00000000000E+00  0.00000000000E+00  0.18566352547E+03  0.18566352547E+03  0.00000000000E+00 0. -1.
       21   -1    0    0  502  503 -0.00000000000E+00 -0.00000000000E+00 -0.84158937183E+02  0.84158937183E+02  0.00000000000E+00 0. -1.
       25    2    1    2    0    0  0.00000000000E+00  0.00000000000E+00  0.10150458828E+03  0.26982246265E+03  0.25000195981E+03 0.  0.
       24    2    3    3    0    0 -0.11564967739E+02 -0.23115979619E+01  0.15445275357E+03  0.17448075032E+03  0.80304340987E+02 0.  0.
      -24    2    3    3    0    0  0.11564967739E+02  0.23115979619E+01 -0.52948165290E+02  0.95341712331E+02  0.78405624406E+02 0.  0.
      -13    1    4    4    0    0 -0.34358955958E+02 -0.23858219521E+02  0.48819965667E+02  0.64289513460E+02  0.00000000000E+00 0.  1.
       14    1    4    4    0    0  0.22793988218E+02  0.21546621559E+02  0.10563278791E+03  0.11019123686E+03  0.00000000000E+00 0. -1.
        3    1    5    5  501    0  0.22124232419E+02 -0.33208688439E+02 -0.15938571025E+02  0.42969020169E+02  0.00000000000E+00 0. -1.
       -4    1    5    5    0  501 -0.10559264680E+02  0.35520286401E+02 -0.37009594265E+02  0.52372692161E+02  0.00000000000E+00 0.  1.
</event>
<event>
 9   1  0.7570500E-01  0.2499977E+03  0.7546771E-02  0.1113306E+00
       21   -1    0    0  503  502  0.00000000000E+00  0.00000000000E+00  0.82576895405E+02  0.82576895405E+02  0.00000000000E+00 0. -1.
       21   -1    0    0  502  503 -0.00000000000E+00 -0.00000000000E+00 -0.18921403497E+03  0.18921403497E+03  0.00000000000E+00 0. -1.
       25    2    1    2    0    0 -0.21316282073E-13  0.00000000000E+00 -0.10663713957E+03  0.27179093038E+03  0.24999766059E+03 0.  0.
       24    2    3    3    0    0  0.60965487276E+02  0.48678555764E+02  0.67142587908E+01  0.11291263131E+03  0.81349791685E+02 0.  0.
      -24    2    3    3    0    0 -0.60965487276E+02 -0.48678555764E+02 -0.11335139836E+03  0.15887829907E+03  0.79419027797E+02 0.  0.
      -13    1    4    4    0    0  0.75648444400E+02  0.25367208920E+02 -0.10424693879E+02  0.80466494089E+02  0.00000000000E+00 0.  1.
       14    1    4    4    0    0 -0.14682957124E+02  0.23311346845E+02  0.17138952670E+02  0.32446137216E+02  0.00000000000E+00 0. -1.
        3    1    5    5  501    0 -0.69310203355E+02 -0.60722555112E+02 -0.78423653377E+02  0.12100166279E+03  0.00000000000E+00 0. -1.
       -4    1    5    5    0  501  0.83447160791E+01  0.12043999348E+02 -0.34927744981E+02  0.37876636284E+02  0.00000000000E+00 0.  1.
</event>
<event>
 9   1  0.7570500E-01  0.2500013E+03  0.7546771E-02  0.1113304E+00
       21   -1    0    0  503  502  0.00000000000E+00  0.00000000000E+00  0.27621265907E+03  0.27621265907E+03  0.00000000000E+00 0. -1.
       21   -1    0    0  502  503 -0.00000000000E+00 -0.00000000000E+00 -0.56569309654E+02  0.56569309654E+02  0.00000000000E+00 0. -1.
       25    2    1    2    0    0  0.00000000000E+00  0.00000000000E+00  0.21964334942E+03  0.33278196873E+03  0.25000127553E+03 0.  0.
       24    2    3    3    0    0 -0.70987145530E+02 -0.54323958667E+02  0.64416207879E+02  0.13714102435E+03  0.81657488361E+02 0.  0.
      -24    2    3    3    0    0  0.70987145530E+02  0.54323958667E+02  0.15522714154E+03  0.19564094438E+03  0.78674305410E+02 0.  0.
      -13    1    4    4    0    0  0.11897963472E+02 -0.26596458830E+02  0.99238219472E+00  0.29153352801E+02  0.00000000000E+00 0.  1.
       14    1    4    4    0    0 -0.82885109002E+02 -0.27727499836E+02  0.63423825684E+02  0.10798767155E+03  0.00000000000E+00 0. -1.
        1    1    5    5  501    0  0.10369059995E+02  0.28718579237E+02  0.40978355763E+01  0.30806922192E+02  0.00000000000E+00 0. -1.
       -2    1    5    5    0  501  0.60618085535E+02  0.25605379430E+02  0.15112930597E+03  0.16483402219E+03  0.00000000000E+00 0.  1.
</event>
<event>
 9   1  0.7570500E-01  0.2499999E+03  0.7546771E-02  0.1113305E+00
       21   -1    0    0  503  502  0.00000000000E+00  0.00000000000E+00  0.12719708979E+03  0.12719708979E+03  0.00000000000E+00 0. -1.
       21   -1    0    0  502  503 -0.00000000000E+00 -0.00000000000E+00 -0.12284073156E+03  0.12284073156E+03  0.00000000000E+00 0. -1.
       25    2    1    2    0    0  0.00000000000E+00 -0.71054273576E-14  0.43563582302E+01  0.25003782136E+03  0.24999986850E+03 0.  0.
       24    2    3    3    0    0  0.84979352976E+02  0.39194443639E+02  0.23962720279E+01  0.12621079998E+03  0.84650629452E+02 0.  0.
      -24    2    3    3    0    0 -0.84979352976E+02 -0.39194443639E+02  0.19600862023E+01  0.12382702138E+03  0.81065371406E+02 0.  0.
      -13    1    4    4    0    0  0.74723994647E+02  0.42232886588E+02  0.34397938269E+02  0.92468969080E+02  0.00000000000E+00 0.  1.
       14    1    4    4    0    0  0.10255358329E+02 -0.30384429498E+01 -0.32001666241E+02  0.33741830896E+02  0.00000000000E+00 0. -1.
        1    1    5    5  501    0 -0.66951919832E+02 -0.49102179176E+02  0.30667515521E+02  0.88510338815E+02  0.00000000000E+00 0. -1.
       -2    1    5    5    0  501 -0.18027433145E+02  0.99077355371E+01 -0.28707429318E+02  0.35316682564E+02  0.00000000000E+00 0.  1.
</event>
<event>
 9   1  0.7570500E-01  0.2499958E+03  0.7546771E-02  0.1113307E+00
       21   -1    0    0  503  502  0.00000000000E+00  0.00000000000E+00  0.21866665299E+03  0.21866665299E+03  0.00000000000E+00 0. -1.
       21   -1    0    0  502  503 -0.00000000000E+00 -0.00000000000E+00 -0.71453406415E+02  0.71453406415E+02  0.00000000000E+00 0. -1.
       25    2    1    2    0    0  0.00000000000E+00  0.00000000000E+00  0.14721324658E+03  0.29012005941E+03  0.24999581777E+03 0.  0.
       24    2    3    3    0    0 -0.49427254825E+02 -0.82097101092E+02  0.79917777382E+02  0.14937706549E+03  0.82119845495E+02 0.  0.
      -24    2    3    3    0    0  0.49427254825E+02  0.82097101092E+02  0.67295469195E+02  0.14074299392E+03  0.78082793473E+02 0.  0.
      -13    1    4    4    0    0 -0.16973299080E+02 -0.40797357197E+02  0.85813335642E+02  0.96521737499E+02  0.00000000000E+00 0.  1.
       14    1    4    4    0    0 -0.32453955745E+02 -0.41299743895E+02 -0.58955582596E+01  0.52855327986E+02  0.00000000000E+00 0. -1.
        1    1    5    5  501    0  0.62906585189E+02  0.40281577755E+02  0.22534961519E+02  0.78023512208E+02  0.00000000000E+00 0. -1.
       -2    1    5    5    0  501 -0.13479330364E+02  0.41815523336E+02  0.44760507676E+02  0.62719481713E+02  0.00000000000E+00 0.  1.
</event>
<event>
 9   1  0.7570500E-01  0.2499949E+03  0.7546771E-02  0.1113308E+00
       21   -1    0    0  503  502  0.00000000000E+00  0.00000000000E+00  0.41179903672E+03  0.41179903672E+03  0.00000000000E+00 0. -1.
       21   -1    0    0  502  503 -0.00000000000E+00 -0.00000000000E+00 -0.37941713136E+02  0.37941713136E+02  0.00000000000E+00 0. -1.
       25    2    1    2    0    0  0.00000000000E+00  0.00000000000E+00  0.37385732359E+03  0.44974074986E+03  0.24999488732E+03 0.  0.
       24    2    3    3    0    0  0.31255281528E+02 -0.13794117878E+02  0.15555952464E+02  0.79939235773E+02  0.70577074518E+02 0.  0.
      -24    2    3    3    0    0 -0.31255281528E+02  0.13794117878E+02  0.35830137112E+03  0.36980151409E+03  0.84888850623E+02 0.  0.
      -13    1    4    4    0    0 -0.88230824390E+01  0.19852860197E+02 -0.71841406221E+01  0.22882192163E+02  0.00000000000E+00 0.  1.
       14    1    4    4    0    0  0.40078363967E+02 -0.33646978075E+02  0.22740093087E+02  0.57057043610E+02  0.00000000000E+00 0. -1.
        3    1    5    5  501    0 -0.23962516397E+02  0.49491595448E+02  0.20771078252E+03  0.21486598006E+03  0.00000000000E+00 0. -1.
       -4    1    5    5    0  501 -0.72927651313E+01 -0.35697477570E+02  0.15059058860E+03  0.15493553403E+03  0.00000000000E+00 0.  1.
</event>
<event>
 9   1  0.7570500E-01  0.2499979E+03  0.7546771E-02  0.1113306E+00
       21   -1    0    0  503  502  0.00000000000E+00  0.00000000000E+00  0.41196181985E+03  0.41196181985E+03  0.00000000000E+00 0.  1.
       21   -1    0    0  502  503 -0.00000000000E+00 -0.00000000000E+00 -0.37927645539E+02  0.37927645539E+02  0.00000000000E+00 0.  1.
       25    2    1    2    0    0  0.00000000000E+00  0.00000000000E+00  0.37403417431E+03  0.44988946539E+03  0.24999793502E+03 0.  0.
       24    2    3    3    0    0 -0.81718923920E+02 -0.19869489567E+02  0.10186713343E+03  0.15446869920E+03  0.80068014950E+02 0.  0.
      -24    2    3    3    0    0  0.81718923920E+02  0.19869489567E+02  0.27216704089E+03  0.29542076619E+03  0.78267182194E+02 0.  0.
      -13    1    4    4    0    0 -0.86126644021E+02  0.41610216938E+01  0.56947975483E+02  0.10333530289E+03  0.00000000000E+00 0.  1.
       14    1    4    4    0    0  0.44077201006E+01 -0.24030511260E+02  0.44919157944E+02  0.51133396311E+02  0.00000000000E+00 0. -1.
        1    1    5    5  501    0  0.12443547047E+02  0.39172366936E+02  0.12574300560E+03  0.13228990759E+03  0.00000000000E+00 0. -1.
       -2    1    5    5    0  501  0.69275376873E+02 -0.19302877370E+02  0.14642403529E+03  0.16313085860E+03  0.00000000000E+00 0.  1.
</event>
<event>
 9   1  0.7570500E-01  0.2500176E+03  0.7546771E-02  0.1113294E+00
       21   -1    0    0  503  502  0.00000000000E+00  0.00000000000E+00  0.94053128131E+02  0.94053128131E+02  0.00000000000E+00 0. -1.
       21   -1    0    0  502  503 -0.00000000000E+00 -0.00000000000E+00 -0.16615285150E+03  0.16615285150E+03  0.00000000000E+00 0. -1.
       25    2    1    2    0    0 -0.35527136788E-14 -0.14210854715E-13 -0.72099723365E+02  0.26020597963E+03  0.25001756283E+03 0.  0.
       24    2    3    3    0    0 -0.86333573009E+01 -0.97351710891E+02 -0.28924845264E+02  0.12654145778E+03  0.74994689090E+02 0.  0.
      -24    2    3    3    0    0  0.86333573009E+01  0.97351710891E+02 -0.43174878101E+02  0.13366452185E+03  0.80313410028E+02 0.  0.
      -13    1    4    4    0    0 -0.51390955287E+01 -0.10109238984E+03 -0.44184485880E+02  0.11044614243E+03  0.00000000000E+00 0.  1.
       14    1    4    4    0    0 -0.34942617722E+01  0.37406789480E+01  0.15259640616E+02  0.16095315345E+02  0.00000000000E+00 0. -1.
        1    1    5    5  501    0 -0.15804412975E+02  0.81791746168E+02 -0.57621655138E+02  0.10129128468E+03  0.00000000000E+00 0. -1.
       -2    1    5    5    0  501  0.24437770276E+02  0.15559964723E+02  0.14446777036E+02  0.32373237172E+02  0.00000000000E+00 0.  1.
</event>
<event>
 9   1  0.7570500E-01  0.2499840E+03  0.7546771E-02  0.1113315E+00
       21   -1    0    0  503  502  0.00000000000E+00  0.00000000000E+00  0.88222070993E+02  0.88222070993E+02  0.00000000000E+00 0. -1.
       21   -1    0    0  502  503 -0.00000000000E+00 -0.00000000000E+00 -0.17708720523E+03  0.17708720523E+03  0.00000000000E+00 0. -1.
       25    2    1    2    0    0 -0.71054273576E-14  0.00000000000E+00 -0.88865134236E+02  0.26530927622E+03  0.24998399942E+03 0.  0.
       24    2    3    3    0    0 -0.58316186733E+01 -0.33904194779E+02  0.50478714379E+02  0.10129739876E+03  0.80805694050E+02 0.  0.
      -24    2    3    3    0    0  0.58316186733E+01  0.33904194779E+02 -0.13934384862E+03  0.16401187746E+03  0.79370558778E+02 0.  0.
      -13    1    4    4    0    0  0.35817693354E+02 -0.54171170970E+01  0.13177240872E+02  0.38547269577E+02  0.00000000000E+00 0.  1.
       14    1    4    4    0    0 -0.41649312027E+02 -0.28487077682E+02  0.37301473507E+02  0.62750129187E+02  0.00000000000E+00 0. -1.
        3    1    5    5  501    0 -0.30224916332E+02  0.33758923482E+02 -0.10436061444E+03  0.11377323204E+03  0.00000000000E+00 0. -1.
       -4    1    5    5    0  501  0.36056535006E+02  0.14527129686E+00 -0.34983234174E+02  0.50238645420E+02  0.00000000000E+00 0.  1.
</event>
<event>
 9   1  0.7570500E-01  0.2499969E+03  0.7546771E-02  0.1113307E+00
       21   -1    0    0  503  502  0.00000000000E+00  0.00000000000E+00  0.24304542592E+03  0.24304542592E+03  0.00000000000E+00 0. -1.
       21   -1    0    0  502  503 -0.00000000000E+00 -0.00000000000E+00 -0.64286790494E+02  0.64286790494E+02  0.00000000000E+00 0. -1.
       25    2    1    2    0    0  0.28421709430E-13  0.00000000000E+00  0.17875863543E+03  0.30733221642E+03  0.24999688300E+03 0.  0.
       24    2    3    3    0    0  0.94609151248E+02 -0.12708731597E+02  0.10560786427E+03  0.16304326326E+03  0.79483843279E+02 0.  0.
      -24    2    3    3    0    0 -0.94609151248E+02  0.12708731597E+02  0.73150771164E+02  0.14428895315E+03  0.79723668517E+02 0.  0.
      -13    1    4    4    0    0  0.62069146321E+02  0.26018239260E+02  0.85012878932E+02  0.10842839703E+03  0.00000000000E+00 0.  1.
       14    1    4    4    0    0  0.32540004927E+02 -0.38726970857E+02  0.20594985334E+02  0.54614866230E+02  0.00000000000E+00 0. -1.
        3    1    5    5  501    0 -0.13865998876E+02  0.36453426221E+02  0.32768886254E+02  0.50940338774E+02  0.00000000000E+00 0. -1.
       -4    1    5    5    0  501 -0.80743152371E+02 -0.23744694625E+02  0.40381884909E+02  0.93348614379E+02  0.00000000000E+00 0.  1.
</event>
<event>
 9   1  0.7570500E-01  0.2499924E+03  0.7546771E-02  0.1113310E+00
       21   -1    0    0  503  502  0.00000000000E+00  0.00000000000E+00  0.55172777864E+02  0.55172777864E+02  0.00000000000E+00 0. -1.
       21   -1    0    0  502  503 -0.00000000000E+00 -0.00000000000E+00 -0.28318409395E+03  0.28318409395E+03  0.00000000000E+00 0. -1.
       25    2    1    2    0    0  0.00000000000E+00  0.35527136788E-14 -0.22801131609E+03  0.33835687181E+03  0.24999242477E+03 0.  0.
       24    2    3    3    0    0  0.93362743979E+02 -0.17450504562E+02 -0.94606634336E+02  0.15604005224E+03  0.79855873742E+02 0.  0.
      -24    2    3    3    0    0 -0.93362743979E+02  0.17450504562E+02 -0.13340468175E+03  0.18231681957E+03  0.80134209376E+02 0.  0.
      -13    1    4    4    0    0  0.91322127172E+02  0.59892362562E+01 -0.95790640971E+02  0.13248188087E+03  0.00000000000E+00 0.  1.
       14    1    4    4    0    0  0.20406168071E+01 -0.23439740818E+02  0.11840066352E+01  0.23558171370E+02  0.00000000000E+00 0. -1.
        3    1    5    5  501    0 -0.13753186303E+02  0.25010057128E+02 -0.21534541904E+01  0.28623250269E+02  0.00000000000E+00 0. -1.
       -4    1    5    5    0  501 -0.79609557676E+02 -0.75595525656E+01 -0.13125122756E+03  0.15369356930E+03  0.00000000000E+00 0.  1.
</event>
<event>
 9   1  0.7570500E-01  0.2499999E+03  0.7546771E-02  0.1113305E+00
       21   -1    0    0  503  502  0.00000000000E+00  0.00000000000E+00  0.31509472778E+02  0.31509472778E+02  0.00000000000E+00 0.  1.
       21   -1    0    0  502  503 -0.00000000000E+00 -0.00000000000E+00 -0.49588212477E+03  0.49588212477E+03  0.00000000000E+00 0.  1.
       25    2    1    2    0    0 -0.71054273576E-14  0.00000000000E+00 -0.46437265199E+03  0.52739159755E+03  0.24999987449E+03 0.  0.
       24    2    3    3    0    0 -0.47979560715E+02  0.33523430477E+02 -0.69379673932E+02  0.12047591149E+03  0.79215197139E+02 0.  0.
      -24    2    3    3    0    0  0.47979560715E+02 -0.33523430477E+02 -0.39499297806E+03  0.40691568606E+03  0.78326650665E+02 0.  0.
      -13    1    4    4    0    0  0.15770101626E+01  0.36884623488E+02 -0.59207525588E+02  0.69774590627E+02  0.00000000000E+00 0.  1.
       14    1    4    4    0    0 -0.49556570877E+02 -0.33611930110E+01 -0.10172148344E+02  0.50701320866E+02  0.00000000000E+00 0. -1.
        3    1    5    5  501    0  0.41134626441E+02  0.18554434045E+02 -0.17217014375E+03  0.17798562559E+03  0.00000000000E+00 0. -1.
       -4    1    5    5    0  501  0.68449342734E+01 -0.52077864522E+02 -0.22282283431E+03  0.22893006047E+03  0.00000000000E+00 0.  1.
</event>
<event>
 9   1  0.7570500E-01  0.2500051E+03  0.7546771E-02  0.1113302E+00
       21   -1    0    0  503  502  0.00000000000E+00  0.00000000000E+00  0.30775713929E+03  0.30775713929E+03  0.00000000000E+00 0. -1.
       21   -1    0    0  502  503 -0.00000000000E+00 -0.00000000000E+00 -0.50772637944E+02  0.50772637944E+02  0.00000000000E+00 0. -1.
       25    2    1    2    0    0  0.00000000000E+00 -0.14210854715E-13  0.25698450134E+03  0.35852977723E+03  0.25000513441E+03 0.  0.
       24    2    3    3    0    0 -0.42765805875E+02 -0.71602623694E+02  0.19402564986E+03  0.22621531784E+03  0.81065204313E+02 0.  0.
      -24    2    3    3    0    0  0.42765805875E+02  0.71602623694E+02  0.62958851486E+02  0.13231445939E+03  0.81163103142E+02 0.  0.
      -13    1    4    4    0    0 -0.25119500758E+02 -0.66359590032E+02  0.66104004896E+02  0.96975893761E+02  0.00000000000E+00 0.  1.
       14    1    4    4    0    0 -0.17646305118E+02 -0.52430336624E+01  0.12792164496E+03  0.12923942408E+03  0.00000000000E+00 0. -1.
        1    1    5    5  501    0 -0.22596758544E+02  0.34004359482E+02  0.19007249417E+02  0.45035380434E+02  0.00000000000E+00 0. -1.
       -2    1    5    5    0  501  0.65362564419E+02  0.37598264213E+02  0.43951602069E+02  0.87279078958E+02  0.00000000000E+00 0.  1.
</event>
<event>
 9   1  0.7570500E-01  0.2499996E+03  0.7546771E-02  0.1113305E+00
       21   -1    0    0  503  502  0.00000000000E+00  0.00000000000E+00  0.21330421830E+02  0.21330421830E+02  0.00000000000E+00 0. -1.
       21   -1    0    0  502  503 -0.00000000000E+00 -0.00000000000E+00 -0.73251954576E+03  0.73251954576E+03  0.00000000000E+00 0. -1.
       25    2    1    2    0    0  0.00000000000E+00  0.00000000000E+00 -0.71118912393E+03  0.75384996759E+03  0.24999960728E+03 0.  0.
       24    2    3    3    0    0 -0.10988849211E+02 -0.48781825596E+01 -0.71561930753E+02  0.10904642530E+03  0.81396937692E+02 0.  0.
      -24    2    3    3    0    0  0.10988849211E+02  0.48781825596E+01 -0.63962719318E+03  0.64480354229E+03  0.80648065236E+02 0.  0.
      -13    1    4    4    0    0 -0.34810475690E+02 -0.21085786148E+02 -0.69015221948E+02  0.80121660341E+02  0.00000000000E+00 0.  1.
       14    1    4    4    0    0  0.23821626479E+02  0.16207603588E+02 -0.25467088051E+01  0.28924764959E+02  0.00000000000E+00 0. -1.
        3    1    5    5  501    0 -0.30032030268E+02 -0.16571805084E+02 -0.32181930107E+03  0.32364210187E+03  0.00000000000E+00 0. -1.
       -4    1    5    5    0  501  0.41020879479E+02  0.21449987644E+02 -0.31780789211E+03  0.32116144042E+03  0.00000000000E+00 0.  1.
</event>
<event>
 9   1  0.7570500E-01  0.2499969E+03  0.7546771E-02  0.1113307E+00
       21   -1    0    0  503  502  0.00000000000E+00  0.00000000000E+00  0.12569717214E+03  0.12569717214E+03  0.00000000000E+00 0. -1.
       21   -1    0    0  502  503 -0.00000000000E+00 -0.00000000000E+00 -0.12430360132E+03  0.12430360132E+03  0.00000000000E+00 0. -1.
       25    2    1    2    0    0  0.00000000000E+00  0.71054273576E-14  0.13935708189E+01  0.25000077345E+03  0.24999688935E+03 0.  0.
       24    2    3    3    0    0 -0.44873278759E+02 -0.63660978088E+02 -0.52784944806E+02  0.12291080240E+03  0.79085293643E+02 0.  0.
      -24    2    3    3    0    0  0.44873278759E+02  0.63660978088E+02  0.54178515625E+02  0.12708997105E+03  0.84558961139E+02 0.  0.
      -13    1    4    4    0    0 -0.59765190425E+02 -0.17172733165E+02 -0.29388006948E+02  0.68778162983E+02  0.00000000000E+00 0.  1.
       14    1    4    4    0    0  0.14891911666E+02 -0.46488244923E+02 -0.23396937858E+02  0.54132639416E+02  0.00000000000E+00 0. -1.
        3    1    5    5  501    0 -0.88865705300E+01  0.59787916013E+02  0.22046908970E+02  0.64339973827E+02  0.00000000000E+00 0. -1.
       -4    1    5    5    0  501  0.53759849289E+02  0.38730620749E+01  0.32131606655E+02  0.62749997225E+02  0.00000000000E+00 0.  1.
</event>
<event>
 9   1  0.7570500E-01  0.2499919E+03  0.7546771E-02  0.1113310E+00
       21   -1    0    0  503  502  0.00000000000E+00  0.00000000000E+00  0.39494828067E+03  0.39494828067E+03  0.00000000000E+00 0. -1.
       21   -1    0    0  502  503 -0.00000000000E+00 -0.00000000000E+00 -0.39559566922E+02  0.39559566922E+02  0.00000000000E+00 0. -1.
       25    2    1    2    0    0  0.00000000000E+00 -0.71054273576E-14  0.35538871375E+03  0.43450784760E+03  0.24999186339E+03 0.  0.
       24    2    3    3    0    0  0.87781178774E+02  0.34237992546E+01  0.16187487971E+03  0.20061407758E+03  0.79531589284E+02 0.  0.
      -24    2    3    3    0    0 -0.87781178774E+02 -0.34237992546E+01  0.19351383404E+03  0.23389377001E+03  0.97680263811E+02 0.  0.
      -13    1    4    4    0    0  0.12169803488E+02 -0.17899669932E+02  0.95029405344E+02  0.97463276062E+02  0.00000000000E+00 0.  1.
       14    1    4    4    0    0  0.75611375287E+02  0.21323469186E+02  0.66845474367E+02  0.10315080152E+03  0.00000000000E+00 0. -1.
        3    1    5    5  501    0 -0.44039434577E+02 -0.46522235867E+02  0.63964295642E+02  0.90527461828E+02  0.00000000000E+00 0. -1.
       -4    1    5    5    0  501 -0.43741744197E+02  0.43098436613E+02  0.12954953840E+03  0.14336630819E+03  0.00000000000E+00 0.  1.
</event>
<event>
 9   1  0.7570500E-01  0.2500010E+03  0.7546771E-02  0.1113304E+00
       21   -1    0    0  503  502  0.00000000000E+00  0.00000000000E+00  0.12109532383E+03  0.12109532383E+03  0.00000000000E+00 0.  1.
       21   -1    0    0  502  503 -0.00000000000E+00 -0.00000000000E+00 -0.12903158105E+03  0.12903158105E+03  0.00000000000E+00 0.  1.
       25    2    1    2    0    0  0.28421709430E-13  0.00000000000E+00 -0.79362572130E+01  0.25012690488E+03  0.25000096873E+03 0.  0.
       24    2    3    3    0    0  0.72196033315E+02 -0.33334124667E+02 -0.57862152704E+02  0.12445469959E+03  0.76272619200E+02 0.  0.
      -24    2    3    3    0    0 -0.72196033315E+02  0.33334124667E+02  0.49925895491E+02  0.12567220529E+03  0.83531293828E+02 0.  0.
      -13    1    4    4    0    0  0.11192966002E+02  0.21576909204E+02 -0.48683867361E+00  0.24312188520E+02  0.00000000000E+00 0.  1.
       14    1    4    4    0    0  0.61003067313E+02 -0.54911033872E+02 -0.57375314030E+02  0.10014251107E+03  0.00000000000E+00 0. -1.
        3    1    5    5  501    0  0.10513021501E+02  0.29008123784E+02  0.23339315484E+02  0.38687446462E+02  0.00000000000E+00 0. -1.
       -4    1    5    5    0  501 -0.82709054816E+02  0.43260008834E+01  0.26586580007E+02  0.86984758830E+02  0.00000000000E+00 0.  1.
</event>
<event>
 9   1  0.7570500E-01  0.2500057E+03  0.7546771E-02  0.1113301E+00
       21   -1    0    0  503  502  0.00000000000E+00  0.00000000000E+00  0.48782891336E+02  0.48782891336E+02  0.00000000000E+00 0.  1.
       21   -1    0    0  502  503 -0.00000000000E+00 -0.00000000000E+00 -0.32031135952E+03  0.32031135952E+03  0.00000000000E+00 0.  1.
       25    2    1    2    0    0  0.00000000000E+00  0.35527136788E-14 -0.27152846818E+03  0.36909425085E+03  0.25000571390E+03 0.  0.
       24    2    3    3    0    0 -0.41562813211E+02  0.26078656338E+02 -0.14648205609E+02  0.96263563497E+02  0.81514047692E+02 0.  0.
      -24    2    3    3    0    0  0.41562813211E+02 -0.26078656338E+02 -0.25688026257E+03  0.27283068736E+03  0.77727414120E+02 0.  0.
      -13    1    4    4    0    0  0.18112171908E+02  0.16466139241E+02  0.15238758838E+02  0.28834081980E+02  0.00000000000E+00 0.  1.
       14    1    4    4    0    0 -0.59674985119E+02  0.96125170974E+01 -0.29886964447E+02  0.67429481517E+02  0.00000000000E+00 0. -1.
        3    1    5    5  501    0  0.35463150541E+01  0.10677498125E+02 -0.17498814592E+03  0.17534946972E+03  0.00000000000E+00 0. -1.
       -4    1    5    5    0  501  0.38016498157E+02 -0.36756154463E+02 -0.81892116648E+02  0.97481217638E+02  0.00000000000E+00 0.  1.
</event>
<event>
 9   1  0.7570500E-01  0.2499997E+03  0.7546771E-02  0.1113305E+00
       21   -1    0    0  503  502  0.00000000000E+00  0.00000000000E+00  0.37210811251E+02  0.37210811251E+02  0.00000000000E+00 0.  1.
       21   -1    0    0  502  503 -0.00000000000E+00 -0.00000000000E+00 -0.41990377753E+03  0.41990377753E+03  0.00000000000E+00 0.  1.
       25    2    1    2    0    0  0.00000000000E+00  0.00000000000E+00 -0.38269296628E+03  0.45711458878E+03  0.24999968168E+03 0.  0.
       24    2    3    3    0    0  0.72401814597E+02  0.26951274224E+02 -0.87412867537E+02  0.14251762403E+03  0.81864948602E+02 0.  0.
      -24    2    3    3    0    0 -0.72401814597E+02 -0.26951274224E+02 -0.29528009874E+03  0.31459696475E+03  0.76239881802E+02 0.  0.
      -13    1    4    4    0    0  0.16167555772E+02  0.17179881650E+02  0.13059617260E+02  0.26964639737E+02  0.00000000000E+00 0.  1.
       14    1    4    4    0    0  0.56234258825E+02  0.97713925732E+01 -0.10047248480E+03  0.11555298430E+03  0.00000000000E+00 0. -1.
        1    1    5    5  501    0 -0.43494945953E+02 -0.53677953058E+02 -0.19394904915E+03  0.20588678111E+03  0.00000000000E+00 0. -1.
       -2    1    5    5    0  501 -0.28906868644E+02  0.26726678835E+02 -0.10133104959E+03  0.10871018364E+03  0.00000000000E+00 0.  1.
</event>
<event>
 9   1  0.7570500E-01  0.2500070E+03  0.7546771E-02  0.1113300E+00
       21   -1    0    0  503  502  0.00000000000E+00  0.00000000000E+00  0.14579041033E+02  0.14579041033E+02  0.00000000000E+00 0.  1.
       21   -1    0    0  502  503 -0.00000000000E+00 -0.00000000000E+00 -0.10718036190E+04  0.10718036190E+04  0.00000000000E+00 0.  1.
       25    2    1    2    0    0 -0.35527136788E-14  0.00000000000E+00 -0.10572245780E+04  0.10863826600E+04  0.25000695143E+03 0.  0.
       24    2    3    3    0    0 -0.92869204194E+01 -0.30378356190E+02 -0.13604326716E+03  0.16114582931E+03  0.80318841815E+02 0.  0.
      -24    2    3    3    0    0  0.92869204194E+01  0.30378356190E+02 -0.92118131081E+03  0.92523683072E+03  0.80492820289E+02 0.  0.
      -13    1    4    4    0    0  0.23374892339E+02 -0.22796716065E+02 -0.11926192346E+03  0.12365064594E+03  0.00000000000E+00 0.  1.
       14    1    4    4    0    0 -0.32661812759E+02 -0.75816401242E+01 -0.16781343700E+02  0.37495183371E+02  0.00000000000E+00 0. -1.
        1    1    5    5  501    0 -0.27643601670E+02  0.19295453303E+02 -0.18500097809E+03  0.18804745445E+03  0.00000000000E+00 0. -1.
       -2    1    5    5    0  501  0.36930522089E+02  0.11082902886E+02 -0.73618033272E+03  0.73718937626E+03  0.00000000000E+00 0.  1.
</event>
<event>
 9   1  0.7570500E-01  0.2499904E+03  0.7546771E-02  0.1113311E+00
       21   -1    0    0  503  502  0.00000000000E+00  0.00000000000E+00  0.91648148946E+02  0.91648148946E+02  0.00000000000E+00 0.  1.
       21   -1    0    0  502  503 -0.00000000000E+00 -0.00000000000E+00 -0.17047595926E+03  0.17047595926E+03  0.00000000000E+00 0.  1.
       25    2    1    2    0    0  0.00000000000E+00  0.00000000000E+00 -0.78827810318E+02  0.26212410821E+03  0.24999044867E+03 0.  0.
       24    2    3    3    0    0 -0.33531863332E+02  0.87717831869E+02 -0.57245808322E+02  0.13472693025E+03  0.77816831582E+02 0.  0.
      -24    2    3    3    0    0  0.33531863332E+02 -0.87717831869E+02 -0.21582001996E+02  0.12739717796E+03  0.83339391984E+02 0.  0.
      -13    1    4    4    0    0  0.17457018931E+01  0.27918496961E+02 -0.58978231491E+02  0.65275736208E+02  0.00000000000E+00 0.  1.
       14    1    4    4    0    0 -0.35277565225E+02  0.59799334908E+02  0.17324231692E+01  0.69451194041E+02  0.00000000000E+00 0. -1.
        1    1    5    5  501    0  0.26195037446E+02 -0.33325213973E+02 -0.50034087458E+02  0.65575603549E+02  0.00000000000E+00 0. -1.
       -2    1    5    5    0  501  0.73368258861E+01 -0.54392617896E+02  0.28452085462E+02  0.61821574412E+02  0.00000000000E+00 0.  1.
</event>
<event>
 9   1  0.7570500E-01  0.2499902E+03  0.7546771E-02  0.1113311E+00
       21   -1    0    0  503  502  0.00000000000E+00  0.00000000000E+00  0.57415571230E+03  0.57415571230E+03  0.00000000000E+00 0.  1.
       21   -1    0    0  502  503 -0.00000000000E+00 -0.00000000000E+00 -0.27211732729E+02  0.27211732729E+02  0.00000000000E+00 0.  1.
       25    2    1    2    0    0 -0.35527136788E-14  0.00000000000E+00  0.54694397958E+03  0.60136744503E+03  0.24999017411E+03 0.  0.
       24    2    3    3    0    0 -0.27250044820E+02  0.79952322308E+02  0.38903423789E+03  0.40572597996E+03  0.78300662717E+02 0.  0.
      -24    2    3    3    0    0  0.27250044820E+02 -0.79952322308E+02  0.15790974169E+03  0.19564146507E+03  0.78772822409E+02 0.  0.
      -13    1    4    4    0    0 -0.53596197164E+02  0.66986397838E+02  0.28609549622E+03  0.29868103857E+03  0.00000000000E+00 0.  1.
       14    1    4    4    0    0  0.26346152345E+02  0.12965924470E+02  0.10293874167E+03  0.10704494139E+03  0.00000000000E+00 0. -1.
        1    1    5    5  501    0  0.13568798587E+02 -0.21188828321E+02 -0.14898234661E+01  0.25205124770E+02  0.00000000000E+00 0. -1.
       -2    1    5    5    0  501  0.13681246232E+02 -0.58763493987E+02  0.15939956515E+03  0.17043634030E+03  0.00000000000E+00 0.  1.
</event>
<event>
 9   1  0.7570500E-01  0.2500002E+03  0.7546771E-02  0.1113305E+00
       21   -1    0    0  503  502  0.00000000000E+00  0.00000000000E+00  0.48825135677E+03  0.48825135677E+03  0.00000000000E+00 0.  1.
       21   -1    0    0  502  503 -0.00000000000E+00 -0.00000000000E+00 -0.32002009293E+02  0.32002009293E+02  0.00000000000E+00 0.  1.
       25    2    1    2    0    0  0.00000000000E+00  0.00000000000E+00  0.45624934748E+03  0.52025336606E+03  0.25000019565E+03 0.  0.
       24    2    3    3    0    0  0.79623586375E+02  0.38974853094E+02  0.29474681987E+03  0.31848491905E+03  0.81841316933E+02 0.  0.
      -24    2    3    3    0    0 -0.79623586375E+02 -0.38974853094E+02  0.16150252761E+03  0.20176844701E+03  0.82270803483E+02 0.  0.
      -13    1    4    4    0    0  0.64371154317E+02  0.12963366732E+02  0.89332626604E+02  0.11086934906E+03  0.00000000000E+00 0.  1.
       14    1    4    4    0    0  0.15252432057E+02  0.26011486362E+02  0.20541419327E+03  0.20761556999E+03  0.00000000000E+00 0. -1.
        3    1    5    5  501    0 -0.37931842974E+02  0.23720928705E+02  0.72477724292E+02  0.85173515183E+02  0.00000000000E+00 0. -1.
       -4    1    5    5    0  501 -0.41691743401E+02 -0.62695781800E+02  0.89024803317E+02  0.11659493183E+03  0.00000000000E+00 0.  1.
</event>
<event>
 9   1  0.7570500E-01  0.2499983E+03  0.7546771E-02  0.1113306E+00
       21   -1    0    0  503  502  0.00000000000E+00  0.00000000000E+00  0.87667570539E+02  0.87667570539E+02  0.00000000000E+00 0.  1.
       21   -1    0    0  502  503 -0.00000000000E+00 -0.00000000000E+00 -0.17822767014E+03  0.17822767014E+03  0.00000000000E+00 0.  1.
       25    2    1    2    0    0  0.00000000000E+00 -0.14210854715E-13 -0.90560099602E+02  0.26589524068E+03  0.24999829475E+03 0.  0.
       24    2    3    3    0    0 -0.44178259509E+02  0.72234857958E+02  0.30948372281E+01  0.11642479848E+03  0.79847118710E+02 0.  0.
      -24    2    3    3    0    0  0.44178259509E+02 -0.72234857958E+02 -0.93654936831E+02  0.14947044220E+03  0.80003578552E+02 0.  0.
      -13    1    4    4    0    0 -0.10749722731E+01  0.68748502834E+02 -0.13565659388E+02  0.70082375259E+02  0.00000000000E+00 0.  1.
       14    1    4    4    0    0 -0.43103287236E+02  0.34863551243E+01  0.16660496616E+02  0.46342423222E+02  0.00000000000E+00 0. -1.
        1    1    5    5  501    0  0.35857178512E+02  0.72373944867E+01 -0.29992234148E+02  0.47303818440E+02  0.00000000000E+00 0. -1.
       -2    1    5    5    0  501  0.83210809969E+01 -0.79472252445E+02 -0.63662702682E+02  0.10216662376E+03  0.00000000000E+00 0.  1.
</event>
<event>
 9   1  0.7570500E-01  0.2499914E+03  0.7546771E-02  0.1113310E+00
       21   -1    0    0  503  502  0.00000000000E+00  0.00000000000E+00  0.49530261512E+02  0.49530261512E+02  0.00000000000E+00 0. -1.
       21   -1    0    0  502  503 -0.00000000000E+00 -0.00000000000E+00 -0.31544207041E+03  0.31544207041E+03  0.00000000000E+00 0. -1.
       25    2    1    2    0    0  0.00000000000E+00  0.00000000000E+00 -0.26591180890E+03  0.36497233192E+03  0.24999142577E+03 0.  0.
       24    2    3    3    0    0 -0.14885353888E+02  0.94701977936E+02 -0.15153078676E+03  0.19648003882E+03  0.80329247070E+02 0.  0.
      -24    2    3    3    0    0  0.14885353888E+02 -0.94701977936E+02 -0.11438102214E+03  0.16849229310E+03  0.78208671020E+02 0.  0.
      -13    1    4    4    0    0 -0.25069256525E+02  0.40513755538E+02 -0.16156045891E+02  0.50307552409E+02  0.00000000000E+00 0.  1.
       14    1    4    4    0    0  0.10183902636E+02  0.54188222398E+02 -0.13537474087E+03  0.14617248642E+03  0.00000000000E+00 0. -1.
        3    1    5    5  501    0  0.35479917642E+02 -0.42245943873E+02 -0.93170723536E+02  0.10827893634E+03  0.00000000000E+00 0. -1.
       -4    1    5    5    0  501 -0.20594563754E+02 -0.52456034063E+02 -0.21210298600E+02  0.60213356762E+02  0.00000000000E+00 0.  1.
</event>
<event>
 9   1  0.7570500E-01  0.2499952E+03  0.7546771E-02  0.1113308E+00
       21   -1    0    0  503  502  0.00000000000E+00  0.00000000000E+00  0.60151646865E+03  0.60151646865E+03  0.00000000000E+00 0.  1.
       21   -1    0    0  502  503 -0.00000000000E+00 -0.00000000000E+00 -0.25975007470E+02  0.25975007470E+02  0.00000000000E+00 0.  1.
       25    2    1    2    0    0 -0.14210854715E-13  0.00000000000E+00  0.57554146118E+03  0.62749147612E+03  0.24999515809E+03 0.  0.
       24    2    3    3    0    0 -0.72538281519E+02 -0.25197658208E+02  0.14068903361E+03  0.17861308804E+03  0.78819456848E+02 0.  0.
      -24    2    3    3    0    0  0.72538281519E+02  0.25197658208E+02  0.43485242758E+03  0.44887838808E+03  0.80612959579E+02 0.  0.
      -13    1    4    4    0    0 -0.28097918034E+02  0.28487777465E+02  0.58146654162E+02  0.70583849803E+02  0.00000000000E+00 0.  1.
       14    1    4    4    0    0 -0.44440363485E+02 -0.53685435674E+02  0.82542379445E+02  0.10802923824E+03  0.00000000000E+00 0. -1.
        1    1    5    5  501    0  0.17391761472E+02 -0.14634639692E+02  0.26406191724E+03  0.26503837870E+03  0.00000000000E+00 0. -1.
       -2    1    5    5    0  501  0.55146520046E+02  0.39832297900E+02  0.17079051034E+03  0.18384000939E+03  0.00000000000E+00 0.  1.
</event>
<event>
 9   1  0.7570500E-01  0.2499969E+03  0.7546771E-02  0.1113307E+00
       21   -1    0    0  503  502  0.00000000000E+00  0.00000000000E+00  0.24328211619E+03  0.24328211619E+03  0.00000000000E+00 0.  1.
       21   -1    0    0  502  503 -0.00000000000E+00 -0.00000000000E+00 -0.64224236086E+02  0.64224236086E+02  0.00000000000E+00 0.  1.
       25    2    1    2    0    0  0.00000000000E+00  0.71054273576E-14  0.17905788010E+03  0.30750635228E+03  0.24999686451E+03 0.  0.
       24    2    3    3    0    0  0.78335806973E+02 -0.41577565586E+02  0.13623366455E+03  0.18031670386E+03  0.78034029239E+02 0.  0.
      -24    2    3    3    0    0 -0.78335806973E+02  0.41577565586E+02  0.42824215548E+02  0.12718964841E+03  0.80486648658E+02 0.  0.
      -13    1    4    4    0    0  0.43007591940E+02 -0.61297868215E+01  0.10076638397E+02  0.44595581534E+02  0.00000000000E+00 0.  1.
       14    1    4    4    0    0  0.35328215032E+02 -0.35447778765E+02  0.12615702616E+03  0.13572112233E+03  0.00000000000E+00 0. -1.
        1    1    5    5  501    0 -0.46321479729E+02  0.64346965535E+02  0.20055490525E+02  0.81782847579E+02  0.00000000000E+00 0. -1.
       -2    1    5    5    0  501 -0.32014327243E+02 -0.22769399949E+02  0.22768725023E+02  0.45406800835E+02  0.00000000000E+00 0.  1.
</event>
<event>
 9   1  0.7570500E-01  0.2500002E+03  0.7546771E-02  0.1113305E+00
       21   -1    0    0  503  502  0.00000000000E+00  0.00000000000E+00  0.60137093934E+02  0.60137093934E+02  0.00000000000E+00 0.  1.
       21   -1    0    0  502  503 -0.00000000000E+00 -0.00000000000E+00 -0.25982346455E+03  0.25982346455E+03  0.00000000000E+00 0.  1.
       25    2    1    2    0    0  0.00000000000E+00 -0.14210854715E-13 -0.19968637061E+03  0.31996055848E+03  0.25000022475E+03 0.  0.
       24    2    3    3    0    0 -0.30767214882E+01 -0.91549243337E+02 -0.76577892361E+02  0.14801806046E+03  0.87489670557E+02 0.  0.
      -24    2    3    3    0    0  0.30767214882E+01  0.91549243337E+02 -0.12310847825E+03  0.17194249802E+03  0.77574448350E+02 0.  0.
      -13    1    4    4    0    0 -0.30413573889E+02 -0.49711929956E+02 -0.20861872382E+01  0.58314780577E+02  0.00000000000E+00 0.  1.
       14    1    4    4    0    0  0.27336852400E+02 -0.41837313382E+02 -0.74491705123E+02  0.89703279886E+02  0.00000000000E+00 0. -1.
        3    1    5    5  501    0 -0.35060161790E+02  0.53090784573E+02 -0.82835581117E+02  0.10444893418E+03  0.00000000000E+00 0. -1.
       -4    1    5    5    0  501  0.38136883279E+02  0.38458458764E+02 -0.40272897137E+02  0.67493563845E+02  0.00000000000E+00 0.  1.
</event>
<event>
 9   1  0.7570500E-01  0.2499994E+03  0.7546771E-02  0.1113305E+00
       21   -1    0    0  503  502  0.00000000000E+00  0.00000000000E+00  0.52983194962E+03  0.52983194962E+03  0.00000000000E+00 0. -1.
       21   -1    0    0  502  503 -0.00000000000E+00 -0.00000000000E+00 -0.29490333146E+02  0.29490333146E+02  0.00000000000E+00 0. -1.
       25    2    1    2    0    0  0.00000000000E+00 -0.35527136788E-14  0.50034161648E+03  0.55932228277E+03  0.24999936565E+03 0.  0.
       24    2    3    3    0    0  0.95491734971E+02 -0.16282002001E+02  0.24524364792E+03  0.27522191512E+03  0.78859880071E+02 0.  0.
      -24    2    3    3    0    0 -0.95491734971E+02  0.16282002001E+02  0.25509796856E+03  0.28410036765E+03  0.79083944611E+02 0.  0.
      -13    1    4    4    0    0  0.45406056299E+02 -0.24689409998E+02  0.44653221648E+02  0.68302175062E+02  0.00000000000E+00 0.  1.
       14    1    4    4    0    0  0.50085678672E+02  0.84074079969E+01  0.20059042627E+03  0.20691974006E+03  0.00000000000E+00 0. -1.
        3    1    5    5  501    0 -0.48271860594E+02  0.39956751652E+02  0.82498167531E+02  0.10359856260E+03  0.00000000000E+00 0. -1.
       -4    1    5    5    0  501 -0.47219874377E+02 -0.23674749651E+02  0.17259980103E+03  0.18050180504E+03  0.00000000000E+00 0.  1.
</event>
<event>
 9   1  0.7570500E-01  0.2500013E+03  0.7546771E-02  0.1113304E+00
       21   -1    0    0  503  502  0.00000000000E+00  0.00000000000E+00  0.30587100603E+03  0.30587100603E+03  0.00000000000E+00 0. -1.
       21   -1    0    0  502  503 -0.00000000000E+00 -0.00000000000E+00 -0.51084160579E+02  0.51084160579E+02  0.00000000000E+00 0. -1.
       25    2    1    2    0    0  0.00000000000E+00 -0.35527136788E-14  0.25478684546E+03  0.35695516661E+03  0.25000130871E+03 0.  0.
       24    2    3    3    0    0  0.49729140427E+02 -0.10443277137E+02  0.12546264249E+02  0.95912586680E+02  0.80372670057E+02 0.  0.
      -24    2    3    3    0    0 -0.49729140427E+02  0.10443277137E+02  0.24224058121E+03  0.26104257993E+03  0.82949863833E+02 0.  0.
      -13    1    4    4    0    0 -0.14663211734E+02 -0.24858744291E+02  0.68827750552E+00  0.28869372560E+02  0.00000000000E+00 0.  1.
       14    1    4    4    0    0  0.64392352161E+02  0.14415467153E+02  0.11857986744E+02  0.67043214121E+02  0.00000000000E+00 0. -1.
        3    1    5    5  501    0 -0.56913408164E+02  0.36821285288E+02  0.19519610049E+03  0.20663121914E+03  0.00000000000E+00 0. -1.
       -4    1    5    5    0  501  0.71842677370E+01 -0.26378008150E+02  0.47044480718E+02  0.54411360789E+02  0.00000000000E+00 0.  1.
</event>
<event>
 9   1  0.7570500E-01  0.2499981E+03  0.7546771E-02  0.1113306E+00
       21   -1    0    0  503  502  0.00000000000E+00  0.00000000000E+00  0.25220649891E+03  0.25220649891E+03  0.00000000000E+00 0. -1.
       21   -1    0    0  502  503 -0.00000000000E+00 -0.00000000000E+00 -0.61952246432E+02  0.61952246432E+02  0.00000000000E+00 0. -1.
       25    2    1    2    0    0  0.00000000000E+00  0.00000000000E+00  0.19025425248E+03  0.31415874534E+03  0.24999807337E+03 0.  0.
       24    2    3    3    0    0 -0.17309806859E+02  0.43447964717E+02  0.20240858238E+03  0.22288055474E+03  0.80741268319E+02 0.  0.
      -24    2    3    3    0    0  0.17309806859E+02 -0.43447964717E+02 -0.12154329900E+02  0.91278190601E+02  0.77437880218E+02 0.  0.
      -13    1    4    4    0    0 -0.27799841633E+02  0.38801326511E+02  0.46793630445E+02  0.66843234393E+02  0.00000000000E+00 0.  1.
       14    1    4    4    0    0  0.10490034775E+02  0.46466382052E+01  0.15561495193E+03  0.15603732035E+03  0.00000000000E+00 0. -1.
        3    1    5    5  501    0 -0.31015557154E+02 -0.17613048260E+02 -0.47979042917E+01  0.35988944694E+02  0.00000000000E+00 0. -1.
       -4    1    5    5    0  501  0.48325364013E+02 -0.25834916457E+02 -0.73564256085E+01  0.55289245908E+02  0.00000000000E+00 0.  1.
</event>
<event>
 9   1  0.7570500E-01  0.2500005E+03  0.7546771E-02  0.1113305E+00
       21   -1    0    0  503  502  0.00000000000E+00  0.00000000000E+00  0.39848666120E+02  0.39848666120E+02  0.00000000000E+00 0.  1.
       21   -1    0    0  502  503 -0.00000000000E+00 -0.00000000000E+00 -0.39210989673E+03  0.39210989673E+03  0.00000000000E+00 0.  1.
       25    2    1    2    0    0  0.00000000000E+00  0.00000000000E+00 -0.35226123061E+03  0.43195856285E+03  0.25000045086E+03 0.  0.
       24    2    3    3    0    0  0.75142588816E+02 -0.64622491365E+02 -0.14797030256E+03  0.19004977877E+03  0.66341788682E+02 0.  0.
      -24    2    3    3    0    0 -0.75142588816E+02  0.64622491365E+02 -0.20429092805E+03  0.24190878408E+03  0.83442204484E+02 0.  0.
      -13    1    4    4    0    0  0.20826112377E+02 -0.61319510378E+02 -0.76786603148E+02  0.10044895088E+03  0.00000000000E+00 0.  1.
       14    1    4    4    0    0  0.54316476439E+02 -0.33029809872E+01 -0.71183699415E+02  0.89600827890E+02  0.00000000000E+00 0. -1.
        1    1    5    5  501    0 -0.68862193075E+02  0.92984613842E+01 -0.81618522823E+02  0.10719163347E+03  0.00000000000E+00 0. -1.
       -2    1    5    5    0  501 -0.62803957410E+01  0.55324029981E+02 -0.12267240522E+03  0.13471715061E+03  0.00000000000E+00 0.  1.
</event>
<event>
 9   1  0.7570500E-01  0.2500019E+03  0.7546771E-02  0.1113304E+00
       21   -1    0    0  503  502  0.00000000000E+00  0.00000000000E+00  0.97028932583E+01  0.97028932583E+01  0.00000000000E+00 0.  1.
       21   -1    0    0  502  503 -0.00000000000E+00 -0.00000000000E+00 -0.16103692293E+04  0.16103692293E+04  0.00000000000E+00 0.  1.
       25    2    1    2    0    0  0.00000000000E+00  0.00000000000E+00 -0.16006663360E+04  0.16200721225E+04  0.25000192590E+03 0.  0.
       24    2    3    3    0    0  0.71102588519E+02  0.27797947178E+02 -0.40825114599E+03  0.42249553800E+03  0.77493080124E+02 0.  0.
      -24    2    3    3    0    0 -0.71102588519E+02 -0.27797947178E+02 -0.11924151900E+04  0.11975765845E+04  0.80668373308E+02 0.  0.
      -13    1    4    4    0    0  0.85130622778E+02  0.94037350868E+01 -0.32192601581E+03  0.33312462056E+03  0.00000000000E+00 0.  1.
       14    1    4    4    0    0 -0.14028034258E+02  0.18394212091E+02 -0.86325130173E+02  0.89370917434E+02  0.00000000000E+00 0. -1.
        3    1    5    5  501    0  0.59354340227E+01 -0.15537366817E+02 -0.54277161359E+02  0.56768383717E+02  0.00000000000E+00 0. -1.
       -4    1    5    5    0  501 -0.77038022542E+02 -0.12260580361E+02 -0.11381380287E+04  0.11408082008E+04  0.00000000000E+00 0.  1.
</event>
<event>
 9   1  0.7570500E-01  0.2500034E+03  0.7546771E-02  0.1113303E+00
       21   -1    0    0  503  502  0.00000000000E+00  0.00000000000E+00  0.11799841026E+03  0.11799841026E+03  0.00000000000E+00 0. -1.
       21   -1    0    0  502  503 -0.00000000000E+00 -0.00000000000E+00 -0.13242069145E+03  0.13242069145E+03  0.00000000000E+00 0. -1.
       25    2    1    2    0    0  0.71054273576E-14  0.00000000000E+00 -0.14422281190E+02  0.25041910170E+03  0.25000344858E+03 0.  0.
       24    2    3    3    0    0 -0.38927191037E+02  0.70672445360E+02 -0.60861558407E+02  0.12843218977E+03  0.79251355466E+02 0.  0.
      -24    2    3    3    0    0  0.38927191037E+02 -0.70672445360E+02  0.46439277217E+02  0.12198691193E+03  0.78830701369E+02 0.  0.
      -13    1    4    4    0    0 -0.54299723780E+02  0.73577833357E+02 -0.34418367854E+02  0.97707633324E+02  0.00000000000E+00 0.  1.
       14    1    4    4    0    0  0.15372532744E+02 -0.29053879969E+01 -0.26443190553E+02  0.30724556449E+02  0.00000000000E+00 0. -1.
        1    1    5    5  501    0  0.47184315053E+02 -0.66170306119E+01  0.13695153305E+02  0.49575214625E+02  0.00000000000E+00 0. -1.
       -2    1    5    5    0  501 -0.82571240161E+01 -0.64055414748E+02  0.32744123912E+02  0.72411697303E+02  0.00000000000E+00 0.  1.
</event>
<event>
 9   1  0.7570500E-01  0.2500032E+03  0.7546771E-02  0.1113303E+00
       21   -1    0    0  503  502  0.00000000000E+00  0.00000000000E+00  0.47385920662E+02  0.47385920662E+02  0.00000000000E+00 0. -1.
       21   -1    0    0  502  503 -0.00000000000E+00 -0.00000000000E+00 -0.32974778078E+03  0.32974778078E+03  0.00000000000E+00 0. -1.
       25    2    1    2    0    0  0.14210854715E-13  0.00000000000E+00 -0.28236186012E+03  0.37713370145E+03  0.25000321741E+03 0.  0.
       24    2    3    3    0    0 -0.38147811346E+02  0.20697091993E+02 -0.26747894767E+03  0.28445554982E+03  0.86523680285E+02 0.  0.
      -24    2    3    3    0    0  0.38147811346E+02 -0.20697091993E+02 -0.14882912453E+02  0.92678151626E+02  0.80523993805E+02 0.  0.
      -13    1    4    4    0    0  0.26402217915E+02  0.18180873408E+02 -0.96123425399E+02  0.10132785490E+03  0.00000000000E+00 0.  1.
       14    1    4    4    0    0 -0.64550029261E+02  0.25162185854E+01 -0.17135552227E+03  0.18312769492E+03  0.00000000000E+00 0. -1.
        1    1    5    5  501    0  0.42560661279E+02 -0.66997769945E+01 -0.43056480566E+02  0.60911061549E+02  0.00000000000E+00 0. -1.
       -2    1    5    5    0  501 -0.44128499332E+01 -0.13997314999E+02  0.28173568114E+02  0.31767090077E+02  0.00000000000E+00 0.  1.
</event>
<event>
 9   1  0.7570500E-01  0.2500198E+03  0.7546771E-02  0.1113292E+00
       21   -1    0    0  503  502  0.00000000000E+00  0.00000000000E+00  0.15252667033E+03  0.15252667033E+03  0.00000000000E+00 0.  1.
       21   -1    0    0  502  503 -0.00000000000E+00 -0.00000000000E+00 -0.10245730797E+03  0.10245730797E+03  0.00000000000E+00 0.  1.
       25    2    1    2    0    0  0.71054273576E-14  0.00000000000E+00  0.50069362362E+02  0.25498397831E+03  0.25001977551E+03 0.  0.
       24    2    3    3    0    0  0.29555532273E+02 -0.65226557623E+02  0.10399366085E+03  0.15227016299E+03  0.85108681885E+02 0.  0.
      -24    2    3    3    0    0 -0.29555532273E+02  0.65226557623E+02 -0.53924298492E+02  0.10271381532E+03  0.50142442915E+02 0.  0.
      -13    1    4    4    0    0  0.27072925129E+01 -0.69460695292E+02  0.34404826590E+02  0.77561651064E+02  0.00000000000E+00 0.  1.
       14    1    4    4    0    0  0.26848239760E+02  0.42341376690E+01  0.69588834265E+02  0.74708511927E+02  0.00000000000E+00 0. -1.
        1    1    5    5  501    0 -0.18141091849E+02  0.71737689335E+01  0.40012811812E+01  0.19914126274E+02  0.00000000000E+00 0. -1.
       -2    1    5    5    0  501 -0.11414440424E+02  0.58052788689E+02 -0.57925579673E+02  0.82799689041E+02  0.00000000000E+00 0.  1.
</event>
<event>
 9   1  0.7570500E-01  0.2500019E+03  0.7546771E-02  0.1113304E+00
       21   -1    0    0  503  502  0.00000000000E+00  0.00000000000E+00  0.18402475919E+02  0.18402475919E+02  0.00000000000E+00 0. -1.
       21   -1    0    0  502  503 -0.00000000000E+00 -0.00000000000E+00 -0.84908351386E+03  0.84908351386E+03  0.00000000000E+00 0. -1.
       25    2    1    2    0    0  0.28421709430E-13  0.00000000000E+00 -0.83068103794E+03  0.86748598978E+03  0.25000191133E+03 0.  0.
       24    2    3    3    0    0 -0.89724609633E+02 -0.76426373162E+01 -0.50086119686E+03  0.51557757972E+03  0.82761021714E+02 0.  0.
      -24    2    3    3    0    0  0.89724609633E+02  0.76426373162E+01 -0.32981984108E+03  0.35190841006E+03  0.83363577286E+02 0.  0.
      -13    1    4    4    0    0 -0.10170248347E+03 -0.40763267170E+01 -0.35850677108E+03  0.37267561832E+03  0.00000000000E+00 0.  1.
       14    1    4    4    0    0  0.11977873834E+02 -0.35663105992E+01 -0.14235442578E+03  0.14290196140E+03  0.00000000000E+00 0. -1.
        1    1    5    5  501    0  0.42946646267E+02 -0.29077140101E+02 -0.81781006381E+02  0.96840216370E+02  0.00000000000E+00 0. -1.
       -2    1    5    5    0  501  0.46777963366E+02  0.36719777417E+02 -0.24803883470E+03  0.25506819369E+03  0.00000000000E+00 0.  1.
</event>
<event>
 9   1  0.7570500E-01  0.2499965E+03  0.7546771E-02  0.1113307E+00
       21   -1    0    0  503  502  0.00000000000E+00  0.00000000000E+00  0.24775789273E+04  0.24775789273E+04  0.00000000000E+00 0.  1.
       21   -1    0    0  502  503 -0.00000000000E+00 -0.00000000000E+00 -0.63063856590E+01  0.63063856590E+01  0.00000000000E+00 0.  1.
       25    2    1    2    0    0  0.00000000000E+00  0.00000000000E+00  0.24712725416E+04  0.24838853129E+04  0.24999654570E+03 0.  0.
       24    2    3    3    0    0  0.43887589071E+02 -0.42570566683E+02  0.50507608806E+03  0.51510862186E+03  0.80601885580E+02 0.  0.
      -24    2    3    3    0    0 -0.43887589071E+02  0.42570566683E+02  0.19661964535E+04  0.19687766911E+04  0.80092394958E+02 0.  0.
      -13    1    4    4    0    0 -0.10993582222E+02 -0.41984486760E+02  0.28535221458E+03  0.28863375122E+03  0.00000000000E+00 0.  1.
       14    1    4    4    0    0  0.54881171293E+02 -0.58607992312E+00  0.21972387348E+03  0.22647487063E+03  0.00000000000E+00 0. -1.
        1    1    5    5  501    0  0.12803234818E+02 -0.70605608752E+01  0.10035131191E+03  0.10141084825E+03  0.00000000000E+00 0. -1.
       -2    1    5    5    0  501 -0.56690823889E+02  0.49631127558E+02  0.18658451416E+04  0.18673658428E+04  0.00000000000E+00 0.  1.
</event>
<event>
 9   1  0.7570500E-01  0.2499988E+03  0.7546771E-02  0.1113306E+00
       21   -1    0    0  503  502  0.00000000000E+00  0.00000000000E+00  0.89067738579E+02  0.89067738579E+02  0.00000000000E+00 0. -1.
       21   -1    0    0  502  503 -0.00000000000E+00 -0.00000000000E+00 -0.17542660004E+03  0.17542660004E+03  0.00000000000E+00 0. -1.
       25    2    1    2    0    0  0.00000000000E+00  0.00000000000E+00 -0.86358861465E+02  0.26449433862E+03  0.24999880442E+03 0.  0.
       24    2    3    3    0    0  0.83407061523E+01 -0.98018937831E+02 -0.50318806544E+02  0.12799903473E+03  0.64610301400E+02 0.  0.
      -24    2    3    3    0    0 -0.83407061523E+01  0.98018937831E+02 -0.36040054920E+02  0.13649530389E+03  0.87491730318E+02 0.  0.
      -13    1    4    4    0    0  0.25763403768E+02 -0.67421003232E+02 -0.75032002557E+01  0.72564748085E+02  0.00000000000E+00 0.  1.
       14    1    4    4    0    0 -0.17422697616E+02 -0.30597934599E+02 -0.42815606289E+02  0.55434286644E+02  0.00000000000E+00 0. -1.
        1    1    5    5  501    0  0.32677971832E+02  0.60942345245E+02 -0.41962891796E+02  0.80886980256E+02  0.00000000000E+00 0. -1.
       -2    1    5    5    0  501 -0.41018677984E+02  0.37076592585E+02  0.59228368750E+01  0.55608323639E+02  0.00000000000E+00 0.  1.
</event>
<event>
 9   1  0.7570500E-01  0.2500016E+03  0.7546771E-02  0.1113304E+00
       21   -1    0    0  503  502  0.00000000000E+00  0.00000000000E+00  0.81336661179E+02  0.81336661179E+02  0.00000000000E+00 0.  1.
       21   -1    0    0  502  503 -0.00000000000E+00 -0.00000000000E+00 -0.19210520301E+03  0.19210520301E+03  0.00000000000E+00 0.  1.
       25    2    1    2    0    0  0.00000000000E+00  0.14210854715E-13 -0.11076854183E+03  0.27344186419E+03  0.25000156646E+03 0.  0.
       24    2    3    3    0    0 -0.52792040560E+02 -0.80168070495E+02 -0.56840965420E+02  0.13603072027E+03  0.77843062848E+02 0.  0.
      -24    2    3    3    0    0  0.52792040560E+02  0.80168070495E+02 -0.53927576413E+02  0.13741114392E+03  0.82217515791E+02 0.  0.
      -13    1    4    4    0    0 -0.36930827415E+02 -0.64125778565E+02 -0.76261853543E+02  0.10626321939E+03  0.00000000000E+00 0.  1.
       14    1    4    4    0    0 -0.15861213145E+02 -0.16042291930E+02  0.19420888124E+02  0.29767500874E+02  0.00000000000E+00 0. -1.
        1    1    5    5  501    0  0.35035157235E+02  0.82042916842E+02 -0.97256541552E+01  0.89739014900E+02  0.00000000000E+00 0. -1.
       -2    1    5    5    0  501  0.17756883325E+02 -0.18748463475E+01 -0.44201922258E+02  0.47672129022E+02  0.00000000000E+00 0.  1.
</event>
<event>
 9   1  0.7570500E-01  0.2500055E+03  0.7546771E-02  0.1113301E+00
       21   -1    0    0  503  502  0.00000000000E+00  0.00000000000E+00  0.72189184160E+02  0.72189184160E+02  0.00000000000E+00 0. -1.
       21   -1    0    0  502  503 -0.00000000000E+00 -0.00000000000E+00 -0.21645474259E+03  0.21645474259E+03  0.00000000000E+00 0. -1.
       25    2    1    2    0    0  0.00000000000E+00  0.14210854715E-13 -0.14426555843E+03  0.28864392675E+03  0.25000553014E+03 0.  0.
       24    2    3    3    0    0  0.32036414260E+02 -0.67493514309E+02 -0.14352435562E+03  0.17751777175E+03  0.73017890385E+02 0.  0.
      -24    2    3    3    0    0 -0.32036414260E+02  0.67493514309E+02 -0.74120280787E+00  0.11112615500E+03  0.82260358813E+02 0.  0.
      -13    1    4    4    0    0  0.39131591477E+02 -0.80406417981E+02 -0.11813920099E+03  0.14816660999E+03  0.00000000000E+00 0.  1.
       14    1    4    4    0    0 -0.70951772168E+01  0.12912903672E+02 -0.25385154631E+02  0.29351161759E+02  0.00000000000E+00 0. -1.
        3    1    5    5  501    0 -0.48653599200E+01 -0.12308845248E+02  0.20304762946E+02  0.24237631831E+02  0.00000000000E+00 0. -1.
       -4    1    5    5    0  501 -0.27171054340E+02  0.79802359557E+02 -0.21045965754E+02  0.86888523174E+02  0.00000000000E+00 0.  1.
</event>
<event>
 9   1  0.7570500E-01  0.2499996E+03  0.7546771E-02  0.1113305E+00
       21   -1    0    0  503  502  0.00000000000E+00  0.00000000000E+00  0.12849276574E+03  0.12849276574E+03  0.00000000000E+00 0. -1.
       21   -1    0    0  502  503 -0.00000000000E+00 -0.00000000000E+00 -0.12160176886E+03  0.12160176886E+03  0.00000000000E+00 0. -1.
       25    2    1    2    0    0  0.00000000000E+00  0.00000000000E+00  0.68909968806E+01  0.25009453461E+03  0.24999958081E+03 0.  0.
       24    2    3    3    0    0  0.59109045789E+02 -0.75964250686E+02  0.62760046231E+01  0.12410534095E+03  0.78091617623E+02 0.  0.
      -24    2    3    3    0    0 -0.59109045789E+02  0.75964250686E+02  0.61499225752E+00  0.12598919366E+03  0.81292386028E+02 0.  0.
      -13    1    4    4    0    0  0.34752759224E+02 -0.54078144373E+02  0.41104829037E+02  0.76300766331E+02  0.00000000000E+00 0.  1.
       14    1    4    4    0    0  0.24356286565E+02 -0.21886106313E+02 -0.34828824414E+02  0.47804574623E+02  0.00000000000E+00 0. -1.
        1    1    5    5  501    0 -0.58588673898E+02  0.24743365882E+02  0.26135920641E+02  0.68760113525E+02  0.00000000000E+00 0. -1.
       -2    1    5    5    0  501 -0.52037189112E+00  0.51220884804E+02 -0.25520928383E+02  0.57229080130E+02  0.00000000000E+00 0.  1.
</event>
<event>
 8   1  0.7570500E-01  0.2498747E+03  0.7546771E-02  0.1113384E+00
       21   -1    0    0  503  502  0.00000000000E+00  0.00000000000E+00  0.23960226456E+03  0.23960226456E+03  0.00000000000E+00 0. -1.
       21   -1    0    0  502  503 -0.00000000000E+00 -0.00000000000E+00 -0.65146895811E+02  0.65146895811E+02  0.00000000000E+00 0. -1.
       24    2    1    2    0    0 -0.71906573914E+02  0.45180190157E+02  0.10972557455E+03  0.16914038234E+03  0.96731392395E+02 0.  0.
      -24    2    1    2    0    0  0.71906573914E+02 -0.45180190157E+02  0.64729794202E+02  0.13560877803E+03  0.83594195174E+02 0.  0.
      -13    1    3    3    0    0 -0.43883303091E+02 -0.26456445523E+02  0.51654779696E+02  0.72759219796E+02  0.00000000000E+00 0.  1.
       14    1    3    3    0    0 -0.28023270823E+02  0.71636635680E+02  0.58070794854E+02  0.96381162548E+02  0.00000000000E+00 0. -1.
        1    1    4    4  501    0 -0.76932979378E+01  0.16075582282E+02  0.41003683870E+01  0.18287268789E+02  0.00000000000E+00 0. -1.
       -2    1    4    4    0  501  0.79599871852E+02 -0.61255772439E+02  0.60629425815E+02  0.11732150924E+03  0.00000000000E+00 0.  1.
</event>
<event>
 9   1  0.7570500E-01  0.2499990E+03  0.7546771E-02  0.1113305E+00
       21   -1    0    0  503  502  0.00000000000E+00  0.00000000000E+00  0.88118812749E+02  0.88118812749E+02  0.00000000000E+00 0.  1.
       21   -1    0    0  502  503 -0.00000000000E+00 -0.00000000000E+00 -0.17731597056E+03  0.17731597056E+03  0.00000000000E+00 0.  1.
       25    2    1    2    0    0  0.71054273576E-14  0.00000000000E+00 -0.89197157811E+02  0.26543478331E+03  0.24999898246E+03 0.  0.
       24    2    3    3    0    0 -0.47774121128E+02 -0.81634290367E+02 -0.28638564808E+02  0.12780868860E+03  0.81045477816E+02 0.  0.
      -24    2    3    3    0    0  0.47774121128E+02  0.81634290367E+02 -0.60558593002E+02  0.13762609471E+03  0.79542911342E+02 0.  0.
      -13    1    4    4    0    0 -0.15369708806E+02 -0.20139244061E+02  0.28279694458E+02  0.37967857705E+02  0.00000000000E+00 0.  1.
       14    1    4    4    0    0 -0.32404412323E+02 -0.61495046306E+02 -0.56918259266E+02  0.89840830896E+02  0.00000000000E+00 0. -1.
        1    1    5    5  501    0  0.41760058718E+01  0.34463967747E+02  0.15546271692E+02  0.38038016003E+02  0.00000000000E+00 0. -1.
       -2    1    5    5    0  501  0.43598115257E+02  0.47170322620E+02 -0.76104864694E+02  0.99588078705E+02  0.00000000000E+00 0.  1.
</event>
<event>
 9   1  0.7570500E-01  0.2499999E+03  0.7546771E-02  0.1113305E+00
       21   -1    0    0  503  502  0.00000000000E+00  0.00000000000E+00  0.99439254739E+02  0.99439254739E+02  0.00000000000E+00 0.  1.
       21   -1    0    0  502  503 -0.00000000000E+00 -0.00000000000E+00 -0.15713094293E+03  0.15713094293E+03  0.00000000000E+00 0.  1.
       25    2    1    2    0    0 -0.14210854715E-13  0.00000000000E+00 -0.57691688192E+02  0.25657019767E+03  0.24999987089E+03 0.  0.
       24    2    3    3    0    0  0.76914904268E+02 -0.26374874375E+02  0.24311442743E+02  0.11700429983E+03  0.80544543158E+02 0.  0.
      -24    2    3    3    0    0 -0.76914904268E+02  0.26374874375E+02 -0.82003130935E+02  0.13956589784E+03  0.78374676146E+02 0.  0.
      -13    1    4    4    0    0  0.56926642793E+02  0.20021088777E+02  0.27645556632E+02  0.66375925281E+02  0.00000000000E+00 0.  1.
       14    1    4    4    0    0  0.19988261475E+02 -0.46395963152E+02 -0.33341138890E+01  0.50628374544E+02  0.00000000000E+00 0. -1.
        1    1    5    5  501    0 -0.22467489993E+02  0.46089512726E+02 -0.56483955697E+02  0.76285441214E+02  0.00000000000E+00 0. -1.
       -2    1    5    5    0  501 -0.54447414275E+02 -0.19714638351E+02 -0.25519175238E+02  0.63280456630E+02  0.00000000000E+00 0.  1.
</event>
<event>
 9   1  0.7570500E-01  0.2500442E+03  0.7546771E-02  0.1113277E+00
       21   -1    0    0  503  502  0.00000000000E+00  0.00000000000E+00  0.29040437832E+03  0.29040437832E+03  0.00000000000E+00 0. -1.
       21   -1    0    0  502  503 -0.00000000000E+00 -0.00000000000E+00 -0.53823309696E+02  0.53823309696E+02  0.00000000000E+00 0. -1.
       25    2    1    2    0    0  0.00000000000E+00  0.00000000000E+00  0.23658106863E+03  0.34422768802E+03  0.25004419443E+03 0.  0.
       24    2    3    3    0    0 -0.70106960378E+02 -0.17928210861E+02  0.20536395813E+03  0.23193055240E+03  0.79881281903E+02 0.  0.
      -24    2    3    3    0    0  0.70106960378E+02  0.17928210861E+02  0.31217110501E+02  0.11229713562E+03  0.79998325253E+02 0.  0.
      -13    1    4    4    0    0 -0.84705244414E+02 -0.27152861520E+01  0.14451045492E+03  0.16752797614E+03  0.00000000000E+00 0.  1.
       14    1    4    4    0    0  0.14598284036E+02 -0.15212924709E+02  0.60853503210E+02  0.64402576252E+02  0.00000000000E+00 0. -1.
        1    1    5    5  501    0 -0.44414625256E+01  0.17960673319E+02  0.32882347349E+02  0.37730109232E+02  0.00000000000E+00 0. -1.
       -2    1    5    5    0  501  0.74548422904E+02 -0.32462458457E-01 -0.16652368485E+01  0.74567026393E+02  0.00000000000E+00 0.  1.
</event>
<event>
 9   1  0.7570500E-01  0.2499996E+03  0.7546771E-02  0.1113305E+00
       21   -1    0    0  503  502  0.00000000000E+00  0.00000000000E+00  0.62103286774E+02  0.62103286774E+02  0.00000000000E+00 0. -1.
       21   -1    0    0  502  503 -0.00000000000E+00 -0.00000000000E+00 -0.25159625610E+03  0.25159625610E+03  0.00000000000E+00 0. -1.
       25    2    1    2    0    0  0.35527136788E-14  0.00000000000E+00 -0.18949296932E+03  0.31369954287E+03  0.24999963555E+03 0.  0.
       24    2    3    3    0    0  0.28549046245E+02 -0.68110650723E+02 -0.18517335442E+02  0.11048245192E+03  0.80058551613E+02 0.  0.
      -24    2    3    3    0    0 -0.28549046245E+02  0.68110650723E+02 -0.17097563388E+03  0.20321709095E+03  0.81304427256E+02 0.  0.
      -13    1    4    4    0    0 -0.11142276715E+02 -0.62111855382E+02  0.60930151885E+01  0.63396827550E+02  0.00000000000E+00 0.  1.
       14    1    4    4    0    0  0.39691322960E+02 -0.59987953411E+01 -0.24610350630E+02  0.47085624366E+02  0.00000000000E+00 0. -1.
        3    1    5    5  501    0 -0.42076825378E+02  0.41171656887E+02 -0.46147759359E+02  0.74800937551E+02  0.00000000000E+00 0. -1.
       -4    1    5    5    0  501  0.13527779133E+02  0.26938993836E+02 -0.12482787452E+03  0.12841615340E+03  0.00000000000E+00 0.  1.
</event>
<event>
 9   1  0.7570500E-01  0.2499834E+03  0.7546771E-02  0.1113315E+00
       21   -1    0    0  503  502  0.00000000000E+00  0.00000000000E+00  0.12188090382E+03  0.12188090382E+03  0.00000000000E+00 0. -1.
       21   -1    0    0  502  503 -0.00000000000E+00 -0.00000000000E+00 -0.12818191338E+03  0.12818191338E+03  0.00000000000E+00 0. -1.
       25    2    1    2    0    0  0.00000000000E+00  0.00000000000E+00 -0.63010095653E+01  0.25006281720E+03  0.24998341910E+03 0.  0.
       24    2    3    3    0    0  0.17264762764E+02  0.35528976493E+02  0.81281748641E+02  0.12343096597E+03  0.84071995903E+02 0.  0.
      -24    2    3    3    0    0 -0.17264762764E+02 -0.35528976493E+02 -0.87582758206E+02  0.12663185122E+03  0.82489429661E+02 0.  0.
      -13    1    4    4    0    0  0.35096625412E+02 -0.12810275348E+02  0.52428376943E+02  0.64378653129E+02  0.00000000000E+00 0.  1.
       14    1    4    4    0    0 -0.17831862648E+02  0.48339251841E+02  0.28853371697E+02  0.59052312845E+02  0.00000000000E+00 0. -1.
        3    1    5    5  501    0 -0.10400183796E+02 -0.61855838535E+02 -0.71135683793E+02  0.94839833891E+02  0.00000000000E+00 0. -1.
       -4    1    5    5    0  501 -0.68645789681E+01  0.26326862042E+02 -0.16447074413E+02  0.31792017334E+02  0.00000000000E+00 0.  1.
</event>
<event>
 9   1  0.7570500E-01  0.2499937E+03  0.7546771E-02  0.1113309E+00
       21   -1    0    0  503  502  0.00000000000E+00  0.00000000000E+00  0.12657871278E+02  0.12657871278E+02  0.00000000000E+00 0.  1.
       21   -1    0    0  502  503 -0.00000000000E+00 -0.00000000000E+00 -0.12343474435E+04  0.12343474435E+04  0.00000000000E+00 0.  1.
       25    2    1    2    0    0  0.00000000000E+00  0.00000000000E+00 -0.12216895723E+04  0.12470053148E+04  0.24999368834E+03 0.  0.
       24    2    3    3    0    0  0.14407376260E+02  0.41454214674E+02 -0.16051713801E+03  0.18183019524E+03  0.73283312589E+02 0.  0.
      -24    2    3    3    0    0 -0.14407376260E+02 -0.41454214674E+02 -0.10611724343E+04  0.10651751196E+04  0.81148479513E+02 0.  0.
      -13    1    4    4    0    0  0.22268033570E+02  0.78104937808E+01 -0.72053344559E+01  0.24673588649E+02  0.00000000000E+00 0.  1.
       14    1    4    4    0    0 -0.78606573102E+01  0.33643720893E+02 -0.15331180355E+03  0.15715660660E+03  0.00000000000E+00 0. -1.
        1    1    5    5  501    0  0.17556117710E+02 -0.37418943298E+02 -0.25245276592E+03  0.25581398243E+03  0.00000000000E+00 0. -1.
       -2    1    5    5    0  501 -0.31963493970E+02 -0.40352713761E+01 -0.80871966834E+03  0.80936113715E+03  0.00000000000E+00 0.  1.
</event>
<event>
 9   1  0.7570500E-01  0.2499897E+03  0.7546771E-02  0.1113311E+00
       21   -1    0    0  503  502  0.00000000000E+00  0.00000000000E+00  0.17282089955E+03  0.17282089955E+03  0.00000000000E+00 0. -1.
       21   -1    0    0  502  503 -0.00000000000E+00 -0.00000000000E+00 -0.90404051602E+02  0.90404051602E+02  0.00000000000E+00 0. -1.
       25    2    1    2    0    0 -0.35527136788E-14 -0.71054273576E-14  0.82416847947E+02  0.26322495115E+03  0.24998967595E+03 0.  0.
       24    2    3    3    0    0  0.14488314569E+02  0.18582097801E+02  0.14252622928E+03  0.16551251211E+03  0.80780319469E+02 0.  0.
      -24    2    3    3    0    0 -0.14488314569E+02 -0.18582097801E+02 -0.60109381333E+02  0.97712439045E+02  0.73344239053E+02 0.  0.
      -13    1    4    4    0    0  0.23435259922E+02 -0.27930057788E+02  0.69237934256E+02  0.78250821565E+02  0.00000000000E+00 0.  1.
       14    1    4    4    0    0 -0.89469453530E+01  0.46512155589E+02  0.73288295024E+02  0.87261690542E+02  0.00000000000E+00 0. -1.
        3    1    5    5  501    0 -0.95588986026E+00 -0.45067745361E+02 -0.47266248388E+02  0.65315493063E+02  0.00000000000E+00 0. -1.
       -4    1    5    5    0  501 -0.13532424709E+02  0.26485647560E+02 -0.12843132944E+02  0.32396945982E+02  0.00000000000E+00 0.  1.
</event>
<event>
 9   1  0.7570500E-01  0.2499940E+03  0.7546771E-02  0.1113309E+00
       21   -1    0    0  503  502  0.00000000000E+00  0.00000000000E+00  0.11877345259E+04  0.11877345259E+04  0.00000000000E+00 0.  1.
       21   -1    0    0  502  503 -0.00000000000E+00 -0.00000000000E+00 -0.13154663684E+02  0.13154663684E+02  0.00000000000E+00 0.  1.
       25    2    1    2    0    0 -0.71054273576E-14  0.00000000000E+00  0.11745798622E+04  0.12008891896E+04  0.24999398580E+03 0.  0.
       24    2    3    3    0    0 -0.62775889877E+02 -0.71605660874E+02  0.54283925453E+03  0.55701214322E+03  0.80745826007E+02 0.  0.
      -24    2    3    3    0    0  0.62775889877E+02  0.71605660874E+02  0.63174060765E+03  0.64387704633E+03  0.80082909636E+02 0.  0.
      -13    1    4    4    0    0 -0.69968691139E+02 -0.39800871162E+02  0.47464973638E+03  0.48142714852E+03  0.00000000000E+00 0.  1.
       14    1    4    4    0    0  0.71928012621E+01 -0.31804789711E+02  0.68189518149E+02  0.75584994701E+02  0.00000000000E+00 0. -1.
        3    1    5    5  501    0 -0.19323030984E+02  0.10151000662E+02  0.10439406168E+03  0.10665150001E+03  0.00000000000E+00 0. -1.
       -4    1    5    5    0  501  0.82098920860E+02  0.61454660211E+02  0.52734654598E+03  0.53722554632E+03  0.00000000000E+00 0.  1.
</event>
<event>
 9   1  0.7570500E-01  0.2499956E+03  0.7546771E-02  0.1113308E+00
       21   -1    0    0  503  502  0.00000000000E+00  0.00000000000E+00  0.36465746993E+03  0.36465746993E+03  0.00000000000E+00 0.  1.
       21   -1    0    0  502  503 -0.00000000000E+00 -0.00000000000E+00 -0.42846918128E+02  0.42846918128E+02  0.00000000000E+00 0.  1.
       25    2    1    2    0    0  0.14210854715E-13  0.00000000000E+00  0.32181055181E+03  0.40750438806E+03  0.24999559003E+03 0.  0.
       24    2    3    3    0    0 -0.71994311118E+02  0.42304375266E+02  0.85570701844E+02  0.14411469131E+03  0.80460289821E+02 0.  0.
      -24    2    3    3    0    0  0.71994311118E+02 -0.42304375266E+02  0.23623984996E+03  0.26338969675E+03  0.81191284283E+02 0.  0.
      -13    1    4    4    0    0 -0.75193837336E+02  0.59867705085E+02  0.61353730749E+02  0.11402866114E+03  0.00000000000E+00 0.  1.
       14    1    4    4    0    0  0.31995262179E+01 -0.17563329819E+02  0.24216971095E+02  0.30086030169E+02  0.00000000000E+00 0. -1.
        3    1    5    5  501    0  0.75366711072E+02 -0.45225587580E+01  0.12696333482E+03  0.14771690175E+03  0.00000000000E+00 0. -1.
       -4    1    5    5    0  501 -0.33723999539E+01 -0.37781816508E+02  0.10927651514E+03  0.11567279500E+03  0.00000000000E+00 0.  1.
</event>
<event>
 9   1  0.7570500E-01  0.2499924E+03  0.7546771E-02  0.1113310E+00
       21   -1    0    0  503  502  0.00000000000E+00  0.00000000000E+00  0.67079523335E+02  0.67079523335E+02  0.00000000000E+00 0. -1.
       21   -1    0    0  502  503 -0.00000000000E+00 -0.00000000000E+00 -0.23291836589E+03  0.23291836589E+03  0.00000000000E+00 0. -1.
       25    2    1    2    0    0 -0.28421709430E-13  0.71054273576E-14 -0.16583884256E+03  0.29999788923E+03  0.24999242356E+03 0.  0.
       24    2    3    3    0    0  0.91433642966E+02 -0.24497336321E+02 -0.95012765721E+02  0.15701175768E+03  0.81639670800E+02 0.  0.
      -24    2    3    3    0    0 -0.91433642966E+02  0.24497336321E+02 -0.70826076836E+02  0.14298613154E+03  0.80426799642E+02 0.  0.
      -13    1    4    4    0    0  0.31195364218E+02 -0.49468637950E+02 -0.33663000851E+02  0.67479585918E+02  0.00000000000E+00 0.  1.
       14    1    4    4    0    0  0.60238278748E+02  0.24971301630E+02 -0.61349764870E+02  0.89532171766E+02  0.00000000000E+00 0. -1.
        3    1    5    5  501    0 -0.21040327468E+02  0.34284588614E+02  0.32163080305E+01  0.40354343431E+02  0.00000000000E+00 0. -1.
       -4    1    5    5    0  501 -0.70393315498E+02 -0.97872522934E+01 -0.74042384867E+02  0.10263178811E+03  0.00000000000E+00 0.  1.
</event>
<event>
 9   1  0.7570500E-01  0.2499858E+03  0.7546771E-02  0.1113314E+00
       21   -1    0    0  503  502  0.00000000000E+00  0.00000000000E+00  0.68243903897E+02  0.68243903897E+02  0.00000000000E+00 0. -1.
       21   -1    0    0  502  503 -0.00000000000E+00 -0.00000000000E+00 -0.22893213351E+03  0.22893213351E+03  0.00000000000E+00 0. -1.
       25    2    1    2    0    0  0.00000000000E+00  0.00000000000E+00 -0.16068822961E+03  0.29717603741E+03  0.24998577974E+03 0.  0.
       24    2    3    3    0    0  0.24085493581E+02  0.17366492801E+02 -0.18757556589E+03  0.20685598048E+03  0.81994497781E+02 0.  0.
      -24    2    3    3    0    0 -0.24085493581E+02 -0.17366492801E+02  0.26887336279E+02  0.90320056928E+02  0.80951082501E+02 0.  0.
      -13    1    4    4    0    0  0.10438994020E+02  0.46810859857E+02 -0.69787472926E+02  0.84678926387E+02  0.00000000000E+00 0.  1.
       14    1    4    4    0    0  0.13646499561E+02 -0.29444367056E+02 -0.11778809297E+03  0.12217705409E+03  0.00000000000E+00 0. -1.
        3    1    5    5  501    0  0.25368555794E+02 -0.98931021086E+01  0.29614731357E+02  0.40230205142E+02  0.00000000000E+00 0. -1.
       -4    1    5    5    0  501 -0.49454049376E+02 -0.74733906921E+01 -0.27273950775E+01  0.50089851786E+02  0.00000000000E+00 0.  1.
</event>
<event>
 9   1  0.7570500E-01  0.2500008E+03  0.7546771E-02  0.1113304E+00
       21   -1    0    0  503  502  0.00000000000E+00  0.00000000000E+00  0.13634324775E+03  0.13634324775E+03  0.00000000000E+00 0. -1.
       21   -1    0    0  502  503 -0.00000000000E+00 -0.00000000000E+00 -0.11460118168E+03  0.11460118168E+03  0.00000000000E+00 0. -1.
       25    2    1    2    0    0 -0.71054273576E-14  0.00000000000E+00  0.21742066066E+02  0.25094442943E+03  0.25000077845E+03 0.  0.
       24    2    3    3    0    0 -0.57054062200E+02 -0.37680249941E+02 -0.40141748564E+02  0.13099552912E+03  0.10427608269E+03 0.  0.
      -24    2    3    3    0    0  0.57054062200E+02  0.37680249941E+02  0.61883814630E+02  0.11994890031E+03  0.76701792179E+02 0.  0.
      -13    1    4    4    0    0 -0.48576328277E+02 -0.65459669611E+02 -0.55036543125E+02  0.98354710582E+02  0.00000000000E+00 0.  1.
       14    1    4    4    0    0 -0.84777339236E+01  0.27779419670E+02  0.14894794562E+02  0.32640818536E+02  0.00000000000E+00 0. -1.
        3    1    5    5  501    0  0.38511066547E+02  0.85496922712E+01 -0.95660813474E+01  0.40591986856E+02  0.00000000000E+00 0. -1.
       -4    1    5    5    0  501  0.18542995653E+02  0.29130557670E+02  0.71449895977E+02  0.79356913455E+02  0.00000000000E+00 0.  1.
</event>
<event>
 9   1  0.7570500E-01  0.2500618E+03  0.7546771E-02  0.1113266E+00
       21   -1    0    0  503  502  0.00000000000E+00  0.00000000000E+00  0.23497088052E+03  0.23497088052E+03  0.00000000000E+00 0.  1.
       21   -1    0    0  502  503 -0.00000000000E+00 -0.00000000000E+00 -0.66530506543E+02  0.66530506543E+02  0.00000000000E+00 0.  1.
       25    2    1    2    0    0 -0.26645352591E-14  0.35527136788E-14  0.16844037398E+03  0.30150138707E+03  0.25006184598E+03 0.  0.
       24    2    3    3    0    0 -0.10786771387E+01 -0.24789469368E+02 -0.27453525366E+02  0.88569955964E+02  0.80468998431E+02 0.  0.
      -24    2    3    3    0    0  0.10786771387E+01  0.24789469368E+02  0.19589389935E+03  0.21293143110E+03  0.79684962288E+02 0.  0.
      -13    1    4    4    0    0  0.37364018540E+02  0.17308725199E+01 -0.14364050743E+02  0.40067340252E+02  0.00000000000E+00 0.  1.
       14    1    4    4    0    0 -0.38442695679E+02 -0.26520341888E+02 -0.13089474623E+02  0.48502615711E+02  0.00000000000E+00 0. -1.
        3    1    5    5  501    0  0.78231113094E+01 -0.83383918814E+01  0.16990462494E+03  0.17028890577E+03  0.00000000000E+00 0. -1.
       -4    1    5    5    0  501 -0.67444341707E+01  0.33127861250E+02  0.25989274404E+02  0.42642525339E+02  0.00000000000E+00 0.  1.
</event>
<event>
 9   1  0.7570500E-01  0.2499955E+03  0.7546771E-02  0.1113308E+00
       21   -1    0    0  503  502  0.00000000000E+00  0.00000000000E+00  0.26976094418E+03  0.26976094418E+03  0.00000000000E+00 0. -1.
       21   -1    0    0  502  503 -0.00000000000E+00 -0.00000000000E+00 -0.57919579625E+02  0.57919579625E+02  0.00000000000E+00 0. -1.
       25    2    1    2    0    0 -0.71054273576E-14  0.35527136788E-14  0.21184136455E+03  0.32768052380E+03  0.24999552385E+03 0.  0.
       24    2    3    3    0    0 -0.58861991321E+02  0.18755729869E+02  0.10148211446E+02  0.10159052942E+03  0.80007112475E+02 0.  0.
      -24    2    3    3    0    0  0.58861991321E+02 -0.18755729869E+02  0.20169315311E+03  0.22608999438E+03  0.81363665882E+02 0.  0.
      -13    1    4    4    0    0 -0.13013071673E+02 -0.30196716515E+02  0.10506086788E+02  0.34518974235E+02  0.00000000000E+00 0.  1.
       14    1    4    4    0    0 -0.45848919648E+02  0.48952446384E+02 -0.35787534223E+00  0.67071555183E+02  0.00000000000E+00 0. -1.
        1    1    5    5  501    0  0.10961259517E+02 -0.40946905387E+02  0.50425851749E+02  0.65875373210E+02  0.00000000000E+00 0. -1.
       -2    1    5    5    0  501  0.47900731803E+02  0.22191175518E+02  0.15126730136E+03  0.16021462118E+03  0.00000000000E+00 0.  1.
</event>
<event>
 9   1  0.7570500E-01  0.2500021E+03  0.7546771E-02  0.1113303E+00
       21   -1    0    0  503  502  0.00000000000E+00  0.00000000000E+00  0.83397543942E+02  0.83397543942E+02  0.00000000000E+00 0.  1.
       21   -1    0    0  502  503 -0.00000000000E+00 -0.00000000000E+00 -0.18735882121E+03  0.18735882121E+03  0.00000000000E+00 0.  1.
       25    2    1    2    0    0 -0.71054273576E-14  0.71054273576E-14 -0.10396127727E+03  0.27075636515E+03  0.25000212419E+03 0.  0.
       24    2    3    3    0    0 -0.17801174550E+02  0.61936010939E+02  0.24272054291E+02  0.10591417814E+03  0.80471915874E+02 0.  0.
      -24    2    3    3    0    0  0.17801174550E+02 -0.61936010939E+02 -0.12823333156E+03  0.16484218702E+03  0.81093822396E+02 0.  0.
      -13    1    4    4    0    0  0.75754744054E+01  0.35448853973E+02 -0.25329833242E+02  0.44222273942E+02  0.00000000000E+00 0.  1.
       14    1    4    4    0    0 -0.25376648955E+02  0.26487156966E+02  0.49601887533E+02  0.61691904195E+02  0.00000000000E+00 0. -1.
        1    1    5    5  501    0  0.43948426552E+02 -0.10300506096E+02 -0.64797654932E+02  0.78970252038E+02  0.00000000000E+00 0. -1.
       -2    1    5    5    0  501 -0.26147252002E+02 -0.51635504843E+02 -0.63435676627E+02  0.85871934978E+02  0.00000000000E+00 0.  1.
</event>
<event>
 9   1  0.7570500E-01  0.2499997E+03  0.7546771E-02  0.1113305E+00
       21   -1    0    0  503  502  0.00000000000E+00  0.00000000000E+00  0.72877327704E+03  0.72877327704E+03  0.00000000000E+00 0.  1.
       21   -1    0    0  502  503 -0.00000000000E+00 -0.00000000000E+00 -0.21440082368E+02  0.21440082368E+02  0.00000000000E+00 0.  1.
       25    2    1    2    0    0 -0.71054273576E-14  0.00000000000E+00  0.70733319467E+03  0.75021335940E+03  0.24999967270E+03 0.  0.
       24    2    3    3    0    0 -0.23949624454E+02  0.59334347904E+02  0.14124951343E+03  0.17462804316E+03  0.80308026141E+02 0.  0.
      -24    2    3    3    0    0  0.23949624454E+02 -0.59334347904E+02  0.56608368124E+03  0.57558531624E+03  0.82180123843E+02 0.  0.
      -13    1    4    4    0    0  0.28567459491E+02  0.91952518862E+01  0.38573300165E+02  0.48872813349E+02  0.00000000000E+00 0.  1.
       14    1    4    4    0    0 -0.52517083945E+02  0.50139096018E+02  0.10267621326E+03  0.12575522981E+03  0.00000000000E+00 0. -1.
        3    1    5    5  501    0  0.39134981732E+02 -0.31220816573E+01  0.13518471303E+03  0.14077002815E+03  0.00000000000E+00 0. -1.
       -4    1    5    5    0  501 -0.15185357278E+02 -0.56212266247E+02  0.43089896821E+03  0.43481528809E+03  0.00000000000E+00 0.  1.
</event>
<event>
 9   1  0.7570500E-01  0.2500021E+03  0.7546771E-02  0.1113304E+00
       21   -1    0    0  503  502  0.00000000000E+00  0.00000000000E+00  0.19571958338E+03  0.19571958338E+03  0.00000000000E+00 0. -1.
       21   -1    0    0  502  503 -0.00000000000E+00 -0.00000000000E+00 -0.79834930929E+02  0.79834930929E+02  0.00000000000E+00 0. -1.
       25    2    1    2    0    0  0.00000000000E+00  0.71054273576E-14  0.11588465245E+03  0.27555451431E+03  0.25000207536E+03 0.  0.
       24    2    3    3    0    0  0.59446060710E+02  0.47030347106E+02  0.12713753974E+03  0.16781675285E+03  0.79074780061E+02 0.  0.
      -24    2    3    3    0    0 -0.59446060710E+02 -0.47030347106E+02 -0.11252887291E+02  0.10773776146E+03  0.75730509635E+02 0.  0.
      -13    1    4    4    0    0  0.67221965663E+02  0.27381295992E+02  0.12746460733E+03  0.14668249439E+03  0.00000000000E+00 0.  1.
       14    1    4    4    0    0 -0.77759049534E+01  0.19649051114E+02 -0.32706758617E+00  0.21134258462E+02  0.00000000000E+00 0. -1.
        1    1    5    5  501    0 -0.27278177454E+02 -0.24862754597E+02 -0.43523784538E+02  0.57066411767E+02  0.00000000000E+00 0. -1.
       -2    1    5    5    0  501 -0.32167883256E+02 -0.22167592508E+02  0.32270897247E+02  0.50671349695E+02  0.00000000000E+00 0.  1.
</event>
<event>
 9   1  0.7570500E-01  0.2499981E+03  0.7546771E-02  0.1113306E+00
       21   -1    0    0  503  502  0.00000000000E+00  0.00000000000E+00  0.72566598145E+02  0.72566598145E+02  0.00000000000E+00 0.  1.
       21   -1    0    0  502  503 -0.00000000000E+00 -0.00000000000E+00 -0.21531622838E+03  0.21531622838E+03  0.00000000000E+00 0.  1.
       25    2    1    2    0    0  0.35527136788E-14  0.00000000000E+00 -0.14274963023E+03  0.28788282652E+03  0.24999812974E+03 0.  0.
       24    2    3    3    0    0 -0.27580227188E+02  0.49303524267E+02  0.18407931402E+02  0.10082774013E+03  0.81460878979E+02 0.  0.
      -24    2    3    3    0    0  0.27580227188E+02 -0.49303524267E+02 -0.16115756164E+03  0.18705508640E+03  0.76330460741E+02 0.  0.
      -13    1    4    4    0    0 -0.47726661449E+01  0.57244101066E+02 -0.15221392703E+02  0.59425215563E+02  0.00000000000E+00 0.  1.
       14    1    4    4    0    0 -0.22807561043E+02 -0.79405767991E+01  0.33629324105E+02  0.41402524565E+02  0.00000000000E+00 0. -1.
        3    1    5    5  501    0 -0.29965290603E+01  0.12003683803E+02 -0.79535857373E+02  0.80492361248E+02  0.00000000000E+00 0. -1.
       -4    1    5    5    0  501  0.30576756248E+02 -0.61307208070E+02 -0.81621704264E+02  0.10656272515E+03  0.00000000000E+00 0.  1.
</event>
<event>
 9   1  0.7570500E-01  0.2500071E+03  0.7546771E-02  0.1113300E+00
       21   -1    0    0  503  502  0.00000000000E+00  0.00000000000E+00  0.85886619224E+02  0.85886619224E+02  0.00000000000E+00 0. -1.
       21   -1    0    0  502  503 -0.00000000000E+00 -0.00000000000E+00 -0.18193624257E+03  0.18193624257E+03  0.00000000000E+00 0. -1.
       25    2    1    2    0    0  0.14210854715E-13  0.17763568394E-14 -0.96049623348E+02  0.26782286179E+03  0.25000711021E+03 0.  0.
       24    2    3    3    0    0  0.52594179038E+02 -0.15770372583E+02 -0.13118606884E+03  0.16406569640E+03  0.81810242372E+02 0.  0.
      -24    2    3    3    0    0 -0.52594179038E+02  0.15770372583E+02  0.35136445490E+02  0.10375716540E+03  0.80722532478E+02 0.  0.
      -13    1    4    4    0    0 -0.19983430175E+02  0.69529907256E+01 -0.40642136262E+02  0.45819917084E+02  0.00000000000E+00 0.  1.
       14    1    4    4    0    0  0.72577609213E+02 -0.22723363309E+02 -0.90543932575E+02  0.11824577931E+03  0.00000000000E+00 0. -1.
        1    1    5    5  501    0 -0.72252738500E+02  0.15733550559E+01  0.19326253090E+02  0.74809342500E+02  0.00000000000E+00 0. -1.
       -2    1    5    5    0  501  0.19658559462E+02  0.14197017527E+02  0.15810192400E+02  0.28947822898E+02  0.00000000000E+00 0.  1.
</event>
<event>
 9   1  0.7570500E-01  0.2499988E+03  0.7546771E-02  0.1113306E+00
       21   -1    0    0  503  502  0.00000000000E+00  0.00000000000E+00  0.41205156612E+03  0.41205156612E+03  0.00000000000E+00 0. -1.
       21   -1    0    0  502  503 -0.00000000000E+00 -0.00000000000E+00 -0.37919639415E+02  0.37919639415E+02  0.00000000000E+00 0. -1.
       25    2    1    2    0    0  0.00000000000E+00  0.00000000000E+00  0.37413192671E+03  0.44997120553E+03  0.24999877446E+03 0.  0.
       24    2    3    3    0    0  0.83255026156E+02  0.40697342015E+02  0.22817781329E+03  0.25945030243E+03  0.81619065935E+02 0.  0.
      -24    2    3    3    0    0 -0.83255026156E+02 -0.40697342015E+02  0.14595411341E+03  0.19052090311E+03  0.80049598818E+02 0.  0.
      -13    1    4    4    0    0  0.51661866213E+02  0.72160323278E+01  0.40029806445E+02  0.65752604109E+02  0.00000000000E+00 0.  1.
       14    1    4    4    0    0  0.31593159944E+02  0.33481309687E+02  0.18814800685E+03  0.19369769832E+03  0.00000000000E+00 0. -1.
        1    1    5    5  501    0 -0.86781578653E+02 -0.18883417692E+02  0.14284906980E+03  0.16820666633E+03  0.00000000000E+00 0. -1.
       -2    1    5    5    0  501  0.35265524968E+01 -0.21813924323E+02  0.31050436165E+01  0.22314236773E+02  0.00000000000E+00 0.  1.
</event>
<event>
 9   1  0.7570500E-01  0.2499988E+03  0.7546771E-02  0.1113306E+00
       21   -1    0    0  503  502  0.00000000000E+00  0.00000000000E+00  0.35486185488E+03  0.35486185488E+03  0.00000000000E+00 0.  1.
       21   -1    0    0  502  503 -0.00000000000E+00 -0.00000000000E+00 -0.44030785849E+02  0.44030785849E+02  0.00000000000E+00 0.  1.
       25    2    1    2    0    0 -0.35527136788E-14 -0.14210854715E-13  0.31083106903E+03  0.39889264073E+03  0.24999877070E+03 0.  0.
       24    2    3    3    0    0  0.67981889591E+01  0.79286873267E+02  0.24439121101E+03  0.26951070066E+03  0.81094575072E+02 0.  0.
      -24    2    3    3    0    0 -0.67981889591E+01 -0.79286873267E+02  0.66439858024E+02  0.12938194007E+03  0.77413229081E+02 0.  0.
      -13    1    4    4    0    0 -0.88024710601E+01 -0.15088058862E+02  0.47576450960E+02  0.50681867595E+02  0.00000000000E+00 0.  1.
       14    1    4    4    0    0  0.15600660019E+02  0.94374932129E+02  0.19681476005E+03  0.21882883306E+03  0.00000000000E+00 0. -1.
        1    1    5    5  501    0 -0.28294296454E+02  0.31721413900E+00  0.13128327993E+02  0.31193281849E+02  0.00000000000E+00 0. -1.
       -2    1    5    5    0  501  0.21496107495E+02 -0.79604087406E+02  0.53311530031E+02  0.98188658222E+02  0.00000000000E+00 0.  1.
</event>
<event>
 9   1  0.7570500E-01  0.2500011E+03  0.7546771E-02  0.1113304E+00
       21   -1    0    0  503  502  0.00000000000E+00  0.00000000000E+00  0.10396747942E+04  0.10396747942E+04  0.00000000000E+00 0.  1.
       21   -1    0    0  502  503 -0.00000000000E+00 -0.00000000000E+00 -0.15028866742E+02  0.15028866742E+02  0.00000000000E+00 0.  1.
       25    2    1    2    0    0  0.00000000000E+00  0.00000000000E+00  0.10246459275E+04  0.10547036610E+04  0.25000107150E+03 0.  0.
       24    2    3    3    0    0  0.54033474804E+02  0.37458899347E+02  0.21812556473E+03  0.24161218357E+03  0.80466761610E+02 0.  0.
      -24    2    3    3    0    0 -0.54033474804E+02 -0.37458899347E+02  0.80652036276E+03  0.81309147739E+03  0.79497607073E+02 0.  0.
      -13    1    4    4    0    0  0.45891402938E+02 -0.14985987819E+02  0.77517915262E+02  0.91321563067E+02  0.00000000000E+00 0.  1.
       14    1    4    4    0    0  0.81420718667E+01  0.52444887166E+02  0.14060764946E+03  0.15029062051E+03  0.00000000000E+00 0. -1.
        3    1    5    5  501    0 -0.74125962133E+02 -0.26296726006E+02  0.55898511443E+03  0.56449139428E+03  0.00000000000E+00 0. -1.
       -4    1    5    5    0  501  0.20092487329E+02 -0.11162173341E+02  0.24753524833E+03  0.24860008312E+03  0.00000000000E+00 0.  1.
</event>
<event>
 9   1  0.7570500E-01  0.2500185E+03  0.7546771E-02  0.1113293E+00
       21   -1    0    0  503  502  0.00000000000E+00  0.00000000000E+00  0.10465274548E+03  0.10465274548E+03  0.00000000000E+00 0. -1.
       21   -1    0    0  502  503 -0.00000000000E+00 -0.00000000000E+00 -0.14932535740E+03  0.14932535740E+03  0.00000000000E+00 0. -1.
       25    2    1    2    0    0  0.00000000000E+00  0.35527136788E-14 -0.44672611921E+02  0.25397810288E+03  0.25001846829E+03 0.  0.
       24    2    3    3    0    0  0.85105963388E+02  0.12100041869E+02  0.27406257529E+02  0.11692832393E+03  0.74375358606E+02 0.  0.
      -24    2    3    3    0    0 -0.85105963388E+02 -0.12100041869E+02 -0.72078869450E+02  0.13704977895E+03  0.78726377222E+02 0.  0.
      -13    1    4    4    0    0  0.78701208746E+02  0.32937410470E+02  0.46902175118E+01  0.85444434616E+02  0.00000000000E+00 0.  1.
       14    1    4    4    0    0  0.64047546420E+01 -0.20837368601E+02  0.22716040017E+02  0.31483889314E+02  0.00000000000E+00 0. -1.
        1    1    5    5  501    0 -0.46924996223E+02  0.22981806395E+02 -0.66978680536E+02  0.84948586463E+02  0.00000000000E+00 0. -1.
       -2    1    5    5    0  501 -0.38180967165E+02 -0.35081848263E+02 -0.51001889145E+01  0.52101192483E+02  0.00000000000E+00 0.  1.
</event>
<event>
 8   1  0.7570500E-01  0.2498978E+03  0.7546771E-02  0.1113369E+00
       21   -1    0    0  503  502  0.00000000000E+00  0.00000000000E+00  0.22164661211E+03  0.22164661211E+03  0.00000000000E+00 0.  1.
       21   -1    0    0  502  503 -0.00000000000E+00 -0.00000000000E+00 -0.70437457709E+02  0.70437457709E+02  0.00000000000E+00 0.  1.
       24    2    1    2    0    0 -0.14991038513E+02  0.43740779974E+02 -0.22356153344E+02  0.95257077034E+02  0.80225470172E+02 0.  0.
      -24    2    1    2    0    0  0.14991038513E+02 -0.43740779974E+02  0.17356530775E+03  0.19682699279E+03  0.80485787367E+02 0.  0.
      -13    1    3    3    0    0 -0.19025409009E+02 -0.20431707531E+02 -0.10764027333E+02  0.29921315897E+02  0.00000000000E+00 0.  1.
       14    1    3    3    0    0  0.40343704961E+01  0.64172487505E+02 -0.11592126011E+02  0.65335761136E+02  0.00000000000E+00 0. -1.
        3    1    4    4  501    0 -0.96958539948E+01 -0.60698123317E+02  0.99761226901E+02  0.11717753262E+03  0.00000000000E+00 0. -1.
       -4    1    4    4    0  501  0.24686892508E+02  0.16957343343E+02  0.73804080848E+02  0.79649460166E+02  0.00000000000E+00 0.  1.
</event>
<event>
 9   1  0.7570500E-01  0.2500065E+03  0.7546771E-02  0.1113301E+00
       21   -1    0    0  503  502  0.00000000000E+00  0.00000000000E+00  0.11540677675E+03  0.11540677675E+03  0.00000000000E+00 0. -1.
       21   -1    0    0  502  503 -0.00000000000E+00 -0.00000000000E+00 -0.13539772024E+03  0.13539772024E+03  0.00000000000E+00 0. -1.
       25    2    1    2    0    0  0.00000000000E+00 -0.35527136788E-14 -0.19990943490E+02  0.25080449699E+03  0.25000651569E+03 0.  0.
       24    2    3    3    0    0 -0.82570645373E+02 -0.26522839801E+02  0.26979099626E+02  0.12281370485E+03  0.82667779543E+02 0.  0.
      -24    2    3    3    0    0  0.82570645373E+02  0.26522839801E+02 -0.46970043115E+02  0.12799079213E+03  0.81572577577E+02 0.  0.
      -13    1    4    4    0    0 -0.83084063626E+02 -0.13677190533E+02  0.48921583654E+02  0.97382485678E+02  0.00000000000E+00 0.  1.
       14    1    4    4    0    0  0.51341825316E+00 -0.12845649268E+02 -0.21942484028E+02  0.25431219175E+02  0.00000000000E+00 0. -1.
        1    1    5    5  501    0 -0.25969662575E+01  0.33081025229E+02 -0.81805118378E+01  0.34176296433E+02  0.00000000000E+00 0. -1.
       -2    1    5    5    0  501  0.85167611631E+02 -0.65581854283E+01 -0.38789531277E+02  0.93814495701E+02  0.00000000000E+00 0.  1.
</event>
<event>
 9   1  0.7570500E-01  0.2500027E+03  0.7546771E-02  0.1113303E+00
       21   -1    0    0  503  502  0.00000000000E+00  0.00000000000E+00  0.16544914714E+03  0.16544914714E+03  0.00000000000E+00 0.  1.
       21   -1    0    0  502  503 -0.00000000000E+00 -0.00000000000E+00 -0.94441951608E+02  0.94441951608E+02  0.00000000000E+00 0.  1.
       25    2    1    2    0    0 -0.35527136788E-14  0.00000000000E+00  0.71007195537E+02  0.25989109875E+03  0.25000272277E+03 0.  0.
       24    2    3    3    0    0  0.17871363073E+02  0.93703611198E+02  0.38882274661E+02  0.13090207290E+03  0.80769852277E+02 0.  0.
      -24    2    3    3    0    0 -0.17871363073E+02 -0.93703611198E+02  0.32124920876E+02  0.12898902585E+03  0.80662295278E+02 0.  0.
      -13    1    4    4    0    0  0.33747108301E+02  0.82670648200E+02  0.20646950780E+01  0.89317223189E+02  0.00000000000E+00 0.  1.
       14    1    4    4    0    0 -0.15875745228E+02  0.11032962999E+02  0.36817579583E+02  0.41584849710E+02  0.00000000000E+00 0. -1.
        3    1    5    5  501    0  0.13484274420E+02 -0.55623221248E+02 -0.16661623194E+02  0.59610217967E+02  0.00000000000E+00 0. -1.
       -4    1    5    5    0  501 -0.31355637493E+02 -0.38080389950E+02  0.48786544070E+02  0.69378807886E+02  0.00000000000E+00 0.  1.
</event>
<event>
 9   1  0.7570500E-01  0.2499992E+03  0.7546771E-02  0.1113305E+00
       21   -1    0    0  503  502  0.00000000000E+00  0.00000000000E+00  0.57794016167E+03  0.57794016167E+03  0.00000000000E+00 0.  1.
       21   -1    0    0  502  503 -0.00000000000E+00 -0.00000000000E+00 -0.27035494819E+02  0.27035494819E+02  0.00000000000E+00 0.  1.
       25    2    1    2    0    0  0.14210854715E-13 -0.35527136788E-14  0.55090466685E+03  0.60497565649E+03  0.24999918597E+03 0.  0.
       24    2    3    3    0    0  0.81833766802E+02 -0.24084631044E+02  0.17220234479E+03  0.20849488609E+03  0.80868010560E+02 0.  0.
      -24    2    3    3    0    0 -0.81833766802E+02  0.24084631044E+02  0.37870232206E+03  0.39648077040E+03  0.80651830244E+02 0.  0.
      -13    1    4    4    0    0 -0.76251328413E+01 -0.20186309579E+02  0.11308752070E+02  0.24362217030E+02  0.00000000000E+00 0.  1.
       14    1    4    4    0    0  0.89458899644E+02 -0.38983214654E+01  0.16089359272E+03  0.18413266906E+03  0.00000000000E+00 0. -1.
        3    1    5    5  501    0 -0.76147074022E+02 -0.92254006096E+01  0.19217405540E+03  0.20691629338E+03  0.00000000000E+00 0. -1.
       -4    1    5    5    0  501 -0.56866927806E+01  0.33310031654E+02  0.18652826666E+03  0.18956447702E+03  0.00000000000E+00 0.  1.
</event>
<event>
 9   1  0.7570500E-01  0.2499973E+03  0.7546771E-02  0.1113307E+00
       21   -1    0    0  503  502  0.00000000000E+00  0.00000000000E+00  0.44907672919E+03  0.44907672919E+03  0.00000000000E+00 0. -1.
       21   -1    0    0  502  503 -0.00000000000E+00 -0.00000000000E+00 -0.34792855060E+02  0.34792855060E+02  0.00000000000E+00 0. -1.
       25    2    1    2    0    0  0.00000000000E+00  0.00000000000E+00  0.41428387413E+03  0.48386958424E+03  0.24999729238E+03 0.  0.
       24    2    3    3    0    0 -0.40091212284E+02  0.82841183849E+02  0.25254063723E+03  0.28124977654E+03  0.82793093374E+02 0.  0.
      -24    2    3    3    0    0  0.40091212284E+02 -0.82841183849E+02  0.16174323690E+03  0.20261980770E+03  0.80149514950E+02 0.  0.
      -13    1    4    4    0    0 -0.87783409840E+01  0.50844663600E+02  0.43554202525E+02  0.67521904925E+02  0.00000000000E+00 0.  1.
       14    1    4    4    0    0 -0.31312871300E+02  0.31996520249E+02  0.20898643470E+03  0.21372787162E+03  0.00000000000E+00 0. -1.
        3    1    5    5  501    0  0.12311979457E+01 -0.78818732266E+02  0.81574896112E+02  0.11343884731E+03  0.00000000000E+00 0. -1.
       -4    1    5    5    0  501  0.38860014339E+02 -0.40224515837E+01  0.80168340785E+02  0.89180960386E+02  0.00000000000E+00 0.  1.
</event>
<event>
 9   1  0.7570500E-01  0.2500138E+03  0.7546771E-02  0.1113296E+00
       21   -1    0    0  503  502  0.00000000000E+00  0.00000000000E+00  0.77002113688E+02  0.77002113688E+02  0.00000000000E+00 0.  1.
       21   -1    0    0  502  503 -0.00000000000E+00 -0.00000000000E+00 -0.20293891428E+03  0.20293891428E+03  0.00000000000E+00 0.  1.
       25    2    1    2    0    0  0.00000000000E+00 -0.71054273576E-14 -0.12593680059E+03  0.27994102797E+03  0.25001380241E+03 0.  0.
       24    2    3    3    0    0  0.83889668765E+02 -0.38018299626E+02 -0.37274901480E+02  0.12903214006E+03  0.82322580475E+02 0.  0.
      -24    2    3    3    0    0 -0.83889668765E+02  0.38018299626E+02 -0.88661899113E+02  0.15090888791E+03  0.80185363154E+02 0.  0.
      -13    1    4    4    0    0  0.87377898152E+02 -0.38517190766E+02 -0.40034062888E+01  0.95574569483E+02  0.00000000000E+00 0.  1.
       14    1    4    4    0    0 -0.34882293871E+01  0.49889114032E+00 -0.33271495192E+02  0.33457570577E+02  0.00000000000E+00 0. -1.
        3    1    5    5  501    0 -0.36548455860E+02  0.27266127769E+02  0.45372536967E+01  0.45823771346E+02  0.00000000000E+00 0. -1.
       -4    1    5    5    0  501 -0.47341212904E+02  0.10752171857E+02 -0.93199152810E+02  0.10508511656E+03  0.00000000000E+00 0.  1.
</event>
<event>
 9   1  0.7570500E-01  0.2499958E+03  0.7546771E-02  0.1113307E+00
       21   -1    0    0  503  502  0.00000000000E+00  0.00000000000E+00  0.49596521804E+02  0.49596521804E+02  0.00000000000E+00 0.  1.
       21   -1    0    0  502  503 -0.00000000000E+00 -0.00000000000E+00 -0.31503161318E+03  0.31503161318E+03  0.00000000000E+00 0.  1.
       25    2    1    2    0    0  0.00000000000E+00  0.00000000000E+00 -0.26543509138E+03  0.36462813499E+03  0.24999577814E+03 0.  0.
       24    2    3    3    0    0 -0.61134640717E+01  0.55410282726E+02 -0.24638472374E+03  0.26500982306E+03  0.80106805909E+02 0.  0.
      -24    2    3    3    0    0  0.61134640717E+01 -0.55410282726E+02 -0.19050367644E+02  0.99618311928E+02  0.80331921982E+02 0.  0.
      -13    1    4    4    0    0 -0.22687225137E+02 -0.13473508009E+02 -0.57167432535E+02  0.62963171340E+02  0.00000000000E+00 0.  1.
       14    1    4    4    0    0  0.16573761065E+02  0.68883790735E+02 -0.18921729120E+03  0.20204665172E+03  0.00000000000E+00 0. -1.
        3    1    5    5  501    0 -0.14055045470E+02 -0.67854101450E+02 -0.27367061984E+02  0.74502882282E+02  0.00000000000E+00 0. -1.
       -4    1    5    5    0  501  0.20168509541E+02  0.12443818724E+02  0.83166943399E+01  0.25115429646E+02  0.00000000000E+00 0.  1.
</event>
<event>
 9   1  0.7570500E-01  0.2499906E+03  0.7546771E-02  0.1113311E+00
       21   -1    0    0  503  502  0.00000000000E+00  0.00000000000E+00  0.88933655724E+02  0.88933655724E+02  0.00000000000E+00 0. -1.
       21   -1    0    0  502  503 -0.00000000000E+00 -0.00000000000E+00 -0.17567952614E+03  0.17567952614E+03  0.00000000000E+00 0. -1.
       25    2    1    2    0    0  0.00000000000E+00  0.71054273576E-14 -0.86745870417E+02  0.26461318186E+03  0.24999057979E+03 0.  0.
       24    2    3    3    0    0 -0.35696199993E+02 -0.36245800672E+02 -0.13716720402E+03  0.15706034299E+03  0.57141339861E+02 0.  0.
      -24    2    3    3    0    0  0.35696199993E+02  0.36245800672E+02  0.50421333601E+02  0.10755283888E+03  0.80232945278E+02 0.  0.
      -13    1    4    4    0    0 -0.40057010924E+02 -0.83505921252E+01 -0.45732839585E+02  0.61366025857E+02  0.00000000000E+00 0.  1.
       14    1    4    4    0    0  0.43608109309E+01 -0.27895208547E+02 -0.91434364434E+02  0.95694317131E+02  0.00000000000E+00 0. -1.
        1    1    5    5  501    0  0.14566266917E+02  0.60620355060E+02  0.37823067432E+02  0.72921793789E+02  0.00000000000E+00 0. -1.
       -2    1    5    5    0  501  0.21129933076E+02 -0.24374554388E+02  0.12598266169E+02  0.34631045087E+02  0.00000000000E+00 0.  1.
</event>
<event>
 9   1  0.7570500E-01  0.2500000E+03  0.7546771E-02  0.1113305E+00
       21   -1    0    0  503  502  0.00000000000E+00  0.00000000000E+00  0.14766458939E+03  0.14766458939E+03  0.00000000000E+00 0.  1.
       21   -1    0    0  502  503 -0.00000000000E+00 -0.00000000000E+00 -0.10581416901E+03  0.10581416901E+03  0.00000000000E+00 0.  1.
       25    2    1    2    0    0  0.71054273576E-14  0.00000000000E+00  0.41850420379E+02  0.25347875841E+03  0.25000004656E+03 0.  0.
       24    2    3    3    0    0 -0.55103953351E+02  0.69048957818E+02  0.57062761448E+02  0.13363376357E+03  0.82447678996E+02 0.  0.
      -24    2    3    3    0    0  0.55103953351E+02 -0.69048957818E+02 -0.15212341069E+02  0.11984499484E+03  0.79543718895E+02 0.  0.
      -13    1    4    4    0    0  0.10915750597E+02  0.44281293783E+02  0.40972632436E+02  0.61308589928E+02  0.00000000000E+00 0.  1.
       14    1    4    4    0    0 -0.66019703948E+02  0.24767664035E+02  0.16090129012E+02  0.72325173644E+02  0.00000000000E+00 0. -1.
        3    1    5    5  501    0  0.65259356653E+02 -0.41834431542E+02  0.13861748597E+02  0.78746754647E+02  0.00000000000E+00 0. -1.
       -4    1    5    5    0  501 -0.10155403303E+02 -0.27214526276E+02 -0.29074089666E+02  0.41098240188E+02  0.00000000000E+00 0.  1.
</event>
<event>
 9   1  0.7570500E-01  0.2500529E+03  0.7546771E-02  0.1113271E+00
       21   -1    0    0  503  502  0.00000000000E+00  0.00000000000E+00  0.52250959641E+03  0.52250959641E+03  0.00000000000E+00 0. -1.
       21   -1    0    0  502  503 -0.00000000000E+00 -0.00000000000E+00 -0.29916411715E+02  0.29916411715E+02  0.00000000000E+00 0. -1.
       25    2    1    2    0    0  0.00000000000E+00  0.00000000000E+00  0.49259318470E+03  0.55242600812E+03  0.25005289209E+03 0.  0.
       24    2    3    3    0    0  0.10514678419E+02 -0.67006976848E+01  0.36021708322E+02  0.88873537323E+02  0.80283773916E+02 0.  0.
      -24    2    3    3    0    0 -0.10514678419E+02  0.67006976848E+01  0.45657147637E+03  0.46355247080E+03  0.79170211171E+02 0.  0.
      -13    1    4    4    0    0  0.13590854437E+02  0.11770359451E+02 -0.21705752485E+02  0.28184967214E+02  0.00000000000E+00 0.  1.
       14    1    4    4    0    0 -0.30761760174E+01 -0.18471057136E+02  0.57727460807E+02  0.60688570109E+02  0.00000000000E+00 0. -1.
        1    1    5    5  501    0  0.24112903378E+02  0.28140532245E+02  0.27391563006E+03  0.27641109612E+03  0.00000000000E+00 0. -1.
       -2    1    5    5    0  501 -0.34627581797E+02 -0.21439834560E+02  0.18265584631E+03  0.18714137468E+03  0.00000000000E+00 0.  1.
</event>
<event>
 9   1  0.7570500E-01  0.2500030E+03  0.7546771E-02  0.1113303E+00
       21   -1    0    0  503  502  0.00000000000E+00  0.00000000000E+00  0.68383165471E+01  0.68383165471E+01  0.00000000000E+00 0.  1.
       21   -1    0    0  502  503 -0.00000000000E+00 -0.00000000000E+00 -0.22849745807E+04  0.22849745807E+04  0.00000000000E+00 0.  1.
       25    2    1    2    0    0  0.00000000000E+00  0.71054273576E-14 -0.22781362642E+04  0.22918128973E+04  0.25000303586E+03 0.  0.
       24    2    3    3    0    0 -0.13771788223E+02 -0.56715249315E+02 -0.51329143599E+03  0.52426370886E+03  0.89319967013E+02 0.  0.
      -24    2    3    3    0    0  0.13771788223E+02  0.56715249315E+02 -0.17648448282E+04  0.17675491884E+04  0.78400154545E+02 0.  0.
      -13    1    4    4    0    0  0.14844911684E+02  0.19410767140E+02 -0.15027569108E+03  0.15224957344E+03  0.00000000000E+00 0.  1.
       14    1    4    4    0    0 -0.28616699908E+02 -0.76126016455E+02 -0.36301574491E+03  0.37201413541E+03  0.00000000000E+00 0. -1.
        1    1    5    5  501    0  0.39075040333E+02  0.60355891945E+02 -0.12413290447E+04  0.12434096227E+04  0.00000000000E+00 0. -1.
       -2    1    5    5    0  501 -0.25303252109E+02 -0.36406426299E+01 -0.52351578343E+03  0.52413956571E+03  0.00000000000E+00 0.  1.
</event>
<event>
 9   1  0.7570500E-01  0.2499964E+03  0.7546771E-02  0.1113307E+00
       21   -1    0    0  503  502  0.00000000000E+00  0.00000000000E+00  0.64606069365E+02  0.64606069365E+02  0.00000000000E+00 0.  1.
       21   -1    0    0  502  503 -0.00000000000E+00 -0.00000000000E+00 -0.24184331772E+03  0.24184331772E+03  0.00000000000E+00 0.  1.
       25    2    1    2    0    0  0.00000000000E+00  0.00000000000E+00 -0.17723724835E+03  0.30644938708E+03  0.24999636925E+03 0.  0.
       24    2    3    3    0    0 -0.49054779185E+02  0.37672100039E+02 -0.17903993122E+03  0.20503850010E+03  0.78485228354E+02 0.  0.
      -24    2    3    3    0    0  0.49054779185E+02 -0.37672100039E+02  0.18026828688E+01  0.10141088698E+03  0.80345254063E+02 0.  0.
      -13    1    4    4    0    0 -0.30418713063E+02 -0.21449855118E+02 -0.55614031071E+02  0.66920212499E+02  0.00000000000E+00 0.  1.
       14    1    4    4    0    0 -0.18636066121E+02  0.59121955157E+02 -0.12342590015E+03  0.13811828760E+03  0.00000000000E+00 0. -1.
        1    1    5    5  501    0  0.20609539356E+02 -0.51434447071E+02 -0.24223274881E+02  0.60473320596E+02  0.00000000000E+00 0. -1.
       -2    1    5    5    0  501  0.28445239828E+02  0.13762347032E+02  0.26025957749E+02  0.40937566385E+02  0.00000000000E+00 0.  1.
</event>
<event>
 9   1  0.7570500E-01  0.2500098E+03  0.7546771E-02  0.1113299E+00
       21   -1    0    0  503  502  0.00000000000E+00  0.00000000000E+00  0.22966199367E+02  0.22966199367E+02  0.00000000000E+00 0. -1.
       21   -1    0    0  502  503 -0.00000000000E+00 -0.00000000000E+00 -0.68040100179E+03  0.68040100179E+03  0.00000000000E+00 0. -1.
       25    2    1    2    0    0 -0.35527136788E-14  0.00000000000E+00 -0.65743480242E+03  0.70336720116E+03  0.25000980026E+03 0.  0.
       24    2    3    3    0    0  0.21356481267E+02 -0.87896088639E+02 -0.40364730507E+03  0.42153920938E+03  0.81131599667E+02 0.  0.
      -24    2    3    3    0    0 -0.21356481267E+02  0.87896088639E+02 -0.25378749735E+03  0.28182799178E+03  0.82686767058E+02 0.  0.
      -13    1    4    4    0    0  0.25214459044E+02 -0.10184967159E+03 -0.32335878885E+03  0.33995592490E+03  0.00000000000E+00 0.  1.
       14    1    4    4    0    0 -0.38579777771E+01  0.13953582953E+02 -0.80288516217E+02  0.81583284477E+02  0.00000000000E+00 0. -1.
        1    1    5    5  501    0  0.30012925013E+02  0.26729211650E+02 -0.59919468808E+02  0.72149630390E+02  0.00000000000E+00 0. -1.
       -2    1    5    5    0  501 -0.51369406279E+02  0.61166876989E+02 -0.19386802855E+03  0.20967836139E+03  0.00000000000E+00 0.  1.
</event>
<event>
 9   1  0.7570500E-01  0.2500030E+03  0.7546771E-02  0.1113303E+00
       21   -1    0    0  503  502  0.00000000000E+00  0.00000000000E+00  0.37376480681E+03  0.37376480681E+03  0.00000000000E+00 0. -1.
       21   -1    0    0  502  503 -0.00000000000E+00 -0.00000000000E+00 -0.41805357791E+02  0.41805357791E+02  0.00000000000E+00 0. -1.
       25    2    1    2    0    0  0.00000000000E+00  0.00000000000E+00  0.33195944902E+03  0.41557016460E+03  0.25000297181E+03 0.  0.
       24    2    3    3    0    0 -0.60454032225E+02  0.70906624532E+02  0.20090293644E+03  0.23577897408E+03  0.80915359069E+02 0.  0.
      -24    2    3    3    0    0  0.60454032225E+02 -0.70906624532E+02  0.13105651258E+03  0.17979119052E+03  0.80415317478E+02 0.  0.
      -13    1    4    4    0    0 -0.26385110294E+02  0.22316547956E+02  0.10163118052E+02  0.36020706912E+02  0.00000000000E+00 0.  1.
       14    1    4    4    0    0 -0.34068921931E+02  0.48590076577E+02  0.19073981839E+03  0.19975826717E+03  0.00000000000E+00 0. -1.
        1    1    5    5  501    0  0.37544100587E+02 -0.60926138468E+02  0.33376798811E+02  0.78965590838E+02  0.00000000000E+00 0. -1.
       -2    1    5    5    0  501  0.22909931638E+02 -0.99804860639E+01  0.97679713769E+02  0.10082559968E+03  0.00000000000E+00 0.  1.
</event>
<event>
 9   1  0.7570500E-01  0.2500257E+03  0.7546771E-02  0.1113289E+00
       21   -1    0    0  503  502  0.00000000000E+00  0.00000000000E+00  0.91133401411E+02  0.91133401411E+02  0.00000000000E+00 0. -1.
       21   -1    0    0  502  503 -0.00000000000E+00 -0.00000000000E+00 -0.17148718456E+03  0.17148718456E+03  0.00000000000E+00 0. -1.
       25    2    1    2    0    0 -0.71054273576E-14 -0.71054273576E-14 -0.80353783144E+02  0.26262058597E+03  0.25002568210E+03 0.  0.
       24    2    3    3    0    0 -0.61423439018E+02  0.32343459307E+02 -0.11074148227E+03  0.15271997710E+03  0.78998590432E+02 0.  0.
      -24    2    3    3    0    0  0.61423439018E+02 -0.32343459307E+02  0.30387699125E+02  0.10990060886E+03  0.79597696889E+02 0.  0.
      -13    1    4    4    0    0 -0.41349695023E+02  0.54341746162E+02 -0.99941017458E+02  0.12104143764E+03  0.00000000000E+00 0.  1.
       14    1    4    4    0    0 -0.20073743995E+02 -0.21998286856E+02 -0.10800464811E+02  0.31678539466E+02  0.00000000000E+00 0. -1.
        3    1    5    5  501    0  0.11990975164E+02  0.23539458612E+02 -0.56952077210E+01  0.27024525678E+02  0.00000000000E+00 0. -1.
       -4    1    5    5    0  501  0.49432463854E+02 -0.55882917919E+02  0.36082906846E+02  0.82876083186E+02  0.00000000000E+00 0.  1.
</event>
<event>
 8   1  0.7570500E-01  0.2490300E+03  0.7546771E-02  0.1113919E+00
       21   -1    0    0  503  502  0.00000000000E+00  0.00000000000E+00  0.12075131480E+04  0.12075131480E+04  0.00000000000E+00 0.  1.
       21   -1    0    0  502  503 -0.00000000000E+00 -0.00000000000E+00 -0.12839596133E+02  0.12839596133E+02  0.00000000000E+00 0.  1.
       24    2    1    2    0    0  0.67973748243E+02  0.26592090263E+02  0.47316175580E+03  0.49091099466E+03  0.10855407780E+03 0.  0.
      -24    2    1    2    0    0 -0.67973748243E+02 -0.26592090263E+02  0.72151179603E+03  0.72944174944E+03  0.78602953519E+02 0.  0.
      -13    1    3    3    0    0 -0.12560603524E+02 -0.14949522139E+02  0.17166354670E+02  0.25998859701E+02  0.00000000000E+00 0.  1.
       14    1    3    3    0    0  0.80534351767E+02  0.41541612402E+02  0.45599540113E+03  0.46491213496E+03  0.00000000000E+00 0. -1.
        1    1    4    4  501    0 -0.32487640997E+01 -0.29191095103E+02  0.91265111258E+02  0.95874892618E+02  0.00000000000E+00 0. -1.
       -2    1    4    4    0  501 -0.64724984143E+02  0.25990048405E+01  0.63024668478E+03  0.63356685683E+03  0.00000000000E+00 0.  1.
</event>
<event>
 9   1  0.7570500E-01  0.2500280E+03  0.7546771E-02  0.1113287E+00
       21   -1    0    0  503  502  0.00000000000E+00  0.00000000000E+00  0.56171402025E+03  0.56171402025E+03  0.00000000000E+00 0. -1.
       21   -1    0    0  502  503 -0.00000000000E+00 -0.00000000000E+00 -0.27822876738E+02  0.27822876738E+02  0.00000000000E+00 0. -1.
       25    2    1    2    0    0  0.00000000000E+00 -0.71054273576E-14  0.53389114351E+03  0.58953689698E+03  0.25002799801E+03 0.  0.
       24    2    3    3    0    0 -0.39436623430E+02 -0.56842763828E+02  0.43369323219E+03  0.44718241155E+03  0.84237417354E+02 0.  0.
      -24    2    3    3    0    0  0.39436623430E+02  0.56842763828E+02  0.10019791132E+03  0.14235448544E+03  0.73748430658E+02 0.  0.
      -13    1    4    4    0    0 -0.57745522239E+02 -0.11288951239E+02  0.26719047383E+03  0.27359227888E+03  0.00000000000E+00 0.  1.
       14    1    4    4    0    0  0.18308898809E+02 -0.45553812589E+02  0.16650275836E+03  0.17359013266E+03  0.00000000000E+00 0. -1.
        3    1    5    5  501    0  0.32615710114E+02  0.18770886260E+02  0.30085369036E+01  0.37751582901E+02  0.00000000000E+00 0. -1.
       -4    1    5    5    0  501  0.68209133164E+01  0.38071877568E+02  0.97189374415E+02  0.10460290254E+03  0.00000000000E+00 0.  1.
</event>
<event>
 9   1  0.7570500E-01  0.2500026E+03  0.7546771E-02  0.1113303E+00
       21   -1    0    0  503  502  0.00000000000E+00  0.00000000000E+00  0.17320960703E+03  0.17320960703E+03  0.00000000000E+00 0. -1.
       21   -1    0    0  502  503 -0.00000000000E+00 -0.00000000000E+00 -0.90210532136E+02  0.90210532136E+02  0.00000000000E+00 0. -1.
       25    2    1    2    0    0 -0.71054273576E-14 -0.35527136788E-14  0.82999074891E+02  0.26342013916E+03  0.25000264655E+03 0.  0.
       24    2    3    3    0    0  0.48872852552E+02  0.19181011990E+02  0.12598113823E+03  0.16075754818E+03  0.84942775856E+02 0.  0.
      -24    2    3    3    0    0 -0.48872852552E+02 -0.19181011990E+02 -0.42982063335E+02  0.10266259098E+03  0.77043383113E+02 0.  0.
      -13    1    4    4    0    0  0.40304288498E+02  0.43431243021E+02  0.41216660576E+02  0.72177016083E+02  0.00000000000E+00 0.  1.
       14    1    4    4    0    0  0.85685640539E+01 -0.24250231031E+02  0.84764477650E+02  0.88580532095E+02  0.00000000000E+00 0. -1.
        3    1    5    5  501    0 -0.83994221093E+01  0.21557671093E+02 -0.38685599365E+02  0.45076147494E+02  0.00000000000E+00 0. -1.
       -4    1    5    5    0  501 -0.40473430442E+02 -0.40738683083E+02 -0.42964639704E+01  0.57586443490E+02  0.00000000000E+00 0.  1.
</event>
<event>
 9   1  0.7570500E-01  0.2499931E+03  0.7546771E-02  0.1113309E+00
       21   -1    0    0  503  502  0.00000000000E+00  0.00000000000E+00  0.10233120796E+04  0.10233120796E+04  0.00000000000E+00 0. -1.
       21   -1    0    0  502  503 -0.00000000000E+00 -0.00000000000E+00 -0.15268199175E+02  0.15268199175E+02  0.00000000000E+00 0. -1.
       25    2    1    2    0    0  0.00000000000E+00  0.35527136788E-14  0.10080438804E+04  0.10385802788E+04  0.24999306110E+03 0.  0.
       24    2    3    3    0    0  0.30502564772E+02  0.54849676485E-01  0.12586690534E+03  0.15233666031E+03  0.80209542757E+02 0.  0.
      -24    2    3    3    0    0 -0.30502564772E+02 -0.54849676485E-01  0.88217697507E+03  0.88624361845E+03  0.79127279926E+02 0.  0.
      -13    1    4    4    0    0  0.41886649243E+02  0.28528723650E+02  0.53255457329E+02  0.73515462273E+02  0.00000000000E+00 0.  1.
       14    1    4    4    0    0 -0.11384084470E+02 -0.28473873973E+02  0.72611448007E+02  0.78821198037E+02  0.00000000000E+00 0. -1.
        3    1    5    5  501    0  0.21395552927E+01  0.34806138662E+02  0.47430378796E+03  0.47558398654E+03  0.00000000000E+00 0. -1.
       -4    1    5    5    0  501 -0.32642120065E+02 -0.34860988339E+02  0.40787318711E+03  0.41065963191E+03  0.00000000000E+00 0.  1.
</event>
<event>
 9   1  0.7570500E-01  0.2500184E+03  0.7546771E-02  0.1113293E+00
       21   -1    0    0  503  502  0.00000000000E+00  0.00000000000E+00  0.49984407977E+03  0.49984407977E+03  0.00000000000E+00 0. -1.
       21   -1    0    0  502  503 -0.00000000000E+00 -0.00000000000E+00 -0.31264350701E+02  0.31264350701E+02  0.00000000000E+00 0. -1.
       25    2    1    2    0    0 -0.35527136788E-14  0.00000000000E+00  0.46857972906E+03  0.53110843047E+03  0.25001840417E+03 0.  0.
       24    2    3    3    0    0 -0.16506546736E+02  0.34853959380E+02  0.42056083055E+03  0.43001461143E+03  0.80956094767E+02 0.  0.
      -24    2    3    3    0    0  0.16506546736E+02 -0.34853959380E+02  0.48018898511E+02  0.10109381903E+03  0.80167830599E+02 0.  0.
      -13    1    4    4    0    0 -0.19735739675E+02 -0.10549185448E+02  0.30488906198E+03  0.30570921617E+03  0.00000000000E+00 0.  1.
       14    1    4    4    0    0  0.32291929387E+01  0.45403144828E+02  0.11567176857E+03  0.12430539527E+03  0.00000000000E+00 0. -1.
        3    1    5    5  501    0 -0.22602318956E+02 -0.43330353703E+02  0.24353281996E+02  0.54602808703E+02  0.00000000000E+00 0. -1.
       -4    1    5    5    0  501  0.39108865692E+02  0.84763943239E+01  0.23665616515E+02  0.46491010330E+02  0.00000000000E+00 0.  1.
</event>
<event>
 9   1  0.7570500E-01  0.2499971E+03  0.7546771E-02  0.1113307E+00
       21   -1    0    0  503  502  0.00000000000E+00  0.00000000000E+00  0.43226292516E+02  0.43226292516E+02  0.00000000000E+00 0. -1.
       21   -1    0    0  502  503 -0.00000000000E+00 -0.00000000000E+00 -0.36146149566E+03  0.36146149566E+03  0.00000000000E+00 0. -1.
       25    2    1    2    0    0  0.00000000000E+00  0.35527136788E-14 -0.31823520315E+03  0.40468778818E+03  0.24999712274E+03 0.  0.
       24    2    3    3    0    0 -0.50625214153E+02  0.14639415962E+02 -0.30176764568E+02  0.10106782062E+03  0.80788875705E+02 0.  0.
      -24    2    3    3    0    0  0.50625214153E+02 -0.14639415962E+02 -0.28805843858E+03  0.30361996755E+03  0.80188502010E+02 0.  0.
      -13    1    4    4    0    0  0.18101235042E+02  0.20638207044E+02 -0.94792137182E+01  0.29042138226E+02  0.00000000000E+00 0.  1.
       14    1    4    4    0    0 -0.68726449195E+02 -0.59987910822E+01 -0.20697550850E+02  0.72025682396E+02  0.00000000000E+00 0. -1.
        1    1    5    5  501    0  0.62840002745E+02 -0.17769596863E+02 -0.28230521258E+03  0.28975999994E+03  0.00000000000E+00 0. -1.
       -2    1    5    5    0  501 -0.12214788592E+02  0.31301809012E+01 -0.57532259992E+01  0.13859967613E+02  0.00000000000E+00 0.  1.
</event>
<event>
 9   1  0.7570500E-01  0.2499982E+03  0.7546771E-02  0.1113306E+00
       21   -1    0    0  503  502  0.00000000000E+00  0.00000000000E+00  0.12059694761E+04  0.12059694761E+04  0.00000000000E+00 0.  1.
       21   -1    0    0  502  503 -0.00000000000E+00 -0.00000000000E+00 -0.12956196924E+02  0.12956196924E+02  0.00000000000E+00 0.  1.
       25    2    1    2    0    0  0.00000000000E+00 -0.71054273576E-14  0.11930132792E+04  0.12189256731E+04  0.24999822413E+03 0.  0.
       24    2    3    3    0    0  0.74568827756E+02 -0.33476827998E+02  0.35097092296E+03  0.36898457782E+03  0.79295786863E+02 0.  0.
      -24    2    3    3    0    0 -0.74568827756E+02  0.33476827998E+02  0.84204235626E+03  0.84994109526E+03  0.81751621287E+02 0.  0.
      -13    1    4    4    0    0  0.45694660333E+02 -0.58701270604E+02  0.25529679036E+03  0.26591406943E+03  0.00000000000E+00 0.  1.
       14    1    4    4    0    0  0.28874167423E+02  0.25224442606E+02  0.95674132605E+02  0.10307050839E+03  0.00000000000E+00 0. -1.
        3    1    5    5  501    0  0.47414317689E+01  0.35010969918E+02  0.21185075425E+03  0.21477660782E+03  0.00000000000E+00 0. -1.
       -4    1    5    5    0  501 -0.79310259525E+02 -0.15341419195E+01  0.63019160201E+03  0.63516448744E+03  0.00000000000E+00 0.  1.
</event>
<event>
 9   1  0.7570500E-01  0.2499994E+03  0.7546771E-02  0.1113305E+00
       21   -1    0    0  503  502  0.00000000000E+00  0.00000000000E+00  0.65641376503E+02  0.65641376503E+02  0.00000000000E+00 0. -1.
       21   -1    0    0  502  503 -0.00000000000E+00 -0.00000000000E+00 -0.23803471690E+03  0.23803471690E+03  0.00000000000E+00 0. -1.
       25    2    1    2    0    0 -0.71054273576E-14 -0.71054273576E-14 -0.17239334040E+03  0.30367609340E+03  0.24999941178E+03 0.  0.
       24    2    3    3    0    0 -0.35726597515E+02 -0.45078420680E+02  0.41001216489E+01  0.10028157856E+03  0.82043465430E+02 0.  0.
      -24    2    3    3    0    0  0.35726597515E+02  0.45078420680E+02 -0.17649346204E+03  0.20339451484E+03  0.83132019963E+02 0.  0.
      -13    1    4    4    0    0 -0.28798108560E+02 -0.58749189846E+02 -0.22829309341E+02  0.69296289433E+02  0.00000000000E+00 0.  1.
       14    1    4    4    0    0 -0.69284889545E+01  0.13670769165E+02  0.26929430990E+02  0.30985289126E+02  0.00000000000E+00 0. -1.
        1    1    5    5  501    0  0.13905481610E+02 -0.23551343212E+02 -0.33137419846E+02  0.42966461106E+02  0.00000000000E+00 0. -1.
       -2    1    5    5    0  501  0.21821115904E+02  0.68629763893E+02 -0.14335604220E+03  0.16042805374E+03  0.00000000000E+00 0.  1.
</event>
<event>
 9   1  0.7570500E-01  0.2500015E+03  0.7546771E-02  0.1113304E+00
       21   -1    0    0  503  502  0.00000000000E+00  0.00000000000E+00  0.28092216676E+03  0.28092216676E+03  0.00000000000E+00 0.  1.
       21   -1    0    0  502  503 -0.00000000000E+00 -0.00000000000E+00 -0.55621064897E+02  0.55621064897E+02  0.00000000000E+00 0.  1.
       25    2    1    2    0    0 -0.14210854715E-13 -0.71054273576E-14  0.22530110186E+03  0.33654323166E+03  0.25000152054E+03 0.  0.
       24    2    3    3    0    0  0.76124484356E+02 -0.33896984656E+02  0.17726094342E+03  0.21208336572E+03  0.81326313512E+02 0.  0.
      -24    2    3    3    0    0 -0.76124484356E+02  0.33896984656E+02  0.48040158449E+02  0.12445986593E+03  0.78983914293E+02 0.  0.
      -13    1    4    4    0    0  0.97309046867E+01  0.19814722978E+02  0.99006939928E+01  0.24193749074E+02  0.00000000000E+00 0.  1.
       14    1    4    4    0    0  0.66393579669E+02 -0.53711707634E+02  0.16736024942E+03  0.18788961665E+03  0.00000000000E+00 0. -1.
        3    1    5    5  501    0  0.13787963817E+02  0.16889150087E+02  0.16478588061E+01  0.21864738177E+02  0.00000000000E+00 0. -1.
       -4    1    5    5    0  501 -0.89912448173E+02  0.17007834569E+02  0.46392299643E+02  0.10259512776E+03  0.00000000000E+00 0.  1.
</event>
<event>
 9   1  0.7570500E-01  0.2500013E+03  0.7546771E-02  0.1113304E+00
       21   -1    0    0  503  502  0.00000000000E+00  0.00000000000E+00  0.23600990777E+03  0.23600990777E+03  0.00000000000E+00 0. -1.
       21   -1    0    0  502  503 -0.00000000000E+00 -0.00000000000E+00 -0.66205515574E+02  0.66205515574E+02  0.00000000000E+00 0. -1.
       25    2    1    2    0    0  0.00000000000E+00  0.00000000000E+00  0.16980439219E+03  0.30221542334E+03  0.25000126099E+03 0.  0.
       24    2    3    3    0    0  0.36504283210E+02  0.61051157114E+02  0.15769756348E+03  0.19093994377E+03  0.80806770282E+02 0.  0.
      -24    2    3    3    0    0 -0.36504283210E+02 -0.61051157114E+02  0.12106828715E+02  0.11127547957E+03  0.84710392363E+02 0.  0.
      -13    1    4    4    0    0 -0.20508705372E+02  0.29785641709E+02  0.27580646761E+02  0.45480584031E+02  0.00000000000E+00 0.  1.
       14    1    4    4    0    0  0.57012988582E+02  0.31265515405E+02  0.13011691672E+03  0.14545935974E+03  0.00000000000E+00 0. -1.
        1    1    5    5  501    0  0.15078598909E+02 -0.55970213725E+02  0.13124393165E+02  0.59432976246E+02  0.00000000000E+00 0. -1.
       -2    1    5    5    0  501 -0.51582882119E+02 -0.50809433887E+01 -0.10175644492E+01  0.51842503324E+02  0.00000000000E+00 0.  1.
</event>
<event>
 9   1  0.7570500E-01  0.2499959E+03  0.7546771E-02  0.1113307E+00
       21   -1    0    0  503  502  0.00000000000E+00  0.00000000000E+00  0.31427305792E+02  0.31427305792E+02  0.00000000000E+00 0.  1.
       21   -1    0    0  502  503 -0.00000000000E+00 -0.00000000000E+00 -0.49716295853E+03  0.49716295853E+03  0.00000000000E+00 0.  1.
       25    2    1    2    0    0  0.00000000000E+00  0.00000000000E+00 -0.46573565274E+03  0.52859026432E+03  0.24999593858E+03 0.  0.
       24    2    3    3    0    0  0.78064890659E+02 -0.53917158249E+02 -0.25714468712E+03  0.28567000906E+03  0.80515693223E+02 0.  0.
      -24    2    3    3    0    0 -0.78064890659E+02  0.53917158249E+02 -0.20859096562E+03  0.24292025526E+03  0.80615583927E+02 0.  0.
      -13    1    4    4    0    0  0.67546121623E+02 -0.48772587863E+02 -0.10964959259E+03  0.13771084572E+03  0.00000000000E+00 0.  1.
       14    1    4    4    0    0  0.10518769035E+02 -0.51445703863E+01 -0.14749509453E+03  0.14795916334E+03  0.00000000000E+00 0. -1.
        3    1    5    5  501    0 -0.33462799070E+02  0.66002416561E+02 -0.95967733628E+02  0.12118532837E+03  0.00000000000E+00 0. -1.
       -4    1    5    5    0  501 -0.44602091589E+02 -0.12085258312E+02 -0.11262323199E+03  0.12173492690E+03  0.00000000000E+00 0.  1.
</event>
<event>
 9   1  0.7570500E-01  0.2500043E+03  0.7546771E-02  0.1113302E+00
       21   -1    0    0  503  502  0.00000000000E+00  0.00000000000E+00  0.28516985392E+03  0.28516985392E+03  0.00000000000E+00 0.  1.
       21   -1    0    0  502  503 -0.00000000000E+00 -0.00000000000E+00 -0.54793789683E+02  0.54793789683E+02  0.00000000000E+00 0.  1.
       25    2    1    2    0    0  0.00000000000E+00  0.00000000000E+00  0.23037606423E+03  0.33996364360E+03  0.25000429596E+03 0.  0.
       24    2    3    3    0    0 -0.92371155428E+02  0.14156102482E+02  0.14443562856E+03  0.18978534675E+03  0.80149868682E+02 0.  0.
      -24    2    3    3    0    0  0.92371155428E+02 -0.14156102482E+02  0.85940435668E+02  0.15017829685E+03  0.80218057623E+02 0.  0.
      -13    1    4    4    0    0 -0.78703321861E+02 -0.30318357800E+01  0.14788993485E+03  0.16755547658E+03  0.00000000000E+00 0.  1.
       14    1    4    4    0    0 -0.13667833567E+02  0.17187938262E+02 -0.34543062858E+01  0.22229870176E+02  0.00000000000E+00 0. -1.
        1    1    5    5  501    0 -0.50402988704E+01 -0.12319247164E+02  0.40580900669E+02  0.42708055007E+02  0.00000000000E+00 0. -1.
       -2    1    5    5    0  501  0.97411454299E+02 -0.18368553171E+01  0.45359534999E+02  0.10747024184E+03  0.00000000000E+00 0.  1.
</event>
<event>
 9   1  0.7570500E-01  0.2500131E+03  0.7546771E-02  0.1113297E+00
       21   -1    0    0  503  502  0.00000000000E+00  0.00000000000E+00  0.14847228982E+03  0.14847228982E+03  0.00000000000E+00 0.  1.
       21   -1    0    0  502  503 -0.00000000000E+00 -0.00000000000E+00 -0.10524955590E+03  0.10524955590E+03  0.00000000000E+00 0.  1.
       25    2    1    2    0    0 -0.35527136788E-14 -0.35527136788E-14  0.43222733920E+02  0.25372184572E+03  0.25001314020E+03 0.  0.
       24    2    3    3    0    0  0.30931053567E+02  0.11775002939E+02 -0.68900256285E+02  0.11072516159E+03  0.80108896653E+02 0.  0.
      -24    2    3    3    0    0 -0.30931053567E+02 -0.11775002939E+02  0.11212299020E+03  0.14299668414E+03  0.82347470959E+02 0.  0.
      -13    1    4    4    0    0 -0.15375305854E+02 -0.19628261452E+02 -0.41528028716E+02  0.48438061963E+02  0.00000000000E+00 0.  1.
       14    1    4    4    0    0  0.46306359421E+02  0.31403264391E+02 -0.27372227569E+02  0.62287099622E+02  0.00000000000E+00 0. -1.
        1    1    5    5  501    0 -0.45989945579E+02 -0.32813459418E+02  0.49028965068E+02  0.74803994739E+02  0.00000000000E+00 0. -1.
       -2    1    5    5    0  501  0.15058892011E+02  0.21038456479E+02  0.63094025137E+02  0.68192689400E+02  0.00000000000E+00 0.  1.
</event>
<event>
 9   1  0.7570500E-01  0.2500032E+03  0.7546771E-02  0.1113303E+00
       21   -1    0    0  503  502  0.00000000000E+00  0.00000000000E+00  0.34722257502E+03  0.34722257502E+03  0.00000000000E+00 0. -1.
       21   -1    0    0  502  503 -0.00000000000E+00 -0.00000000000E+00 -0.45001123815E+02  0.45001123815E+02  0.00000000000E+00 0. -1.
       25    2    1    2    0    0  0.00000000000E+00 -0.35527136788E-14  0.30222145120E+03  0.39222369883E+03  0.25000324870E+03 0.  0.
       24    2    3    3    0    0 -0.69864522229E+02  0.52694765517E+01  0.25341275716E+03  0.27475613192E+03  0.79775232293E+02 0.  0.
      -24    2    3    3    0    0  0.69864522229E+02 -0.52694765517E+01  0.48808694041E+02  0.11746756691E+03  0.80669212295E+02 0.  0.
      -13    1    4    4    0    0 -0.19090964412E+02 -0.28068314701E+02  0.38047044933E+02  0.50988948218E+02  0.00000000000E+00 0.  1.
       14    1    4    4    0    0 -0.50773557817E+02  0.33337791252E+02  0.21536571223E+03  0.22376718370E+03  0.00000000000E+00 0. -1.
        1    1    5    5  501    0  0.78742052071E+02 -0.21175688820E+02  0.54855436361E+02  0.98274307221E+02  0.00000000000E+00 0. -1.
       -2    1    5    5    0  501 -0.88775298417E+01  0.15906212268E+02 -0.60467423199E+01  0.19193259689E+02  0.00000000000E+00 0.  1.
</event>
<event>
 8   1  0.7570500E-01  0.2498673E+03  0.7546771E-02  0.1113389E+00
       21   -1    0    0  503  502  0.00000000000E+00  0.00000000000E+00  0.12526682034E+02  0.12526682034E+02  0.00000000000E+00 0.  1.
       21   -1    0    0  502  503 -0.00000000000E+00 -0.00000000000E+00 -0.12460139553E+04  0.12460139553E+04  0.00000000000E+00 0.  1.
       24    2    1    2    0    0  0.75877206335E+02 -0.57351532179E+01 -0.87248515257E+03  0.87958739138E+03  0.81568346770E+02 0.  0.
      -24    2    1    2    0    0 -0.75877206335E+02  0.57351532179E+01 -0.36100212068E+03  0.37895324594E+03  0.86560897917E+02 0.  0.
      -13    1    3    3    0    0 -0.10923175930E+02 -0.15907315919E+02 -0.28323398103E+03  0.28389055370E+03  0.00000000000E+00 0.  1.
       14    1    3    3    0    0  0.86800382266E+02  0.10172162702E+02 -0.58925117154E+03  0.59569683768E+03  0.00000000000E+00 0. -1.
        3    1    4    4  501    0 -0.53128900750E+02 -0.38398090072E+02 -0.19993637450E+03  0.21040828706E+03  0.00000000000E+00 0. -1.
       -4    1    4    4    0  501 -0.22748305586E+02  0.44133243290E+02 -0.16106574618E+03  0.16854495888E+03  0.00000000000E+00 0.  1.
</event>
<event>
 9   1  0.7570500E-01  0.2499990E+03  0.7546771E-02  0.1113305E+00
       21   -1    0    0  503  502  0.00000000000E+00  0.00000000000E+00  0.57181782725E+02  0.57181782725E+02  0.00000000000E+00 0.  1.
       21   -1    0    0  502  503 -0.00000000000E+00 -0.00000000000E+00 -0.27324907091E+03  0.27324907091E+03  0.00000000000E+00 0.  1.
       25    2    1    2    0    0 -0.71054273576E-14  0.00000000000E+00 -0.21606728818E+03  0.33043085364E+03  0.24999895202E+03 0.  0.
       24    2    3    3    0    0 -0.33620746038E+02 -0.52281031087E+02 -0.20622795400E+03  0.22941541756E+03  0.78979769742E+02 0.  0.
      -24    2    3    3    0    0  0.33620746038E+02  0.52281031087E+02 -0.98393341844E+01  0.10101543607E+03  0.79016739062E+02 0.  0.
      -13    1    4    4    0    0 -0.16133411556E+02  0.90488316643E+01 -0.12391324131E+03  0.12528631088E+03  0.00000000000E+00 0.  1.
       14    1    4    4    0    0 -0.17487334481E+02 -0.61329862752E+02 -0.82314712690E+02  0.10412910668E+03  0.00000000000E+00 0. -1.
        3    1    5    5  501    0  0.95537162843E+01  0.67722269004E+02  0.54140805906E+01  0.68606788895E+02  0.00000000000E+00 0. -1.
       -4    1    5    5    0  501  0.24067029753E+02 -0.15441237917E+02 -0.15253414775E+02  0.32408647177E+02  0.00000000000E+00 0.  1.
</event>
<event>
 9   1  0.7570500E-01  0.2500016E+03  0.7546771E-02  0.1113304E+00
       21   -1    0    0  503  502  0.00000000000E+00  0.00000000000E+00  0.17311593039E+03  0.17311593039E+03  0.00000000000E+00 0.  1.
       21   -1    0    0  502  503 -0.00000000000E+00 -0.00000000000E+00 -0.90258560517E+02  0.90258560517E+02  0.00000000000E+00 0.  1.
       25    2    1    2    0    0  0.00000000000E+00 -0.71054273576E-14  0.82857369869E+02  0.26337449090E+03  0.25000155743E+03 0.  0.
       24    2    3    3    0    0 -0.59462717348E+02 -0.37673264021E+02  0.10886128195E+03  0.15350928906E+03  0.82214557973E+02 0.  0.
      -24    2    3    3    0    0  0.59462717348E+02  0.37673264021E+02 -0.26003912079E+02  0.10986520185E+03  0.80243813203E+02 0.  0.
      -13    1    4    4    0    0 -0.41498094007E+01 -0.92236449270E+01  0.86989385226E+02  0.87575394294E+02  0.00000000000E+00 0.  1.
       14    1    4    4    0    0 -0.55312907947E+02 -0.28449619094E+02  0.21871896722E+02  0.65933894761E+02  0.00000000000E+00 0. -1.
        1    1    5    5  501    0  0.18951728537E+02  0.29211867863E+02  0.25961406640E+02  0.43433810256E+02  0.00000000000E+00 0. -1.
       -2    1    5    5    0  501  0.40510988811E+02  0.84613961583E+01 -0.51965318719E+02  0.66431391593E+02  0.00000000000E+00 0.  1.
</event>
<event>
 9   1  0.7570500E-01  0.2500104E+03  0.7546771E-02  0.1113298E+00
       21   -1    0    0  503  502  0.00000000000E+00  0.00000000000E+00  0.31618686664E+03  0.31618686664E+03  0.00000000000E+00 0.  1.
       21   -1    0    0  502  503 -0.00000000000E+00 -0.00000000000E+00 -0.49421081456E+02  0.49421081456E+02  0.00000000000E+00 0.  1.
       25    2    1    2    0    0 -0.14210854715E-13  0.00000000000E+00  0.26676578519E+03  0.36560794810E+03  0.25001037492E+03 0.  0.
       24    2    3    3    0    0 -0.95624567145E+02 -0.79000397130E+01  0.13767381853E+03  0.18556691035E+03  0.79211927385E+02 0.  0.
      -24    2    3    3    0    0  0.95624567145E+02  0.79000397130E+01  0.12909196666E+03  0.18004103775E+03  0.80892341715E+02 0.  0.
      -13    1    4    4    0    0 -0.68999357515E+02 -0.39419465820E+02  0.11071151218E+03  0.13627855500E+03  0.00000000000E+00 0.  1.
       14    1    4    4    0    0 -0.26625209629E+02  0.31519426107E+02  0.26962306351E+02  0.49288355356E+02  0.00000000000E+00 0. -1.
        1    1    5    5  501    0  0.33121128392E+02 -0.34350847590E+02  0.67416560955E+02  0.82595293855E+02  0.00000000000E+00 0. -1.
       -2    1    5    5    0  501  0.62503438753E+02  0.42250887303E+02  0.61675405702E+02  0.97445743890E+02  0.00000000000E+00 0.  1.
</event>
<event>
 9   1  0.7570500E-01  0.2500032E+03  0.7546771E-02  0.1113303E+00
       21   -1    0    0  503  502  0.00000000000E+00  0.00000000000E+00  0.17423832859E+02  0.17423832859E+02  0.00000000000E+00 0. -1.
       21   -1    0    0  502  503 -0.00000000000E+00 -0.00000000000E+00 -0.89678325656E+03  0.89678325656E+03  0.00000000000E+00 0. -1.
       25    2    1    2    0    0  0.00000000000E+00  0.00000000000E+00 -0.87935942370E+03  0.91420708942E+03  0.25000321256E+03 0.  0.
       24    2    3    3    0    0  0.59943463838E+02  0.73986684872E+02 -0.41596649820E+03  0.43431316732E+03  0.80824199922E+02 0.  0.
      -24    2    3    3    0    0 -0.59943463838E+02 -0.73986684872E+02 -0.46339292550E+03  0.47989392209E+03  0.80609705751E+02 0.  0.
      -13    1    4    4    0    0  0.41621663472E+01  0.21339524260E+02 -0.15836628130E+02  0.26897912835E+02  0.00000000000E+00 0.  1.
       14    1    4    4    0    0  0.55781297491E+02  0.52647160612E+02 -0.40012987007E+03  0.40741525449E+03  0.00000000000E+00 0. -1.
        3    1    5    5  501    0 -0.67576224656E+02 -0.20350984022E+02 -0.26519608639E+03  0.27442607917E+03  0.00000000000E+00 0. -1.
       -4    1    5    5    0  501  0.76327608184E+01 -0.53635700850E+02 -0.19819683911E+03  0.20546784292E+03  0.00000000000E+00 0.  1.
</event>
<event>
 9   1  0.7570500E-01  0.2500291E+03  0.7546771E-02  0.1113286E+00
       21   -1    0    0  503  502  0.00000000000E+00  0.00000000000E+00  0.49555514391E+03  0.49555514391E+03  0.00000000000E+00 0.  1.
       21   -1    0    0  502  503 -0.00000000000E+00 -0.00000000000E+00 -0.31537624055E+02  0.31537624055E+02  0.00000000000E+00 0.  1.
       25    2    1    2    0    0  0.00000000000E+00 -0.71054273576E-14  0.46401751985E+03  0.52709276796E+03  0.25002905293E+03 0.  0.
       24    2    3    3    0    0  0.77731763231E+02  0.31992045009E+02  0.38147818847E+03  0.39860695908E+03  0.79348481982E+02 0.  0.
      -24    2    3    3    0    0 -0.77731763231E+02 -0.31992045009E+02  0.82539331385E+02  0.12848580888E+03  0.51284928582E+02 0.  0.
      -13    1    4    4    0    0  0.57463244441E+02 -0.13646746233E+02  0.27108647793E+03  0.27744573643E+03  0.00000000000E+00 0.  1.
       14    1    4    4    0    0  0.20268518791E+02  0.45638791242E+02  0.11039171054E+03  0.12116122265E+03  0.00000000000E+00 0. -1.
        1    1    5    5  501    0 -0.15567462494E+02 -0.30030162572E+02  0.16045528988E+02  0.37438156380E+02  0.00000000000E+00 0. -1.
       -2    1    5    5    0  501 -0.62164300738E+02 -0.19618824367E+01  0.66493802397E+02  0.91047652502E+02  0.00000000000E+00 0.  1.
</event>
<event>
 8   1  0.7570500E-01  0.2498335E+03  0.7546771E-02  0.1113410E+00
       21   -1    0    0  503  502  0.00000000000E+00  0.00000000000E+00  0.15866833273E+02  0.15866833273E+02  0.00000000000E+00 0. -1.
       21   -1    0    0  502  503 -0.00000000000E+00 -0.00000000000E+00 -0.98344763858E+03  0.98344763858E+03  0.00000000000E+00 0. -1.
       24    2    1    2    0    0 -0.53870631413E+02  0.62949641838E+02 -0.27834145497E+03  0.30070512445E+03  0.78005794539E+02 0.  0.
      -24    2    1    2    0    0  0.53870631413E+02 -0.62949641838E+02 -0.68923935034E+03  0.69860934740E+03  0.78354552419E+02 0.  0.
      -13    1    3    3    0    0 -0.50087109015E+02  0.25854316553E+02 -0.24257161240E+03  0.24903443801E+03  0.00000000000E+00 0.  1.
       14    1    3    3    0    0 -0.37835223986E+01  0.37095325286E+02 -0.35769842568E+02  0.51670686440E+02  0.00000000000E+00 0. -1.
        3    1    4    4  501    0 -0.25637550257E+01 -0.54050977639E+02 -0.41251517828E+03  0.41604909967E+03  0.00000000000E+00 0. -1.
       -4    1    4    4    0  501  0.56434386439E+02 -0.88986641991E+01 -0.27672417206E+03  0.28256024773E+03  0.00000000000E+00 0.  1.
</event>
<event>
 9   1  0.7570500E-01  0.2499975E+03  0.7546771E-02  0.1113306E+00
       21   -1    0    0  503  502  0.00000000000E+00  0.00000000000E+00  0.53095654206E+02  0.53095654206E+02  0.00000000000E+00 0. -1.
       21   -1    0    0  502  503 -0.00000000000E+00 -0.00000000000E+00 -0.29427432387E+03  0.29427432387E+03  0.00000000000E+00 0. -1.
       25    2    1    2    0    0  0.71054273576E-14  0.00000000000E+00 -0.24117866967E+03  0.34736997808E+03  0.24999750192E+03 0.  0.
       24    2    3    3    0    0  0.59916252138E+02  0.74219144251E+02 -0.11374005800E+03  0.16908287345E+03  0.80955411543E+02 0.  0.
      -24    2    3    3    0    0 -0.59916252138E+02 -0.74219144251E+02 -0.12743861167E+03  0.17828710463E+03  0.80294789920E+02 0.  0.
      -13    1    4    4    0    0 -0.10317787969E+02  0.49629514360E+02 -0.45426309006E+02  0.68066842105E+02  0.00000000000E+00 0.  1.
       14    1    4    4    0    0  0.70234040108E+02  0.24589629891E+02 -0.68313748990E+02  0.10101603135E+03  0.00000000000E+00 0. -1.
        1    1    5    5  501    0 -0.66474851158E+02 -0.26930770910E+02 -0.10050584022E+03  0.12347305850E+03  0.00000000000E+00 0. -1.
       -2    1    5    5    0  501  0.65585990198E+01 -0.47288373341E+02 -0.26932771452E+02  0.54814046124E+02  0.00000000000E+00 0.  1.
</event>
<event>
 8   1  0.7570500E-01  0.2503170E+03  0.7546771E-02  0.1113105E+00
       21   -1    0    0  503  502  0.00000000000E+00  0.00000000000E+00  0.11974472579E+03  0.11974472579E+03  0.00000000000E+00 0. -1.
       21   -1    0    0  502  503 -0.00000000000E+00 -0.00000000000E+00 -0.13081701084E+03  0.13081701084E+03  0.00000000000E+00 0. -1.
       24    2    1    2    0    0 -0.54479796229E+02 -0.54572877723E+01 -0.84544754192E+02  0.12951408134E+03  0.81414075052E+02 0.  0.
      -24    2    1    2    0    0  0.54479796229E+02  0.54572877723E+01  0.73472469148E+02  0.12104765529E+03  0.79098046382E+02 0.  0.
      -13    1    3    3    0    0 -0.45641644931E+02 -0.39842010083E+02 -0.65510588570E+02  0.89231063730E+02  0.00000000000E+00 0.  1.
       14    1    3    3    0    0 -0.88381512972E+01  0.34384722311E+02 -0.19034165622E+02  0.40283017609E+02  0.00000000000E+00 0. -1.
        3    1    4    4  501    0  0.13354780255E+02 -0.19856292136E+02 -0.89266214282E+01  0.25540302722E+02  0.00000000000E+00 0. -1.
       -4    1    4    4    0  501  0.41125015974E+02  0.25313579908E+02  0.82399090576E+02  0.95507352567E+02  0.00000000000E+00 0.  1.
</event>
<event>
 9   1  0.7570500E-01  0.2499968E+03  0.7546771E-02  0.1113307E+00
       21   -1    0    0  503  502  0.00000000000E+00  0.00000000000E+00  0.18499939520E+02  0.18499939520E+02  0.00000000000E+00 0.  1.
       21   -1    0    0  502  503 -0.00000000000E+00 -0.00000000000E+00 -0.84457587771E+03  0.84457587771E+03  0.00000000000E+00 0.  1.
       25    2    1    2    0    0  0.00000000000E+00  0.00000000000E+00 -0.82607593819E+03  0.86307581723E+03  0.24999682124E+03 0.  0.
       24    2    3    3    0    0  0.72852135402E+02 -0.26867346594E+02 -0.60697286843E+03  0.61684714930E+03  0.77814231593E+02 0.  0.
      -24    2    3    3    0    0 -0.72852135402E+02  0.26867346594E+02 -0.21910306975E+03  0.24622866793E+03  0.81197991285E+02 0.  0.
      -13    1    4    4    0    0  0.31676312579E+02  0.21289370538E+02 -0.12413021515E+03  0.12986506994E+03  0.00000000000E+00 0.  1.
       14    1    4    4    0    0  0.41175822823E+02 -0.48156717132E+02 -0.48284265329E+03  0.48698207936E+03  0.00000000000E+00 0. -1.
        1    1    5    5  501    0 -0.59038328758E+02  0.13794967127E+02 -0.21897115612E+03  0.22720957857E+03  0.00000000000E+00 0. -1.
       -2    1    5    5    0  501 -0.13813806644E+02  0.13072379467E+02 -0.13191363474E+00  0.19019089361E+02  0.00000000000E+00 0.  1.
</event>
<event>
 9   1  0.7570500E-01  0.2500014E+03  0.7546771E-02  0.1113304E+00
       21   -1    0    0  503  502  0.00000000000E+00  0.00000000000E+00  0.48660474995E+03  0.48660474995E+03  0.00000000000E+00 0.  1.
       21   -1    0    0  502  503 -0.00000000000E+00 -0.00000000000E+00 -0.32110616963E+02  0.32110616963E+02  0.00000000000E+00 0.  1.
       25    2    1    2    0    0  0.00000000000E+00 -0.14210854715E-13  0.45449413298E+03  0.51871536691E+03  0.25000142990E+03 0.  0.
       24    2    3    3    0    0 -0.42963833819E+02  0.80000398103E+02  0.30632243450E+03  0.32713338494E+03  0.70262813424E+02 0.  0.
      -24    2    3    3    0    0  0.42963833819E+02 -0.80000398103E+02  0.14817169848E+03  0.19158198197E+03  0.80640243495E+02 0.  0.
      -13    1    4    4    0    0 -0.17727375802E+02  0.79218109874E+02  0.27592067602E+03  0.28761430465E+03  0.00000000000E+00 0.  1.
       14    1    4    4    0    0 -0.25236458018E+02  0.78228822959E+00  0.30401758486E+02  0.39519080293E+02  0.00000000000E+00 0. -1.
        3    1    5    5  501    0  0.40205073296E+02  0.10261416074E+01  0.44667343207E+02  0.60105510849E+02  0.00000000000E+00 0. -1.
       -4    1    5    5    0  501  0.27587605235E+01 -0.81026539711E+02  0.10350435527E+03  0.13147647112E+03  0.00000000000E+00 0.  1.
</event>
<event>
 9   1  0.7570500E-01  0.2500147E+03  0.7546771E-02  0.1113296E+00
       21   -1    0    0  503  502  0.00000000000E+00  0.00000000000E+00  0.35406320199E+03  0.35406320199E+03  0.00000000000E+00 0. -1.
       21   -1    0    0  502  503 -0.00000000000E+00 -0.00000000000E+00 -0.44135715934E+02  0.44135715934E+02  0.00000000000E+00 0. -1.
       25    2    1    2    0    0  0.00000000000E+00  0.71054273576E-14  0.30992748605E+03  0.39819891792E+03  0.25001466281E+03 0.  0.
       24    2    3    3    0    0 -0.81611186881E+02 -0.49024576087E+02  0.13067341270E+03  0.18065183823E+03  0.80596221903E+02 0.  0.
      -24    2    3    3    0    0  0.81611186881E+02  0.49024576087E+02  0.17925407335E+03  0.21754707969E+03  0.78300154425E+02 0.  0.
      -13    1    4    4    0    0 -0.62400561049E+02  0.61606887288E+01  0.45976115193E+02  0.77753374673E+02  0.00000000000E+00 0.  1.
       14    1    4    4    0    0 -0.19210625832E+02 -0.55185264816E+02  0.84697297507E+02  0.10289846356E+03  0.00000000000E+00 0. -1.
        1    1    5    5  501    0  0.46187801105E+02  0.10331097647E+02  0.22804486888E+02  0.52536550817E+02  0.00000000000E+00 0. -1.
       -2    1    5    5    0  501  0.35423385776E+02  0.38693478440E+02  0.15644958647E+03  0.16501052887E+03  0.00000000000E+00 0.  1.
</event>
<event>
 9   1  0.7570500E-01  0.2500104E+03  0.7546771E-02  0.1113298E+00
       21   -1    0    0  503  502  0.00000000000E+00  0.00000000000E+00  0.11685285822E+02  0.11685285822E+02  0.00000000000E+00 0. -1.
       21   -1    0    0  502  503 -0.00000000000E+00 -0.00000000000E+00 -0.13372631522E+04  0.13372631522E+04  0.00000000000E+00 0. -1.
       25    2    1    2    0    0 -0.14210854715E-13  0.14210854715E-13 -0.13255778664E+04  0.13489484380E+04  0.25001041701E+03 0.  0.
       24    2    3    3    0    0 -0.62747384482E+02 -0.71691329400E+02 -0.71181057916E+03  0.72259257189E+03  0.79930240645E+02 0.  0.
      -24    2    3    3    0    0  0.62747384482E+02  0.71691329400E+02 -0.61376728724E+03  0.62635586616E+03  0.80836298870E+02 0.  0.
      -13    1    4    4    0    0 -0.12670871364E+02 -0.73173762250E+02 -0.42551438638E+03  0.43194611178E+03  0.00000000000E+00 0.  1.
       14    1    4    4    0    0 -0.50076513119E+02  0.14824328501E+01 -0.28629619278E+03  0.29064646011E+03  0.00000000000E+00 0. -1.
        1    1    5    5  501    0  0.23200386009E+02  0.48597226770E+02 -0.13411994921E+03  0.14452719169E+03  0.00000000000E+00 0. -1.
       -2    1    5    5    0  501  0.39546998473E+02  0.23094102631E+02 -0.47964733803E+03  0.48182867447E+03  0.00000000000E+00 0.  1.
</event>
<event>
 9   1  0.7570500E-01  0.2499995E+03  0.7546771E-02  0.1113305E+00
       21   -1    0    0  503  502  0.00000000000E+00  0.00000000000E+00  0.94078003590E+02  0.94078003590E+02  0.00000000000E+00 0.  1.
       21   -1    0    0  502  503 -0.00000000000E+00 -0.00000000000E+00 -0.16608487155E+03  0.16608487155E+03  0.00000000000E+00 0.  1.
       25    2    1    2    0    0  0.14210854715E-13 -0.71054273576E-14 -0.72006867960E+02  0.26016287514E+03  0.24999946513E+03 0.  0.
       24    2    3    3    0    0  0.85987212699E+02 -0.35035071521E+02 -0.14067552796E+02  0.12371427927E+03  0.80536140139E+02 0.  0.
      -24    2    3    3    0    0 -0.85987212699E+02  0.35035071521E+02 -0.57939315164E+02  0.13644859587E+03  0.81486183430E+02 0.  0.
      -13    1    4    4    0    0  0.41173106545E+02  0.24820593356E+02 -0.74398136389E+01  0.48648097436E+02  0.00000000000E+00 0.  1.
       14    1    4    4    0    0  0.44814106154E+02 -0.59855664877E+02 -0.66277391576E+01  0.75066181830E+02  0.00000000000E+00 0. -1.
        3    1    5    5  501    0 -0.57324462053E+02  0.61819095724E+02 -0.39574730090E+02  0.93133526763E+02  0.00000000000E+00 0. -1.
       -4    1    5    5    0  501 -0.28662750646E+02 -0.26784024203E+02 -0.18364585074E+02  0.43315069110E+02  0.00000000000E+00 0.  1.
</event>
<event>
 9   1  0.7570500E-01  0.2499699E+03  0.7546771E-02  0.1113324E+00
       21   -1    0    0  503  502  0.00000000000E+00  0.00000000000E+00  0.15046441922E+02  0.15046441922E+02  0.00000000000E+00 0. -1.
       21   -1    0    0  502  503 -0.00000000000E+00 -0.00000000000E+00 -0.10382010888E+04  0.10382010888E+04  0.00000000000E+00 0. -1.
       25    2    1    2    0    0  0.14210854715E-13 -0.71054273576E-14 -0.10231546469E+04  0.10532475308E+04  0.24996985727E+03 0.  0.
       24    2    3    3    0    0  0.65015829042E+02 -0.58071787404E+02 -0.68002276621E+03  0.69021614708E+03  0.79799602752E+02 0.  0.
      -24    2    3    3    0    0 -0.65015829042E+02  0.58071787404E+02 -0.34313188070E+03  0.36303138368E+03  0.80329991070E+02 0.  0.
      -13    1    4    4    0    0 -0.16803752727E+02  0.57140148976E+00 -0.12673602914E+03  0.12784644574E+03  0.00000000000E+00 0.  1.
       14    1    4    4    0    0  0.81819581769E+02 -0.58643188894E+02 -0.55328673707E+03  0.56236970134E+03  0.00000000000E+00 0. -1.
        1    1    5    5  501    0 -0.37501292386E+02 -0.13931601450E+02 -0.91630010637E+02  0.99982474959E+02  0.00000000000E+00 0. -1.
       -2    1    5    5    0  501 -0.27514536656E+02  0.72003388854E+02 -0.25150187007E+03  0.26304890872E+03  0.00000000000E+00 0.  1.
</event>
<event>
 9   1  0.7570500E-01  0.2500071E+03  0.7546771E-02  0.1113300E+00
       21   -1    0    0  503  502  0.00000000000E+00  0.00000000000E+00  0.21663433489E+02  0.21663433489E+02  0.00000000000E+00 0. -1.
       21   -1    0    0  502  503 -0.00000000000E+00 -0.00000000000E+00 -0.72130223154E+03  0.72130223154E+03  0.00000000000E+00 0. -1.
       25    2    1    2    0    0  0.00000000000E+00  0.35527136788E-14 -0.69963879805E+03  0.74296566503E+03  0.25000706325E+03 0.  0.
       24    2    3    3    0    0  0.61801158364E+02 -0.19149340413E+02 -0.15338636120E+03  0.18538277007E+03  0.81567856550E+02 0.  0.
      -24    2    3    3    0    0 -0.61801158364E+02  0.19149340413E+02 -0.54625243686E+03  0.55758289497E+03  0.91218855377E+02 0.  0.
      -13    1    4    4    0    0  0.22657227197E+02 -0.45595187772E+02 -0.48357808656E+02  0.70219290442E+02  0.00000000000E+00 0.  1.
       14    1    4    4    0    0  0.39143931167E+02  0.26445847359E+02 -0.10502855254E+03  0.11516347962E+03  0.00000000000E+00 0. -1.
        1    1    5    5  501    0  0.12374629211E+02  0.31458353284E+02 -0.11662562734E+03  0.12142609436E+03  0.00000000000E+00 0. -1.
       -2    1    5    5    0  501 -0.74175787575E+02 -0.12309012870E+02 -0.42962680952E+03  0.43615680061E+03  0.00000000000E+00 0.  1.
</event>
<event>
 9   1  0.7570500E-01  0.2499982E+03  0.7546771E-02  0.1113306E+00
       21   -1    0    0  503  502  0.00000000000E+00  0.00000000000E+00  0.14420181765E+03  0.14420181765E+03  0.00000000000E+00 0. -1.
       21   -1    0    0  502  503 -0.00000000000E+00 -0.00000000000E+00 -0.10835354174E+03  0.10835354174E+03  0.00000000000E+00 0. -1.
       25    2    1    2    0    0  0.00000000000E+00  0.00000000000E+00  0.35848275915E+02  0.25255535939E+03  0.24999822133E+03 0.  0.
       24    2    3    3    0    0  0.61558022491E+02  0.55396728785E+02 -0.28791916135E+02  0.11892464444E+03  0.80348670978E+02 0.  0.
      -24    2    3    3    0    0 -0.61558022491E+02 -0.55396728785E+02  0.64640192050E+02  0.13363071495E+03  0.82587080444E+02 0.  0.
      -13    1    4    4    0    0  0.66077233516E+02  0.49329396341E+02  0.66092890354E+01  0.82724076507E+02  0.00000000000E+00 0.  1.
       14    1    4    4    0    0 -0.45192110250E+01  0.60673324439E+01 -0.35401205170E+02  0.36200567935E+02  0.00000000000E+00 0. -1.
        3    1    5    5  501    0 -0.18025415205E+02 -0.44908501408E+02  0.73485168067E+02  0.87987266225E+02  0.00000000000E+00 0. -1.
       -4    1    5    5    0  501 -0.43532607286E+02 -0.10488227377E+02 -0.88449760163E+01  0.45643448723E+02  0.00000000000E+00 0.  1.
</event>
<event>
 9   1  0.7570500E-01  0.2499937E+03  0.7546771E-02  0.1113309E+00
       21   -1    0    0  503  502  0.00000000000E+00  0.00000000000E+00  0.33732083461E+03  0.33732083461E+03  0.00000000000E+00 0.  1.
       21   -1    0    0  502  503 -0.00000000000E+00 -0.00000000000E+00 -0.46318548861E+02  0.46318548861E+02  0.00000000000E+00 0.  1.
       25    2    1    2    0    0  0.17763568394E-14 -0.28421709430E-13  0.29100228575E+03  0.38363938347E+03  0.24999369240E+03 0.  0.
       24    2    3    3    0    0 -0.47708234634E+01 -0.95056261680E+02  0.15873441884E+03  0.20200101706E+03  0.80928002112E+02 0.  0.
      -24    2    3    3    0    0  0.47708234634E+01  0.95056261680E+02  0.13226786691E+03  0.18163836642E+03  0.80244961814E+02 0.  0.
      -13    1    4    4    0    0  0.36456631006E+02 -0.34962843732E+02  0.49766668306E+02  0.70909855877E+02  0.00000000000E+00 0.  1.
       14    1    4    4    0    0 -0.41227454470E+02 -0.60093417948E+02  0.10896775054E+03  0.13109116118E+03  0.00000000000E+00 0. -1.
        1    1    5    5  501    0 -0.46374513789E+00  0.53323967736E+02  0.12599881103E+02  0.54794320859E+02  0.00000000000E+00 0. -1.
       -2    1    5    5    0  501  0.52345686013E+01  0.41732293945E+02  0.11966798581E+03  0.12684404556E+03  0.00000000000E+00 0.  1.
</event>
<event>
 9   1  0.7570500E-01  0.2499974E+03  0.7546771E-02  0.1113306E+00
       21   -1    0    0  503  502  0.00000000000E+00  0.00000000000E+00  0.34486257535E+03  0.34486257535E+03  0.00000000000E+00 0.  1.
       21   -1    0    0  502  503 -0.00000000000E+00 -0.00000000000E+00 -0.45306966498E+02  0.45306966498E+02  0.00000000000E+00 0.  1.
       25    2    1    2    0    0  0.00000000000E+00  0.13322676296E-14  0.29955560885E+03  0.39016954184E+03  0.24999741717E+03 0.  0.
       24    2    3    3    0    0  0.92840593598E+02 -0.25295372813E+01  0.17601666388E+03  0.21491402292E+03  0.81119645611E+02 0.  0.
      -24    2    3    3    0    0 -0.92840593598E+02  0.25295372813E+01  0.12353894497E+03  0.17525551893E+03  0.82624763917E+02 0.  0.
      -13    1    4    4    0    0  0.47098835442E+02 -0.37527054674E+01  0.18257763840E+02  0.50653025958E+02  0.00000000000E+00 0.  1.
       14    1    4    4    0    0  0.45741758156E+02  0.12231681861E+01  0.15775890004E+03  0.16426099696E+03  0.00000000000E+00 0. -1.
        1    1    5    5  501    0 -0.65900847564E+02 -0.29376688559E+02  0.41589727706E+02  0.83280351770E+02  0.00000000000E+00 0. -1.
       -2    1    5    5    0  501 -0.26939746033E+02  0.31906225840E+02  0.81949217263E+02  0.91975167158E+02  0.00000000000E+00 0.  1.
</event>
<event>
 9   1  0.7570500E-01  0.2500054E+03  0.7546771E-02  0.1113301E+00
       21   -1    0    0  503  502  0.00000000000E+00  0.00000000000E+00  0.17096475843E+03  0.17096475843E+03  0.00000000000E+00 0. -1.
       21   -1    0    0  502  503 -0.00000000000E+00 -0.00000000000E+00 -0.91397051333E+02  0.91397051333E+02  0.00000000000E+00 0. -1.
       25    2    1    2    0    0 -0.28421709430E-13  0.00000000000E+00  0.79567707094E+02  0.26236180976E+03  0.25000539836E+03 0.  0.
       24    2    3    3    0    0  0.85633271705E+02  0.20517226697E+02 -0.48135740545E+01  0.11677381336E+03  0.76543707630E+02 0.  0.
      -24    2    3    3    0    0 -0.85633271705E+02 -0.20517226697E+02  0.84381281149E+02  0.14558799640E+03  0.79508806260E+02 0.  0.
      -13    1    4    4    0    0  0.13974178603E+02 -0.11029841951E+02 -0.29692297098E+02  0.34620334892E+02  0.00000000000E+00 0.  1.
       14    1    4    4    0    0  0.71659093102E+02  0.31547068648E+02  0.24878723043E+02  0.82153478470E+02  0.00000000000E+00 0. -1.
        3    1    5    5  501    0 -0.74337271367E+02  0.14643387407E+02  0.33809455784E+02  0.82967089918E+02  0.00000000000E+00 0. -1.
       -4    1    5    5    0  501 -0.11296000337E+02 -0.35160614103E+02  0.50571825364E+02  0.62620906480E+02  0.00000000000E+00 0.  1.
</event>
<event>
 9   1  0.7570500E-01  0.2500010E+03  0.7546771E-02  0.1113304E+00
       21   -1    0    0  503  502  0.00000000000E+00  0.00000000000E+00  0.55681412023E+03  0.55681412023E+03  0.00000000000E+00 0. -1.
       21   -1    0    0  502  503 -0.00000000000E+00 -0.00000000000E+00 -0.28061659703E+02  0.28061659703E+02  0.00000000000E+00 0. -1.
       25    2    1    2    0    0 -0.35527136788E-14  0.14210854715E-13  0.52875246052E+03  0.58487577993E+03  0.25000102688E+03 0.  0.
       24    2    3    3    0    0 -0.39085684138E+01  0.72522117827E+02  0.41250657129E+03  0.42645369093E+03  0.80164485066E+02 0.  0.
      -24    2    3    3    0    0  0.39085684138E+01 -0.72522117827E+02  0.11624588923E+03  0.15842208900E+03  0.79433727340E+02 0.  0.
      -13    1    4    4    0    0 -0.15022011989E+02 -0.12183958066E+02  0.12616999294E+03  0.12764394540E+03  0.00000000000E+00 0.  1.
       14    1    4    4    0    0  0.11113443575E+02  0.84706075893E+02  0.28633657835E+03  0.29880974553E+03  0.00000000000E+00 0. -1.
        1    1    5    5  501    0 -0.28726135401E+02 -0.66056002814E+02  0.63309453761E+02  0.95899287267E+02  0.00000000000E+00 0. -1.
       -2    1    5    5    0  501  0.32634703814E+02 -0.64661150131E+01  0.52936435467E+02  0.62522801732E+02  0.00000000000E+00 0.  1.
</event>
<event>
 9   1  0.7570500E-01  0.2499981E+03  0.7546771E-02  0.1113306E+00
       21   -1    0    0  503  502  0.00000000000E+00  0.00000000000E+00  0.15552368985E+03  0.15552368985E+03  0.00000000000E+00 0.  1.
       21   -1    0    0  502  503 -0.00000000000E+00 -0.00000000000E+00 -0.10046550302E+03  0.10046550302E+03  0.00000000000E+00 0.  1.
       25    2    1    2    0    0  0.71054273576E-14  0.00000000000E+00  0.55058186827E+02  0.25598919288E+03  0.24999812586E+03 0.  0.
       24    2    3    3    0    0 -0.24477983360E+02 -0.88334615596E+02  0.51253025061E+02  0.13422783581E+03  0.83594637064E+02 0.  0.
      -24    2    3    3    0    0  0.24477983360E+02  0.88334615596E+02  0.38051617657E+01  0.12176135707E+03  0.80057309704E+02 0.  0.
      -13    1    4    4    0    0 -0.43508079167E+01 -0.88352180042E+02  0.10892805632E+02  0.89127383347E+02  0.00000000000E+00 0.  1.
       14    1    4    4    0    0 -0.20127175443E+02  0.17564445674E-01  0.40360219429E+02  0.45100452461E+02  0.00000000000E+00 0. -1.
        3    1    5    5  501    0 -0.12148712514E+02 -0.73144662954E+01 -0.11428460365E+02  0.18212697199E+02  0.00000000000E+00 0. -1.
       -4    1    5    5    0  501  0.36626695874E+02  0.95649081892E+02  0.15233622131E+02  0.10354865987E+03  0.00000000000E+00 0.  1.
</event>
<event>
 9   1  0.7570500E-01  0.2499948E+03  0.7546771E-02  0.1113308E+00
       21   -1    0    0  503  502  0.00000000000E+00  0.00000000000E+00  0.38631006045E+02  0.38631006045E+02  0.00000000000E+00 0. -1.
       21   -1    0    0  502  503 -0.00000000000E+00 -0.00000000000E+00 -0.40445108128E+03  0.40445108128E+03  0.00000000000E+00 0. -1.
       25    2    1    2    0    0 -0.28421709430E-13  0.00000000000E+00 -0.36582007524E+03  0.44308208733E+03  0.24999481727E+03 0.  0.
       24    2    3    3    0    0  0.77058577437E+02  0.42464271499E+02 -0.24768807640E+03  0.27456200825E+03  0.79332682257E+02 0.  0.
      -24    2    3    3    0    0 -0.77058577437E+02 -0.42464271499E+02 -0.11813199884E+03  0.16852007908E+03  0.81869464342E+02 0.  0.
      -13    1    4    4    0    0  0.47179727707E+01 -0.10581411197E+02 -0.10754753722E+03  0.10816976607E+03  0.00000000000E+00 0.  1.
       14    1    4    4    0    0  0.72340604666E+02  0.53045682697E+02 -0.14014053918E+03  0.16639224218E+03  0.00000000000E+00 0. -1.
        1    1    5    5  501    0 -0.59081442362E+01  0.16416304339E+02  0.13577636245E+01  0.17499849672E+02  0.00000000000E+00 0. -1.
       -2    1    5    5    0  501 -0.71150433201E+02 -0.58880575839E+02 -0.11948976246E+03  0.15102022940E+03  0.00000000000E+00 0.  1.
</event>
<event>
 9   1  0.7570500E-01  0.2500001E+03  0.7546771E-02  0.1113305E+00
       21   -1    0    0  503  502  0.00000000000E+00  0.00000000000E+00  0.16190060546E+03  0.16190060546E+03  0.00000000000E+00 0.  1.
       21   -1    0    0  502  503 -0.00000000000E+00 -0.00000000000E+00 -0.96509872141E+02  0.96509872141E+02  0.00000000000E+00 0.  1.
       25    2    1    2    0    0  0.00000000000E+00 -0.14210854715E-13  0.65390733319E+02  0.25841047760E+03  0.25000005386E+03 0.  0.
       24    2    3    3    0    0 -0.10174279979E+02  0.77330506221E+02  0.89526487210E+02  0.14344767058E+03  0.80490490847E+02 0.  0.
      -24    2    3    3    0    0  0.10174279979E+02 -0.77330506221E+02 -0.24135753891E+02  0.11496280702E+03  0.80934474836E+02 0.  0.
      -13    1    4    4    0    0  0.14793841223E+01  0.23507581713E+02  0.84987203244E+02  0.88190814095E+02  0.00000000000E+00 0.  1.
       14    1    4    4    0    0 -0.11653664101E+02  0.53822924508E+02  0.45392839656E+01  0.55256856484E+02  0.00000000000E+00 0. -1.
        3    1    5    5  501    0  0.70634614184E+00 -0.67869524002E+02 -0.51033570597E+02  0.84918764364E+02  0.00000000000E+00 0. -1.
       -4    1    5    5    0  501  0.94679338371E+01 -0.94609822184E+01  0.26897816706E+02  0.30044042658E+02  0.00000000000E+00 0.  1.
</event>
<event>
 9   1  0.7570500E-01  0.2499606E+03  0.7546771E-02  0.1113330E+00
       21   -1    0    0  503  502  0.00000000000E+00  0.00000000000E+00  0.91120167121E+02  0.91120167121E+02  0.00000000000E+00 0.  1.
       21   -1    0    0  502  503 -0.00000000000E+00 -0.00000000000E+00 -0.17142280568E+03  0.17142280568E+03  0.00000000000E+00 0.  1.
       25    2    1    2    0    0 -0.14210854715E-13  0.17763568394E-14 -0.80302638560E+02  0.26254297280E+03  0.24996059451E+03 0.  0.
       24    2    3    3    0    0  0.91832694637E+02 -0.12748724267E+01 -0.88136593000E+00  0.12218492118E+03  0.80582312288E+02 0.  0.
      -24    2    3    3    0    0 -0.91832694637E+02  0.12748724267E+01 -0.79421272630E+02  0.14035805162E+03  0.70411469273E+02 0.  0.
      -13    1    4    4    0    0  0.18719669741E+02  0.16532679332E+02  0.31553910059E+02  0.40241828502E+02  0.00000000000E+00 0.  1.
       14    1    4    4    0    0  0.73113024896E+02 -0.17807551759E+02 -0.32435275989E+02  0.81943092678E+02  0.00000000000E+00 0. -1.
        1    1    5    5  501    0 -0.43277390330E+02 -0.11287248785E+02  0.19548404228E+01  0.44767799812E+02  0.00000000000E+00 0. -1.
       -2    1    5    5    0  501 -0.48555304307E+02  0.12562121212E+02 -0.81376113053E+02  0.95590251811E+02  0.00000000000E+00 0.  1.
</event>
<event>
 9   1  0.7570500E-01  0.2500036E+03  0.7546771E-02  0.1113303E+00
       21   -1    0    0  503  502  0.00000000000E+00  0.00000000000E+00  0.13673789406E+03  0.13673789406E+03  0.00000000000E+00 0. -1.
       21   -1    0    0  502  503 -0.00000000000E+00 -0.00000000000E+00 -0.11427299101E+03  0.11427299101E+03  0.00000000000E+00 0. -1.
       25    2    1    2    0    0  0.00000000000E+00  0.00000000000E+00  0.22464903042E+02  0.25101088507E+03  0.25000358509E+03 0.  0.
       24    2    3    3    0    0 -0.95213787072E+02  0.12636075920E+02  0.17605652213E+02  0.12632720495E+03  0.80145293414E+02 0.  0.
      -24    2    3    3    0    0  0.95213787072E+02 -0.12636075920E+02  0.48592508283E+01  0.12468368013E+03  0.79354093202E+02 0.  0.
      -13    1    4    4    0    0 -0.61273684970E+02  0.45509521175E+02  0.20367247702E+02  0.78996238938E+02  0.00000000000E+00 0.  1.
       14    1    4    4    0    0 -0.33940102102E+02 -0.32873445255E+02 -0.27615954887E+01  0.47330966008E+02  0.00000000000E+00 0. -1.
        3    1    5    5  501    0  0.51820614094E+02  0.15767705314E+02  0.35198891129E+02  0.64598440482E+02  0.00000000000E+00 0. -1.
       -4    1    5    5    0  501  0.43393172978E+02 -0.28403781234E+02 -0.30339640301E+02  0.60085239644E+02  0.00000000000E+00 0.  1.
</event>
<event>
 9   1  0.7570500E-01  0.2499895E+03  0.7546771E-02  0.1113311E+00
       21   -1    0    0  503  502  0.00000000000E+00  0.00000000000E+00  0.24008034001E+03  0.24008034001E+03  0.00000000000E+00 0. -1.
       21   -1    0    0  502  503 -0.00000000000E+00 -0.00000000000E+00 -0.65076916397E+02  0.65076916397E+02  0.00000000000E+00 0. -1.
       25    2    1    2    0    0 -0.14210854715E-13 -0.17763568394E-14  0.17500342361E+03  0.30515725641E+03  0.24998950550E+03 0.  0.
       24    2    3    3    0    0  0.61060160796E+02 -0.10294476558E+02 -0.96478649565E+01  0.10070353065E+03  0.78827662042E+02 0.  0.
      -24    2    3    3    0    0 -0.61060160796E+02  0.10294476558E+02  0.18465128857E+03  0.20445372576E+03  0.62216622553E+02 0.  0.
      -13    1    4    4    0    0  0.14069567917E+02  0.24038760124E+02 -0.28184751920E+02  0.39625685742E+02  0.00000000000E+00 0.  1.
       14    1    4    4    0    0  0.46990592880E+02 -0.34333236683E+02  0.18536886964E+02  0.61077844908E+02  0.00000000000E+00 0. -1.
        3    1    5    5  501    0 -0.44623115302E+02  0.53824510293E+01  0.44474643422E+02  0.63231219393E+02  0.00000000000E+00 0. -1.
       -4    1    5    5    0  501 -0.16437045494E+02  0.49120255292E+01  0.14017664515E+03  0.14122250636E+03  0.00000000000E+00 0.  1.
</event>
<event>
 9   1  0.7570500E-01  0.2500016E+03  0.7546771E-02  0.1113304E+00
       21   -1    0    0  503  502  0.00000000000E+00  0.00000000000E+00  0.42674754650E+02  0.42674754650E+02  0.00000000000E+00 0. -1.
       21   -1    0    0  502  503 -0.00000000000E+00 -0.00000000000E+00 -0.36614619699E+03  0.36614619699E+03  0.00000000000E+00 0. -1.
       25    2    1    2    0    0  0.00000000000E+00  0.35527136788E-14 -0.32347144234E+03  0.40882095164E+03  0.25000159297E+03 0.  0.
       24    2    3    3    0    0  0.51067715396E+02  0.25830439437E+02 -0.39904338115E+02  0.10737544308E+03  0.81621115028E+02 0.  0.
      -24    2    3    3    0    0 -0.51067715396E+02 -0.25830439437E+02 -0.28356710423E+03  0.30144550856E+03  0.84758296800E+02 0.  0.
      -13    1    4    4    0    0  0.16916072119E+02 -0.36309362910E+01 -0.56673578173E+02  0.59255646627E+02  0.00000000000E+00 0.  1.
       14    1    4    4    0    0  0.34151643277E+02  0.29461375728E+02  0.16769240058E+02  0.48119796450E+02  0.00000000000E+00 0. -1.
        1    1    5    5  501    0  0.20502492214E+02 -0.22755477118E+02 -0.86157488204E+02  0.91440016948E+02  0.00000000000E+00 0. -1.
       -2    1    5    5    0  501 -0.71570207609E+02 -0.30749623192E+01 -0.19740961602E+03  0.21000549161E+03  0.00000000000E+00 0.  1.
</event>
<event>
 9   1  0.7570500E-01  0.2500064E+03  0.7546771E-02  0.1113301E+00
       21   -1    0    0  503  502  0.00000000000E+00  0.00000000000E+00  0.49069568617E+02  0.49069568617E+02  0.00000000000E+00 0.  1.
       21   -1    0    0  502  503 -0.00000000000E+00 -0.00000000000E+00 -0.31844175943E+03  0.31844175943E+03  0.00000000000E+00 0.  1.
       25    2    1    2    0    0  0.35527136788E-14  0.00000000000E+00 -0.26937219082E+03  0.36751132805E+03  0.25000639804E+03 0.  0.
       24    2    3    3    0    0 -0.17191639786E+02 -0.89314474301E+02 -0.18039436920E+03  0.21717630590E+03  0.79691854070E+02 0.  0.
      -24    2    3    3    0    0  0.17191639786E+02  0.89314474301E+02 -0.88977821612E+02  0.15033502215E+03  0.80068335489E+02 0.  0.
      -13    1    4    4    0    0  0.25921711196E+02 -0.35471614997E+02 -0.11079231157E+03  0.11918517897E+03  0.00000000000E+00 0.  1.
       14    1    4    4    0    0 -0.43113350982E+02 -0.53842859303E+02 -0.69602057633E+02  0.97991126933E+02  0.00000000000E+00 0. -1.
        1    1    5    5  501    0  0.11121105734E+02 -0.68934921605E+00  0.11012735445E+02  0.15666350471E+02  0.00000000000E+00 0. -1.
       -2    1    5    5    0  501  0.60705340517E+01  0.90003823517E+02 -0.99990557057E+02  0.13466867168E+03  0.00000000000E+00 0.  1.
</event>
<event>
 9   1  0.7570500E-01  0.2500075E+03  0.7546771E-02  0.1113300E+00
       21   -1    0    0  503  502  0.00000000000E+00  0.00000000000E+00  0.29126885842E+02  0.29126885842E+02  0.00000000000E+00 0. -1.
       21   -1    0    0  502  503 -0.00000000000E+00 -0.00000000000E+00 -0.53647826428E+03  0.53647826428E+03  0.00000000000E+00 0. -1.
       25    2    1    2    0    0  0.00000000000E+00  0.14210854715E-13 -0.50735137844E+03  0.56560515013E+03  0.25000752917E+03 0.  0.
       24    2    3    3    0    0  0.24173903783E+02 -0.62436340407E+02 -0.98868633254E+02  0.14421305410E+03  0.80868560659E+02 0.  0.
      -24    2    3    3    0    0 -0.24173903783E+02  0.62436340407E+02 -0.40848274519E+03  0.42139209603E+03  0.78933334222E+02 0.  0.
      -13    1    4    4    0    0  0.22860548325E+02 -0.69978522034E+02 -0.10898938316E+03  0.13152294043E+03  0.00000000000E+00 0.  1.
       14    1    4    4    0    0  0.13133554578E+01  0.75421816279E+01  0.10120749909E+02  0.12690113672E+02  0.00000000000E+00 0. -1.
        3    1    5    5  501    0 -0.22986622135E+01  0.21109850850E+02 -0.32510610771E+03  0.32579885040E+03  0.00000000000E+00 0. -1.
       -4    1    5    5    0  501 -0.21875241570E+02  0.41326489556E+02 -0.83376637476E+02  0.95593245627E+02  0.00000000000E+00 0.  1.
</event>
<event>
 9   1  0.7570500E-01  0.2500055E+03  0.7546771E-02  0.1113301E+00
       21   -1    0    0  503  502  0.00000000000E+00  0.00000000000E+00  0.92338567228E+03  0.92338567228E+03  0.00000000000E+00 0.  1.
       21   -1    0    0  502  503 -0.00000000000E+00 -0.00000000000E+00 -0.16922170254E+02  0.16922170254E+02  0.00000000000E+00 0.  1.
       25    2    1    2    0    0  0.00000000000E+00 -0.14210854715E-13  0.90646350203E+03  0.94030784253E+03  0.25000551639E+03 0.  0.
       24    2    3    3    0    0  0.69214885816E+02 -0.64062795911E+02  0.41494863480E+03  0.43335169509E+03  0.81954742835E+02 0.  0.
      -24    2    3    3    0    0 -0.69214885816E+02  0.64062795911E+02  0.49151486722E+03  0.50695614744E+03  0.80764648777E+02 0.  0.
      -13    1    4    4    0    0 -0.17473455203E+02 -0.21275951158E+02  0.73716911696E+02  0.78690347594E+02  0.00000000000E+00 0.  1.
       14    1    4    4    0    0  0.86688341019E+02 -0.42786844752E+02  0.34123172311E+03  0.35466134750E+03  0.00000000000E+00 0. -1.
        3    1    5    5  501    0 -0.50077255003E+02  0.39420116462E+02  0.45265942350E+03  0.45712386804E+03  0.00000000000E+00 0. -1.
       -4    1    5    5    0  501 -0.19137630813E+02  0.24642679449E+02  0.38855443725E+02  0.49832279404E+02  0.00000000000E+00 0.  1.
</event>
<event>
 9   1  0.7570500E-01  0.2500005E+03  0.7546771E-02  0.1113305E+00
       21   -1    0    0  503  502  0.00000000000E+00  0.00000000000E+00  0.96618001176E+02  0.96618001176E+02  0.00000000000E+00 0.  1.
       21   -1    0    0  502  503 -0.00000000000E+00 -0.00000000000E+00 -0.16171993922E+03  0.16171993922E+03  0.00000000000E+00 0.  1.
       25    2    1    2    0    0 -0.71054273576E-14  0.00000000000E+00 -0.65101938045E+02  0.25833794040E+03  0.25000045822E+03 0.  0.
       24    2    3    3    0    0  0.63933231924E+02 -0.47226078689E+02  0.19309678844E+02  0.11482855992E+03  0.80591400430E+02 0.  0.
      -24    2    3    3    0    0 -0.63933231924E+02  0.47226078689E+02 -0.84411616890E+02  0.14350938048E+03  0.84568673673E+02 0.  0.
      -13    1    4    4    0    0  0.74251031917E+02 -0.10952724868E+02  0.17529151993E+02  0.77074308900E+02  0.00000000000E+00 0.  1.
       14    1    4    4    0    0 -0.10317799993E+02 -0.36273353821E+02  0.17805268514E+01  0.37754251019E+02  0.00000000000E+00 0. -1.
        1    1    5    5  501    0 -0.12514239354E+02  0.41626865923E+02 -0.80689600267E+02  0.91652679963E+02  0.00000000000E+00 0. -1.
       -2    1    5    5    0  501 -0.51418992571E+02  0.55992127662E+01 -0.37220166222E+01  0.51856700515E+02  0.00000000000E+00 0.  1.
</event>
<event>
 9   1  0.7570500E-01  0.2500004E+03  0.7546771E-02  0.1113305E+00
       21   -1    0    0  503  502  0.00000000000E+00  0.00000000000E+00  0.38722138464E+03  0.38722138464E+03  0.00000000000E+00 0.  1.
       21   -1    0    0  502  503 -0.00000000000E+00 -0.00000000000E+00 -0.40351716271E+02  0.40351716271E+02  0.00000000000E+00 0.  1.
       25    2    1    2    0    0  0.00000000000E+00  0.00000000000E+00  0.34686966837E+03  0.42757310091E+03  0.25000037957E+03 0.  0.
       24    2    3    3    0    0 -0.66598307704E+02 -0.59406815728E+02  0.23285436088E+03  0.26210560850E+03  0.80707448744E+02 0.  0.
      -24    2    3    3    0    0  0.66598307704E+02  0.59406815728E+02  0.11401530749E+03  0.16546749241E+03  0.80096793684E+02 0.  0.
      -13    1    4    4    0    0 -0.73608441575E+02 -0.15875212114E+02  0.13066759830E+03  0.15081195667E+03  0.00000000000E+00 0.  1.
       14    1    4    4    0    0  0.70101338703E+01 -0.43531603614E+02  0.10218676258E+03  0.11129365183E+03  0.00000000000E+00 0. -1.
        1    1    5    5  501    0  0.33770509567E+01 -0.12163415708E+02 -0.43784223752E+01  0.13361277534E+02  0.00000000000E+00 0. -1.
       -2    1    5    5    0  501  0.63221256748E+02  0.71570231436E+02  0.11839372986E+03  0.15210621488E+03  0.00000000000E+00 0.  1.
</event>
<event>
 9   1  0.7570500E-01  0.2500010E+03  0.7546771E-02  0.1113304E+00
       21   -1    0    0  503  502  0.00000000000E+00  0.00000000000E+00  0.14326224126E+03  0.14326224126E+03  0.00000000000E+00 0. -1.
       21   -1    0    0  502  503 -0.00000000000E+00 -0.00000000000E+00 -0.10906659241E+03  0.10906659241E+03  0.00000000000E+00 0. -1.
       25    2    1    2    0    0  0.00000000000E+00 -0.35527136788E-14  0.34195648851E+02  0.25232883366E+03  0.25000099579E+03 0.  0.
       24    2    3    3    0    0 -0.24457153642E+02  0.79493644233E+01  0.10965272673E+03  0.13785471096E+03  0.79491232827E+02 0.  0.
      -24    2    3    3    0    0  0.24457153642E+02 -0.79493644233E+01 -0.75457077879E+02  0.11447412270E+03  0.82153572091E+02 0.  0.
      -13    1    4    4    0    0 -0.21244536610E+02  0.42540759120E+02  0.51336224048E+02  0.69974669858E+02  0.00000000000E+00 0.  1.
       14    1    4    4    0    0 -0.32126170315E+01 -0.34591394697E+02  0.58316502682E+02  0.67880041105E+02  0.00000000000E+00 0. -1.
        3    1    5    5  501    0  0.53421043996E+02 -0.16283288921E+02 -0.46377958817E+02  0.72593859959E+02  0.00000000000E+00 0. -1.
       -4    1    5    5    0  501 -0.28963890354E+02  0.83339244976E+01 -0.29079119061E+02  0.41880262742E+02  0.00000000000E+00 0.  1.
</event>
<event>
 9   1  0.7570500E-01  0.2499981E+03  0.7546771E-02  0.1113306E+00
       21   -1    0    0  503  502  0.00000000000E+00  0.00000000000E+00  0.62447039563E+02  0.62447039563E+02  0.00000000000E+00 0.  1.
       21   -1    0    0  502  503 -0.00000000000E+00 -0.00000000000E+00 -0.25020828147E+03  0.25020828147E+03  0.00000000000E+00 0.  1.
       25    2    1    2    0    0  0.00000000000E+00  0.00000000000E+00 -0.18776124190E+03  0.31265532103E+03  0.24999813161E+03 0.  0.
       24    2    3    3    0    0  0.64317449060E+02  0.47415778159E+02 -0.29510990490E+02  0.11781893166E+03  0.81396632769E+02 0.  0.
      -24    2    3    3    0    0 -0.64317449060E+02 -0.47415778159E+02 -0.15825025141E+03  0.19483638937E+03  0.80827509412E+02 0.  0.
      -13    1    4    4    0    0  0.22955670368E+02  0.63329461309E+02 -0.59399951969E+01  0.67622976973E+02  0.00000000000E+00 0.  1.
       14    1    4    4    0    0  0.41361778692E+02 -0.15913683150E+02 -0.23570995293E+02  0.50195954688E+02  0.00000000000E+00 0. -1.
        1    1    5    5  501    0 -0.34987580475E+02  0.49896054902E+01 -0.11637660014E+03  0.12162458638E+03  0.00000000000E+00 0. -1.
       -2    1    5    5    0  501 -0.29329868585E+02 -0.52405383649E+02 -0.41873651271E+02  0.73211802992E+02  0.00000000000E+00 0.  1.
</event>
<event>
 9   1  0.7570500E-01  0.2499989E+03  0.7546771E-02  0.1113306E+00
       21   -1    0    0  503  502  0.00000000000E+00  0.00000000000E+00  0.29577348723E+02  0.29577348723E+02  0.00000000000E+00 0.  1.
       21   -1    0    0  502  503 -0.00000000000E+00 -0.00000000000E+00 -0.52827126643E+03  0.52827126643E+03  0.00000000000E+00 0.  1.
       25    2    1    2    0    0  0.00000000000E+00  0.00000000000E+00 -0.49869391771E+03  0.55784861515E+03  0.24999890774E+03 0.  0.
       24    2    3    3    0    0 -0.85915411419E+02 -0.16395555122E+01 -0.24871409213E+03  0.28163019749E+03  0.10036295361E+03 0.  0.
      -24    2    3    3    0    0  0.85915411419E+02  0.16395555122E+01 -0.24997982558E+03  0.27621841766E+03  0.80140844731E+02 0.  0.
      -13    1    4    4    0    0 -0.25339787132E+01 -0.38650570522E+02 -0.99053633140E+02  0.10635746278E+03  0.00000000000E+00 0.  1.
       14    1    4    4    0    0 -0.83381432705E+02  0.37011015009E+02 -0.14966045899E+03  0.17527273472E+03  0.00000000000E+00 0. -1.
        3    1    5    5  501    0  0.63633944840E+02 -0.23247555768E+02 -0.89229453130E+02  0.11203402649E+03  0.00000000000E+00 0. -1.
       -4    1    5    5    0  501  0.22281466578E+02  0.24887111280E+02 -0.16075037245E+03  0.16418439117E+03  0.00000000000E+00 0.  1.
</event>
<event>
 8   1  0.7570500E-01  0.2503016E+03  0.7546771E-02  0.1113114E+00
       21   -1    0    0  503  502  0.00000000000E+00  0.00000000000E+00  0.27719492266E+03  0.27719492266E+03  0.00000000000E+00 0. -1.
       21   -1    0    0  502  503 -0.00000000000E+00 -0.00000000000E+00 -0.56504378155E+02  0.56504378155E+02  0.00000000000E+00 0. -1.
       24    2    1    2    0    0 -0.72662770414E+02  0.32439794847E+02  0.40719952655E+02  0.12104665123E+03  0.81620822926E+02 0.  0.
      -24    2    1    2    0    0  0.72662770414E+02 -0.32439794847E+02  0.17997059185E+03  0.21265264959E+03  0.80619581693E+02 0.  0.
      -13    1    3    3    0    0 -0.89886846037E+02  0.18388480838E+02  0.33553118180E+02  0.97691315160E+02  0.00000000000E+00 0.  1.
       14    1    3    3    0    0  0.17224075623E+02  0.14051314008E+02  0.71668344756E+01  0.23355336067E+02  0.00000000000E+00 0. -1.
        1    1    4    4  501    0  0.41592209080E+02 -0.52518222971E+02  0.15252705969E+03  0.16659105479E+03  0.00000000000E+00 0. -1.
       -2    1    4    4    0  501  0.31070561334E+02  0.20078428125E+02  0.27443532162E+02  0.46061594795E+02  0.00000000000E+00 0.  1.
</event>
<event>
 9   1  0.7570500E-01  0.2500010E+03  0.7546771E-02  0.1113304E+00
       21   -1    0    0  503  502  0.00000000000E+00  0.00000000000E+00  0.64346324678E+03  0.64346324678E+03  0.00000000000E+00 0.  1.
       21   -1    0    0  502  503 -0.00000000000E+00 -0.00000000000E+00 -0.24282853600E+02  0.24282853600E+02  0.00000000000E+00 0.  1.
       25    2    1    2    0    0  0.00000000000E+00  0.00000000000E+00  0.61918039318E+03  0.66774610038E+03  0.25000099055E+03 0.  0.
       24    2    3    3    0    0 -0.66227295392E+02 -0.59323156653E+02  0.40263371713E+03  0.42021280809E+03  0.80991372060E+02 0.  0.
      -24    2    3    3    0    0  0.66227295392E+02  0.59323156653E+02  0.21654667605E+03  0.24753329228E+03  0.80467237494E+02 0.  0.
      -13    1    4    4    0    0 -0.69298719945E+02 -0.57995334813E+02  0.22389872053E+03  0.24144649200E+03  0.00000000000E+00 0.  1.
       14    1    4    4    0    0  0.30714245523E+01 -0.13278218399E+01  0.17873499660E+03  0.17876631609E+03  0.00000000000E+00 0. -1.
        1    1    5    5  501    0  0.31280857082E+01  0.55370481874E+02  0.11902297763E+03  0.13130934615E+03  0.00000000000E+00 0. -1.
       -2    1    5    5    0  501  0.63099209684E+02  0.39526747794E+01  0.97523698423E+02  0.11622394613E+03  0.00000000000E+00 0.  1.
</event>
<event>
 9   1  0.7570500E-01  0.2499882E+03  0.7546771E-02  0.1113312E+00
       21   -1    0    0  503  502  0.00000000000E+00  0.00000000000E+00  0.49195539475E+02  0.49195539475E+02  0.00000000000E+00 0.  1.
       21   -1    0    0  502  503 -0.00000000000E+00 -0.00000000000E+00 -0.31758022088E+03  0.31758022088E+03  0.00000000000E+00 0.  1.
       25    2    1    2    0    0 -0.71054273576E-14  0.71054273576E-14 -0.26838468140E+03  0.36677576035E+03  0.24998824206E+03 0.  0.
       24    2    3    3    0    0  0.48943102814E+02 -0.46664164315E+02 -0.33049589339E+02  0.10856277952E+03  0.78234456592E+02 0.  0.
      -24    2    3    3    0    0 -0.48943102814E+02  0.46664164315E+02 -0.23533509206E+03  0.25821298083E+03  0.81965641385E+02 0.  0.
      -13    1    4    4    0    0  0.67639610945E+02 -0.21152402953E+02 -0.16089585650E+02  0.72673350589E+02  0.00000000000E+00 0.  1.
       14    1    4    4    0    0 -0.18696508132E+02 -0.25511761363E+02 -0.16960003689E+02  0.35889428935E+02  0.00000000000E+00 0. -1.
        1    1    5    5  501    0  0.15671905646E+02  0.26570579867E+02 -0.12525818123E+03  0.12900083839E+03  0.00000000000E+00 0. -1.
       -2    1    5    5    0  501 -0.64615008460E+02  0.20093584449E+02 -0.11007691084E+03  0.12921214244E+03  0.00000000000E+00 0.  1.
</event>
<event>
 9   1  0.7570500E-01  0.2499992E+03  0.7546771E-02  0.1113305E+00
       21   -1    0    0  503  502  0.00000000000E+00  0.00000000000E+00  0.19166961544E+03  0.19166961544E+03  0.00000000000E+00 0.  1.
       21   -1    0    0  502  503 -0.00000000000E+00 -0.00000000000E+00 -0.81519937025E+02  0.81519937025E+02  0.00000000000E+00 0.  1.
       25    2    1    2    0    0  0.00000000000E+00  0.00000000000E+00  0.11014967842E+03  0.27318955247E+03  0.24999915984E+03 0.  0.
       24    2    3    3    0    0  0.91445549363E+02 -0.17844706343E+02  0.68578400302E+02  0.14093046839E+03  0.80484022575E+02 0.  0.
      -24    2    3    3    0    0 -0.91445549363E+02  0.17844706343E+02  0.41571278116E+02  0.13225908408E+03  0.84163959713E+02 0.  0.
      -13    1    4    4    0    0  0.53827169360E+02  0.52443696724E+01 -0.58506963103E+01  0.54397593898E+02  0.00000000000E+00 0.  1.
       14    1    4    4    0    0  0.37618380003E+02 -0.23089076015E+02  0.74429096613E+02  0.86532874492E+02  0.00000000000E+00 0. -1.
        3    1    5    5  501    0 -0.25106954004E+01  0.34528992051E+02  0.65635297224E+01  0.35236838761E+02  0.00000000000E+00 0. -1.
       -4    1    5    5    0  501 -0.88934853962E+02 -0.16684285709E+02  0.35007748393E+02  0.97022245318E+02  0.00000000000E+00 0.  1.
</event>
<event>
 9   1  0.7570500E-01  0.2500016E+03  0.7546771E-02  0.1113304E+00
       21   -1    0    0  503  502  0.00000000000E+00  0.00000000000E+00  0.17201604362E+03  0.17201604362E+03  0.00000000000E+00 0.  1.
       21   -1    0    0  502  503 -0.00000000000E+00 -0.00000000000E+00 -0.90835681366E+02  0.90835681366E+02  0.00000000000E+00 0.  1.
       25    2    1    2    0    0  0.00000000000E+00  0.71054273576E-14  0.81180362256E+02  0.26285172499E+03  0.25000155622E+03 0.  0.
       24    2    3    3    0    0  0.28409960206E+02  0.17746580654E+02  0.13325026754E+03  0.15894782808E+03  0.79916902399E+02 0.  0.
      -24    2    3    3    0    0 -0.28409960206E+02 -0.17746580654E+02 -0.52069905280E+02  0.10390389691E+03  0.83442661709E+02 0.  0.
      -13    1    4    4    0    0  0.43267423762E+02  0.38247237746E+02  0.11151000308E+03  0.12557627937E+03  0.00000000000E+00 0.  1.
       14    1    4    4    0    0 -0.14857463556E+02 -0.20500657092E+02  0.21740264457E+02  0.33371548708E+02  0.00000000000E+00 0. -1.
        3    1    5    5  501    0  0.14485116316E+02 -0.69261946939E+01 -0.57161000228E+02  0.59373148095E+02  0.00000000000E+00 0. -1.
       -4    1    5    5    0  501 -0.42895076522E+02 -0.10820385960E+02  0.50910949480E+01  0.44530748813E+02  0.00000000000E+00 0.  1.
</event>
<event>
 9   1  0.7570500E-01  0.2500055E+03  0.7546771E-02  0.1113301E+00
       21   -1    0    0  503  502  0.00000000000E+00  0.00000000000E+00  0.73064974316E+02  0.73064974316E+02  0.00000000000E+00 0. -1.
       21   -1    0    0  502  503 -0.00000000000E+00 -0.00000000000E+00 -0.21386013777E+03  0.21386013777E+03  0.00000000000E+00 0. -1.
       25    2    1    2    0    0  0.00000000000E+00  0.00000000000E+00 -0.14079516346E+03  0.28692511209E+03  0.25000548373E+03 0.  0.
       24    2    3    3    0    0 -0.48196891904E+02  0.81270013023E+02 -0.91437106378E+02  0.15428576923E+03  0.80719258896E+02 0.  0.
      -24    2    3    3    0    0  0.48196891904E+02 -0.81270013023E+02 -0.49358057077E+02  0.13263934286E+03  0.78925420940E+02 0.  0.
      -13    1    4    4    0    0 -0.48239573846E+02  0.42335928624E+02 -0.95581959354E+02  0.11513165634E+03  0.00000000000E+00 0.  1.
       14    1    4    4    0    0  0.42681942043E-01  0.38934084400E+02  0.41448529757E+01  0.39154112887E+02  0.00000000000E+00 0. -1.
        3    1    5    5  501    0  0.45194827642E+02 -0.95551349207E+02 -0.52015401665E+02  0.11780592002E+03  0.00000000000E+00 0. -1.
       -4    1    5    5    0  501  0.30020642625E+01  0.14281336184E+02  0.26573445881E+01  0.14833422845E+02  0.00000000000E+00 0.  1.
</event>
<event>
 9   1  0.7570500E-01  0.2500017E+03  0.7546771E-02  0.1113304E+00
       21   -1    0    0  503  502  0.00000000000E+00  0.00000000000E+00  0.17386393331E+02  0.17386393331E+02  0.00000000000E+00 0.  1.
       21   -1    0    0  502  503 -0.00000000000E+00 -0.00000000000E+00 -0.89870315964E+03  0.89870315964E+03  0.00000000000E+00 0.  1.
       25    2    1    2    0    0 -0.71054273576E-14 -0.14210854715E-13 -0.88131676631E+03  0.91608955297E+03  0.25000165297E+03 0.  0.
       24    2    3    3    0    0  0.58340029685E+02  0.72815182637E+02 -0.52391678054E+03  0.53804583328E+03  0.79365709824E+02 0.  0.
      -24    2    3    3    0    0 -0.58340029685E+02 -0.72815182637E+02 -0.35739998577E+03  0.37804371969E+03  0.80477911764E+02 0.  0.
      -13    1    4    4    0    0 -0.71039183326E+01  0.51440527703E+02 -0.27075689101E+03  0.27569165307E+03  0.00000000000E+00 0.  1.
       14    1    4    4    0    0  0.65443948017E+02  0.21374654934E+02 -0.25315988953E+03  0.26235418021E+03  0.00000000000E+00 0. -1.
        1    1    5    5  501    0 -0.13957264799E+02 -0.56607108653E+02 -0.28955793195E+03  0.29536920277E+03  0.00000000000E+00 0. -1.
       -2    1    5    5    0  501 -0.44382764885E+02 -0.16208073984E+02 -0.67842053824E+02  0.82674516922E+02  0.00000000000E+00 0.  1.
</event>
<event>
 9   1  0.7570500E-01  0.2499949E+03  0.7546771E-02  0.1113308E+00
       21   -1    0    0  503  502  0.00000000000E+00  0.00000000000E+00  0.30623758166E+03  0.30623758166E+03  0.00000000000E+00 0.  1.
       21   -1    0    0  502  503 -0.00000000000E+00 -0.00000000000E+00 -0.51020411420E+02  0.51020411420E+02  0.00000000000E+00 0.  1.
       25    2    1    2    0    0  0.35527136788E-14  0.00000000000E+00  0.25521717024E+03  0.35725799309E+03  0.24999493922E+03 0.  0.
       24    2    3    3    0    0 -0.29066557778E+02 -0.22090366383E+02  0.25528512077E+03  0.26992909019E+03  0.79739399130E+02 0.  0.
      -24    2    3    3    0    0  0.29066557778E+02  0.22090366383E+02 -0.67950526269E-01  0.87328902899E+02  0.79331479227E+02 0.  0.
      -13    1    4    4    0    0 -0.43043977349E+02 -0.24078692881E+02  0.79354399790E+02  0.93432800466E+02  0.00000000000E+00 0.  1.
       14    1    4    4    0    0  0.13977419571E+02  0.19883264983E+01  0.17593072098E+03  0.17649628972E+03  0.00000000000E+00 0. -1.
        3    1    5    5  501    0 -0.16104627764E+02  0.33171460021E+02 -0.12925457264E+02  0.39073933010E+02  0.00000000000E+00 0. -1.
       -4    1    5    5    0  501  0.45171185542E+02 -0.11081093639E+02  0.12857506738E+02  0.48254969890E+02  0.00000000000E+00 0.  1.
</event>
<event>
 9   1  0.7570500E-01  0.2499988E+03  0.7546771E-02  0.1113306E+00
       21   -1    0    0  503  502  0.00000000000E+00  0.00000000000E+00  0.15650540752E+04  0.15650540752E+04  0.00000000000E+00 0.  1.
       21   -1    0    0  502  503 -0.00000000000E+00 -0.00000000000E+00 -0.99835827003E+01  0.99835827003E+01  0.00000000000E+00 0.  1.
       25    2    1    2    0    0  0.14210854715E-13 -0.35527136788E-14  0.15550704925E+04  0.15750376579E+04  0.24999877432E+03 0.  0.
       24    2    3    3    0    0  0.73654841675E+02 -0.11481631320E+02  0.41091294116E+03  0.42569817780E+03  0.82538656462E+02 0.  0.
      -24    2    3    3    0    0 -0.73654841675E+02  0.11481631320E+02  0.11441575514E+04  0.11493394801E+04  0.79547939425E+02 0.  0.
      -13    1    4    4    0    0  0.78711755263E+02 -0.30056648682E+02  0.25402204913E+03  0.26763061109E+03  0.00000000000E+00 0.  1.
       14    1    4    4    0    0 -0.50569135880E+01  0.18575017362E+02  0.15689089203E+03  0.15806756671E+03  0.00000000000E+00 0. -1.
        3    1    5    5  501    0 -0.46796802021E+01 -0.17017748296E+02  0.57981489087E+03  0.58008345161E+03  0.00000000000E+00 0. -1.
       -4    1    5    5    0  501 -0.68975161473E+02  0.28499379615E+02  0.56434266049E+03  0.56925602850E+03  0.00000000000E+00 0.  1.
</event>
<event>
 9   1  0.7570500E-01  0.2499974E+03  0.7546771E-02  0.1113306E+00
       21   -1    0    0  503  502  0.00000000000E+00  0.00000000000E+00  0.13936807040E+02  0.13936807040E+02  0.00000000000E+00 0.  1.
       21   -1    0    0  502  503 -0.00000000000E+00 -0.00000000000E+00 -0.11211090505E+04  0.11211090505E+04  0.00000000000E+00 0.  1.
       25    2    1    2    0    0  0.00000000000E+00 -0.71054273576E-14 -0.11071722434E+04  0.11350458575E+04  0.24999744404E+03 0.  0.
       24    2    3    3    0    0  0.36672146289E+02  0.37545008279E+02 -0.91172062984E+03  0.91666938513E+03  0.79333352336E+02 0.  0.
      -24    2    3    3    0    0 -0.36672146289E+02 -0.37545008279E+02 -0.19545161357E+03  0.21837647236E+03  0.82051669543E+02 0.  0.
      -13    1    4    4    0    0  0.57093377179E+02  0.20114006455E+02 -0.43478346452E+03  0.43897709279E+03  0.00000000000E+00 0.  1.
       14    1    4    4    0    0 -0.20421230890E+02  0.17431001824E+02 -0.47693716532E+03  0.47769229234E+03  0.00000000000E+00 0. -1.
        3    1    5    5  501    0 -0.36401285397E+02  0.14275372360E+02 -0.12463560012E+03  0.13062493120E+03  0.00000000000E+00 0. -1.
       -4    1    5    5    0  501 -0.27086089218E+00 -0.51820380639E+02 -0.70816013454E+02  0.87751541164E+02  0.00000000000E+00 0.  1.
</event>
<event>
 9   1  0.7570500E-01  0.2500056E+03  0.7546771E-02  0.1113301E+00
       21   -1    0    0  503  502  0.00000000000E+00  0.00000000000E+00  0.42049686751E+02  0.42049686751E+02  0.00000000000E+00 0. -1.
       21   -1    0    0  502  503 -0.00000000000E+00 -0.00000000000E+00 -0.37160085968E+03  0.37160085968E+03  0.00000000000E+00 0. -1.
       25    2    1    2    0    0  0.00000000000E+00  0.00000000000E+00 -0.32955117293E+03  0.41365054643E+03  0.25000559790E+03 0.  0.
       24    2    3    3    0    0  0.37841292355E+02 -0.46170599055E+02 -0.42028738195E+02  0.10959984039E+03  0.81743639230E+02 0.  0.
      -24    2    3    3    0    0 -0.37841292355E+02  0.46170599055E+02 -0.28752243474E+03  0.30405070605E+03  0.78828889027E+02 0.  0.
      -13    1    4    4    0    0 -0.11984857876E+02 -0.37515445131E+02  0.60207823023E+01  0.39840874252E+02  0.00000000000E+00 0.  1.
       14    1    4    4    0    0  0.49826150231E+02 -0.86551539245E+01 -0.48049520497E+02  0.69758966136E+02  0.00000000000E+00 0. -1.
        3    1    5    5  501    0 -0.10486059861E+02  0.52781609098E+02 -0.25683731371E+03  0.26241429348E+03  0.00000000000E+00 0. -1.
       -4    1    5    5    0  501 -0.27355232494E+02 -0.66110100434E+01 -0.30685121026E+02  0.41636412561E+02  0.00000000000E+00 0.  1.
</event>
<event>
 9   1  0.7570500E-01  0.2500320E+03  0.7546771E-02  0.1113285E+00
       21   -1    0    0  503  502  0.00000000000E+00  0.00000000000E+00  0.34004482304E+02  0.34004482304E+02  0.00000000000E+00 0. -1.
       21   -1    0    0  502  503 -0.00000000000E+00 -0.00000000000E+00 -0.45961599034E+03  0.45961599034E+03  0.00000000000E+00 0. -1.
       25    2    1    2    0    0  0.28421709430E-13  0.00000000000E+00 -0.42561150803E+03  0.49362047264E+03  0.25003202843E+03 0.  0.
       24    2    3    3    0    0  0.94436196420E+02  0.11964510009E+01 -0.22790247019E+03  0.25954285501E+03  0.80643232685E+02 0.  0.
      -24    2    3    3    0    0 -0.94436196420E+02 -0.11964510009E+01 -0.19770903784E+03  0.23407761763E+03  0.82364074343E+02 0.  0.
      -13    1    4    4    0    0  0.64009894631E+02  0.37956958325E+02 -0.16099099764E+03  0.17735867224E+03  0.00000000000E+00 0.  1.
       14    1    4    4    0    0  0.30426301789E+02 -0.36760507324E+02 -0.66911472550E+02  0.82184182773E+02  0.00000000000E+00 0. -1.
        3    1    5    5  501    0 -0.20135121551E+02  0.35912838210E+02 -0.80611608778E+02  0.90517327280E+02  0.00000000000E+00 0. -1.
       -4    1    5    5    0  501 -0.74301074869E+02 -0.37109289211E+02 -0.11709742906E+03  0.14356029035E+03  0.00000000000E+00 0.  1.
</event>
<event>
 9   1  0.7570500E-01  0.2499906E+03  0.7546771E-02  0.1113311E+00
       21   -1    0    0  503  502  0.00000000000E+00  0.00000000000E+00  0.99128053235E+01  0.99128053235E+01  0.00000000000E+00 0.  1.
       21   -1    0    0  502  503 -0.00000000000E+00 -0.00000000000E+00 -0.15761252077E+04  0.15761252077E+04  0.00000000000E+00 0.  1.
       25    2    1    2    0    0  0.00000000000E+00  0.71054273576E-14 -0.15662124024E+04  0.15860380130E+04  0.24999057862E+03 0.  0.
       24    2    3    3    0    0  0.71898510364E+02 -0.48804722119E+02 -0.50432951972E+03  0.51749424801E+03  0.76816245425E+02 0.  0.
      -24    2    3    3    0    0 -0.71898510364E+02  0.48804722119E+02 -0.10618828827E+04  0.10685437650E+04  0.81481437104E+02 0.  0.
      -13    1    4    4    0    0  0.10976999117E+02 -0.19625694653E+02 -0.25815330261E+02  0.34235853673E+02  0.00000000000E+00 0.  1.
       14    1    4    4    0    0  0.60921511247E+02 -0.29179027466E+02 -0.47851418946E+03  0.48325839433E+03  0.00000000000E+00 0. -1.
        1    1    5    5  501    0 -0.17652977689E+02  0.54612346374E+02 -0.36027870398E+03  0.36482171062E+03  0.00000000000E+00 0. -1.
       -2    1    5    5    0  501 -0.54245532675E+02 -0.58076242551E+01 -0.70160417869E+03  0.70372205442E+03  0.00000000000E+00 0.  1.
</event>
<event>
 9   1  0.7570500E-01  0.2499995E+03  0.7546771E-02  0.1113305E+00
       21   -1    0    0  503  502  0.00000000000E+00  0.00000000000E+00  0.48313692584E+02  0.48313692584E+02  0.00000000000E+00 0.  1.
       21   -1    0    0  502  503 -0.00000000000E+00 -0.00000000000E+00 -0.32340598656E+03  0.32340598656E+03  0.00000000000E+00 0.  1.
       25    2    1    2    0    0  0.00000000000E+00  0.00000000000E+00 -0.27509229398E+03  0.37171967915E+03  0.24999949932E+03 0.  0.
       24    2    3    3    0    0 -0.19499079233E+02 -0.40362588681E+02 -0.25979966873E+03  0.27557008753E+03  0.80210053076E+02 0.  0.
      -24    2    3    3    0    0  0.19499079233E+02  0.40362588681E+02 -0.15292625252E+02  0.96149591617E+02  0.83675127278E+02 0.  0.
      -13    1    4    4    0    0 -0.27101656198E+02 -0.29531224411E+02 -0.44602624459E+02  0.59966549780E+02  0.00000000000E+00 0.  1.
       14    1    4    4    0    0  0.76025769648E+01 -0.10831364271E+02 -0.21519704427E+03  0.21560353775E+03  0.00000000000E+00 0. -1.
        3    1    5    5  501    0 -0.17406074213E+02 -0.18449343855E+02 -0.18815623110E+01  0.25434032022E+02  0.00000000000E+00 0. -1.
       -4    1    5    5    0  501  0.36905153446E+02  0.58811932537E+02 -0.13411062941E+02  0.70715559595E+02  0.00000000000E+00 0.  1.
</event>
<event>
 9   1  0.7570500E-01  0.2499994E+03  0.7546771E-02  0.1113305E+00
       21   -1    0    0  503  502  0.00000000000E+00  0.00000000000E+00  0.10777165664E+04  0.10777165664E+04  0.00000000000E+00 0.  1.
       21   -1    0    0  502  503 -0.00000000000E+00 -0.00000000000E+00 -0.14498180939E+02  0.14498180939E+02  0.00000000000E+00 0.  1.
       25    2    1    2    0    0  0.00000000000E+00  0.00000000000E+00  0.10632183855E+04  0.10922147474E+04  0.24999943825E+03 0.  0.
       24    2    3    3    0    0  0.33065721709E+02 -0.61490866944E+02  0.83749782090E+03  0.84426213433E+03  0.80631772786E+02 0.  0.
      -24    2    3    3    0    0 -0.33065721709E+02  0.61490866944E+02  0.22572056458E+03  0.24795261303E+03  0.75208087088E+02 0.  0.
      -13    1    4    4    0    0  0.17112067921E+02 -0.70385829275E+02  0.40828744421E+03  0.41466326691E+03  0.00000000000E+00 0.  1.
       14    1    4    4    0    0  0.15953653788E+02  0.88949623314E+01  0.42921037670E+03  0.42959886742E+03  0.00000000000E+00 0. -1.
        1    1    5    5  501    0 -0.15203253475E+02  0.76923053957E+02  0.18412476569E+03  0.20012552183E+03  0.00000000000E+00 0. -1.
       -2    1    5    5    0  501 -0.17862468234E+02 -0.15432187013E+02  0.41595798891E+02  0.47827091202E+02  0.00000000000E+00 0.  1.
</event>
<event>
 9   1  0.7570500E-01  0.2499972E+03  0.7546771E-02  0.1113307E+00
       21   -1    0    0  503  502  0.00000000000E+00  0.00000000000E+00  0.17823869597E+03  0.17823869597E+03  0.00000000000E+00 0. -1.
       21   -1    0    0  502  503 -0.00000000000E+00 -0.00000000000E+00 -0.87661385430E+02  0.87661385430E+02  0.00000000000E+00 0. -1.
       25    2    1    2    0    0 -0.71054273576E-14 -0.71054273576E-14  0.90577310535E+02  0.26590008140E+03  0.24999720819E+03 0.  0.
       24    2    3    3    0    0  0.48039437438E+02  0.51272326156E+02 -0.22766246487E+02  0.10943429199E+03  0.80752234060E+02 0.  0.
      -24    2    3    3    0    0 -0.48039437438E+02 -0.51272326156E+02  0.11334355702E+03  0.15646578940E+03  0.81842179569E+02 0.  0.
      -13    1    4    4    0    0  0.79032463760E+01  0.63545298111E+02 -0.21132492825E+02  0.67431806058E+02  0.00000000000E+00 0.  1.
       14    1    4    4    0    0  0.40136191062E+02 -0.12272971954E+02 -0.16337536624E+01  0.42002485933E+02  0.00000000000E+00 0. -1.
        3    1    5    5  501    0 -0.50536204207E+01 -0.62927647223E+02  0.61773258601E+02  0.88325326733E+02  0.00000000000E+00 0. -1.
       -4    1    5    5    0  501 -0.42985817017E+02  0.11655321067E+02  0.51570298422E+02  0.68140462672E+02  0.00000000000E+00 0.  1.
</event>
<event>
 9   1  0.7570500E-01  0.2499944E+03  0.7546771E-02  0.1113308E+00
       21   -1    0    0  503  502  0.00000000000E+00  0.00000000000E+00  0.26783539023E+03  0.26783539023E+03  0.00000000000E+00 0. -1.
       21   -1    0    0  502  503 -0.00000000000E+00 -0.00000000000E+00 -0.58335472042E+02  0.58335472042E+02  0.00000000000E+00 0. -1.
       25    2    1    2    0    0 -0.14210854715E-13  0.00000000000E+00  0.20949991819E+03  0.32617086227E+03  0.24999443129E+03 0.  0.
       24    2    3    3    0    0  0.69117266111E+02 -0.58880431439E+02  0.10066525646E+03  0.15884665088E+03  0.82792891953E+02 0.  0.
      -24    2    3    3    0    0 -0.69117266111E+02  0.58880431439E+02  0.10883466173E+03  0.16732421139E+03  0.88928659284E+02 0.  0.
      -13    1    4    4    0    0 -0.59884833853E+01 -0.18460228467E+02  0.62429822675E+02  0.65376790435E+02  0.00000000000E+00 0.  1.
       14    1    4    4    0    0  0.75105749497E+02 -0.40420202972E+02  0.38235433784E+02  0.93469860449E+02  0.00000000000E+00 0. -1.
        3    1    5    5  501    0 -0.34331950766E+02 -0.13087304659E+02  0.62424706755E+01  0.37268335444E+02  0.00000000000E+00 0. -1.
       -4    1    5    5    0  501 -0.34785315345E+02  0.71967736098E+02  0.10259219105E+03  0.13005587594E+03  0.00000000000E+00 0.  1.
</event>
<event>
 9   1  0.7570500E-01  0.2500017E+03  0.7546771E-02  0.1113304E+00
       21   -1    0    0  503  502  0.00000000000E+00  0.00000000000E+00  0.27966100178E+02  0.27966100178E+02  0.00000000000E+00 0. -1.
       21   -1    0    0  502  503 -0.00000000000E+00 -0.00000000000E+00 -0.55871971649E+03  0.55871971649E+03  0.00000000000E+00 0. -1.
       25    2    1    2    0    0  0.71054273576E-14  0.00000000000E+00 -0.53075361631E+03  0.58668581667E+03  0.25000169250E+03 0.  0.
       24    2    3    3    0    0 -0.62433789934E+02 -0.39028407940E+02 -0.40877031860E+03  0.42305491775E+03  0.80380938749E+02 0.  0.
      -24    2    3    3    0    0  0.62433789934E+02  0.39028407940E+02 -0.12198329771E+03  0.16363089892E+03  0.80460868799E+02 0.  0.
      -13    1    4    4    0    0 -0.26493742427E+02 -0.30483092767E+02 -0.59957592190E+02  0.72291425451E+02  0.00000000000E+00 0.  1.
       14    1    4    4    0    0 -0.35940047506E+02 -0.85453151726E+01 -0.34881272641E+03  0.35076349230E+03  0.00000000000E+00 0. -1.
        1    1    5    5  501    0  0.27622945079E+02 -0.23148370006E+02 -0.55496271898E+02  0.66171824240E+02  0.00000000000E+00 0. -1.
       -2    1    5    5    0  501  0.34810844855E+02  0.62176777945E+02 -0.66487025815E+02  0.97459074677E+02  0.00000000000E+00 0.  1.
</event>
<event>
 9   1  0.7570500E-01  0.2500193E+03  0.7546771E-02  0.1113293E+00
       21   -1    0    0  503  502  0.00000000000E+00  0.00000000000E+00  0.10891285000E+03  0.10891285000E+03  0.00000000000E+00 0.  1.
       21   -1    0    0  502  503 -0.00000000000E+00 -0.00000000000E+00 -0.14348544012E+03  0.14348544012E+03  0.00000000000E+00 0.  1.
       25    2    1    2    0    0 -0.71054273576E-14  0.00000000000E+00 -0.34572590124E+02  0.25239829012E+03  0.25001926499E+03 0.  0.
       24    2    3    3    0    0  0.63119024810E+02 -0.69901440915E+02 -0.28640081797E+02  0.12803642294E+03  0.81870926342E+02 0.  0.
      -24    2    3    3    0    0 -0.63119024810E+02  0.69901440915E+02 -0.59325083272E+01  0.12436186717E+03  0.80996645713E+02 0.  0.
      -13    1    4    4    0    0  0.38908186067E+02 -0.76456128353E+02 -0.46182689795E+02  0.97428062397E+02  0.00000000000E+00 0.  1.
       14    1    4    4    0    0  0.24210838743E+02  0.65546874381E+01  0.17542607997E+02  0.30608360548E+02  0.00000000000E+00 0. -1.
        3    1    5    5  501    0 -0.41588654823E+02  0.32330351200E+01 -0.28771725719E+02  0.50674262964E+02  0.00000000000E+00 0. -1.
       -4    1    5    5    0  501 -0.21530369987E+02  0.66668405795E+02  0.22839217392E+02  0.73687604209E+02  0.00000000000E+00 0.  1.
</event>
<event>
 9   1  0.7570500E-01  0.2499978E+03  0.7546771E-02  0.1113306E+00
       21   -1    0    0  503  502  0.00000000000E+00  0.00000000000E+00  0.16980109138E+03  0.16980109138E+03  0.00000000000E+00 0.  1.
       21   -1    0    0  502  503 -0.00000000000E+00 -0.00000000000E+00 -0.92017833479E+02  0.92017833479E+02  0.00000000000E+00 0.  1.
       25    2    1    2    0    0  0.00000000000E+00 -0.14210854715E-13  0.77783257903E+02  0.26181892486E+03  0.24999782840E+03 0.  0.
       24    2    3    3    0    0 -0.47553011118E+02  0.75012364049E+02  0.74822678968E+02  0.14109578164E+03  0.80133904688E+02 0.  0.
      -24    2    3    3    0    0  0.47553011118E+02 -0.75012364049E+02  0.29605789351E+01  0.12072314323E+03  0.81713944073E+02 0.  0.
      -13    1    4    4    0    0 -0.30199375494E+02 -0.67145870909E+01  0.32964946330E+01  0.31111972565E+02  0.00000000000E+00 0.  1.
       14    1    4    4    0    0 -0.17353635625E+02  0.81726951140E+02  0.71526184335E+02  0.10998380907E+03  0.00000000000E+00 0. -1.
        1    1    5    5  501    0  0.30165093890E+02 -0.89298168633E+02  0.14612830966E+02  0.95381500509E+02  0.00000000000E+00 0. -1.
       -2    1    5    5    0  501  0.17387917229E+02  0.14285804584E+02 -0.11652252031E+02  0.25341642716E+02  0.00000000000E+00 0.  1.
</event>
<event>
 9   1  0.7570500E-01  0.2499921E+03  0.7546771E-02  0.1113310E+00
       21   -1    0    0  503  502  0.00000000000E+00  0.00000000000E+00  0.13870948786E+03  0.13870948786E+03  0.00000000000E+00 0.  1.
       21   -1    0    0  502  503 -0.00000000000E+00 -0.00000000000E+00 -0.11263839149E+03  0.11263839149E+03  0.00000000000E+00 0.  1.
       25    2    1    2    0    0  0.00000000000E+00  0.00000000000E+00  0.26071096375E+02  0.25134787935E+03  0.24999210865E+03 0.  0.
       24    2    3    3    0    0  0.71372070617E+01 -0.24601487632E+02 -0.78196902427E+02  0.11660985180E+03  0.82625232648E+02 0.  0.
      -24    2    3    3    0    0 -0.71372070617E+01  0.24601487632E+02  0.10426799880E+03  0.13473802755E+03  0.81402380650E+02 0.  0.
      -13    1    4    4    0    0 -0.17158641920E+02  0.20123804170E+02 -0.41691793988E+01  0.26772533382E+02  0.00000000000E+00 0.  1.
       14    1    4    4    0    0  0.24295848982E+02 -0.44725291802E+02 -0.74027723029E+02  0.89837318422E+02  0.00000000000E+00 0. -1.
        3    1    5    5  501    0 -0.33148723410E+02 -0.10641173120E+02  0.73135003621E+02  0.80998772730E+02  0.00000000000E+00 0. -1.
       -4    1    5    5    0  501  0.26011516349E+02  0.35242660752E+02  0.31132995181E+02  0.53739254820E+02  0.00000000000E+00 0.  1.
</event>
<event>
 9   1  0.7570500E-01  0.2499952E+03  0.7546771E-02  0.1113308E+00
       21   -1    0    0  503  502  0.00000000000E+00  0.00000000000E+00  0.62457855056E+02  0.62457855056E+02  0.00000000000E+00 0. -1.
       21   -1    0    0  502  503 -0.00000000000E+00 -0.00000000000E+00 -0.25015901812E+03  0.25015901812E+03  0.00000000000E+00 0. -1.
       25    2    1    2    0    0  0.00000000000E+00  0.71054273576E-14 -0.18770116306E+03  0.31261687317E+03  0.24999516551E+03 0.  0.
       24    2    3    3    0    0  0.85856195729E+02 -0.42030126599E+02 -0.80774049518E+02  0.14901468355E+03  0.80889498394E+02 0.  0.
      -24    2    3    3    0    0 -0.85856195729E+02  0.42030126599E+02 -0.10692711354E+03  0.16360218962E+03  0.78704834364E+02 0.  0.
      -13    1    4    4    0    0 -0.12938804407E+02  0.48602722903E+01 -0.14101374776E+01  0.13893285930E+02  0.00000000000E+00 0.  1.
       14    1    4    4    0    0  0.98795000136E+02 -0.46890398890E+02 -0.79363912040E+02  0.13512139762E+03  0.00000000000E+00 0. -1.
        1    1    5    5  501    0 -0.67882360703E+02  0.34700552515E+02 -0.26261209662E+02  0.80633704940E+02  0.00000000000E+00 0. -1.
       -2    1    5    5    0  501 -0.17973835026E+02  0.73295740843E+01 -0.80665903882E+02  0.82968484685E+02  0.00000000000E+00 0.  1.
</event>
<event>
 9   1  0.7570500E-01  0.2500001E+03  0.7546771E-02  0.1113305E+00
       21   -1    0    0  503  502  0.00000000000E+00  0.00000000000E+00  0.20572047373E+02  0.20572047373E+02  0.00000000000E+00 0.  1.
       21   -1    0    0  502  503 -0.00000000000E+00 -0.00000000000E+00 -0.75952642677E+03  0.75952642677E+03  0.00000000000E+00 0.  1.
       25    2    1    2    0    0  0.00000000000E+00  0.00000000000E+00 -0.73895437940E+03  0.78009847415E+03  0.25000010906E+03 0.  0.
       24    2    3    3    0    0  0.63479724984E+02  0.64818318195E+02 -0.46997453984E+03  0.48513806335E+03  0.79068214531E+02 0.  0.
      -24    2    3    3    0    0 -0.63479724984E+02 -0.64818318195E+02 -0.26897983956E+03  0.29496041080E+03  0.80127398518E+02 0.  0.
      -13    1    4    4    0    0  0.27034936908E+01  0.59066490091E+02 -0.24408142595E+03  0.25114119857E+03  0.00000000000E+00 0.  1.
       14    1    4    4    0    0  0.60776231293E+02  0.57518281033E+01 -0.22589311390E+03  0.23399686477E+03  0.00000000000E+00 0. -1.
        3    1    5    5  501    0 -0.80785901119E+02 -0.44124317025E+02 -0.22818976852E+03  0.24605667565E+03  0.00000000000E+00 0. -1.
       -4    1    5    5    0  501  0.17306176135E+02 -0.20694001169E+02 -0.40790071039E+02  0.48903735156E+02  0.00000000000E+00 0.  1.
</event>
<event>
 9   1  0.7570500E-01  0.2500102E+03  0.7546771E-02  0.1113298E+00
       21   -1    0    0  503  502  0.00000000000E+00  0.00000000000E+00  0.25254445173E+03  0.25254445173E+03  0.00000000000E+00 0. -1.
       21   -1    0    0  502  503 -0.00000000000E+00 -0.00000000000E+00 -0.61875326157E+02  0.61875326157E+02  0.00000000000E+00 0. -1.
       25    2    1    2    0    0  0.28421709430E-13  0.00000000000E+00  0.19066912557E+03  0.31441977789E+03  0.25001016235E+03 0.  0.
       24    2    3    3    0    0  0.58111387997E+02 -0.69382790763E+02  0.57072015927E+02  0.13376118984E+03  0.80274129301E+02 0.  0.
      -24    2    3    3    0    0 -0.58111387997E+02  0.69382790763E+02  0.13359710965E+03  0.18065858805E+03  0.81230737174E+02 0.  0.
      -13    1    4    4    0    0  0.67615642873E+02 -0.77178725710E+02  0.62692461802E+02  0.12024464907E+03  0.00000000000E+00 0.  1.
       14    1    4    4    0    0 -0.95042548754E+01  0.77959349466E+01 -0.56204458742E+01  0.13516540765E+02  0.00000000000E+00 0. -1.
        1    1    5    5  501    0  0.14624472129E+02  0.22567445060E+02  0.78148761896E+01  0.28004232742E+02  0.00000000000E+00 0. -1.
       -2    1    5    5    0  501 -0.72735860126E+02  0.46815345703E+02  0.12578223346E+03  0.15265435531E+03  0.00000000000E+00 0.  1.
</event>
<event>
 9   1  0.7570500E-01  0.2500069E+03  0.7546771E-02  0.1113300E+00
       21   -1    0    0  503  502  0.00000000000E+00  0.00000000000E+00  0.11928834749E+04  0.11928834749E+04  0.00000000000E+00 0.  1.
       21   -1    0    0  502  503 -0.00000000000E+00 -0.00000000000E+00 -0.13099231650E+02  0.13099231650E+02  0.00000000000E+00 0.  1.
       25    2    1    2    0    0 -0.28421709430E-13 -0.35527136788E-14  0.11797842432E+04  0.12059827065E+04  0.25000685566E+03 0.  0.
       24    2    3    3    0    0  0.87332646792E+02  0.20699440378E+02  0.43554413707E+03  0.45201424843E+03  0.81010662359E+02 0.  0.
      -24    2    3    3    0    0 -0.87332646792E+02 -0.20699440378E+02  0.74424010616E+03  0.75396845810E+03  0.80744301172E+02 0.  0.
      -13    1    4    4    0    0  0.25995136075E+02  0.45650567066E+02  0.23576449451E+03  0.24154630662E+03  0.00000000000E+00 0.  1.
       14    1    4    4    0    0  0.61337510717E+02 -0.24951126688E+02  0.19977964256E+03  0.21046794180E+03  0.00000000000E+00 0. -1.
        3    1    5    5  501    0 -0.85995838570E+02 -0.25437645136E+02  0.74361807802E+03  0.74900614417E+03  0.00000000000E+00 0. -1.
       -4    1    5    5    0  501 -0.13368082213E+01  0.47382047583E+01  0.62202813345E+00  0.49623139311E+01  0.00000000000E+00 0.  1.
</event>
<event>
 9   1  0.7570500E-01  0.2499980E+03  0.7546771E-02  0.1113306E+00
       21   -1    0    0  503  502  0.00000000000E+00  0.00000000000E+00  0.20707837103E+03  0.20707837103E+03  0.00000000000E+00 0.  1.
       21   -1    0    0  502  503 -0.00000000000E+00 -0.00000000000E+00 -0.75453311385E+02  0.75453311385E+02  0.00000000000E+00 0.  1.
       25    2    1    2    0    0 -0.17763568394E-14  0.00000000000E+00  0.13162505965E+03  0.28253168242E+03  0.24999799048E+03 0.  0.
       24    2    3    3    0    0 -0.90658436173E+01  0.94141567332E+02  0.81837446687E+02  0.14884384767E+03  0.80698817144E+02 0.  0.
      -24    2    3    3    0    0  0.90658436173E+01 -0.94141567332E+02  0.49787612959E+02  0.13368783475E+03  0.80304461487E+02 0.  0.
      -13    1    4    4    0    0 -0.24127438680E+02  0.71852260323E+02  0.15643586415E+02  0.77392521646E+02  0.00000000000E+00 0.  1.
       14    1    4    4    0    0  0.15061595063E+02  0.22289307009E+02  0.66193860272E+02  0.71451326023E+02  0.00000000000E+00 0. -1.
        1    1    5    5  501    0 -0.35027856126E+02 -0.35684137426E+02  0.12613849628E+02  0.51569541117E+02  0.00000000000E+00 0. -1.
       -2    1    5    5    0  501  0.44093699743E+02 -0.58457429907E+02  0.37173763331E+02  0.82118293629E+02  0.00000000000E+00 0.  1.
</event>
<event>
 9   1  0.7570500E-01  0.2500118E+03  0.7546771E-02  0.1113297E+00
       21   -1    0    0  503  502  0.00000000000E+00  0.00000000000E+00  0.12884769587E+03  0.12884769587E+03  0.00000000000E+00 0. -1.
       21   -1    0    0  502  503 -0.00000000000E+00 -0.00000000000E+00 -0.12127861692E+03  0.12127861692E+03  0.00000000000E+00 0. -1.
       25    2    1    2    0    0  0.00000000000E+00  0.00000000000E+00  0.75690789460E+01  0.25012631278E+03  0.25001176251E+03 0.  0.
       24    2    3    3    0    0 -0.12792320975E+00 -0.67379915051E+02 -0.65987110067E+02  0.12171635371E+03  0.76944803267E+02 0.  0.
      -24    2    3    3    0    0  0.12792320975E+00  0.67379915051E+02  0.73556189013E+02  0.12840995907E+03  0.80861210290E+02 0.  0.
      -13    1    4    4    0    0 -0.12345270194E+02 -0.19459377628E+02  0.14516718061E+02  0.27236155696E+02  0.00000000000E+00 0.  1.
       14    1    4    4    0    0  0.12217346984E+02 -0.47920537423E+02 -0.80503828128E+02  0.94480198018E+02  0.00000000000E+00 0. -1.
        1    1    5    5  501    0  0.39544594673E+02  0.41431411683E+02  0.48088631069E+02  0.74785381459E+02  0.00000000000E+00 0. -1.
       -2    1    5    5    0  501 -0.39416671463E+02  0.25948503368E+02  0.25467557944E+02  0.53624577611E+02  0.00000000000E+00 0.  1.
</event>
<event>
 9   1  0.7570500E-01  0.2500002E+03  0.7546771E-02  0.1113305E+00
       21   -1    0    0  503  502  0.00000000000E+00  0.00000000000E+00  0.19381812353E+02  0.19381812353E+02  0.00000000000E+00 0.  1.
       21   -1    0    0  502  503 -0.00000000000E+00 -0.00000000000E+00 -0.80616938477E+03  0.80616938477E+03  0.00000000000E+00 0.  1.
       25    2    1    2    0    0  0.00000000000E+00  0.14210854715E-13 -0.78678757242E+03  0.82555119713E+03  0.25000018992E+03 0.  0.
       24    2    3    3    0    0 -0.24444507681E+02 -0.43245065044E+02 -0.11718632901E+03  0.14972049677E+03  0.78841117710E+02 0.  0.
      -24    2    3    3    0    0  0.24444507681E+02  0.43245065044E+02 -0.66960124341E+03  0.67583070035E+03  0.76900199945E+02 0.  0.
      -13    1    4    4    0    0  0.15813798822E+02 -0.17583308199E+02 -0.93465241674E+02  0.96410582207E+02  0.00000000000E+00 0.  1.
       14    1    4    4    0    0 -0.40258306503E+02 -0.25661756845E+02 -0.23721087333E+02  0.53309914567E+02  0.00000000000E+00 0. -1.
        3    1    5    5  501    0  0.25345517015E+02 -0.17393338852E+02 -0.24478597907E+03  0.24670853050E+03  0.00000000000E+00 0. -1.
       -4    1    5    5    0  501 -0.90100933386E+00  0.60638403896E+02 -0.42481526434E+03  0.42912216986E+03  0.00000000000E+00 0.  1.
</event>
<event>
 9   1  0.7570500E-01  0.2500028E+03  0.7546771E-02  0.1113303E+00
       21   -1    0    0  503  502  0.00000000000E+00  0.00000000000E+00  0.58903912863E+02  0.58903912863E+02  0.00000000000E+00 0. -1.
       21   -1    0    0  502  503 -0.00000000000E+00 -0.00000000000E+00 -0.26526850877E+03  0.26526850877E+03  0.00000000000E+00 0. -1.
       25    2    1    2    0    0 -0.35527136788E-14  0.00000000000E+00 -0.20636459590E+03  0.32417242163E+03  0.25000282499E+03 0.  0.
       24    2    3    3    0    0 -0.25780437804E+02  0.41920824899E+02 -0.20828342113E+03  0.22931773660E+03  0.82356871392E+02 0.  0.
      -24    2    3    3    0    0  0.25780437804E+02 -0.41920824899E+02  0.19188252322E+01  0.94854685031E+02  0.81066286756E+02 0.  0.
      -13    1    4    4    0    0  0.17298308047E+02  0.43613551384E+02 -0.68429833509E+02  0.82969967095E+02  0.00000000000E+00 0.  1.
       14    1    4    4    0    0 -0.43078745851E+02 -0.16927264851E+01 -0.13985358763E+03  0.14634776950E+03  0.00000000000E+00 0. -1.
        3    1    5    5  501    0  0.49998537870E+02 -0.80153850705E+01  0.11884723928E+02  0.52012948866E+02  0.00000000000E+00 0. -1.
       -4    1    5    5    0  501 -0.24218100066E+02 -0.33905439828E+02 -0.99658986960E+01  0.42841736164E+02  0.00000000000E+00 0.  1.
</event>
<event>
 9   1  0.7570500E-01  0.2500032E+03  0.7546771E-02  0.1113303E+00
       21   -1    0    0  503  502  0.00000000000E+00  0.00000000000E+00  0.88641679462E+03  0.88641679462E+03  0.00000000000E+00 0. -1.
       21   -1    0    0  502  503 -0.00000000000E+00 -0.00000000000E+00 -0.17627593444E+02  0.17627593444E+02  0.00000000000E+00 0. -1.
       25    2    1    2    0    0  0.00000000000E+00 -0.35527136788E-14  0.86878920117E+03  0.90404438806E+03  0.25000315900E+03 0.  0.
       24    2    3    3    0    0  0.74152366748E+02 -0.30433822964E+02  0.61048593057E+03  0.62096658375E+03  0.80508606017E+02 0.  0.
      -24    2    3    3    0    0 -0.74152366748E+02  0.30433822964E+02  0.25830327061E+03  0.28307780431E+03  0.83592299955E+02 0.  0.
      -13    1    4    4    0    0  0.90841346260E+02 -0.20690577989E+02  0.53465927418E+03  0.54271612255E+03  0.00000000000E+00 0.  1.
       14    1    4    4    0    0 -0.16688979512E+02 -0.97432449747E+01  0.75826656387E+02  0.78250461204E+02  0.00000000000E+00 0. -1.
        1    1    5    5  501    0  0.12648864967E+02 -0.90157795629E+01  0.14321638085E+02  0.21127881662E+02  0.00000000000E+00 0. -1.
       -2    1    5    5    0  501 -0.86801231715E+02  0.39449602527E+02  0.24398163252E+03  0.26194992265E+03  0.00000000000E+00 0.  1.
</event>
<event>
 9   1  0.7570500E-01  0.2500027E+03  0.7546771E-02  0.1113303E+00
       21   -1    0    0  503  502  0.00000000000E+00  0.00000000000E+00  0.40227807774E+02  0.40227807774E+02  0.00000000000E+00 0. -1.
       21   -1    0    0  502  503 -0.00000000000E+00 -0.00000000000E+00 -0.38842132261E+03  0.38842132261E+03  0.00000000000E+00 0. -1.
       25    2    1    2    0    0 -0.14210854715E-13  0.00000000000E+00 -0.34819351483E+03  0.42864913038E+03  0.25000270639E+03 0.  0.
       24    2    3    3    0    0 -0.87455543706E+02 -0.15994170121E+02 -0.11215361568E+03  0.16390623837E+03  0.79890774582E+02 0.  0.
      -24    2    3    3    0    0  0.87455543706E+02  0.15994170121E+02 -0.23603989916E+03  0.26474289201E+03  0.80434316530E+02 0.  0.
      -13    1    4    4    0    0 -0.60248523104E+02  0.28890943375E+02 -0.67754505466E+02  0.95159046634E+02  0.00000000000E+00 0.  1.
       14    1    4    4    0    0 -0.27207020602E+02 -0.44885113496E+02 -0.44399110211E+02  0.68747191732E+02  0.00000000000E+00 0. -1.
        3    1    5    5  501    0  0.80982468249E+02  0.42263536757E+02 -0.19807599582E+03  0.21812488814E+03  0.00000000000E+00 0. -1.
       -4    1    5    5    0  501  0.64730754571E+01 -0.26269366636E+02 -0.37963903333E+02  0.46618003879E+02  0.00000000000E+00 0.  1.
</event>
<event>
 9   1  0.7570500E-01  0.2499987E+03  0.7546771E-02  0.1113306E+00
       21   -1    0    0  503  502  0.00000000000E+00  0.00000000000E+00  0.84296668754E+02  0.84296668754E+02  0.00000000000E+00 0. -1.
       21   -1    0    0  502  503 -0.00000000000E+00 -0.00000000000E+00 -0.18535540072E+03  0.18535540072E+03  0.00000000000E+00 0. -1.
       25    2    1    2    0    0 -0.71054273576E-14  0.00000000000E+00 -0.10105873197E+03  0.26965206948E+03  0.24999874253E+03 0.  0.
       24    2    3    3    0    0 -0.54115763517E+02  0.61772695177E+02 -0.73468162425E+01  0.11551017883E+03  0.80896501613E+02 0.  0.
      -24    2    3    3    0    0  0.54115763517E+02 -0.61772695177E+02 -0.93711915725E+02  0.15414189065E+03  0.90738181452E+02 0.  0.
      -13    1    4    4    0    0 -0.50560125654E+02  0.44847770060E+01  0.16474388046E+02  0.53365203948E+02  0.00000000000E+00 0.  1.
       14    1    4    4    0    0 -0.35556378631E+01  0.57287918171E+02 -0.23821204288E+02  0.62144974879E+02  0.00000000000E+00 0. -1.
        1    1    5    5  501    0  0.14648083280E+02 -0.60305483829E+01 -0.83611814435E+02  0.85099173737E+02  0.00000000000E+00 0. -1.
       -2    1    5    5    0  501  0.39467680237E+02 -0.55742146794E+02 -0.10100101290E+02  0.69042716911E+02  0.00000000000E+00 0.  1.
</event>
<event>
 9   1  0.7570500E-01  0.2499872E+03  0.7546771E-02  0.1113313E+00
       21   -1    0    0  503  502  0.00000000000E+00  0.00000000000E+00  0.13075667594E+02  0.13075667594E+02  0.00000000000E+00 0.  1.
       21   -1    0    0  502  503 -0.00000000000E+00 -0.00000000000E+00 -0.11948455484E+04  0.11948455484E+04  0.00000000000E+00 0.  1.
       25    2    1    2    0    0  0.14210854715E-13  0.00000000000E+00 -0.11817698808E+04  0.12079212159E+04  0.24998722540E+03 0.  0.
       24    2    3    3    0    0  0.82846577862E+02  0.35247531571E+02 -0.41266383650E+03  0.42948314079E+03  0.77835610891E+02 0.  0.
      -24    2    3    3    0    0 -0.82846577862E+02 -0.35247531571E+02 -0.76910604425E+03  0.77843807515E+03  0.79597648162E+02 0.  0.
      -13    1    4    4    0    0 -0.33256345787E+01 -0.51211108303E+01 -0.14981262535E+03  0.14993701456E+03  0.00000000000E+00 0.  1.
       14    1    4    4    0    0  0.86172212441E+02  0.40368642401E+02 -0.26285121116E+03  0.27954612623E+03  0.00000000000E+00 0. -1.
        3    1    5    5  501    0 -0.34944927407E+02 -0.46697131571E+02 -0.58353565413E+03  0.58644320244E+03  0.00000000000E+00 0. -1.
       -4    1    5    5    0  501 -0.47901650455E+02  0.11449600000E+02 -0.18557039012E+03  0.19199487271E+03  0.00000000000E+00 0.  1.
</event>
<event>
 9   1  0.7570500E-01  0.2499986E+03  0.7546771E-02  0.1113306E+00
       21   -1    0    0  503  502  0.00000000000E+00  0.00000000000E+00  0.70358472970E+02  0.70358472970E+02  0.00000000000E+00 0.  1.
       21   -1    0    0  502  503 -0.00000000000E+00 -0.00000000000E+00 -0.22207448163E+03  0.22207448163E+03  0.00000000000E+00 0.  1.
       25    2    1    2    0    0  0.00000000000E+00  0.00000000000E+00 -0.15171600866E+03  0.29243295460E+03  0.24999857130E+03 0.  0.
       24    2    3    3    0    0  0.55032268375E+02  0.67219381627E+02 -0.13192474227E+03  0.17598870107E+03  0.77594390597E+02 0.  0.
      -24    2    3    3    0    0 -0.55032268375E+02 -0.67219381627E+02 -0.19791266391E+02  0.11644425353E+03  0.74970488368E+02 0.  0.
      -13    1    4    4    0    0 -0.12489665272E+02  0.36179644948E+02 -0.24786194031E+02  0.45599494095E+02  0.00000000000E+00 0.  1.
       14    1    4    4    0    0  0.67521933648E+02  0.31039736679E+02 -0.10713854824E+03  0.13038920697E+03  0.00000000000E+00 0. -1.
        1    1    5    5  501    0 -0.79743828067E+01  0.85454331687E+01  0.16444313604E+02  0.20175000845E+02  0.00000000000E+00 0. -1.
       -2    1    5    5    0  501 -0.47057885568E+02 -0.75764814796E+02 -0.36235579995E+02  0.96269252686E+02  0.00000000000E+00 0.  1.
</event>
<event>
 9   1  0.7570500E-01  0.2500005E+03  0.7546771E-02  0.1113304E+00
       21   -1    0    0  503  502  0.00000000000E+00  0.00000000000E+00  0.12266302986E+03  0.12266302986E+03  0.00000000000E+00 0. -1.
       21   -1    0    0  502  503 -0.00000000000E+00 -0.00000000000E+00 -0.12738201548E+03  0.12738201548E+03  0.00000000000E+00 0. -1.
       25    2    1    2    0    0  0.00000000000E+00  0.00000000000E+00 -0.47189856201E+01  0.25004504535E+03  0.25000051176E+03 0.  0.
       24    2    3    3    0    0 -0.86448157105E+02  0.63839951986E+01 -0.44168613769E+02  0.12536346758E+03  0.79063855836E+02 0.  0.
      -24    2    3    3    0    0  0.86448157105E+02 -0.63839951986E+01  0.39449628149E+02  0.12468157777E+03  0.80468524360E+02 0.  0.
      -13    1    4    4    0    0 -0.12861100651E+02  0.14413549984E+02  0.19702917117E+02  0.27592812036E+02  0.00000000000E+00 0.  1.
       14    1    4    4    0    0 -0.73587056454E+02 -0.80295547856E+01 -0.63871530886E+02  0.97770655544E+02  0.00000000000E+00 0. -1.
        1    1    5    5  501    0  0.14363412672E+02 -0.19906819701E+02  0.44863094111E+02  0.51139870037E+02  0.00000000000E+00 0. -1.
       -2    1    5    5    0  501  0.72084744434E+02  0.13522824503E+02 -0.54134659620E+01  0.73541707733E+02  0.00000000000E+00 0.  1.
</event>
<event>
 9   1  0.7570500E-01  0.2500025E+03  0.7546771E-02  0.1113303E+00
       21   -1    0    0  503  502  0.00000000000E+00  0.00000000000E+00  0.11524093303E+03  0.11524093303E+03  0.00000000000E+00 0. -1.
       21   -1    0    0  502  503 -0.00000000000E+00 -0.00000000000E+00 -0.13558816915E+03  0.13558816915E+03  0.00000000000E+00 0. -1.
       25    2    1    2    0    0 -0.71054273576E-14  0.14210854715E-13 -0.20347236122E+02  0.25082910217E+03  0.25000245695E+03 0.  0.
       24    2    3    3    0    0  0.32253599616E+02 -0.90631580156E+02 -0.10129610112E+02  0.12639944457E+03  0.81362353563E+02 0.  0.
      -24    2    3    3    0    0 -0.32253599616E+02  0.90631580156E+02 -0.10217626010E+02  0.12442965760E+03  0.78255746115E+02 0.  0.
      -13    1    4    4    0    0 -0.27592378064E+02 -0.30962686464E+02 -0.40764410257E+01  0.41673068662E+02  0.00000000000E+00 0.  1.
       14    1    4    4    0    0  0.59845977680E+02 -0.59668893692E+02 -0.60531690863E+01  0.84726375910E+02  0.00000000000E+00 0. -1.
        3    1    5    5  501    0 -0.22250564384E+02  0.90848230642E+01  0.25324335136E+02  0.34913372446E+02  0.00000000000E+00 0. -1.
       -4    1    5    5    0  501 -0.10003035233E+02  0.81546757092E+02 -0.35541961146E+02  0.89516285156E+02  0.00000000000E+00 0.  1.
</event>
<event>
 9   1  0.7570500E-01  0.2500022E+03  0.7546771E-02  0.1113303E+00
       21   -1    0    0  503  502  0.00000000000E+00  0.00000000000E+00  0.15166898681E+03  0.15166898681E+03  0.00000000000E+00 0. -1.
       21   -1    0    0  502  503 -0.00000000000E+00 -0.00000000000E+00 -0.10302223203E+03  0.10302223203E+03  0.00000000000E+00 0. -1.
       25    2    1    2    0    0  0.00000000000E+00  0.35527136788E-14  0.48646754784E+02  0.25469121885E+03  0.25000222040E+03 0.  0.
       24    2    3    3    0    0 -0.90909819726E+02 -0.17560154943E+02  0.49918385702E+02  0.13216977507E+03  0.80025307535E+02 0.  0.
      -24    2    3    3    0    0  0.90909819726E+02  0.17560154943E+02 -0.12716309179E+01  0.12252144378E+03  0.80230497792E+02 0.  0.
      -13    1    4    4    0    0 -0.34095091890E+02 -0.36570921210E+02  0.52111715202E+02  0.72218684774E+02  0.00000000000E+00 0.  1.
       14    1    4    4    0    0 -0.56814727836E+02  0.19010766267E+02 -0.21933295003E+01  0.59951090294E+02  0.00000000000E+00 0. -1.
        3    1    5    5  501    0  0.44415424293E+02  0.26647116806E+02 -0.36602454337E+02  0.63423484709E+02  0.00000000000E+00 0. -1.
       -4    1    5    5    0  501  0.46494395433E+02 -0.90869618629E+01  0.35330823419E+02  0.59097959069E+02  0.00000000000E+00 0.  1.
</event>
<event>
 9   1  0.7570500E-01  0.2500020E+03  0.7546771E-02  0.1113304E+00
       21   -1    0    0  503  502  0.00000000000E+00  0.00000000000E+00  0.21841318294E+02  0.21841318294E+02  0.00000000000E+00 0.  1.
       21   -1    0    0  502  503 -0.00000000000E+00 -0.00000000000E+00 -0.71539857405E+03  0.71539857405E+03  0.00000000000E+00 0.  1.
       25    2    1    2    0    0  0.00000000000E+00  0.00000000000E+00 -0.69355725576E+03  0.73723989235E+03  0.25000198370E+03 0.  0.
       24    2    3    3    0    0 -0.79689205518E+02  0.37666666819E+02 -0.28564226561E+03  0.31218441984E+03  0.89991448597E+02 0.  0.
      -24    2    3    3    0    0  0.79689205518E+02 -0.37666666819E+02 -0.40791499014E+03  0.42505547251E+03  0.80674458519E+02 0.  0.
      -13    1    4    4    0    0 -0.98136865747E+02  0.42423611563E+02 -0.24188065320E+03  0.26445577632E+03  0.00000000000E+00 0.  1.
       14    1    4    4    0    0  0.18447660229E+02 -0.47569447432E+01 -0.43761612419E+02  0.47728643525E+02  0.00000000000E+00 0. -1.
        1    1    5    5  501    0  0.31952324525E+02 -0.12043989465E+02 -0.37572912118E+02  0.50771374315E+02  0.00000000000E+00 0. -1.
       -2    1    5    5    0  501  0.47736880993E+02 -0.25622677354E+02 -0.37034207803E+03  0.37428409819E+03  0.00000000000E+00 0.  1.
</event>
<event>
 9   1  0.7570500E-01  0.2500003E+03  0.7546771E-02  0.1113305E+00
       21   -1    0    0  503  502  0.00000000000E+00  0.00000000000E+00  0.87007158411E+02  0.87007158411E+02  0.00000000000E+00 0.  1.
       21   -1    0    0  502  503 -0.00000000000E+00 -0.00000000000E+00 -0.17958340993E+03  0.17958340993E+03  0.00000000000E+00 0.  1.
       25    2    1    2    0    0  0.14210854715E-13  0.00000000000E+00 -0.92576251520E+02  0.26659056834E+03  0.25000033757E+03 0.  0.
       24    2    3    3    0    0 -0.91418421367E+02 -0.33847843771E+02 -0.44124081688E+02  0.13319802540E+03  0.79320710367E+02 0.  0.
      -24    2    3    3    0    0  0.91418421367E+02  0.33847843771E+02 -0.48452169832E+02  0.13339254294E+03  0.77090553618E+02 0.  0.
      -13    1    4    4    0    0 -0.21753497166E+01  0.19964953622E+02 -0.13849473987E+00  0.20083592813E+02  0.00000000000E+00 0.  1.
       14    1    4    4    0    0 -0.89243071650E+02 -0.53812797393E+02 -0.43985586948E+02  0.11311443259E+03  0.00000000000E+00 0. -1.
        1    1    5    5  501    0  0.27703471518E+02  0.38670032064E+02  0.78699591321E+01  0.48216075853E+02  0.00000000000E+00 0. -1.
       -2    1    5    5    0  501  0.63714949849E+02 -0.48221882923E+01 -0.56322128964E+02  0.85176467086E+02  0.00000000000E+00 0.  1.
</event>
<event>
 9   1  0.7570500E-01  0.2499998E+03  0.7546771E-02  0.1113305E+00
       21   -1    0    0  503  502  0.00000000000E+00  0.00000000000E+00  0.83306940686E+02  0.83306940686E+02  0.00000000000E+00 0. -1.
       21   -1    0    0  502  503 -0.00000000000E+00 -0.00000000000E+00 -0.18755903630E+03  0.18755903630E+03  0.00000000000E+00 0. -1.
       25    2    1    2    0    0  0.00000000000E+00  0.00000000000E+00 -0.10425209561E+03  0.27086597699E+03  0.24999975610E+03 0.  0.
       24    2    3    3    0    0  0.17615430078E+02  0.86978191267E+02 -0.73443025002E+02  0.14711094232E+03  0.91499957901E+02 0.  0.
      -24    2    3    3    0    0 -0.17615430078E+02 -0.86978191267E+02 -0.30809070613E+02  0.12375503467E+03  0.80564264041E+02 0.  0.
      -13    1    4    4    0    0 -0.50813920228E+01 -0.14467969395E+01 -0.53380092409E+02  0.53640917515E+02  0.00000000000E+00 0.  1.
       14    1    4    4    0    0  0.22696822101E+02  0.88424988206E+02 -0.20062932593E+02  0.93470024805E+02  0.00000000000E+00 0. -1.
        3    1    5    5  501    0  0.30158073637E+02 -0.41841454725E+02 -0.26250598060E+02  0.57873229023E+02  0.00000000000E+00 0. -1.
       -4    1    5    5    0  501 -0.47773503715E+02 -0.45136736541E+02 -0.45584725533E+01  0.65881805644E+02  0.00000000000E+00 0.  1.
</event>
<event>
 9   1  0.7570500E-01  0.2500003E+03  0.7546771E-02  0.1113305E+00
       21   -1    0    0  503  502  0.00000000000E+00  0.00000000000E+00  0.16364990829E+04  0.16364990829E+04  0.00000000000E+00 0.  1.
       21   -1    0    0  502  503 -0.00000000000E+00 -0.00000000000E+00 -0.95478439809E+01  0.95478439809E+01  0.00000000000E+00 0.  1.
       25    2    1    2    0    0  0.00000000000E+00 -0.71054273576E-14  0.16269512389E+04  0.16460469269E+04  0.25000030335E+03 0.  0.
       24    2    3    3    0    0  0.66013765381E+02 -0.27240011043E+02  0.12313564817E+04  0.12363129781E+04  0.84446192423E+02 0.  0.
      -24    2    3    3    0    0 -0.66013765381E+02  0.27240011043E+02  0.39559475723E+03  0.40973394877E+03  0.79289730792E+02 0.  0.
      -13    1    4    4    0    0  0.31924961103E+02 -0.53262850624E+02  0.90862422816E+03  0.91074371939E+03  0.00000000000E+00 0.  1.
       14    1    4    4    0    0  0.34088804278E+02  0.26022839580E+02  0.32273225350E+03  0.32556925869E+03  0.00000000000E+00 0. -1.
        1    1    5    5  501    0 -0.14457957561E+02  0.58704812192E+01  0.69149243578E+01  0.17067843023E+02  0.00000000000E+00 0. -1.
       -2    1    5    5    0  501 -0.51555807820E+02  0.21369529824E+02  0.38867983287E+03  0.39266610575E+03  0.00000000000E+00 0.  1.
</event>
<event>
 9   1  0.7570500E-01  0.2499982E+03  0.7546771E-02  0.1113306E+00
       21   -1    0    0  503  502  0.00000000000E+00  0.00000000000E+00  0.63768823073E+02  0.63768823073E+02  0.00000000000E+00 0. -1.
       21   -1    0    0  502  503 -0.00000000000E+00 -0.00000000000E+00 -0.24502225228E+03  0.24502225228E+03  0.00000000000E+00 0. -1.
       25    2    1    2    0    0 -0.71054273576E-14  0.00000000000E+00 -0.18125342921E+03  0.30879107536E+03  0.24999824523E+03 0.  0.
       24    2    3    3    0    0  0.23800759088E+02  0.40686960303E+02  0.12757304903E+02  0.93709002894E+02  0.79979519398E+02 0.  0.
      -24    2    3    3    0    0 -0.23800759088E+02 -0.40686960303E+02 -0.19401073411E+03  0.21508207246E+03  0.79988924681E+02 0.  0.
      -13    1    4    4    0    0 -0.22372361533E+02  0.38633580410E+02  0.15881993328E+02  0.47384742354E+02  0.00000000000E+00 0.  1.
       14    1    4    4    0    0  0.46173120621E+02  0.20533798926E+01 -0.31246884253E+01  0.46324260540E+02  0.00000000000E+00 0. -1.
        3    1    5    5  501    0 -0.20332599764E+02  0.15781920729E+02 -0.11536355156E+03  0.11819996897E+03  0.00000000000E+00 0. -1.
       -4    1    5    5    0  501 -0.34681593232E+01 -0.56468881032E+02 -0.78647182549E+02  0.96882103492E+02  0.00000000000E+00 0.  1.
</event>
<event>
 9   1  0.7570500E-01  0.2499996E+03  0.7546771E-02  0.1113305E+00
       21   -1    0    0  503  502  0.00000000000E+00  0.00000000000E+00  0.12859916310E+03  0.12859916310E+03  0.00000000000E+00 0. -1.
       21   -1    0    0  502  503 -0.00000000000E+00 -0.00000000000E+00 -0.12150113987E+03  0.12150113987E+03  0.00000000000E+00 0. -1.
       25    2    1    2    0    0  0.00000000000E+00  0.00000000000E+00  0.70980232349E+01  0.25010030297E+03  0.24999955923E+03 0.  0.
       24    2    3    3    0    0 -0.57764556838E+02 -0.44335001439E+02  0.40426971377E+02  0.13661614909E+03  0.10829263963E+03 0.  0.
      -24    2    3    3    0    0  0.57764556838E+02  0.44335001439E+02 -0.33328948142E+02  0.11348415388E+03  0.80408320582E+02 0.  0.
      -13    1    4    4    0    0 -0.80841177751E+02 -0.61489725111E+02  0.34404582608E+02  0.10723785534E+03  0.00000000000E+00 0.  1.
       14    1    4    4    0    0  0.23076620913E+02  0.17154723672E+02  0.60223887687E+01  0.29378293747E+02  0.00000000000E+00 0. -1.
        3    1    5    5  501    0 -0.16695729135E+02  0.12349735934E+02  0.83165730263E+01  0.22370264546E+02  0.00000000000E+00 0. -1.
       -4    1    5    5    0  501  0.74460285973E+02  0.31985265505E+02 -0.41645521168E+02  0.91113889336E+02  0.00000000000E+00 0.  1.
</event>
<event>
 9   1  0.7570500E-01  0.2500027E+03  0.7546771E-02  0.1113303E+00
       21   -1    0    0  503  502  0.00000000000E+00  0.00000000000E+00  0.14320337062E+02  0.14320337062E+02  0.00000000000E+00 0. -1.
       21   -1    0    0  502  503 -0.00000000000E+00 -0.00000000000E+00 -0.10911292874E+04  0.10911292874E+04  0.00000000000E+00 0. -1.
       25    2    1    2    0    0  0.14210854715E-13  0.00000000000E+00 -0.10768089504E+04  0.11054496245E+04  0.25000271338E+03 0.  0.
       24    2    3    3    0    0  0.37097389284E+02 -0.79298620718E+02 -0.37761848484E+03  0.39587452017E+03  0.80351901562E+02 0.  0.
      -24    2    3    3    0    0 -0.37097389284E+02  0.79298620718E+02 -0.69919046552E+03  0.70957510432E+03  0.83456779559E+02 0.  0.
      -13    1    4    4    0    0 -0.26746237835E+01 -0.32953405664E+02 -0.27095658432E+03  0.27296620879E+03  0.00000000000E+00 0.  1.
       14    1    4    4    0    0  0.39772013068E+02 -0.46345215054E+02 -0.10666190052E+03  0.12290831138E+03  0.00000000000E+00 0. -1.
        3    1    5    5  501    0 -0.49232056071E+02  0.15308675059E+02 -0.40454117458E+03  0.40781333084E+03  0.00000000000E+00 0. -1.
       -4    1    5    5    0  501  0.12134666787E+02  0.63989945659E+02 -0.29464929093E+03  0.30176177348E+03  0.00000000000E+00 0.  1.
</event>
<event>
 9   1  0.7570500E-01  0.2499932E+03  0.7546771E-02  0.1113309E+00
       21   -1    0    0  503  502  0.00000000000E+00  0.00000000000E+00  0.15687930544E+03  0.15687930544E+03  0.00000000000E+00 0. -1.
       21   -1    0    0  502  503 -0.00000000000E+00 -0.00000000000E+00 -0.99593449084E+02  0.99593449084E+02  0.00000000000E+00 0. -1.
       25    2    1    2    0    0 -0.17763568394E-14  0.00000000000E+00  0.57285856357E+02  0.25647275452E+03  0.24999320886E+03 0.  0.
       24    2    3    3    0    0 -0.11641964289E+02 -0.92089407596E+02  0.53097461918E+02  0.13396684181E+03  0.80695600374E+02 0.  0.
      -24    2    3    3    0    0  0.11641964289E+02  0.92089407596E+02  0.41883944388E+01  0.12250591271E+03  0.79838347159E+02 0.  0.
      -13    1    4    4    0    0  0.30408495401E+02 -0.13137015095E+02  0.19335487637E+02  0.38355167061E+02  0.00000000000E+00 0.  1.
       14    1    4    4    0    0 -0.42050459690E+02 -0.78952392501E+02  0.33761974282E+02  0.95611674753E+02  0.00000000000E+00 0. -1.
        3    1    5    5  501    0 -0.13742168335E+02  0.53560664782E+02 -0.31982598765E+02  0.63878624173E+02  0.00000000000E+00 0. -1.
       -4    1    5    5    0  501  0.25384132624E+02  0.38528742813E+02  0.36170993204E+02  0.58627288537E+02  0.00000000000E+00 0.  1.
</event>
<event>
 9   1  0.7570500E-01  0.2500005E+03  0.7546771E-02  0.1113305E+00
       21   -1    0    0  503  502  0.00000000000E+00  0.00000000000E+00  0.75218669062E+03  0.75218669062E+03  0.00000000000E+00 0.  1.
       21   -1    0    0  502  503 -0.00000000000E+00 -0.00000000000E+00 -0.20772844932E+02  0.20772844932E+02  0.00000000000E+00 0.  1.
       25    2    1    2    0    0  0.00000000000E+00  0.14210854715E-13  0.73141384569E+03  0.77295953556E+03  0.25000045987E+03 0.  0.
       24    2    3    3    0    0  0.60485464938E+02  0.74427069710E+02  0.32849407916E+03  0.35119544375E+03  0.78943014211E+02 0.  0.
      -24    2    3    3    0    0 -0.60485464938E+02 -0.74427069710E+02  0.40291976653E+03  0.42176409180E+03  0.79641262550E+02 0.  0.
      -13    1    4    4    0    0  0.17476663077E+02 -0.10126134547E+02  0.19918823601E+02  0.28367796651E+02  0.00000000000E+00 0.  1.
       14    1    4    4    0    0  0.43008801861E+02  0.84553204257E+02  0.30857525556E+03  0.32282764710E+03  0.00000000000E+00 0. -1.
        3    1    5    5  501    0 -0.30088026436E+02 -0.75252562855E+02  0.36094619750E+03  0.36993296020E+03  0.00000000000E+00 0. -1.
       -4    1    5    5    0  501 -0.30397438502E+02  0.82549314569E+00  0.41973569028E+02  0.51831131604E+02  0.00000000000E+00 0.  1.
</event>
<event>
 9   1  0.7570500E-01  0.2499618E+03  0.7546771E-02  0.1113329E+00
       21   -1    0    0  503  502  0.00000000000E+00  0.00000000000E+00  0.67111321629E+02  0.67111321629E+02  0.00000000000E+00 0.  1.
       21   -1    0    0  502  503 -0.00000000000E+00 -0.00000000000E+00 -0.23275092888E+03  0.23275092888E+03  0.00000000000E+00 0.  1.
       25    2    1    2    0    0  0.71054273576E-14  0.35527136788E-14 -0.16563960725E+03  0.29986225051E+03  0.24996177666E+03 0.  0.
       24    2    3    3    0    0 -0.56796441836E+02  0.14871852342E+02  0.96592604178E+01  0.98478788398E+02  0.78471412981E+02 0.  0.
      -24    2    3    3    0    0  0.56796441836E+02 -0.14871852342E+02 -0.17529886767E+03  0.20138346211E+03  0.79866125537E+02 0.  0.
      -13    1    4    4    0    0 -0.29538663950E+02  0.33374223136E+02 -0.24635319318E+02  0.50924163181E+02  0.00000000000E+00 0.  1.
       14    1    4    4    0    0 -0.27257777886E+02 -0.18502370794E+02  0.34294579735E+02  0.47554625217E+02  0.00000000000E+00 0. -1.
        1    1    5    5  501    0  0.68816137154E+02  0.82579871094E+01 -0.99762410575E+02  0.12147589739E+03  0.00000000000E+00 0. -1.
       -2    1    5    5    0  501 -0.12019695318E+02 -0.23129839452E+02 -0.75536457098E+02  0.79907564720E+02  0.00000000000E+00 0.  1.
</event>
<event>
 9   1  0.7570500E-01  0.2499944E+03  0.7546771E-02  0.1113308E+00
       21   -1    0    0  503  502  0.00000000000E+00  0.00000000000E+00  0.16695977411E+03  0.16695977411E+03  0.00000000000E+00 0.  1.
       21   -1    0    0  502  503 -0.00000000000E+00 -0.00000000000E+00 -0.93581240404E+02  0.93581240404E+02  0.00000000000E+00 0.  1.
       25    2    1    2    0    0  0.00000000000E+00  0.17763568394E-14  0.73378533702E+02  0.26054101451E+03  0.24999442201E+03 0.  0.
       24    2    3    3    0    0  0.75064566847E+02 -0.80462456776E+01 -0.23233834830E+02  0.11389787001E+03  0.82057799427E+02 0.  0.
      -24    2    3    3    0    0 -0.75064566847E+02  0.80462456776E+01  0.96612368531E+02  0.14664314450E+03  0.80441474439E+02 0.  0.
      -13    1    4    4    0    0  0.80610089826E+02 -0.19458735144E+02  0.48639455195E+01  0.83067965673E+02  0.00000000000E+00 0.  1.
       14    1    4    4    0    0 -0.55455229790E+01  0.11412489466E+02 -0.28097780349E+02  0.30829904338E+02  0.00000000000E+00 0. -1.
        1    1    5    5  501    0 -0.70797662306E+02 -0.25862948620E+02  0.74234607342E+02  0.10579214539E+03  0.00000000000E+00 0. -1.
       -2    1    5    5    0  501 -0.42669045409E+01  0.33909194297E+02  0.22377761189E+02  0.40850999108E+02  0.00000000000E+00 0.  1.
</event>
<event>
 9   1  0.7570500E-01  0.2500007E+03  0.7546771E-02  0.1113304E+00
       21   -1    0    0  503  502  0.00000000000E+00  0.00000000000E+00  0.75765995327E+03  0.75765995327E+03  0.00000000000E+00 0. -1.
       21   -1    0    0  502  503 -0.00000000000E+00 -0.00000000000E+00 -0.20622823544E+02  0.20622823544E+02  0.00000000000E+00 0. -1.
       25    2    1    2    0    0  0.00000000000E+00 -0.14210854715E-13  0.73703712973E+03  0.77828277681E+03  0.25000070018E+03 0.  0.
       24    2    3    3    0    0 -0.60693939681E+02 -0.77300319293E+02  0.43231150314E+03  0.45054319294E+03  0.80229915100E+02 0.  0.
      -24    2    3    3    0    0  0.60693939681E+02  0.77300319293E+02  0.30472562659E+03  0.32773958388E+03  0.69974521543E+02 0.  0.
      -13    1    4    4    0    0 -0.65335638124E+02 -0.46922227802E+02  0.39023612401E+03  0.39844030111E+03  0.00000000000E+00 0.  1.
       14    1    4    4    0    0  0.46416984428E+01 -0.30378091491E+02  0.42075379131E+02  0.52102891821E+02  0.00000000000E+00 0. -1.
        1    1    5    5  501    0 -0.86923379497E+00  0.51198596646E+02  0.99631504630E+02  0.11202003651E+03  0.00000000000E+00 0. -1.
       -2    1    5    5    0  501  0.61563173476E+02  0.26101722647E+02  0.20509412196E+03  0.21571954736E+03  0.00000000000E+00 0.  1.
</event>
<event>
 9   1  0.7570500E-01  0.2499945E+03  0.7546771E-02  0.1113308E+00
       21   -1    0    0  503  502  0.00000000000E+00  0.00000000000E+00  0.68140230542E+02  0.68140230542E+02  0.00000000000E+00 0.  1.
       21   -1    0    0  502  503 -0.00000000000E+00 -0.00000000000E+00 -0.22929639682E+03  0.22929639682E+03  0.00000000000E+00 0.  1.
       25    2    1    2    0    0  0.00000000000E+00  0.00000000000E+00 -0.16115616628E+03  0.29743662736E+03  0.24999447467E+03 0.  0.
       24    2    3    3    0    0  0.11540107841E+02 -0.64010158690E+02 -0.16486108362E+03  0.19469235812E+03  0.80594434746E+02 0.  0.
      -24    2    3    3    0    0 -0.11540107841E+02  0.64010158690E+02  0.37049173457E+01  0.10274426924E+03  0.79449253901E+02 0.  0.
      -13    1    4    4    0    0 -0.44362758493E+01  0.18687244121E+02 -0.34584813671E+02  0.39560118465E+02  0.00000000000E+00 0.  1.
       14    1    4    4    0    0  0.15976383690E+02 -0.82697402811E+02 -0.13027626995E+03  0.15513223965E+03  0.00000000000E+00 0. -1.
        1    1    5    5  501    0 -0.26495743785E+02 -0.23215786867E+01  0.19447646291E+02  0.32948825663E+02  0.00000000000E+00 0. -1.
       -2    1    5    5    0  501  0.14955635945E+02  0.66331737376E+02 -0.15742728945E+02  0.69795443580E+02  0.00000000000E+00 0.  1.
</event>
<event>
 9   1  0.7570500E-01  0.2499989E+03  0.7546771E-02  0.1113306E+00
       21   -1    0    0  503  502  0.00000000000E+00  0.00000000000E+00  0.10908974583E+04  0.10908974583E+04  0.00000000000E+00 0. -1.
       21   -1    0    0  502  503 -0.00000000000E+00 -0.00000000000E+00 -0.14322945114E+02  0.14322945114E+02  0.00000000000E+00 0. -1.
       25    2    1    2    0    0  0.71054273576E-14  0.00000000000E+00  0.10765745132E+04  0.11052204034E+04  0.24999891537E+03 0.  0.
       24    2    3    3    0    0  0.35511303129E+02 -0.61117603937E+02  0.26343767881E+03  0.28511728879E+03  0.83042420422E+02 0.  0.
      -24    2    3    3    0    0 -0.35511303129E+02  0.61117603937E+02  0.81313683440E+03  0.82010311465E+03  0.79882370001E+02 0.  0.
      -13    1    4    4    0    0  0.59830601852E+02 -0.31690584417E+02  0.13349217436E+03  0.14968017461E+03  0.00000000000E+00 0.  1.
       14    1    4    4    0    0 -0.24319298723E+02 -0.29427019519E+02  0.12994550446E+03  0.13543711418E+03  0.00000000000E+00 0. -1.
        3    1    5    5  501    0 -0.18863676687E+00  0.37822432501E+02  0.66410123712E+03  0.66517743883E+03  0.00000000000E+00 0. -1.
       -4    1    5    5    0  501 -0.35322666362E+02  0.23295171435E+02  0.14903559728E+03  0.15492567582E+03  0.00000000000E+00 0.  1.
</event>
<event>
 9   1  0.7570500E-01  0.2499682E+03  0.7546771E-02  0.1113325E+00
       21   -1    0    0  503  502  0.00000000000E+00  0.00000000000E+00  0.84164230559E+01  0.84164230559E+01  0.00000000000E+00 0. -1.
       21   -1    0    0  502  503 -0.00000000000E+00 -0.00000000000E+00 -0.18560171591E+04  0.18560171591E+04  0.00000000000E+00 0. -1.
       25    2    1    2    0    0 -0.71054273576E-14  0.17763568394E-14 -0.18476007361E+04  0.18644335822E+04  0.24996820286E+03 0.  0.
       24    2    3    3    0    0 -0.53031306541E+02 -0.35317457411E+01 -0.32695487405E+03  0.34076560706E+03  0.79980726384E+02 0.  0.
      -24    2    3    3    0    0  0.53031306541E+02  0.35317457411E+01 -0.15206458620E+04  0.15236679751E+04  0.79846527866E+02 0.  0.
      -13    1    4    4    0    0 -0.40911360029E+02 -0.37276797900E+02 -0.24722082532E+03  0.25334055245E+03  0.00000000000E+00 0.  1.
       14    1    4    4    0    0 -0.12119946512E+02  0.33745052159E+02 -0.79734048724E+02  0.87425054616E+02  0.00000000000E+00 0. -1.
        1    1    5    5  501    0  0.58771228519E+02 -0.12592624291E+02 -0.63069265759E+03  0.63355020308E+03  0.00000000000E+00 0. -1.
       -2    1    5    5    0  501 -0.57399219779E+01  0.16124370032E+02 -0.88995320444E+03  0.89011777204E+03  0.00000000000E+00 0.  1.
</event>
<event>
 9   1  0.7570500E-01  0.2500000E+03  0.7546771E-02  0.1113305E+00
       21   -1    0    0  503  502  0.00000000000E+00  0.00000000000E+00  0.24009465325E+02  0.24009465325E+02  0.00000000000E+00 0.  1.
       21   -1    0    0  502  503 -0.00000000000E+00 -0.00000000000E+00 -0.65078506958E+03  0.65078506958E+03  0.00000000000E+00 0.  1.
       25    2    1    2    0    0  0.00000000000E+00  0.14210854715E-13 -0.62677560426E+03  0.67479453490E+03  0.25000001250E+03 0.  0.
       24    2    3    3    0    0  0.41150588281E+02 -0.83247447449E+02 -0.37182984245E+03  0.39124321982E+03  0.78678566923E+02 0.  0.
      -24    2    3    3    0    0 -0.41150588281E+02  0.83247447449E+02 -0.25494576180E+03  0.28355131509E+03  0.82343781812E+02 0.  0.
      -13    1    4    4    0    0  0.31833773133E+02  0.19934046937E+01 -0.61431010465E+02  0.69218002145E+02  0.00000000000E+00 0.  1.
       14    1    4    4    0    0  0.93168151475E+01 -0.85240852143E+02 -0.31039883199E+03  0.32202521767E+03  0.00000000000E+00 0. -1.
        1    1    5    5  501    0 -0.54719433821E+02  0.45888387670E+02 -0.21757408442E+03  0.22899441646E+03  0.00000000000E+00 0. -1.
       -2    1    5    5    0  501  0.13568845540E+02  0.37359059779E+02 -0.37371677385E+02  0.54556898624E+02  0.00000000000E+00 0.  1.
</event>
<event>
 9   1  0.7570500E-01  0.2499999E+03  0.7546771E-02  0.1113305E+00
       21   -1    0    0  503  502  0.00000000000E+00  0.00000000000E+00  0.26961592789E+02  0.26961592789E+02  0.00000000000E+00 0. -1.
       21   -1    0    0  502  503 -0.00000000000E+00 -0.00000000000E+00 -0.57952778548E+03  0.57952778548E+03  0.00000000000E+00 0. -1.
       25    2    1    2    0    0  0.35527136788E-14  0.00000000000E+00 -0.55256619269E+03  0.60648937827E+03  0.24999993729E+03 0.  0.
       24    2    3    3    0    0  0.28008772608E+02  0.76609014105E+02 -0.15704589391E+03  0.19452872302E+03  0.80774865526E+02 0.  0.
      -24    2    3    3    0    0 -0.28008772608E+02 -0.76609014105E+02 -0.39552029878E+03  0.41196065524E+03  0.81374703316E+02 0.  0.
      -13    1    4    4    0    0  0.29082448003E+02  0.66035400086E+02 -0.16576067445E+03  0.18078457910E+03  0.00000000000E+00 0.  1.
       14    1    4    4    0    0 -0.10736753947E+01  0.10573614019E+02  0.87147805385E+01  0.13744143921E+02  0.00000000000E+00 0. -1.
        1    1    5    5  501    0 -0.32362876160E+02 -0.65196517674E+02 -0.39274715405E+03  0.39943493673E+03  0.00000000000E+00 0. -1.
       -2    1    5    5    0  501  0.43541035519E+01 -0.11412496432E+02 -0.27731447289E+01  0.12525718512E+02  0.00000000000E+00 0.  1.
</event>
<event>
 9   1  0.7570500E-01  0.2499970E+03  0.7546771E-02  0.1113307E+00
       21   -1    0    0  503  502  0.00000000000E+00  0.00000000000E+00  0.25479813926E+04  0.25479813926E+04  0.00000000000E+00 0.  1.
       21   -1    0    0  502  503 -0.00000000000E+00 -0.00000000000E+00 -0.61321563338E+01  0.61321563338E+01  0.00000000000E+00 0.  1.
       25    2    1    2    0    0 -0.17763568394E-14  0.00000000000E+00  0.25418492363E+04  0.25541135490E+04  0.24999696186E+03 0.  0.
       24    2    3    3    0    0 -0.51585628106E+01 -0.38545376868E+02  0.21634775244E+04  0.21652125600E+04  0.77447238453E+02 0.  0.
      -24    2    3    3    0    0  0.51585628106E+01  0.38545376868E+02  0.37837171192E+03  0.38890098894E+03  0.81033758219E+02 0.  0.
      -13    1    4    4    0    0  0.27137335111E+02 -0.25583179425E+02  0.50714192767E+03  0.50851142448E+03  0.00000000000E+00 0.  1.
       14    1    4    4    0    0 -0.32295897922E+02 -0.12962197443E+02  0.16563355967E+04  0.16567011356E+04  0.00000000000E+00 0. -1.
        3    1    5    5  501    0 -0.31349944406E+01 -0.17607625359E+02  0.23568456747E+02  0.29585956371E+02  0.00000000000E+00 0. -1.
       -4    1    5    5    0  501  0.82935572512E+01  0.56153002227E+02  0.35480325517E+03  0.35931503257E+03  0.00000000000E+00 0.  1.
</event>
<event>
 9   1  0.7570500E-01  0.2500014E+03  0.7546771E-02  0.1113304E+00
       21   -1    0    0  503  502  0.00000000000E+00  0.00000000000E+00  0.17589891305E+04  0.17589891305E+04  0.00000000000E+00 0. -1.
       21   -1    0    0  502  503 -0.00000000000E+00 -0.00000000000E+00 -0.88830445529E+01  0.88830445529E+01  0.00000000000E+00 0. -1.
       25    2    1    2    0    0 -0.44408920985E-14 -0.14210854715E-13  0.17501060860E+04  0.17678721751E+04  0.25000143051E+03 0.  0.
       24    2    3    3    0    0 -0.72871026989E+01 -0.95274492215E+02  0.89806581384E+03  0.90673073607E+03  0.80672740157E+02 0.  0.
      -24    2    3    3    0    0  0.72871026989E+01  0.95274492215E+02  0.85204027212E+03  0.86114143900E+03  0.80384214354E+02 0.  0.
      -13    1    4    4    0    0  0.61306300701E+01 -0.10347338206E+03  0.84644457676E+03  0.85276769811E+03  0.00000000000E+00 0.  1.
       14    1    4    4    0    0 -0.13417732769E+02  0.81988898421E+01  0.51621237081E+02  0.53963037953E+02  0.00000000000E+00 0. -1.
        3    1    5    5  501    0 -0.24936710620E+02  0.21106511520E+02  0.44184932861E+03  0.44305547459E+03  0.00000000000E+00 0. -1.
       -4    1    5    5    0  501  0.32223813319E+02  0.74167980695E+02  0.41019094350E+03  0.41808596441E+03  0.00000000000E+00 0.  1.
</event>
<event>
 9   1  0.7570500E-01  0.2499880E+03  0.7546771E-02  0.1113312E+00
       21   -1    0    0  503  502  0.00000000000E+00  0.00000000000E+00  0.51181741218E+02  0.51181741218E+02  0.00000000000E+00 0. -1.
       21   -1    0    0  502  503 -0.00000000000E+00 -0.00000000000E+00 -0.30525544084E+03  0.30525544084E+03  0.00000000000E+00 0. -1.
       25    2    1    2    0    0 -0.14210854715E-13  0.71054273576E-14 -0.25407369963E+03  0.35643718206E+03  0.24998803954E+03 0.  0.
       24    2    3    3    0    0 -0.69042194036E+02  0.41881932381E+02 -0.20154656925E+03  0.23155204413E+03  0.80463710753E+02 0.  0.
      -24    2    3    3    0    0  0.69042194036E+02 -0.41881932381E+02 -0.52527130378E+02  0.12488513793E+03  0.79475011374E+02 0.  0.
      -13    1    4    4    0    0 -0.17161036100E+02 -0.47541464385E+01  0.48649564349E+00  0.17814032289E+02  0.00000000000E+00 0.  1.
       14    1    4    4    0    0 -0.51881157936E+02  0.46636078819E+02 -0.20203306489E+03  0.21373801184E+03  0.00000000000E+00 0. -1.
        3    1    5    5  501    0 -0.10954936211E+02 -0.46845915994E+01  0.10963985121E+02  0.16191509984E+02  0.00000000000E+00 0. -1.
       -4    1    5    5    0  501  0.79997130247E+02 -0.37197340781E+02 -0.63491115499E+02  0.10869362795E+03  0.00000000000E+00 0.  1.
</event>
<event>
 9   1  0.7570500E-01  0.2499958E+03  0.7546771E-02  0.1113307E+00
       21   -1    0    0  503  502  0.00000000000E+00  0.00000000000E+00  0.83858663093E+02  0.83858663093E+02  0.00000000000E+00 0. -1.
       21   -1    0    0  502  503 -0.00000000000E+00 -0.00000000000E+00 -0.18631919667E+03  0.18631919667E+03  0.00000000000E+00 0. -1.
       25    2    1    2    0    0 -0.17763568394E-14  0.71054273576E-14 -0.10246053357E+03  0.27017785976E+03  0.24999582989E+03 0.  0.
       24    2    3    3    0    0  0.17120749791E+01 -0.54272426230E+02 -0.13690905850E+03  0.16761586800E+03  0.80016007494E+02 0.  0.
      -24    2    3    3    0    0 -0.17120749791E+01  0.54272426230E+02  0.34448524929E+02  0.10256199176E+03  0.79898897581E+02 0.  0.
      -13    1    4    4    0    0  0.39193974904E+02 -0.26692239755E+02 -0.49236497821E+02  0.68358438028E+02  0.00000000000E+00 0.  1.
       14    1    4    4    0    0 -0.37481899925E+02 -0.27580186475E+02 -0.87672560682E+02  0.99257429971E+02  0.00000000000E+00 0. -1.
        1    1    5    5  501    0  0.10302736098E+02 -0.15667728418E+02  0.24577623009E+02  0.30914133300E+02  0.00000000000E+00 0. -1.
       -2    1    5    5    0  501 -0.12014811077E+02  0.69940154648E+02  0.98709019201E+01  0.71647858461E+02  0.00000000000E+00 0.  1.
</event>
<event>
 9   1  0.7570500E-01  0.2499966E+03  0.7546771E-02  0.1113307E+00
       21   -1    0    0  503  502  0.00000000000E+00  0.00000000000E+00  0.41889683790E+03  0.41889683790E+03  0.00000000000E+00 0.  1.
       21   -1    0    0  502  503 -0.00000000000E+00 -0.00000000000E+00 -0.37299347656E+02  0.37299347656E+02  0.00000000000E+00 0.  1.
       25    2    1    2    0    0 -0.14210854715E-13  0.00000000000E+00  0.38159749025E+03  0.45619618556E+03  0.24999663029E+03 0.  0.
       24    2    3    3    0    0 -0.62391984328E+02 -0.63437363726E+02  0.11747383096E+03  0.16580928219E+03  0.75997093854E+02 0.  0.
      -24    2    3    3    0    0  0.62391984328E+02  0.63437363726E+02  0.26412365928E+03  0.29038690337E+03  0.81524152434E+02 0.  0.
      -13    1    4    4    0    0 -0.14429622897E+02 -0.50283583323E+02  0.19304976062E+02  0.55761410218E+02  0.00000000000E+00 0.  1.
       14    1    4    4    0    0 -0.47962361431E+02 -0.13153780402E+02  0.98168854899E+02  0.11004787197E+03  0.00000000000E+00 0. -1.
        1    1    5    5  501    0  0.18333247873E+02  0.37851568084E+02  0.32297294758E+02  0.53027958971E+02  0.00000000000E+00 0. -1.
       -2    1    5    5    0  501  0.44058736455E+02  0.25585795642E+02  0.23182636453E+03  0.23735894440E+03  0.00000000000E+00 0.  1.
</event>
<event>
 9   1  0.7570500E-01  0.2500084E+03  0.7546771E-02  0.1113300E+00
       21   -1    0    0  503  502  0.00000000000E+00  0.00000000000E+00  0.10513102453E+04  0.10513102453E+04  0.00000000000E+00 0.  1.
       21   -1    0    0  502  503 -0.00000000000E+00 -0.00000000000E+00 -0.14863399584E+02  0.14863399584E+02  0.00000000000E+00 0.  1.
       25    2    1    2    0    0  0.00000000000E+00  0.00000000000E+00  0.10364468457E+04  0.10661736448E+04  0.25000835396E+03 0.  0.
       24    2    3    3    0    0 -0.30610832451E+02  0.72523616465E+02  0.74612725570E+03  0.75479084829E+03  0.82502393617E+02 0.  0.
      -24    2    3    3    0    0  0.30610832451E+02 -0.72523616465E+02  0.29031958998E+03  0.31138279656E+03  0.80480330883E+02 0.  0.
      -13    1    4    4    0    0 -0.22910625575E+02  0.46828289614E+02  0.16489011731E+03  0.17293506370E+03  0.00000000000E+00 0.  1.
       14    1    4    4    0    0 -0.77002068759E+01  0.25695326851E+02  0.58123713839E+03  0.58185578458E+03  0.00000000000E+00 0. -1.
        1    1    5    5  501    0  0.48142008982E+02 -0.16094569233E+02  0.16864940510E+03  0.17612299688E+03  0.00000000000E+00 0. -1.
       -2    1    5    5    0  501 -0.17531176531E+02 -0.56429047232E+02  0.12167018487E+03  0.13525979968E+03  0.00000000000E+00 0.  1.
</event>
<event>
 9   1  0.7570500E-01  0.2500018E+03  0.7546771E-02  0.1113304E+00
       21   -1    0    0  503  502  0.00000000000E+00  0.00000000000E+00  0.20066823439E+03  0.20066823439E+03  0.00000000000E+00 0.  1.
       21   -1    0    0  502  503 -0.00000000000E+00 -0.00000000000E+00 -0.77865956297E+02  0.77865956297E+02  0.00000000000E+00 0.  1.
       25    2    1    2    0    0  0.71054273576E-14  0.71054273576E-14  0.12280227809E+03  0.27853419068E+03  0.25000179175E+03 0.  0.
       24    2    3    3    0    0 -0.28381272666E+02 -0.50888758655E+02  0.14589496351E+03  0.17646350806E+03  0.80367075979E+02 0.  0.
      -24    2    3    3    0    0  0.28381272666E+02  0.50888758655E+02 -0.23092685424E+02  0.10207068263E+03  0.80560472543E+02 0.  0.
      -13    1    4    4    0    0 -0.39573279172E+02  0.25031887569E+01  0.90058962320E+02  0.98401865188E+02  0.00000000000E+00 0.  1.
       14    1    4    4    0    0  0.11192006506E+02 -0.53391947411E+02  0.55836001194E+02  0.78061642869E+02  0.00000000000E+00 0. -1.
        3    1    5    5  501    0 -0.12213324935E+02  0.55183323973E+02 -0.30664101127E+01  0.56601832317E+02  0.00000000000E+00 0. -1.
       -4    1    5    5    0  501  0.40594597601E+02 -0.42945653187E+01 -0.20026275312E+02  0.45468850310E+02  0.00000000000E+00 0.  1.
</event>
<event>
 9   1  0.7570500E-01  0.2500052E+03  0.7546771E-02  0.1113302E+00
       21   -1    0    0  503  502  0.00000000000E+00  0.00000000000E+00  0.34568248289E+03  0.34568248289E+03  0.00000000000E+00 0. -1.
       21   -1    0    0  502  503 -0.00000000000E+00 -0.00000000000E+00 -0.45202302207E+02  0.45202302207E+02  0.00000000000E+00 0. -1.
       25    2    1    2    0    0  0.00000000000E+00 -0.71054273576E-14  0.30048018069E+03  0.39088478510E+03  0.25000515242E+03 0.  0.
       24    2    3    3    0    0 -0.40301605230E+02 -0.44798699984E+02  0.34855679921E+02  0.10533131087E+03  0.79048236676E+02 0.  0.
      -24    2    3    3    0    0  0.40301605230E+02  0.44798699984E+02  0.26562450077E+03  0.28555347424E+03  0.85751200199E+02 0.  0.
      -13    1    4    4    0    0 -0.94578227254E+01  0.11559694465E+02 -0.17100947944E+02  0.22705051583E+02  0.00000000000E+00 0.  1.
       14    1    4    4    0    0 -0.30843782505E+02 -0.56358394449E+02  0.51956627864E+02  0.82626259283E+02  0.00000000000E+00 0. -1.
        3    1    5    5  501    0  0.27193235090E+02  0.14834286998E+02  0.18098296394E+02  0.35875847555E+02  0.00000000000E+00 0. -1.
       -4    1    5    5    0  501  0.13108370140E+02  0.29964412986E+02  0.24752620437E+03  0.24967762668E+03  0.00000000000E+00 0.  1.
</event>
<event>
 9   1  0.7570500E-01  0.2500135E+03  0.7546771E-02  0.1113296E+00
       21   -1    0    0  503  502  0.00000000000E+00  0.00000000000E+00  0.25585496262E+03  0.25585496262E+03  0.00000000000E+00 0.  1.
       21   -1    0    0  502  503 -0.00000000000E+00 -0.00000000000E+00 -0.61076374818E+02  0.61076374818E+02  0.00000000000E+00 0.  1.
       25    2    1    2    0    0  0.00000000000E+00  0.00000000000E+00  0.19477858780E+03  0.31693133743E+03  0.25001354840E+03 0.  0.
       24    2    3    3    0    0  0.48641818895E+02 -0.73671371231E+02  0.14797127377E+03  0.18828395324E+03  0.75906862007E+02 0.  0.
      -24    2    3    3    0    0 -0.48641818895E+02  0.73671371231E+02  0.46807314025E+02  0.12864738420E+03  0.81029175797E+02 0.  0.
      -13    1    4    4    0    0  0.29410001527E+02 -0.75060313005E+02  0.66330275924E+02  0.10439685954E+03  0.00000000000E+00 0.  1.
       14    1    4    4    0    0  0.19231817368E+02  0.13889417742E+01  0.81640997848E+02  0.83887093692E+02  0.00000000000E+00 0. -1.
        1    1    5    5  501    0 -0.34267542972E+02  0.83369074155E+02  0.58749974738E+02  0.10759287411E+03  0.00000000000E+00 0. -1.
       -2    1    5    5    0  501 -0.14374275923E+02 -0.96977029236E+01 -0.11942660713E+02  0.21054510092E+02  0.00000000000E+00 0.  1.
</event>
<event>
 9   1  0.7570500E-01  0.2500029E+03  0.7546771E-02  0.1113303E+00
       21   -1    0    0  503  502  0.00000000000E+00  0.00000000000E+00  0.94817861571E+03  0.94817861571E+03  0.00000000000E+00 0. -1.
       21   -1    0    0  502  503 -0.00000000000E+00 -0.00000000000E+00 -0.16479349573E+02  0.16479349573E+02  0.00000000000E+00 0. -1.
       25    2    1    2    0    0  0.00000000000E+00 -0.17763568394E-14  0.93169926614E+03  0.96465796528E+03  0.25000293491E+03 0.  0.
       24    2    3    3    0    0 -0.57118162933E+02  0.11430123288E+02  0.73068384658E+03  0.74036267851E+03  0.10413875276E+03 0.  0.
      -24    2    3    3    0    0  0.57118162933E+02 -0.11430123288E+02  0.20101541956E+03  0.22429528677E+03  0.80672452007E+02 0.  0.
      -13    1    4    4    0    0 -0.38388215755E+02  0.42020473786E+02  0.18633951366E+03  0.19483785484E+03  0.00000000000E+00 0.  1.
       14    1    4    4    0    0 -0.18729947177E+02 -0.30590350499E+02  0.54434433291E+03  0.54552482367E+03  0.00000000000E+00 0. -1.
        3    1    5    5  501    0 -0.19376646841E+02  0.73023145984E+01  0.44565628083E+02  0.49141361883E+02  0.00000000000E+00 0. -1.
       -4    1    5    5    0  501  0.76494809774E+02 -0.18732437886E+02  0.15644979148E+03  0.17515392489E+03  0.00000000000E+00 0.  1.
</event>
<event>
 9   1  0.7570500E-01  0.2500006E+03  0.7546771E-02  0.1113304E+00
       21   -1    0    0  503  502  0.00000000000E+00  0.00000000000E+00  0.35865592657E+02  0.35865592657E+02  0.00000000000E+00 0. -1.
       21   -1    0    0  502  503 -0.00000000000E+00 -0.00000000000E+00 -0.43565635499E+03  0.43565635499E+03  0.00000000000E+00 0. -1.
       25    2    1    2    0    0  0.00000000000E+00  0.44408920985E-14 -0.39979076234E+03  0.47152194765E+03  0.25000058693E+03 0.  0.
       24    2    3    3    0    0 -0.16697279030E+02 -0.26193690072E+01 -0.37825874232E+03  0.38665303409E+03  0.78327724364E+02 0.  0.
      -24    2    3    3    0    0  0.16697279030E+02  0.26193690072E+01 -0.21532020011E+02  0.84868913560E+02  0.80333332945E+02 0.  0.
      -13    1    4    4    0    0  0.22185799521E+02 -0.53026177009E+01 -0.28028018646E+03  0.28120688181E+03  0.00000000000E+00 0.  1.
       14    1    4    4    0    0 -0.38883078551E+02  0.26832486937E+01 -0.97978555860E+02  0.10544615228E+03  0.00000000000E+00 0. -1.
        3    1    5    5  501    0 -0.83711076259E+01 -0.33816653570E+02  0.17636179664E+01  0.34881970269E+02  0.00000000000E+00 0. -1.
       -4    1    5    5    0  501  0.25068386656E+02  0.36436022577E+02 -0.23295637977E+02  0.49986943290E+02  0.00000000000E+00 0.  1.
</event>
<event>
 9   1  0.7570500E-01  0.2499991E+03  0.7546771E-02  0.1113305E+00
       21   -1    0    0  503  502  0.00000000000E+00  0.00000000000E+00  0.80457988105E+03  0.80457988105E+03  0.00000000000E+00 0. -1.
       21   -1    0    0  502  503 -0.00000000000E+00 -0.00000000000E+00 -0.19419929373E+02  0.19419929373E+02  0.00000000000E+00 0. -1.
       25    2    1    2    0    0  0.17763568394E-14  0.00000000000E+00  0.78515995168E+03  0.82399981042E+03  0.24999907572E+03 0.  0.
       24    2    3    3    0    0 -0.67844825597E+01 -0.95079605266E+02  0.35966767921E+03  0.38053416011E+03  0.79744887032E+02 0.  0.
      -24    2    3    3    0    0  0.67844825597E+01  0.95079605266E+02  0.42549227247E+03  0.44346565031E+03  0.80820470986E+02 0.  0.
      -13    1    4    4    0    0  0.16189536479E+01 -0.49854654064E+02  0.30516490328E+03  0.30921469198E+03  0.00000000000E+00 0.  1.
       14    1    4    4    0    0 -0.84034362076E+01 -0.45224951201E+02  0.54502775925E+02  0.71319468133E+02  0.00000000000E+00 0. -1.
        1    1    5    5  501    0 -0.19888763520E+02  0.89856312526E+02  0.37494302288E+03  0.38607251938E+03  0.00000000000E+00 0. -1.
       -2    1    5    5    0  501  0.26673246079E+02  0.52232927397E+01  0.50549249590E+02  0.57393130927E+02  0.00000000000E+00 0.  1.
</event>
<event>
 9   1  0.7570500E-01  0.2499989E+03  0.7546771E-02  0.1113305E+00
       21   -1    0    0  503  502  0.00000000000E+00  0.00000000000E+00  0.30783868003E+03  0.30783868003E+03  0.00000000000E+00 0. -1.
       21   -1    0    0  502  503 -0.00000000000E+00 -0.00000000000E+00 -0.50756674284E+02  0.50756674284E+02  0.00000000000E+00 0. -1.
       25    2    1    2    0    0 -0.71054273576E-14  0.00000000000E+00  0.25708200574E+03  0.35859535431E+03  0.24999894091E+03 0.  0.
       24    2    3    3    0    0 -0.39501981709E+02  0.26661080721E+01  0.25766833686E+03  0.26782328945E+03  0.61390779912E+02 0.  0.
      -24    2    3    3    0    0  0.39501981709E+02 -0.26661080721E+01 -0.58633111904E+00  0.90772064864E+02  0.81680531856E+02 0.  0.
      -13    1    4    4    0    0 -0.28474945635E+02 -0.73763815535E+01  0.40034100023E+02  0.49678593966E+02  0.00000000000E+00 0.  1.
       14    1    4    4    0    0 -0.11027036073E+02  0.10042489626E+02  0.21763423684E+03  0.21814469548E+03  0.00000000000E+00 0. -1.
        1    1    5    5  501    0  0.31696439805E+01 -0.27481649660E+02 -0.27653057404E+02  0.39114949760E+02  0.00000000000E+00 0. -1.
       -2    1    5    5    0  501  0.36332337728E+02  0.24815541588E+02  0.27066726284E+02  0.51657115104E+02  0.00000000000E+00 0.  1.
</event>
<event>
 9   1  0.7570500E-01  0.2500069E+03  0.7546771E-02  0.1113300E+00
       21   -1    0    0  503  502  0.00000000000E+00  0.00000000000E+00  0.72696216346E+02  0.72696216346E+02  0.00000000000E+00 0. -1.
       21   -1    0    0  502  503 -0.00000000000E+00 -0.00000000000E+00 -0.21494735747E+03  0.21494735747E+03  0.00000000000E+00 0. -1.
       25    2    1    2    0    0 -0.14210854715E-13  0.00000000000E+00 -0.14225114113E+03  0.28764357382E+03  0.25000687672E+03 0.  0.
       24    2    3    3    0    0  0.78387173226E+02  0.52918971908E+02 -0.49772591926E+02  0.13347788324E+03  0.79962915741E+02 0.  0.
      -24    2    3    3    0    0 -0.78387173226E+02 -0.52918971908E+02 -0.92478549201E+02  0.15416569058E+03  0.79182141765E+02 0.  0.
      -13    1    4    4    0    0  0.10476341727E+02  0.46231316697E+02  0.25741537704E+01  0.47473304573E+02  0.00000000000E+00 0.  1.
       14    1    4    4    0    0  0.67910831499E+02  0.66876552111E+01 -0.52346745696E+02  0.86004578670E+02  0.00000000000E+00 0. -1.
        3    1    5    5  501    0 -0.26410975998E+02 -0.63874146287E+02 -0.62418469327E+02  0.93131689184E+02  0.00000000000E+00 0. -1.
       -4    1    5    5    0  501 -0.51976197228E+02  0.10955174379E+02 -0.30060079873E+02  0.61034001392E+02  0.00000000000E+00 0.  1.
</event>
<event>
 9   1  0.7570500E-01  0.2500000E+03  0.7546771E-02  0.1113305E+00
       21   -1    0    0  503  502  0.00000000000E+00  0.00000000000E+00  0.12799594261E+04  0.12799594261E+04  0.00000000000E+00 0. -1.
       21   -1    0    0  502  503 -0.00000000000E+00 -0.00000000000E+00 -0.12207418474E+02  0.12207418474E+02  0.00000000000E+00 0. -1.
       25    2    1    2    0    0  0.00000000000E+00  0.00000000000E+00  0.12677520076E+04  0.12921668446E+04  0.25000000275E+03 0.  0.
       24    2    3    3    0    0  0.78861401101E+02 -0.24168884477E+02  0.39307198346E+03  0.40983439738E+03  0.81580595337E+02 0.  0.
      -24    2    3    3    0    0 -0.78861401101E+02  0.24168884477E+02  0.87468002415E+03  0.88233244717E+03  0.81499368912E+02 0.  0.
      -13    1    4    4    0    0  0.28776917679E+01  0.12606946451E+02  0.71265496524E+01  0.14764955762E+02  0.00000000000E+00 0.  1.
       14    1    4    4    0    0  0.75983709334E+02 -0.36775830928E+02  0.38594543381E+03  0.39506944162E+03  0.00000000000E+00 0. -1.
        1    1    5    5  501    0 -0.29314240767E+02  0.34108856848E+02  0.66994632639E+03  0.67145425687E+03  0.00000000000E+00 0. -1.
       -2    1    5    5    0  501 -0.49547160335E+02 -0.99399723709E+01  0.20473369776E+03  0.21087819031E+03  0.00000000000E+00 0.  1.
</event>
<event>
 9   1  0.7570500E-01  0.2499767E+03  0.7546771E-02  0.1113320E+00
       21   -1    0    0  503  502  0.00000000000E+00  0.00000000000E+00  0.10301977629E+02  0.10301977629E+02  0.00000000000E+00 0.  1.
       21   -1    0    0  502  503 -0.00000000000E+00 -0.00000000000E+00 -0.15164168636E+04  0.15164168636E+04  0.00000000000E+00 0.  1.
       25    2    1    2    0    0  0.00000000000E+00  0.00000000000E+00 -0.15061148859E+04  0.15267188412E+04  0.24997673975E+03 0.  0.
       24    2    3    3    0    0  0.37892128722E+02  0.80604972021E+02 -0.53610124947E+03  0.54933625072E+03  0.80204686533E+02 0.  0.
      -24    2    3    3    0    0 -0.37892128722E+02 -0.80604972021E+02 -0.97001363646E+03  0.97738259046E+03  0.80108041356E+02 0.  0.
      -13    1    4    4    0    0 -0.20566798022E+02  0.13810545786E+02 -0.58066472213E+02  0.63130337802E+02  0.00000000000E+00 0.  1.
       14    1    4    4    0    0  0.58458926744E+02  0.66794426235E+02 -0.47803477725E+03  0.48620591292E+03  0.00000000000E+00 0. -1.
        1    1    5    5  501    0 -0.59837817891E+02 -0.71814243152E+02 -0.84488252168E+03  0.85003783764E+03  0.00000000000E+00 0. -1.
       -2    1    5    5    0  501  0.21945689169E+02 -0.87907288687E+01 -0.12513111478E+03  0.12734475283E+03  0.00000000000E+00 0.  1.
</event>
<event>
 9   1  0.7570500E-01  0.2500049E+03  0.7546771E-02  0.1113302E+00
       21   -1    0    0  503  502  0.00000000000E+00  0.00000000000E+00  0.16021664712E+03  0.16021664712E+03  0.00000000000E+00 0.  1.
       21   -1    0    0  502  503 -0.00000000000E+00 -0.00000000000E+00 -0.97528012468E+02  0.97528012468E+02  0.00000000000E+00 0.  1.
       25    2    1    2    0    0  0.00000000000E+00  0.00000000000E+00  0.62688634651E+02  0.25774465959E+03  0.25000488921E+03 0.  0.
       24    2    3    3    0    0  0.84534723969E+02  0.42723017094E+02  0.57301238226E+01  0.12128057566E+03  0.75529914392E+02 0.  0.
      -24    2    3    3    0    0 -0.84534723969E+02 -0.42723017094E+02  0.56958510828E+02  0.13646408392E+03  0.80042479343E+02 0.  0.
      -13    1    4    4    0    0  0.49164752129E+02 -0.11741982733E+02  0.20722718443E+02  0.54630376807E+02  0.00000000000E+00 0.  1.
       14    1    4    4    0    0  0.35369971840E+02  0.54464999827E+02 -0.14992594620E+02  0.66650198856E+02  0.00000000000E+00 0. -1.
        1    1    5    5  501    0 -0.89945655102E+02 -0.98690794578E+01  0.45248639746E+02  0.10116846841E+03  0.00000000000E+00 0. -1.
       -2    1    5    5    0  501  0.54109311334E+01 -0.32853937636E+02  0.11709871083E+02  0.35295615517E+02  0.00000000000E+00 0.  1.
</event>
<event>
 9   1  0.7570500E-01  0.2500020E+03  0.7546771E-02  0.1113304E+00
       21   -1    0    0  503  502  0.00000000000E+00  0.00000000000E+00  0.25843513479E+03  0.25843513479E+03  0.00000000000E+00 0. -1.
       21   -1    0    0  502  503 -0.00000000000E+00 -0.00000000000E+00 -0.60461000951E+02  0.60461000951E+02  0.00000000000E+00 0. -1.
       25    2    1    2    0    0  0.00000000000E+00 -0.35527136788E-14  0.19797413384E+03  0.31889613574E+03  0.25000197543E+03 0.  0.
       24    2    3    3    0    0  0.56404944843E+02 -0.13081404051E+02  0.44225861061E+01  0.98788074396E+02  0.79917979456E+02 0.  0.
      -24    2    3    3    0    0 -0.56404944843E+02  0.13081404051E+02  0.19355154773E+03  0.22010806134E+03  0.87365417098E+02 0.  0.
      -13    1    4    4    0    0  0.77925597023E+01  0.30523909165E+02  0.10488771083E+02  0.33203122388E+02  0.00000000000E+00 0.  1.
       14    1    4    4    0    0  0.48612385140E+02 -0.43605313216E+02 -0.60661849772E+01  0.65584952008E+02  0.00000000000E+00 0. -1.
        3    1    5    5  501    0 -0.49178854155E+02  0.35117972064E+02  0.18622908446E+03  0.19578841528E+03  0.00000000000E+00 0. -1.
       -4    1    5    5    0  501 -0.72260906874E+01 -0.22036568013E+02  0.73224632706E+01  0.24319646066E+02  0.00000000000E+00 0.  1.
</event>
<event>
 9   1  0.7570500E-01  0.2499782E+03  0.7546771E-02  0.1113319E+00
       21   -1    0    0  503  502  0.00000000000E+00  0.00000000000E+00  0.12029548196E+03  0.12029548196E+03  0.00000000000E+00 0. -1.
       21   -1    0    0  502  503 -0.00000000000E+00 -0.00000000000E+00 -0.12986584838E+03  0.12986584838E+03  0.00000000000E+00 0. -1.
       25    2    1    2    0    0  0.14210854715E-13  0.26645352591E-14 -0.95703664259E+01  0.25016133034E+03  0.24997819762E+03 0.  0.
       24    2    3    3    0    0 -0.97224643233E+02  0.11241255038E+01  0.18308994305E+02  0.12059351819E+03  0.68946953855E+02 0.  0.
      -24    2    3    3    0    0  0.97224643233E+02 -0.11241255038E+01 -0.27879360731E+02  0.12956781216E+03  0.80973231889E+02 0.  0.
      -13    1    4    4    0    0 -0.14971690287E+02 -0.28126271016E+02  0.36302235360E+01  0.32068943766E+02  0.00000000000E+00 0.  1.
       14    1    4    4    0    0 -0.82252952946E+02  0.29250396520E+02  0.14678770769E+02  0.88524574420E+02  0.00000000000E+00 0. -1.
        3    1    5    5  501    0  0.10256898742E+02  0.15610878287E+01 -0.40356295821E+02  0.41668592242E+02  0.00000000000E+00 0. -1.
       -4    1    5    5    0  501  0.86967744491E+02 -0.26852133324E+01  0.12476935091E+02  0.87899219916E+02  0.00000000000E+00 0.  1.
</event>
<event>
 9   1  0.7570500E-01  0.2500059E+03  0.7546771E-02  0.1113301E+00
       21   -1    0    0  503  502  0.00000000000E+00  0.00000000000E+00  0.12859105015E+03  0.12859105015E+03  0.00000000000E+00 0.  1.
       21   -1    0    0  502  503 -0.00000000000E+00 -0.00000000000E+00 -0.12151496199E+03  0.12151496199E+03  0.00000000000E+00 0.  1.
       25    2    1    2    0    0  0.14210854715E-13  0.00000000000E+00  0.70760881640E+01  0.25010601214E+03  0.25000589250E+03 0.  0.
       24    2    3    3    0    0  0.47353444601E+02  0.37130738992E+02 -0.64167198971E+02  0.12441663064E+03  0.87983112368E+02 0.  0.
      -24    2    3    3    0    0 -0.47353444601E+02 -0.37130738992E+02  0.71243287135E+02  0.12568938151E+03  0.84268464847E+02 0.  0.
      -13    1    4    4    0    0 -0.17039533518E+02 -0.15199600903E+02 -0.20332322846E+02  0.30574121777E+02  0.00000000000E+00 0.  1.
       14    1    4    4    0    0  0.64392978119E+02  0.52330339896E+02 -0.43834876125E+02  0.93842508862E+02  0.00000000000E+00 0. -1.
        3    1    5    5  501    0 -0.51359910097E+02 -0.57974927280E+02  0.38061601662E+02  0.86299583309E+02  0.00000000000E+00 0. -1.
       -4    1    5    5    0  501  0.40064654961E+01  0.20844188287E+02  0.33181685473E+02  0.39389798196E+02  0.00000000000E+00 0.  1.
</event>
<event>
 9   1  0.7570500E-01  0.2499940E+03  0.7546771E-02  0.1113309E+00
       21   -1    0    0  503  502  0.00000000000E+00  0.00000000000E+00  0.87327445069E+02  0.87327445069E+02  0.00000000000E+00 0.  1.
       21   -1    0    0  502  503 -0.00000000000E+00 -0.00000000000E+00 -0.17891563424E+03  0.17891563424E+03  0.00000000000E+00 0.  1.
       25    2    1    2    0    0  0.00000000000E+00  0.00000000000E+00 -0.91588189169E+02  0.26624307931E+03  0.24999396169E+03 0.  0.
       24    2    3    3    0    0  0.11946358964E+02 -0.21691308782E+02  0.55495687759E+02  0.96147431094E+02  0.74507239761E+02 0.  0.
      -24    2    3    3    0    0 -0.11946358964E+02  0.21691308782E+02 -0.14708387693E+03  0.17009564821E+03  0.81765728271E+02 0.  0.
      -13    1    4    4    0    0 -0.19226193816E+02 -0.21008176844E+02 -0.42129511088E+01  0.28787826941E+02  0.00000000000E+00 0.  1.
       14    1    4    4    0    0  0.31172552781E+02 -0.68313193876E+00  0.59708638868E+02  0.67359604152E+02  0.00000000000E+00 0. -1.
        1    1    5    5  501    0 -0.99356587331E+01  0.42558260046E+02 -0.34783382999E+02  0.55855228452E+02  0.00000000000E+00 0. -1.
       -2    1    5    5    0  501 -0.20107002314E+01 -0.20866951264E+02 -0.11230049393E+03  0.11424041976E+03  0.00000000000E+00 0.  1.
</event>
<event>
 9   1  0.7570500E-01  0.2499992E+03  0.7546771E-02  0.1113305E+00
       21   -1    0    0  503  502  0.00000000000E+00  0.00000000000E+00  0.16521279466E+02  0.16521279466E+02  0.00000000000E+00 0. -1.
       21   -1    0    0  502  503 -0.00000000000E+00 -0.00000000000E+00 -0.94574368429E+03  0.94574368429E+03  0.00000000000E+00 0. -1.
       25    2    1    2    0    0 -0.14210854715E-13  0.71054273576E-14 -0.92922240483E+03  0.96226496376E+03  0.24999916569E+03 0.  0.
       24    2    3    3    0    0 -0.64618534640E+02 -0.15791655217E+02 -0.27871294590E+03  0.30340958064E+03  0.99757385758E+02 0.  0.
      -24    2    3    3    0    0  0.64618534640E+02  0.15791655217E+02 -0.65050945892E+03  0.65885538313E+03  0.80640736165E+02 0.  0.
      -13    1    4    4    0    0 -0.24917550550E+02 -0.43283086953E+02 -0.53952143822E+02  0.73519682838E+02  0.00000000000E+00 0.  1.
       14    1    4    4    0    0 -0.39700984090E+02  0.27491431736E+02 -0.22476080208E+03  0.22988989780E+03  0.00000000000E+00 0. -1.
        3    1    5    5  501    0  0.61830295734E+02 -0.22750592578E+02 -0.40551622490E+03  0.41083327955E+03  0.00000000000E+00 0. -1.
       -4    1    5    5    0  501  0.27882389056E+01  0.38542247795E+02 -0.24499323403E+03  0.24802210357E+03  0.00000000000E+00 0.  1.
</event>
<event>
 9   1  0.7570500E-01  0.2499972E+03  0.7546771E-02  0.1113307E+00
       21   -1    0    0  503  502  0.00000000000E+00  0.00000000000E+00  0.36016894938E+02  0.36016894938E+02  0.00000000000E+00 0. -1.
       21   -1    0    0  502  503 -0.00000000000E+00 -0.00000000000E+00 -0.43381463147E+03  0.43381463147E+03  0.00000000000E+00 0. -1.
       25    2    1    2    0    0 -0.35527136788E-14 -0.71054273576E-14 -0.39779773653E+03  0.46983152640E+03  0.24999724802E+03 0.  0.
       24    2    3    3    0    0  0.30570331886E+02 -0.34956440936E+02 -0.49087749249E+02  0.10856980149E+03  0.84978213178E+02 0.  0.
      -24    2    3    3    0    0 -0.30570331886E+02  0.34956440936E+02 -0.34870998728E+03  0.36126172491E+03  0.82188081286E+02 0.  0.
      -13    1    4    4    0    0  0.27479666690E+02  0.24160613050E+02 -0.11121696409E+02  0.38243423426E+02  0.00000000000E+00 0.  1.
       14    1    4    4    0    0  0.30906651958E+01 -0.59117053986E+02 -0.37966052840E+02  0.70326378064E+02  0.00000000000E+00 0. -1.
        1    1    5    5  501    0  0.27385737413E+02  0.15656289663E+02 -0.15388165793E+03  0.15708170698E+03  0.00000000000E+00 0. -1.
       -2    1    5    5    0  501 -0.57956069299E+02  0.19300151273E+02 -0.19482832934E+03  0.20418001793E+03  0.00000000000E+00 0.  1.
</event>
<event>
 9   1  0.7570500E-01  0.2500032E+03  0.7546771E-02  0.1113303E+00
       21   -1    0    0  503  502  0.00000000000E+00  0.00000000000E+00  0.29244068611E+02  0.29244068611E+02  0.00000000000E+00 0.  1.
       21   -1    0    0  502  503 -0.00000000000E+00 -0.00000000000E+00 -0.53430999468E+03  0.53430999468E+03  0.00000000000E+00 0.  1.
       25    2    1    2    0    0  0.00000000000E+00  0.00000000000E+00 -0.50506592606E+03  0.56355406329E+03  0.25000318513E+03 0.  0.
       24    2    3    3    0    0  0.83099094522E+02  0.25564153365E+02 -0.15248551983E+03  0.19003167781E+03  0.72809473063E+02 0.  0.
      -24    2    3    3    0    0 -0.83099094522E+02 -0.25564153365E+02 -0.35258040624E+03  0.37352238547E+03  0.87447379266E+02 0.  0.
      -13    1    4    4    0    0  0.28120887667E+02  0.17848575817E+02 -0.66202141352E+01  0.33958551457E+02  0.00000000000E+00 0.  1.
       14    1    4    4    0    0  0.54978206855E+02  0.77155775485E+01 -0.14586530569E+03  0.15607312636E+03  0.00000000000E+00 0. -1.
        3    1    5    5  501    0 -0.57027637128E+02 -0.11283213245E+02 -0.33274669761E+03  0.33778665910E+03  0.00000000000E+00 0. -1.
       -4    1    5    5    0  501 -0.26071457394E+02 -0.14280940120E+02 -0.19833708626E+02  0.35735726371E+02  0.00000000000E+00 0.  1.
</event>
<event>
 9   1  0.7570500E-01  0.2500128E+03  0.7546771E-02  0.1113297E+00
       21   -1    0    0  503  502  0.00000000000E+00  0.00000000000E+00  0.95332909702E+03  0.95332909702E+03  0.00000000000E+00 0. -1.
       21   -1    0    0  502  503 -0.00000000000E+00 -0.00000000000E+00 -0.16391612003E+02  0.16391612003E+02  0.00000000000E+00 0. -1.
       25    2    1    2    0    0  0.14210854715E-13 -0.35527136788E-14  0.93693748502E+03  0.96972070903E+03  0.25001280503E+03 0.  0.
       24    2    3    3    0    0 -0.89547948563E+02  0.21520189613E+02  0.34756794623E+03  0.36771202040E+03  0.76985057268E+02 0.  0.
      -24    2    3    3    0    0  0.89547948563E+02 -0.21520189613E+02  0.58936953879E+03  0.60200868863E+03  0.81092874425E+02 0.  0.
      -13    1    4    4    0    0 -0.49579623847E+02  0.28533582671E+02  0.29900044867E+03  0.30442334461E+03  0.00000000000E+00 0.  1.
       14    1    4    4    0    0 -0.39968324716E+02 -0.70133930582E+01  0.48567497562E+02  0.63288675782E+02  0.00000000000E+00 0. -1.
        1    1    5    5  501    0 -0.29722241831E+01  0.13607561569E+02  0.19187125166E+03  0.19237613434E+03  0.00000000000E+00 0. -1.
       -2    1    5    5    0  501  0.92520172746E+02 -0.35127751182E+02  0.39749828712E+03  0.40963255429E+03  0.00000000000E+00 0.  1.
</event>
<event>
 9   1  0.7570500E-01  0.2500092E+03  0.7546771E-02  0.1113299E+00
       21   -1    0    0  503  502  0.00000000000E+00  0.00000000000E+00  0.14704665353E+04  0.14704665353E+04  0.00000000000E+00 0. -1.
       21   -1    0    0  502  503 -0.00000000000E+00 -0.00000000000E+00 -0.10626660447E+02  0.10626660447E+02  0.00000000000E+00 0. -1.
       25    2    1    2    0    0  0.14210854715E-13 -0.35527136788E-14  0.14598398749E+04  0.14810931958E+04  0.25000918839E+03 0.  0.
       24    2    3    3    0    0  0.91093844000E+02 -0.66717176350E+01  0.89093611153E+03  0.89930298411E+03  0.81462274468E+02 0.  0.
      -24    2    3    3    0    0 -0.91093844000E+02  0.66717176350E+01  0.56890376334E+03  0.58179021166E+03  0.80534205213E+02 0.  0.
      -13    1    4    4    0    0  0.48600779537E+02  0.34864433519E+02  0.34544422861E+03  0.35058419755E+03  0.00000000000E+00 0.  1.
       14    1    4    4    0    0  0.42493064463E+02 -0.41536151154E+02  0.54549188293E+03  0.54871878656E+03  0.00000000000E+00 0. -1.
        3    1    5    5  501    0 -0.21089757818E+02  0.24588674323E+02  0.63892965730E+02  0.71635828044E+02  0.00000000000E+00 0. -1.
       -4    1    5    5    0  501 -0.70004086182E+02 -0.17916956688E+02  0.50501079761E+03  0.51015438362E+03  0.00000000000E+00 0.  1.
</event>
<event>
 9   1  0.7570500E-01  0.2500032E+03  0.7546771E-02  0.1113303E+00
       21   -1    0    0  503  502  0.00000000000E+00  0.00000000000E+00  0.27107501782E+02  0.27107501782E+02  0.00000000000E+00 0.  1.
       21   -1    0    0  502  503 -0.00000000000E+00 -0.00000000000E+00 -0.57642366762E+03  0.57642366762E+03  0.00000000000E+00 0.  1.
       25    2    1    2    0    0  0.00000000000E+00  0.00000000000E+00 -0.54931616584E+03  0.60353116940E+03  0.25000324476E+03 0.  0.
       24    2    3    3    0    0  0.88510813302E+02 -0.44534050917E+02 -0.26915133027E+03  0.29801472744E+03  0.80949943962E+02 0.  0.
      -24    2    3    3    0    0 -0.88510813302E+02  0.44534050917E+02 -0.28016483557E+03  0.30551644196E+03  0.70926126733E+02 0.  0.
      -13    1    4    4    0    0 -0.77254547045E+01 -0.29316406089E+02 -0.71136635857E+02  0.77327584195E+02  0.00000000000E+00 0.  1.
       14    1    4    4    0    0  0.96236268006E+02 -0.15217644828E+02 -0.19801469441E+03  0.22068714325E+03  0.00000000000E+00 0. -1.
        1    1    5    5  501    0  0.20035064006E+01  0.78432098692E+01 -0.10213798638E+03  0.10245827561E+03  0.00000000000E+00 0. -1.
       -2    1    5    5    0  501 -0.90514319702E+02  0.36690841048E+02 -0.17802684919E+03  0.20305816635E+03  0.00000000000E+00 0.  1.
</event>
<event>
 9   1  0.7570500E-01  0.2500011E+03  0.7546771E-02  0.1113304E+00
       21   -1    0    0  503  502  0.00000000000E+00  0.00000000000E+00  0.55343115458E+03  0.55343115458E+03  0.00000000000E+00 0.  1.
       21   -1    0    0  502  503 -0.00000000000E+00 -0.00000000000E+00 -0.28233203296E+02  0.28233203296E+02  0.00000000000E+00 0.  1.
       25    2    1    2    0    0  0.00000000000E+00  0.71054273576E-14  0.52519795128E+03  0.58166435787E+03  0.25000107438E+03 0.  0.
       24    2    3    3    0    0 -0.87038034579E+02  0.30277831350E+02  0.21066312760E+03  0.24317466742E+03  0.79136584547E+02 0.  0.
      -24    2    3    3    0    0  0.87038034579E+02 -0.30277831350E+02  0.31453482369E+03  0.33848969045E+03  0.84562099637E+02 0.  0.
      -13    1    4    4    0    0 -0.71160863010E+02  0.54029654850E+02  0.18176593363E+03  0.20253870410E+03  0.00000000000E+00 0.  1.
       14    1    4    4    0    0 -0.15877171569E+02 -0.23751823500E+02  0.28897193961E+02  0.40635963326E+02  0.00000000000E+00 0. -1.
        3    1    5    5  501    0  0.26849047080E+02  0.18265685308E+02  0.18341527408E+03  0.18626773568E+03  0.00000000000E+00 0. -1.
       -4    1    5    5    0  501  0.60188987498E+02 -0.48543516658E+02  0.13111954961E+03  0.15222195477E+03  0.00000000000E+00 0.  1.
</event>
<event>
 9   1  0.7570500E-01  0.2499997E+03  0.7546771E-02  0.1113305E+00
       21   -1    0    0  503  502  0.00000000000E+00  0.00000000000E+00  0.48783965425E+03  0.48783965425E+03  0.00000000000E+00 0. -1.
       21   -1    0    0  502  503 -0.00000000000E+00 -0.00000000000E+00 -0.32028881168E+02  0.32028881168E+02  0.00000000000E+00 0. -1.
       25    2    1    2    0    0 -0.35527136788E-14  0.00000000000E+00  0.45581077309E+03  0.51986853542E+03  0.24999966652E+03 0.  0.
       24    2    3    3    0    0 -0.17814555818E+02  0.90108650471E+02  0.17533417048E+03  0.21382921898E+03  0.80894599702E+02 0.  0.
      -24    2    3    3    0    0  0.17814555818E+02 -0.90108650471E+02  0.28047660260E+03  0.30603931644E+03  0.80969199784E+02 0.  0.
      -13    1    4    4    0    0 -0.30634945102E+02  0.28122365516E+02  0.20105458173E+02  0.46190873038E+02  0.00000000000E+00 0.  1.
       14    1    4    4    0    0  0.12820389285E+02  0.61986284954E+02  0.15522871231E+03  0.16763834594E+03  0.00000000000E+00 0. -1.
        1    1    5    5  501    0 -0.16935786234E+02 -0.22377514100E+01  0.10828639589E+03  0.10962559884E+03  0.00000000000E+00 0. -1.
       -2    1    5    5    0  501  0.34750342051E+02 -0.87870899061E+02  0.17219020671E+03  0.19641371760E+03  0.00000000000E+00 0.  1.
</event>
<event>
 9   1  0.7570500E-01  0.2500014E+03  0.7546771E-02  0.1113304E+00
       21   -1    0    0  503  502  0.00000000000E+00  0.00000000000E+00  0.99606193642E+02  0.99606193642E+02  0.00000000000E+00 0. -1.
       21   -1    0    0  502  503 -0.00000000000E+00 -0.00000000000E+00 -0.15686952595E+03  0.15686952595E+03  0.00000000000E+00 0. -1.
       25    2    1    2    0    0  0.00000000000E+00  0.00000000000E+00 -0.57263332308E+02  0.25647571959E+03  0.25000141102E+03 0.  0.
       24    2    3    3    0    0  0.31214838528E+02  0.22794929582E+02 -0.11633505621E+03  0.14652987182E+03  0.80269440462E+02 0.  0.
      -24    2    3    3    0    0 -0.31214838528E+02 -0.22794929582E+02  0.59071723905E+02  0.10994584777E+03  0.84289061677E+02 0.  0.
      -13    1    4    4    0    0  0.35647621692E+02 -0.23174488966E+02 -0.62625241017E+02  0.75694984534E+02  0.00000000000E+00 0.  1.
       14    1    4    4    0    0 -0.44327831647E+01  0.45969418548E+02 -0.53709815196E+02  0.70834887284E+02  0.00000000000E+00 0. -1.
        1    1    5    5  501    0  0.26898004202E+02 -0.20598457192E+02  0.28346417253E+02  0.44173730200E+02  0.00000000000E+00 0. -1.
       -2    1    5    5    0  501 -0.58112842730E+02 -0.21964723896E+01  0.30725306653E+02  0.65772117573E+02  0.00000000000E+00 0.  1.
</event>
<event>
 9   1  0.7570500E-01  0.2500050E+03  0.7546771E-02  0.1113302E+00
       21   -1    0    0  503  502  0.00000000000E+00  0.00000000000E+00  0.17994002451E+02  0.17994002451E+02  0.00000000000E+00 0.  1.
       21   -1    0    0  502  503 -0.00000000000E+00 -0.00000000000E+00 -0.86837931821E+03  0.86837931821E+03  0.00000000000E+00 0.  1.
       25    2    1    2    0    0  0.14210854715E-13  0.44408920985E-15 -0.85038531576E+03  0.88637332066E+03  0.25000495659E+03 0.  0.
       24    2    3    3    0    0 -0.96478569240E+02 -0.39356099520E+01 -0.40519016519E+03  0.42422488983E+03  0.80399526317E+02 0.  0.
      -24    2    3    3    0    0  0.96478569240E+02  0.39356099520E+01 -0.44519515057E+03  0.46214843084E+03  0.77838593804E+02 0.  0.
      -13    1    4    4    0    0 -0.90666243312E+02  0.24252600808E+02 -0.34450476848E+03  0.35706034760E+03  0.00000000000E+00 0.  1.
       14    1    4    4    0    0 -0.58123259282E+01 -0.28188210760E+02 -0.60685396709E+02  0.67164542225E+02  0.00000000000E+00 0. -1.
        3    1    5    5  501    0  0.52599705534E+02 -0.68469465659E+00 -0.37876777506E+03  0.38240322338E+03  0.00000000000E+00 0. -1.
       -4    1    5    5    0  501  0.43878863706E+02  0.46203046086E+01 -0.66427375509E+02  0.79745207453E+02  0.00000000000E+00 0.  1.
</event>
<event>
 9   1  0.7570500E-01  0.2500007E+03  0.7546771E-02  0.1113304E+00
       21   -1    0    0  503  502  0.00000000000E+00  0.00000000000E+00  0.36546758262E+02  0.36546758262E+02  0.00000000000E+00 0.  1.
       21   -1    0    0  502  503 -0.00000000000E+00 -0.00000000000E+00 -0.42753689486E+03  0.42753689486E+03  0.00000000000E+00 0.  1.
       25    2    1    2    0    0  0.00000000000E+00  0.35527136788E-14 -0.39099013660E+03  0.46408365312E+03  0.25000070036E+03 0.  0.
       24    2    3    3    0    0 -0.70915142257E+02 -0.10484197271E+02 -0.31618423536E+03  0.33436210180E+03  0.81772052885E+02 0.  0.
      -24    2    3    3    0    0  0.70915142257E+02  0.10484197271E+02 -0.74805901234E+02  0.12972155132E+03  0.78056916571E+02 0.  0.
      -13    1    4    4    0    0 -0.22155840307E+02  0.23131528898E+02 -0.36878306000E+02  0.48846272552E+02  0.00000000000E+00 0.  1.
       14    1    4    4    0    0 -0.48759301951E+02 -0.33615726168E+02 -0.27930592936E+03  0.28551582924E+03  0.00000000000E+00 0. -1.
        1    1    5    5  501    0  0.21906259175E+02 -0.23513987727E+02  0.23215569997E+01  0.32220823030E+02  0.00000000000E+00 0. -1.
       -2    1    5    5    0  501  0.49008883083E+02  0.33998184997E+02 -0.77127458234E+02  0.97500728294E+02  0.00000000000E+00 0.  1.
</event>
<event>
 9   1  0.7570500E-01  0.2500014E+03  0.7546771E-02  0.1113304E+00
       21   -1    0    0  503  502  0.00000000000E+00  0.00000000000E+00  0.31374895370E+02  0.31374895370E+02  0.00000000000E+00 0. -1.
       21   -1    0    0  502  503 -0.00000000000E+00 -0.00000000000E+00 -0.49801502569E+03  0.49801502569E+03  0.00000000000E+00 0. -1.
       25    2    1    2    0    0  0.71054273576E-14  0.00000000000E+00 -0.46664013032E+03  0.52938992106E+03  0.25000135459E+03 0.  0.
       24    2    3    3    0    0 -0.53533787452E+02 -0.46974278769E+02 -0.37222611287E+03  0.38612937698E+03  0.73967340064E+02 0.  0.
      -24    2    3    3    0    0  0.53533787452E+02  0.46974278769E+02 -0.94414017450E+02  0.14326054408E+03  0.80852504819E+02 0.  0.
      -13    1    4    4    0    0  0.89001892212E+01 -0.38350634929E+02 -0.15735480885E+03  0.16220518005E+03  0.00000000000E+00 0.  1.
       14    1    4    4    0    0 -0.62433976673E+02 -0.86236438399E+01 -0.21487130403E+03  0.22392419693E+03  0.00000000000E+00 0. -1.
        3    1    5    5  501    0  0.40768307129E+02 -0.15412821199E+02 -0.31782942645E+02  0.53942241024E+02  0.00000000000E+00 0. -1.
       -4    1    5    5    0  501  0.12765480323E+02  0.62387099969E+02 -0.62631074805E+02  0.89318303061E+02  0.00000000000E+00 0.  1.
</event>
<event>
 9   1  0.7570500E-01  0.2500200E+03  0.7546771E-02  0.1113292E+00
       21   -1    0    0  503  502  0.00000000000E+00  0.00000000000E+00  0.21567662605E+03  0.21567662605E+03  0.00000000000E+00 0.  1.
       21   -1    0    0  502  503 -0.00000000000E+00 -0.00000000000E+00 -0.72458024085E+02  0.72458024085E+02  0.00000000000E+00 0.  1.
       25    2    1    2    0    0  0.17763568394E-14  0.00000000000E+00  0.14321860196E+03  0.28813465013E+03  0.25002001651E+03 0.  0.
       24    2    3    3    0    0  0.95449375300E+01  0.81409721427E+02  0.13826484757E+02  0.11537795383E+03  0.80014073606E+02 0.  0.
      -24    2    3    3    0    0 -0.95449375300E+01 -0.81409721427E+02  0.12939211720E+03  0.17275669630E+03  0.79899358854E+02 0.  0.
      -13    1    4    4    0    0  0.50323886699E+01  0.27984452214E+02 -0.33445920964E+02  0.43898566384E+02  0.00000000000E+00 0.  1.
       14    1    4    4    0    0  0.45125488601E+01  0.53425269213E+02  0.47272405721E+02  0.71479387451E+02  0.00000000000E+00 0. -1.
        1    1    5    5  501    0  0.33190218288E+02 -0.24606071805E+02  0.32400595233E+02  0.52505694273E+02  0.00000000000E+00 0. -1.
       -2    1    5    5    0  501 -0.42735155818E+02 -0.56803649622E+02  0.96991521971E+02  0.12025100202E+03  0.00000000000E+00 0.  1.
</event>
<event>
 9   1  0.7570500E-01  0.2500020E+03  0.7546771E-02  0.1113304E+00
       21   -1    0    0  503  502  0.00000000000E+00  0.00000000000E+00  0.11065640760E+03  0.11065640760E+03  0.00000000000E+00 0.  1.
       21   -1    0    0  502  503 -0.00000000000E+00 -0.00000000000E+00 -0.14120507549E+03  0.14120507549E+03  0.00000000000E+00 0.  1.
       25    2    1    2    0    0  0.00000000000E+00  0.00000000000E+00 -0.30548667896E+02  0.25186148309E+03  0.25000197110E+03 0.  0.
       24    2    3    3    0    0  0.60252660999E+02  0.68131365873E+02 -0.22447742985E+02  0.12999324572E+03  0.90122564288E+02 0.  0.
      -24    2    3    3    0    0 -0.60252660999E+02 -0.68131365873E+02 -0.81009249108E+01  0.12186823738E+03  0.80709207179E+02 0.  0.
      -13    1    4    4    0    0 -0.16006142156E+02 -0.52636338651E+01 -0.17116810403E+02  0.24018485102E+02  0.00000000000E+00 0.  1.
       14    1    4    4    0    0  0.76258803156E+02  0.73394999738E+02 -0.53309325818E+01  0.10597476062E+03  0.00000000000E+00 0. -1.
        1    1    5    5  501    0  0.12519895302E+01 -0.43035602127E+02 -0.29371493551E+02  0.52118280494E+02  0.00000000000E+00 0. -1.
       -2    1    5    5    0  501 -0.61504650530E+02 -0.25095763746E+02  0.21270568640E+02  0.69749956882E+02  0.00000000000E+00 0.  1.
</event>
<event>
 9   1  0.7570500E-01  0.2499371E+03  0.7546771E-02  0.1113345E+00
       21   -1    0    0  503  502  0.00000000000E+00  0.00000000000E+00  0.65012831775E+02  0.65012831775E+02  0.00000000000E+00 0. -1.
       21   -1    0    0  502  503 -0.00000000000E+00 -0.00000000000E+00 -0.24021627730E+03  0.24021627730E+03  0.00000000000E+00 0. -1.
       25    2    1    2    0    0 -0.71054273576E-14  0.00000000000E+00 -0.17520344552E+03  0.30522910907E+03  0.24993711550E+03 0.  0.
       24    2    3    3    0    0 -0.24504804453E+02 -0.80743631522E+02 -0.11815842129E+03  0.16594952652E+03  0.80360521137E+02 0.  0.
      -24    2    3    3    0    0  0.24504804453E+02  0.80743631522E+02 -0.57045024226E+02  0.13927958255E+03  0.94998146579E+02 0.  0.
      -13    1    4    4    0    0  0.10008378763E+02 -0.62716273159E+02 -0.31387616887E+02  0.70842649994E+02  0.00000000000E+00 0.  1.
       14    1    4    4    0    0 -0.34513183216E+02 -0.18027358363E+02 -0.86770804408E+02  0.95106876528E+02  0.00000000000E+00 0. -1.
        1    1    5    5  501    0  0.52623275532E+02  0.22838688540E+02 -0.70969499911E+01  0.57802954259E+02  0.00000000000E+00 0. -1.
       -2    1    5    5    0  501 -0.28118471079E+02  0.57904942983E+02 -0.49948074235E+02  0.81476628290E+02  0.00000000000E+00 0.  1.
</event>
<event>
 9   1  0.7570500E-01  0.2500026E+03  0.7546771E-02  0.1113303E+00
       21   -1    0    0  503  502  0.00000000000E+00  0.00000000000E+00  0.40745132921E+03  0.40745132921E+03  0.00000000000E+00 0.  1.
       21   -1    0    0  502  503 -0.00000000000E+00 -0.00000000000E+00 -0.38348949142E+02  0.38348949142E+02  0.00000000000E+00 0.  1.
       25    2    1    2    0    0  0.00000000000E+00  0.00000000000E+00  0.36910238007E+03  0.44580027835E+03  0.25000264240E+03 0.  0.
       24    2    3    3    0    0  0.86038779067E+02  0.41283360403E+02  0.20832888331E+03  0.24250826604E+03  0.79387329773E+02 0.  0.
      -24    2    3    3    0    0 -0.86038779067E+02 -0.41283360403E+02  0.16077349676E+03  0.20329201231E+03  0.79828175849E+02 0.  0.
      -13    1    4    4    0    0  0.47621580152E+02  0.61664681941E+02  0.10810275973E+03  0.13325372249E+03  0.00000000000E+00 0.  1.
       14    1    4    4    0    0  0.38417198915E+02 -0.20381321538E+02  0.10022612358E+03  0.10925454355E+03  0.00000000000E+00 0. -1.
        1    1    5    5  501    0 -0.37692786470E+02 -0.39404897161E+02  0.26619757955E+02  0.60680339367E+02  0.00000000000E+00 0. -1.
       -2    1    5    5    0  501 -0.48345992597E+02 -0.18784632417E+01  0.13415373881E+03  0.14261167294E+03  0.00000000000E+00 0.  1.
</event>
<event>
 9   1  0.7570500E-01  0.2499847E+03  0.7546771E-02  0.1113315E+00
       21   -1    0    0  503  502  0.00000000000E+00  0.00000000000E+00  0.10959355561E+03  0.10959355561E+03  0.00000000000E+00 0.  1.
       21   -1    0    0  502  503 -0.00000000000E+00 -0.00000000000E+00 -0.14255476676E+03  0.14255476676E+03  0.00000000000E+00 0.  1.
       25    2    1    2    0    0  0.71054273576E-14  0.00000000000E+00 -0.32961211150E+02  0.25214832236E+03  0.24998466959E+03 0.  0.
       24    2    3    3    0    0  0.58548543568E+02 -0.76408917606E+02 -0.19295131316E+02  0.12519284206E+03  0.77683273409E+02 0.  0.
      -24    2    3    3    0    0 -0.58548543568E+02  0.76408917606E+02 -0.13666079834E+02  0.12695548030E+03  0.81637476666E+02 0.  0.
      -13    1    4    4    0    0  0.49927240186E+02 -0.32537956587E+01 -0.81921210311E+01  0.50699382105E+02  0.00000000000E+00 0.  1.
       14    1    4    4    0    0  0.86213033819E+01 -0.73155121947E+02 -0.11103010285E+02  0.74493459958E+02  0.00000000000E+00 0. -1.
        1    1    5    5  501    0 -0.59836110110E+01  0.73257338000E+02 -0.98449759823E+01  0.74157701716E+02  0.00000000000E+00 0. -1.
       -2    1    5    5    0  501 -0.52564932557E+02  0.31515796056E+01 -0.38211038513E+01  0.52797778584E+02  0.00000000000E+00 0.  1.
</event>
<event>
 9   1  0.7570500E-01  0.2500011E+03  0.7546771E-02  0.1113304E+00
       21   -1    0    0  503  502  0.00000000000E+00  0.00000000000E+00  0.94547779885E+02  0.94547779885E+02  0.00000000000E+00 0.  1.
       21   -1    0    0  502  503 -0.00000000000E+00 -0.00000000000E+00 -0.16526178292E+03  0.16526178292E+03  0.00000000000E+00 0.  1.
       25    2    1    2    0    0 -0.71054273576E-14  0.00000000000E+00 -0.70714003040E+02  0.25980956281E+03  0.25000107740E+03 0.  0.
       24    2    3    3    0    0 -0.52893397475E+02 -0.77991011259E+02 -0.44076355170E+02  0.13275663470E+03  0.82469931721E+02 0.  0.
      -24    2    3    3    0    0  0.52893397475E+02  0.77991011259E+02 -0.26637647870E+02  0.12705292811E+03  0.80947964294E+02 0.  0.
      -13    1    4    4    0    0 -0.68282000036E+02 -0.51050011355E+02 -0.86941312797E+01  0.85697859407E+02  0.00000000000E+00 0.  1.
       14    1    4    4    0    0  0.15388602561E+02 -0.26940999904E+02 -0.35382223890E+02  0.47058775292E+02  0.00000000000E+00 0. -1.
        3    1    5    5  501    0  0.15965783634E+02  0.44782510051E+02  0.26409634633E+02  0.54386103510E+02  0.00000000000E+00 0. -1.
       -4    1    5    5    0  501  0.36927613841E+02  0.33208501208E+02 -0.53047282503E+02  0.72666824600E+02  0.00000000000E+00 0.  1.
</event>
<event>
 9   1  0.7570500E-01  0.2499981E+03  0.7546771E-02  0.1113306E+00
       21   -1    0    0  503  502  0.00000000000E+00  0.00000000000E+00  0.37181191327E+02  0.37181191327E+02  0.00000000000E+00 0. -1.
       21   -1    0    0  502  503 -0.00000000000E+00 -0.00000000000E+00 -0.42023297615E+03  0.42023297615E+03  0.00000000000E+00 0. -1.
       25    2    1    2    0    0 -0.14210854715E-13  0.00000000000E+00 -0.38305178482E+03  0.45741416748E+03  0.24999810150E+03 0.  0.
       24    2    3    3    0    0  0.71871058791E+02 -0.11589604085E+02 -0.78848093947E+02  0.13419368443E+03  0.80567704496E+02 0.  0.
      -24    2    3    3    0    0 -0.71871058791E+02  0.11589604085E+02 -0.30420369088E+03  0.32322048305E+03  0.81436030743E+02 0.  0.
      -13    1    4    4    0    0  0.33285739378E+02  0.10518754114E+02 -0.82492281930E+02  0.89574333445E+02  0.00000000000E+00 0.  1.
       14    1    4    4    0    0  0.38585319414E+02 -0.22108358199E+02  0.36441879827E+01  0.44619350988E+02  0.00000000000E+00 0. -1.
        3    1    5    5  501    0 -0.71577547813E+02 -0.22527665182E+02 -0.21457210737E+03  0.22731482642E+03  0.00000000000E+00 0. -1.
       -4    1    5    5    0  501 -0.29351097789E+00  0.34117269266E+02 -0.89631583506E+02  0.95905656625E+02  0.00000000000E+00 0.  1.
</event>
<event>
 9   1  0.7570500E-01  0.2500457E+03  0.7546771E-02  0.1113276E+00
       21   -1    0    0  503  502  0.00000000000E+00  0.00000000000E+00  0.34371513235E+03  0.34371513235E+03  0.00000000000E+00 0. -1.
       21   -1    0    0  502  503 -0.00000000000E+00 -0.00000000000E+00 -0.45475765563E+02  0.45475765563E+02  0.00000000000E+00 0. -1.
       25    2    1    2    0    0  0.14210854715E-13  0.00000000000E+00  0.29823936679E+03  0.38919089792E+03  0.25004566606E+03 0.  0.
       24    2    3    3    0    0  0.62296488459E+02 -0.14504597243E+02  0.40802466609E+02  0.11156516824E+03  0.81796758295E+02 0.  0.
      -24    2    3    3    0    0 -0.62296488459E+02  0.14504597243E+02  0.25743690018E+03  0.27762572968E+03  0.81921013100E+02 0.  0.
      -13    1    4    4    0    0  0.69599618569E+02 -0.28255644951E+02  0.52877600175E+02  0.91861466224E+02  0.00000000000E+00 0.  1.
       14    1    4    4    0    0 -0.73031301106E+01  0.13751047708E+02 -0.12075133566E+02  0.19703702016E+02  0.00000000000E+00 0. -1.
        3    1    5    5  501    0 -0.60216606648E+02  0.42602237264E+02  0.20842694091E+03  0.22109450476E+03  0.00000000000E+00 0. -1.
       -4    1    5    5    0  501 -0.20798818109E+01 -0.28097640022E+02  0.49009959271E+02  0.56531224920E+02  0.00000000000E+00 0.  1.
</event>
<event>
 9   1  0.7570500E-01  0.2500013E+03  0.7546771E-02  0.1113304E+00
       21   -1    0    0  503  502  0.00000000000E+00  0.00000000000E+00  0.23666320122E+02  0.23666320122E+02  0.00000000000E+00 0. -1.
       21   -1    0    0  502  503 -0.00000000000E+00 -0.00000000000E+00 -0.66022758860E+03  0.66022758860E+03  0.00000000000E+00 0. -1.
       25    2    1    2    0    0  0.00000000000E+00 -0.14210854715E-13 -0.63656126848E+03  0.68389390872E+03  0.25000125972E+03 0.  0.
       24    2    3    3    0    0  0.30284341681E+02  0.70813007926E+02 -0.16926030439E+03  0.20369443648E+03  0.83130917037E+02 0.  0.
      -24    2    3    3    0    0 -0.30284341681E+02 -0.70813007926E+02 -0.46730096409E+03  0.48019947225E+03  0.79307746544E+02 0.  0.
      -13    1    4    4    0    0 -0.28141650009E+02  0.14254971707E+02 -0.39364819828E+02  0.50445472777E+02  0.00000000000E+00 0.  1.
       14    1    4    4    0    0  0.58425991690E+02  0.56558036220E+02 -0.12989548456E+03  0.15324896370E+03  0.00000000000E+00 0. -1.
        3    1    5    5  501    0 -0.53663915232E+02 -0.25182928787E+02 -0.25003573332E+03  0.25696665861E+03  0.00000000000E+00 0. -1.
       -4    1    5    5    0  501  0.23379573551E+02 -0.45630079139E+02 -0.21726523078E+03  0.22323281364E+03  0.00000000000E+00 0.  1.
</event>
<event>
 9   1  0.7570500E-01  0.2500028E+03  0.7546771E-02  0.1113303E+00
       21   -1    0    0  503  502  0.00000000000E+00  0.00000000000E+00  0.53306276893E+02  0.53306276893E+02  0.00000000000E+00 0.  1.
       21   -1    0    0  502  503 -0.00000000000E+00 -0.00000000000E+00 -0.29312413218E+03  0.29312413218E+03  0.00000000000E+00 0.  1.
       25    2    1    2    0    0  0.35527136788E-14  0.14210854715E-13 -0.23981785529E+03  0.34643040908E+03  0.25000284922E+03 0.  0.
       24    2    3    3    0    0  0.14748495417E+02  0.33969271669E+02 -0.24263684806E+03  0.25837406982E+03  0.80703719780E+02 0.  0.
      -24    2    3    3    0    0 -0.14748495417E+02 -0.33969271669E+02  0.28189927645E+01  0.88056339257E+02  0.79840732889E+02 0.  0.
      -13    1    4    4    0    0  0.17046250945E+01 -0.25827012904E+02 -0.97135168446E+02  0.10052453079E+03  0.00000000000E+00 0.  1.
       14    1    4    4    0    0  0.13043870322E+02  0.59796284573E+02 -0.14550167961E+03  0.15784953903E+03  0.00000000000E+00 0. -1.
        3    1    5    5  501    0  0.42113152646E+01 -0.20921576020E+01  0.37192112474E+02  0.37488205211E+02  0.00000000000E+00 0. -1.
       -4    1    5    5    0  501 -0.18959810681E+02 -0.31877114067E+02 -0.34373119709E+02  0.50568134046E+02  0.00000000000E+00 0.  1.
</event>
<event>
 9   1  0.7570500E-01  0.2500016E+03  0.7546771E-02  0.1113304E+00
       21   -1    0    0  503  502  0.00000000000E+00  0.00000000000E+00  0.94110585072E+01  0.94110585072E+01  0.00000000000E+00 0. -1.
       21   -1    0    0  502  503 -0.00000000000E+00 -0.00000000000E+00 -0.16603022288E+04  0.16603022288E+04  0.00000000000E+00 0. -1.
       25    2    1    2    0    0  0.00000000000E+00  0.00000000000E+00 -0.16508911703E+04  0.16697132873E+04  0.25000161132E+03 0.  0.
       24    2    3    3    0    0 -0.94044461163E+02  0.16797763683E+02 -0.75054963665E+03  0.76084944407E+03  0.80253310993E+02 0.  0.
      -24    2    3    3    0    0  0.94044461163E+02 -0.16797763683E+02 -0.90034153367E+03  0.90886384327E+03  0.79322650000E+02 0.  0.
      -13    1    4    4    0    0 -0.74294015584E+02  0.31203800249E+02 -0.70080514115E+03  0.70542265612E+03  0.00000000000E+00 0.  1.
       14    1    4    4    0    0 -0.19750445579E+02 -0.14406036566E+02 -0.49744495497E+02  0.55426787949E+02  0.00000000000E+00 0. -1.
        3    1    5    5  501    0  0.47507856953E+02 -0.22611380301E+01 -0.16001889181E+03  0.16693757801E+03  0.00000000000E+00 0. -1.
       -4    1    5    5    0  501  0.46536604210E+02 -0.14536625653E+02 -0.74032264187E+03  0.74192626526E+03  0.00000000000E+00 0.  1.
</event>
<event>
 9   1  0.7570500E-01  0.2500023E+03  0.7546771E-02  0.1113303E+00
       21   -1    0    0  503  502  0.00000000000E+00  0.00000000000E+00  0.40841864116E+02  0.40841864116E+02  0.00000000000E+00 0. -1.
       21   -1    0    0  502  503 -0.00000000000E+00 -0.00000000000E+00 -0.38258032687E+03  0.38258032687E+03  0.00000000000E+00 0. -1.
       25    2    1    2    0    0 -0.14210854715E-13 -0.71054273576E-14 -0.34173846275E+03  0.42342219098E+03  0.25000234978E+03 0.  0.
       24    2    3    3    0    0 -0.82004457084E+02 -0.37773205758E+02 -0.79375655079E+02  0.13584356749E+03  0.63256890177E+02 0.  0.
      -24    2    3    3    0    0  0.82004457084E+02  0.37773205758E+02 -0.26236280767E+03  0.28757862349E+03  0.75602088496E+02 0.  0.
      -13    1    4    4    0    0 -0.82717650555E+02 -0.38123532396E+02 -0.88316362108E+02  0.12686762097E+03  0.00000000000E+00 0.  1.
       14    1    4    4    0    0  0.71319347163E+00  0.35032663852E+00  0.89407070297E+01  0.89759465168E+01  0.00000000000E+00 0. -1.
        1    1    5    5  501    0  0.57876314952E+02  0.11653002805E+02 -0.23610863517E+03  0.24337778844E+03  0.00000000000E+00 0. -1.
       -2    1    5    5    0  501  0.24128142132E+02  0.26120202952E+02 -0.26254172502E+02  0.44200835046E+02  0.00000000000E+00 0.  1.
</event>
<event>
 9   1  0.7570500E-01  0.2500016E+03  0.7546771E-02  0.1113304E+00
       21   -1    0    0  503  502  0.00000000000E+00  0.00000000000E+00  0.27980201653E+03  0.27980201653E+03  0.00000000000E+00 0. -1.
       21   -1    0    0  502  503 -0.00000000000E+00 -0.00000000000E+00 -0.55843751529E+02  0.55843751529E+02  0.00000000000E+00 0. -1.
       25    2    1    2    0    0  0.00000000000E+00  0.00000000000E+00  0.22395826500E+03  0.33564576806E+03  0.25000155430E+03 0.  0.
       24    2    3    3    0    0  0.19281948894E+02 -0.88543402620E+02  0.15526348373E+03  0.19686962258E+03  0.80244446616E+02 0.  0.
      -24    2    3    3    0    0 -0.19281948894E+02  0.88543402620E+02  0.68694781273E+02  0.13877614549E+03  0.79549468137E+02 0.  0.
      -13    1    4    4    0    0 -0.27794040298E+02 -0.38704437309E+02  0.37632739821E+02  0.60718738870E+02  0.00000000000E+00 0.  1.
       14    1    4    4    0    0  0.47075989191E+02 -0.49838965311E+02  0.11763074391E+03  0.13615088371E+03  0.00000000000E+00 0. -1.
        3    1    5    5  501    0 -0.28093568389E+02 -0.31142339514E+01  0.12528316137E+02  0.30917725388E+02  0.00000000000E+00 0. -1.
       -4    1    5    5    0  501  0.88116194952E+01  0.91657636572E+02  0.56166465137E+02  0.10785842010E+03  0.00000000000E+00 0.  1.
</event>
<event>
 9   1  0.7570500E-01  0.2499990E+03  0.7546771E-02  0.1113305E+00
       21   -1    0    0  503  502  0.00000000000E+00  0.00000000000E+00  0.35275453104E+03  0.35275453104E+03  0.00000000000E+00 0.  1.
       21   -1    0    0  502  503 -0.00000000000E+00 -0.00000000000E+00 -0.44293906113E+02  0.44293906113E+02  0.00000000000E+00 0.  1.
       25    2    1    2    0    0  0.00000000000E+00  0.21316282073E-13  0.30846062492E+03  0.39704843715E+03  0.24999900863E+03 0.  0.
       24    2    3    3    0    0 -0.73376099852E+02  0.63366912711E+02  0.15160857025E+03  0.19603908309E+03  0.77760824775E+02 0.  0.
      -24    2    3    3    0    0  0.73376099852E+02 -0.63366912711E+02  0.15685205467E+03  0.20100935406E+03  0.80017346293E+02 0.  0.
      -13    1    4    4    0    0  0.76828014440E+01 -0.10910298636E+02  0.25143804575E+02  0.28465258876E+02  0.00000000000E+00 0.  1.
       14    1    4    4    0    0 -0.81058901296E+02  0.74277211347E+02  0.12646476568E+03  0.16757382422E+03  0.00000000000E+00 0. -1.
        1    1    5    5  501    0  0.39213523987E+02 -0.37339164187E+02  0.14740386712E+03  0.15703443472E+03  0.00000000000E+00 0. -1.
       -2    1    5    5    0  501  0.34162575864E+02 -0.26027748525E+02  0.94481875545E+01  0.43974919341E+02  0.00000000000E+00 0.  1.
</event>
<event>
 9   1  0.7570500E-01  0.2499848E+03  0.7546771E-02  0.1113314E+00
       21   -1    0    0  503  502  0.00000000000E+00  0.00000000000E+00  0.75599010877E+02  0.75599010877E+02  0.00000000000E+00 0.  1.
       21   -1    0    0  502  503 -0.00000000000E+00 -0.00000000000E+00 -0.20665740458E+03  0.20665740458E+03  0.00000000000E+00 0.  1.
       25    2    1    2    0    0  0.71054273576E-14  0.14210854715E-13 -0.13105839370E+03  0.28225641546E+03  0.24998476255E+03 0.  0.
       24    2    3    3    0    0 -0.57528990898E+02 -0.71386282342E+02 -0.91511699526E+02  0.15268236679E+03  0.80820343210E+02 0.  0.
      -24    2    3    3    0    0  0.57528990898E+02  0.71386282342E+02 -0.39546694176E+02  0.12957404867E+03  0.82582728026E+02 0.  0.
      -13    1    4    4    0    0 -0.37398428645E+02 -0.55798022956E+02 -0.10440227971E+03  0.12414466497E+03  0.00000000000E+00 0.  1.
       14    1    4    4    0    0 -0.20130562253E+02 -0.15588259386E+02  0.12890580188E+02  0.28537701815E+02  0.00000000000E+00 0. -1.
        3    1    5    5  501    0 -0.13022927734E+02  0.41412103418E+02 -0.28975630780E+02  0.52193353364E+02  0.00000000000E+00 0. -1.
       -4    1    5    5    0  501  0.70551918632E+02  0.29974178924E+02 -0.10571063396E+02  0.77380695306E+02  0.00000000000E+00 0.  1.
</event>
<event>
 9   1  0.7570500E-01  0.2500026E+03  0.7546771E-02  0.1113303E+00
       21   -1    0    0  503  502  0.00000000000E+00  0.00000000000E+00  0.39209737567E+02  0.39209737567E+02  0.00000000000E+00 0. -1.
       21   -1    0    0  502  503 -0.00000000000E+00 -0.00000000000E+00 -0.39850609782E+03  0.39850609782E+03  0.00000000000E+00 0. -1.
       25    2    1    2    0    0  0.00000000000E+00  0.00000000000E+00 -0.35929636026E+03  0.43771583539E+03  0.25000255610E+03 0.  0.
       24    2    3    3    0    0 -0.35744866481E+02  0.41786257346E+02 -0.31676224575E+03  0.33138876922E+03  0.80351784323E+02 0.  0.
      -24    2    3    3    0    0  0.35744866481E+02 -0.41786257346E+02 -0.42534114503E+02  0.10632706618E+03  0.80451894461E+02 0.  0.
      -13    1    4    4    0    0 -0.14567236234E+02  0.51777728079E+02 -0.10163152681E+03  0.11498741122E+03  0.00000000000E+00 0.  1.
       14    1    4    4    0    0 -0.21177630246E+02 -0.99914707328E+01 -0.21513071894E+03  0.21640135800E+03  0.00000000000E+00 0. -1.
        1    1    5    5  501    0  0.40533445467E+02  0.12001948878E+02 -0.26909435530E+02  0.50111123504E+02  0.00000000000E+00 0. -1.
       -2    1    5    5    0  501 -0.47885789865E+01 -0.53788206224E+02 -0.15624678973E+02  0.56215942672E+02  0.00000000000E+00 0.  1.
</event>
<event>
 9   1  0.7570500E-01  0.2499980E+03  0.7546771E-02  0.1113306E+00
       21   -1    0    0  503  502  0.00000000000E+00  0.00000000000E+00  0.73867140564E+03  0.73867140564E+03  0.00000000000E+00 0.  1.
       21   -1    0    0  502  503 -0.00000000000E+00 -0.00000000000E+00 -0.21152496352E+02  0.21152496352E+02  0.00000000000E+00 0.  1.
       25    2    1    2    0    0 -0.71054273576E-14  0.00000000000E+00  0.71751890928E+03  0.75982390199E+03  0.24999795369E+03 0.  0.
       24    2    3    3    0    0  0.39601149947E+02 -0.28677159657E+02  0.60814787870E+03  0.61541811820E+03  0.80653501379E+02 0.  0.
      -24    2    3    3    0    0 -0.39601149947E+02  0.28677159657E+02  0.10937103059E+03  0.14440578378E+03  0.80624918577E+02 0.  0.
      -13    1    4    4    0    0  0.54698996248E+01 -0.20962134851E+02  0.52179747335E+03  0.52224700487E+03  0.00000000000E+00 0.  1.
       14    1    4    4    0    0  0.34131250323E+02 -0.77150248060E+01  0.86350405350E+02  0.93171113337E+02  0.00000000000E+00 0. -1.
        1    1    5    5  501    0 -0.61000687419E+01 -0.22021053011E+02  0.46316134628E+01  0.23315004989E+02  0.00000000000E+00 0. -1.
       -2    1    5    5    0  501 -0.33501081205E+02  0.50698212669E+02  0.10473941712E+03  0.12109077879E+03  0.00000000000E+00 0.  1.
</event>
<event>
 9   1  0.7570500E-01  0.2499960E+03  0.7546771E-02  0.1113307E+00
       21   -1    0    0  503  502  0.00000000000E+00  0.00000000000E+00  0.11425524722E+03  0.11425524722E+03  0.00000000000E+00 0.  1.
       21   -1    0    0  502  503 -0.00000000000E+00 -0.00000000000E+00 -0.13675086861E+03  0.13675086861E+03  0.00000000000E+00 0.  1.
       25    2    1    2    0    0 -0.14210854715E-13  0.35527136788E-14 -0.22495621394E+02  0.25100611583E+03  0.24999603437E+03 0.  0.
       24    2    3    3    0    0 -0.65468659802E+02 -0.47207614427E+01 -0.82125465703E+02  0.13268351435E+03  0.80943757372E+02 0.  0.
      -24    2    3    3    0    0  0.65468659802E+02  0.47207614427E+01  0.59629844309E+02  0.11832260148E+03  0.78333190176E+02 0.  0.
      -13    1    4    4    0    0 -0.44266507008E+02 -0.41791254964E+02 -0.55353238238E+02  0.82280092475E+02  0.00000000000E+00 0.  1.
       14    1    4    4    0    0 -0.21202152794E+02  0.37070493521E+02 -0.26772227465E+02  0.50403421873E+02  0.00000000000E+00 0. -1.
        1    1    5    5  501    0  0.29438992371E+02 -0.87755798014E+01  0.71696422187E+02  0.78000269404E+02  0.00000000000E+00 0. -1.
       -2    1    5    5    0  501  0.36029667432E+02  0.13496341244E+02 -0.12066577877E+02  0.40322332074E+02  0.00000000000E+00 0.  1.
</event>
<event>
 9   1  0.7570500E-01  0.2499858E+03  0.7546771E-02  0.1113314E+00
       21   -1    0    0  503  502  0.00000000000E+00  0.00000000000E+00  0.73441172723E+01  0.73441172723E+01  0.00000000000E+00 0.  1.
       21   -1    0    0  502  503 -0.00000000000E+00 -0.00000000000E+00 -0.21273117721E+04  0.21273117721E+04  0.00000000000E+00 0.  1.
       25    2    1    2    0    0 -0.14210854715E-13 -0.35527136788E-14 -0.21199676549E+04  0.21346558894E+04  0.24998581663E+03 0.  0.
       24    2    3    3    0    0  0.88814460768E+02  0.20045003812E+02 -0.12797778435E+04  0.12859689379E+04  0.87149124341E+02 0.  0.
      -24    2    3    3    0    0 -0.88814460768E+02 -0.20045003812E+02 -0.84018981139E+03  0.84868695155E+03  0.77851216732E+02 0.  0.
      -13    1    4    4    0    0  0.54388665951E+00  0.55513490692E+01 -0.35538717147E+01  0.66138712832E+01  0.00000000000E+00 0.  1.
       14    1    4    4    0    0  0.88270574109E+02  0.14493654743E+02 -0.12762239718E+04  0.12793550666E+04  0.00000000000E+00 0. -1.
        3    1    5    5  501    0 -0.68493506731E+02  0.21135471016E+02 -0.42985150395E+03  0.43578708569E+03  0.00000000000E+00 0. -1.
       -4    1    5    5    0  501 -0.20320954037E+02 -0.41180474828E+02 -0.41033830744E+03  0.41289986586E+03  0.00000000000E+00 0.  1.
</event>
<event>
 9   1  0.7570500E-01  0.2499971E+03  0.7546771E-02  0.1113307E+00
       21   -1    0    0  503  502  0.00000000000E+00  0.00000000000E+00  0.67907814464E+03  0.67907814464E+03  0.00000000000E+00 0. -1.
       21   -1    0    0  502  503 -0.00000000000E+00 -0.00000000000E+00 -0.23008603627E+02  0.23008603627E+02  0.00000000000E+00 0. -1.
       25    2    1    2    0    0  0.00000000000E+00  0.14210854715E-13  0.65606954101E+03  0.70208674826E+03  0.24999711888E+03 0.  0.
       24    2    3    3    0    0  0.34700727257E+02  0.82351662331E+02  0.43802738444E+03  0.45417387746E+03  0.80124806941E+02 0.  0.
      -24    2    3    3    0    0 -0.34700727257E+02 -0.82351662331E+02  0.21804215657E+03  0.24791287080E+03  0.77022546750E+02 0.  0.
      -13    1    4    4    0    0 -0.13857922286E+02 -0.87721106545E+01  0.48731873343E+02  0.51417773337E+02  0.00000000000E+00 0.  1.
       14    1    4    4    0    0  0.48558649543E+02  0.91123772985E+02  0.38929551110E+03  0.40275610412E+03  0.00000000000E+00 0. -1.
        1    1    5    5  501    0 -0.39397554127E+02 -0.59673881660E+02  0.77393399135E+02  0.10537019338E+03  0.00000000000E+00 0. -1.
       -2    1    5    5    0  501  0.46968268700E+01 -0.22677780671E+02  0.14064875744E+03  0.14254267742E+03  0.00000000000E+00 0.  1.
</event>
<event>
 9   1  0.7570500E-01  0.2499351E+03  0.7546771E-02  0.1113346E+00
       21   -1    0    0  503  502  0.00000000000E+00  0.00000000000E+00  0.84564516838E+03  0.84564516838E+03  0.00000000000E+00 0. -1.
       21   -1    0    0  502  503 -0.00000000000E+00 -0.00000000000E+00 -0.18467428884E+02  0.18467428884E+02  0.00000000000E+00 0. -1.
       25    2    1    2    0    0  0.00000000000E+00  0.00000000000E+00  0.82717773950E+03  0.86411259727E+03  0.24993512765E+03 0.  0.
       24    2    3    3    0    0  0.78085502633E+02 -0.46299531325E+02  0.52066043491E+03  0.53461037294E+03  0.80498261127E+02 0.  0.
      -24    2    3    3    0    0 -0.78085502633E+02  0.46299531325E+02  0.30651730459E+03  0.32950222433E+03  0.79861539592E+02 0.  0.
      -13    1    4    4    0    0  0.36233629035E+02 -0.49183863259E+02  0.15584049128E+03  0.16738634055E+03  0.00000000000E+00 0.  1.
       14    1    4    4    0    0  0.41851873597E+02  0.28843319335E+01  0.36481994363E+03  0.36722403239E+03  0.00000000000E+00 0. -1.
        3    1    5    5  501    0 -0.81143461993E+01 -0.73676812155E+01  0.43324002059E+00  0.10968729993E+02  0.00000000000E+00 0. -1.
       -4    1    5    5    0  501 -0.69971156434E+02  0.53667212541E+02  0.30608406456E+03  0.31853349434E+03  0.00000000000E+00 0.  1.
</event>
<event>
 9   1  0.7570500E-01  0.2499900E+03  0.7546771E-02  0.1113311E+00
       21   -1    0    0  503  502  0.00000000000E+00  0.00000000000E+00  0.45323342637E+02  0.45323342637E+02  0.00000000000E+00 0.  1.
       21   -1    0    0  502  503 -0.00000000000E+00 -0.00000000000E+00 -0.34471761576E+03  0.34471761576E+03  0.00000000000E+00 0.  1.
       25    2    1    2    0    0  0.00000000000E+00  0.00000000000E+00 -0.29939427312E+03  0.39004095840E+03  0.24999003670E+03 0.  0.
       24    2    3    3    0    0  0.50046046183E+02 -0.41573557228E+02 -0.39500342049E+02  0.11051224492E+03  0.80123104387E+02 0.  0.
      -24    2    3    3    0    0 -0.50046046183E+02  0.41573557228E+02 -0.25989393108E+03  0.27952871348E+03  0.79740070532E+02 0.  0.
      -13    1    4    4    0    0  0.60513591196E+02 -0.34924366511E+02 -0.79941519560E+00  0.69873064627E+02  0.00000000000E+00 0.  1.
       14    1    4    4    0    0 -0.10467545013E+02 -0.66491907166E+01 -0.38700926853E+02  0.40639180296E+02  0.00000000000E+00 0. -1.
        3    1    5    5  501    0 -0.68696532782E+02  0.15077626127E+02 -0.18546355740E+03  0.19835140420E+03  0.00000000000E+00 0. -1.
       -4    1    5    5    0  501  0.18650486599E+02  0.26495931101E+02 -0.74430373677E+02  0.81177309274E+02  0.00000000000E+00 0.  1.
</event>
<event>
 9   1  0.7570500E-01  0.2499954E+03  0.7546771E-02  0.1113308E+00
       21   -1    0    0  503  502  0.00000000000E+00  0.00000000000E+00  0.26022688633E+03  0.26022688633E+03  0.00000000000E+00 0. -1.
       21   -1    0    0  502  503 -0.00000000000E+00 -0.00000000000E+00 -0.60041555035E+02  0.60041555035E+02  0.00000000000E+00 0. -1.
       25    2    1    2    0    0  0.14210854715E-13  0.53290705182E-14  0.20018533130E+03  0.32026844137E+03  0.24999541529E+03 0.  0.
       24    2    3    3    0    0  0.90559903043E+02 -0.13481913888E+02  0.73411332545E+02  0.14427982910E+03  0.83932039755E+02 0.  0.
      -24    2    3    3    0    0 -0.90559903043E+02  0.13481913888E+02  0.12677399875E+03  0.17598861227E+03  0.80730953462E+02 0.  0.
      -13    1    4    4    0    0  0.61175868691E+01  0.28523896542E+02  0.10956499406E+02  0.31162195402E+02  0.00000000000E+00 0.  1.
       14    1    4    4    0    0  0.84442316174E+02 -0.42005810430E+02  0.62454833139E+02  0.11311763370E+03  0.00000000000E+00 0. -1.
        1    1    5    5  501    0 -0.15796824878E+01 -0.67059662974E+01  0.66002360863E+02  0.66360960061E+02  0.00000000000E+00 0. -1.
       -2    1    5    5    0  501 -0.88980220555E+02  0.20187880185E+02  0.60771637887E+02  0.10962765221E+03  0.00000000000E+00 0.  1.
</event>
<event>
 9   1  0.7570500E-01  0.2499919E+03  0.7546771E-02  0.1113310E+00
       21   -1    0    0  503  502  0.00000000000E+00  0.00000000000E+00  0.47894806233E+03  0.47894806233E+03  0.00000000000E+00 0. -1.
       21   -1    0    0  502  503 -0.00000000000E+00 -0.00000000000E+00 -0.32621456060E+02  0.32621456060E+02  0.00000000000E+00 0. -1.
       25    2    1    2    0    0  0.00000000000E+00  0.14210854715E-13  0.44632660627E+03  0.51156951839E+03  0.24999186523E+03 0.  0.
       24    2    3    3    0    0 -0.20113311957E+02 -0.76454738203E+02  0.14530628388E+03  0.18209997749E+03  0.76135493406E+02 0.  0.
      -24    2    3    3    0    0  0.20113311957E+02  0.76454738203E+02  0.30102032239E+03  0.32946954090E+03  0.10810676009E+03 0.  0.
      -13    1    4    4    0    0  0.10909942319E+02 -0.59488141776E+02  0.43977761951E+02  0.74779070598E+02  0.00000000000E+00 0.  1.
       14    1    4    4    0    0 -0.31023254276E+02 -0.16966596427E+02  0.10132852193E+03  0.10732090690E+03  0.00000000000E+00 0. -1.
        3    1    5    5  501    0  0.58371238559E+02  0.57600959511E+02  0.24924255041E+03  0.26238696798E+03  0.00000000000E+00 0. -1.
       -4    1    5    5    0  501 -0.38257926602E+02  0.18853778692E+02  0.51777771974E+02  0.67082572919E+02  0.00000000000E+00 0.  1.
</event>
<event>
 9   1  0.7570500E-01  0.2499983E+03  0.7546771E-02  0.1113306E+00
       21   -1    0    0  503  502  0.00000000000E+00  0.00000000000E+00  0.26516620889E+02  0.26516620889E+02  0.00000000000E+00 0. -1.
       21   -1    0    0  502  503 -0.00000000000E+00 -0.00000000000E+00 -0.58924486440E+03  0.58924486440E+03  0.00000000000E+00 0. -1.
       25    2    1    2    0    0  0.71054273576E-14  0.00000000000E+00 -0.56272824351E+03  0.61576148529E+03  0.24999826144E+03 0.  0.
       24    2    3    3    0    0  0.43330392742E+02 -0.66906371232E+02 -0.15128453585E+03  0.18864842136E+03  0.79669508900E+02 0.  0.
      -24    2    3    3    0    0 -0.43330392742E+02  0.66906371232E+02 -0.41144370766E+03  0.42711306393E+03  0.82375113698E+02 0.  0.
      -13    1    4    4    0    0  0.17455586036E+02  0.17228887815E+02 -0.37091006822E+02  0.44466558741E+02  0.00000000000E+00 0.  1.
       14    1    4    4    0    0  0.25874806706E+02 -0.84135259047E+02 -0.11419352903E+03  0.14418186262E+03  0.00000000000E+00 0. -1.
        1    1    5    5  501    0 -0.26995444109E+02  0.45825269752E+02 -0.38792823810E+03  0.39155718263E+03  0.00000000000E+00 0. -1.
       -2    1    5    5    0  501 -0.16334948633E+02  0.21081101480E+02 -0.23515469562E+02  0.35555881302E+02  0.00000000000E+00 0.  1.
</event>
<event>
 9   1  0.7570500E-01  0.2499686E+03  0.7546771E-02  0.1113325E+00
       21   -1    0    0  503  502  0.00000000000E+00  0.00000000000E+00  0.37061395215E+03  0.37061395215E+03  0.00000000000E+00 0. -1.
       21   -1    0    0  502  503 -0.00000000000E+00 -0.00000000000E+00 -0.42149194988E+02  0.42149194988E+02  0.00000000000E+00 0. -1.
       25    2    1    2    0    0  0.35527136788E-14  0.35527136788E-14  0.32846475717E+03  0.41276314714E+03  0.24996863591E+03 0.  0.
       24    2    3    3    0    0  0.23643470744E+02  0.25062351186E+02  0.19238687809E+02  0.92060261774E+02  0.83173490569E+02 0.  0.
      -24    2    3    3    0    0 -0.23643470744E+02 -0.25062351186E+02  0.30922606936E+03  0.32070288537E+03  0.77733156105E+02 0.  0.
      -13    1    4    4    0    0 -0.13843183469E+02 -0.24339012575E+02  0.52575658078E+01  0.28489704454E+02  0.00000000000E+00 0.  1.
       14    1    4    4    0    0  0.37486654213E+02  0.49401363761E+02  0.13981122001E+02  0.63570557320E+02  0.00000000000E+00 0. -1.
        3    1    5    5  501    0 -0.75378287815E+01 -0.30159435638E+02  0.29970226722E+03  0.30131023779E+03  0.00000000000E+00 0. -1.
       -4    1    5    5    0  501 -0.16105641962E+02  0.50970844522E+01  0.95238021371E+01  0.19392647578E+02  0.00000000000E+00 0.  1.
</event>
<event>
 9   1  0.7570500E-01  0.2499973E+03  0.7546771E-02  0.1113307E+00
       21   -1    0    0  503  502  0.00000000000E+00  0.00000000000E+00  0.52468835309E+03  0.52468835309E+03  0.00000000000E+00 0. -1.
       21   -1    0    0  502  503 -0.00000000000E+00 -0.00000000000E+00 -0.29778949169E+02  0.29778949169E+02  0.00000000000E+00 0. -1.
       25    2    1    2    0    0  0.71054273576E-14  0.14210854715E-13  0.49490940392E+03  0.55446730226E+03  0.24999734236E+03 0.  0.
       24    2    3    3    0    0 -0.50600264809E+02 -0.73465353130E+02  0.32860243501E+03  0.35009980458E+03  0.81441807183E+02 0.  0.
      -24    2    3    3    0    0  0.50600264809E+02  0.73465353130E+02  0.16630696891E+03  0.20436749768E+03  0.78425259280E+02 0.  0.
      -13    1    4    4    0    0  0.73141883949E+01 -0.57438334988E+02  0.19883899304E+03  0.20709805607E+03  0.00000000000E+00 0.  1.
       14    1    4    4    0    0 -0.57914453204E+02 -0.16027018142E+02  0.12976344198E+03  0.14300174850E+03  0.00000000000E+00 0. -1.
        1    1    5    5  501    0  0.43068911768E+02  0.94995029770E+01  0.11111180961E+03  0.11954499552E+03  0.00000000000E+00 0. -1.
       -2    1    5    5    0  501  0.75313530409E+01  0.63965850153E+02  0.55195159296E+02  0.84822502168E+02  0.00000000000E+00 0.  1.
</event>
<event>
 9   1  0.7570500E-01  0.2499933E+03  0.7546771E-02  0.1113309E+00
       21   -1    0    0  503  502  0.00000000000E+00  0.00000000000E+00  0.20882642953E+03  0.20882642953E+03  0.00000000000E+00 0.  1.
       21   -1    0    0  502  503 -0.00000000000E+00 -0.00000000000E+00 -0.74818865938E+02  0.74818865938E+02  0.00000000000E+00 0.  1.
       25    2    1    2    0    0  0.17763568394E-14  0.00000000000E+00  0.13400756359E+03  0.28364529547E+03  0.24999325299E+03 0.  0.
       24    2    3    3    0    0  0.17156531105E+01 -0.95271265866E+02  0.74714935641E+02  0.14627482680E+03  0.82063669069E+02 0.  0.
      -24    2    3    3    0    0 -0.17156531105E+01  0.95271265866E+02  0.59292627952E+02  0.13737046867E+03  0.79217879096E+02 0.  0.
      -13    1    4    4    0    0 -0.11477375878E+02 -0.33750154629E+02  0.75344080796E+02  0.83351866239E+02  0.00000000000E+00 0.  1.
       14    1    4    4    0    0  0.13193028988E+02 -0.61521111237E+02 -0.62914515437E+00  0.62922960558E+02  0.00000000000E+00 0. -1.
        3    1    5    5  501    0  0.31290053330E+02  0.60159396049E+02  0.10189947511E+02  0.68571534915E+02  0.00000000000E+00 0. -1.
       -4    1    5    5    0  501 -0.33005706440E+02  0.35111869817E+02  0.49102680440E+02  0.68798933757E+02  0.00000000000E+00 0.  1.
</event>
<event>
 9   1  0.7570500E-01  0.2499981E+03  0.7546771E-02  0.1113306E+00
       21   -1    0    0  503  502  0.00000000000E+00  0.00000000000E+00  0.48076014004E+02  0.48076014004E+02  0.00000000000E+00 0. -1.
       21   -1    0    0  502  503 -0.00000000000E+00 -0.00000000000E+00 -0.32500111462E+03  0.32500111462E+03  0.00000000000E+00 0. -1.
       25    2    1    2    0    0  0.00000000000E+00  0.00000000000E+00 -0.27692510062E+03  0.37307712863E+03  0.24999806509E+03 0.  0.
       24    2    3    3    0    0  0.11449540786E+02 -0.55189676125E+02 -0.22354455126E+02  0.10094557643E+03  0.80704989943E+02 0.  0.
      -24    2    3    3    0    0 -0.11449540786E+02  0.55189676125E+02 -0.25457064549E+03  0.27213155220E+03  0.77925450395E+02 0.  0.
      -13    1    4    4    0    0 -0.87579390225E+01  0.36243998454E+01  0.22402833205E+02  0.24325392202E+02  0.00000000000E+00 0.  1.
       14    1    4    4    0    0  0.20207479808E+02 -0.58814075970E+02 -0.44757288331E+02  0.76620184228E+02  0.00000000000E+00 0. -1.
        3    1    5    5  501    0 -0.26484016386E+01  0.49012720043E+01 -0.18875118672E+03  0.18883338419E+03  0.00000000000E+00 0. -1.
       -4    1    5    5    0  501 -0.88011391470E+01  0.50288404121E+02 -0.65819458776E+02  0.83298168004E+02  0.00000000000E+00 0.  1.
</event>
<event>
 9   1  0.7570500E-01  0.2499474E+03  0.7546771E-02  0.1113338E+00
       21   -1    0    0  503  502  0.00000000000E+00  0.00000000000E+00  0.51052799051E+02  0.51052799051E+02  0.00000000000E+00 0. -1.
       21   -1    0    0  502  503 -0.00000000000E+00 -0.00000000000E+00 -0.30592691115E+03  0.30592691115E+03  0.00000000000E+00 0. -1.
       25    2    1    2    0    0  0.00000000000E+00  0.00000000000E+00 -0.25487411210E+03  0.35697971020E+03  0.24994739542E+03 0.  0.
       24    2    3    3    0    0  0.74291353421E+02  0.59951811357E+02 -0.12332231757E+03  0.17521299442E+03  0.79860969970E+02 0.  0.
      -24    2    3    3    0    0 -0.74291353421E+02 -0.59951811357E+02 -0.13155179454E+03  0.18176671579E+03  0.81362395761E+02 0.  0.
      -13    1    4    4    0    0  0.55444642872E+02 -0.48125851849E+01 -0.43024690639E+02  0.70344817890E+02  0.00000000000E+00 0.  1.
       14    1    4    4    0    0  0.18846710549E+02  0.64764396542E+02 -0.80297626927E+02  0.10486817653E+03  0.00000000000E+00 0. -1.
        1    1    5    5  501    0 -0.31708022221E+02 -0.58963592095E+02 -0.33499029698E+02  0.74861798380E+02  0.00000000000E+00 0. -1.
       -2    1    5    5    0  501 -0.42583331199E+02 -0.98821926228E+00 -0.98052764837E+02  0.10690491741E+03  0.00000000000E+00 0.  1.
</event>
<event>
 9   1  0.7570500E-01  0.2499951E+03  0.7546771E-02  0.1113308E+00
       21   -1    0    0  503  502  0.00000000000E+00  0.00000000000E+00  0.69661995066E+01  0.69661995066E+01  0.00000000000E+00 0. -1.
       21   -1    0    0  502  503 -0.00000000000E+00 -0.00000000000E+00 -0.22428847966E+04  0.22428847966E+04  0.00000000000E+00 0. -1.
       25    2    1    2    0    0  0.14210854715E-13  0.00000000000E+00 -0.22359185971E+04  0.22498509961E+04  0.24999506366E+03 0.  0.
       24    2    3    3    0    0 -0.63338632346E+02 -0.70675083297E+02 -0.11982190307E+04  0.12047654209E+04  0.82000756246E+02 0.  0.
      -24    2    3    3    0    0  0.63338632346E+02  0.70675083297E+02 -0.10376995664E+04  0.10450855753E+04  0.79854365858E+02 0.  0.
      -13    1    4    4    0    0 -0.53355900967E+02 -0.58612067664E+01 -0.73079081075E+03  0.73275945234E+03  0.00000000000E+00 0.  1.
       14    1    4    4    0    0 -0.99827313782E+01 -0.64813876530E+02 -0.46742821994E+03  0.47200596851E+03  0.00000000000E+00 0. -1.
        3    1    5    5  501    0  0.60318339887E+02  0.28063651329E+02 -0.84939414095E+03  0.85199546790E+03  0.00000000000E+00 0. -1.
       -4    1    5    5    0  501  0.30202924582E+01  0.42611431968E+02 -0.18830542545E+03  0.19309010735E+03  0.00000000000E+00 0.  1.
</event>
<event>
 9   1  0.7570500E-01  0.2499869E+03  0.7546771E-02  0.1113313E+00
       21   -1    0    0  503  502  0.00000000000E+00  0.00000000000E+00  0.86212091025E+02  0.86212091025E+02  0.00000000000E+00 0. -1.
       21   -1    0    0  502  503 -0.00000000000E+00 -0.00000000000E+00 -0.18122008993E+03  0.18122008993E+03  0.00000000000E+00 0. -1.
       25    2    1    2    0    0  0.00000000000E+00  0.17763568394E-14 -0.95007998904E+02  0.26743218095E+03  0.24998690276E+03 0.  0.
       24    2    3    3    0    0  0.71719401926E+02 -0.21110592908E+01 -0.11193795868E+03  0.15543940947E+03  0.80518160922E+02 0.  0.
      -24    2    3    3    0    0 -0.71719401926E+02  0.21110592908E+01  0.16929959781E+02  0.11199277148E+03  0.84306750277E+02 0.  0.
      -13    1    4    4    0    0 -0.23604139808E+00  0.16364502240E+02  0.48109239440E+01  0.17058652887E+02  0.00000000000E+00 0.  1.
       14    1    4    4    0    0  0.71955443324E+02 -0.18475561531E+02 -0.11674888263E+03  0.13838075658E+03  0.00000000000E+00 0. -1.
        3    1    5    5  501    0 -0.61334282841E+02  0.11022246648E+02 -0.25558930174E+02  0.67354607002E+02  0.00000000000E+00 0. -1.
       -4    1    5    5    0  501 -0.10385119085E+02 -0.89111873573E+01  0.42488889955E+02  0.44638164480E+02  0.00000000000E+00 0.  1.
</event>
<event>
 9   1  0.7570500E-01  0.2500159E+03  0.7546771E-02  0.1113295E+00
       21   -1    0    0  503  502  0.00000000000E+00  0.00000000000E+00  0.35568170956E+02  0.35568170956E+02  0.00000000000E+00 0.  1.
       21   -1    0    0  502  503 -0.00000000000E+00 -0.00000000000E+00 -0.43935312428E+03  0.43935312428E+03  0.00000000000E+00 0.  1.
       25    2    1    2    0    0  0.00000000000E+00  0.28421709430E-13 -0.40378495332E+03  0.47492129523E+03  0.25001589577E+03 0.  0.
       24    2    3    3    0    0  0.32657616876E+02  0.83598647906E+02 -0.11525091873E+03  0.16224466657E+03  0.70606683043E+02 0.  0.
      -24    2    3    3    0    0 -0.32657616876E+02 -0.83598647906E+02 -0.28853403459E+03  0.31267662866E+03  0.80371208302E+02 0.  0.
      -13    1    4    4    0    0  0.15017910993E+02  0.17431809450E+02  0.52916382193E+01  0.23609469844E+02  0.00000000000E+00 0.  1.
       14    1    4    4    0    0  0.17639705883E+02  0.66166838457E+02 -0.12054255695E+03  0.13863519673E+03  0.00000000000E+00 0. -1.
        1    1    5    5  501    0  0.97297926183E+01 -0.46397919559E+02 -0.55859149425E+02  0.73264455080E+02  0.00000000000E+00 0. -1.
       -2    1    5    5    0  501 -0.42387409494E+02 -0.37200728348E+02 -0.23267488517E+03  0.23941217358E+03  0.00000000000E+00 0.  1.
</event>
<event>
 8   1  0.7570500E-01  0.2498680E+03  0.7546771E-02  0.1113388E+00
       21   -1    0    0  503  502  0.00000000000E+00  0.00000000000E+00  0.74799996911E+02  0.74799996911E+02  0.00000000000E+00 0. -1.
       21   -1    0    0  502  503 -0.00000000000E+00 -0.00000000000E+00 -0.20866980562E+03  0.20866980562E+03  0.00000000000E+00 0. -1.
       24    2    1    2    0    0  0.67227061032E+02  0.63935625605E+02 -0.70466100451E+02  0.14496011214E+03  0.86259613040E+02 0.  0.
      -24    2    1    2    0    0 -0.67227061032E+02 -0.63935625605E+02 -0.63403708263E+02  0.13850969040E+03  0.80979393402E+02 0.  0.
      -13    1    3    3    0    0  0.79757866567E+02  0.53735130636E+02 -0.28985537902E+02  0.10044373027E+03  0.00000000000E+00 0.  1.
       14    1    3    3    0    0 -0.12530805535E+02  0.10200494969E+02 -0.41480562548E+02  0.44516381864E+02  0.00000000000E+00 0. -1.
        3    1    4    4  501    0  0.16513141763E+02 -0.26080242149E+02 -0.20749718698E+02  0.37194269821E+02  0.00000000000E+00 0. -1.
       -4    1    4    4    0  501 -0.83740202795E+02 -0.37855383456E+02 -0.42653989565E+02  0.10131542058E+03  0.00000000000E+00 0.  1.
</event>
<event>
 9   1  0.7570500E-01  0.2499983E+03  0.7546771E-02  0.1113306E+00
       21   -1    0    0  503  502  0.00000000000E+00  0.00000000000E+00  0.59382254815E+03  0.59382254815E+03  0.00000000000E+00 0.  1.
       21   -1    0    0  502  503 -0.00000000000E+00 -0.00000000000E+00 -0.26312218198E+02  0.26312218198E+02  0.00000000000E+00 0.  1.
       25    2    1    2    0    0  0.71054273576E-14  0.00000000000E+00  0.56751032995E+03  0.62013476635E+03  0.24999830766E+03 0.  0.
       24    2    3    3    0    0  0.57094158247E+02 -0.81047652508E+00  0.94342778504E+02  0.13723806030E+03  0.81690425156E+02 0.  0.
      -24    2    3    3    0    0 -0.57094158247E+02  0.81047652508E+00  0.47316755145E+03  0.48289670604E+03  0.77725781991E+02 0.  0.
      -13    1    4    4    0    0  0.34373204285E+02 -0.40643064858E+02  0.43259132693E+02  0.68591023139E+02  0.00000000000E+00 0.  1.
       14    1    4    4    0    0  0.22720953963E+02  0.39832588333E+02  0.51083645811E+02  0.68647037166E+02  0.00000000000E+00 0. -1.
        3    1    5    5  501    0 -0.62339911991E+02  0.20805652795E+02  0.24066569806E+03  0.24947769046E+03  0.00000000000E+00 0. -1.
       -4    1    5    5    0  501  0.52457537432E+01 -0.19995176270E+02  0.23250185339E+03  0.23341901558E+03  0.00000000000E+00 0.  1.
</event>
<event>
 9   1  0.7570500E-01  0.2499901E+03  0.7546771E-02  0.1113311E+00
       21   -1    0    0  503  502  0.00000000000E+00  0.00000000000E+00  0.37975342853E+02  0.37975342853E+02  0.00000000000E+00 0. -1.
       21   -1    0    0  502  503 -0.00000000000E+00 -0.00000000000E+00 -0.41141869101E+03  0.41141869101E+03  0.00000000000E+00 0. -1.
       25    2    1    2    0    0  0.00000000000E+00  0.00000000000E+00 -0.37344334816E+03  0.44939403386E+03  0.24999012658E+03 0.  0.
       24    2    3    3    0    0 -0.47148361942E+02 -0.16878500929E+02 -0.31971111502E+02  0.96713896877E+02  0.76312345338E+02 0.  0.
      -24    2    3    3    0    0  0.47148361942E+02  0.16878500929E+02 -0.34147223666E+03  0.35268013699E+03  0.72609495189E+02 0.  0.
      -13    1    4    4    0    0  0.21203224602E+02 -0.53361216129E+01 -0.95469661263E+01  0.23857818207E+02  0.00000000000E+00 0.  1.
       14    1    4    4    0    0 -0.68351586543E+02 -0.11542379316E+02 -0.22424145376E+02  0.72856078670E+02  0.00000000000E+00 0. -1.
        1    1    5    5  501    0  0.43636614555E+02  0.42713405010E+02 -0.26277619513E+03  0.26977753395E+03  0.00000000000E+00 0. -1.
       -2    1    5    5    0  501  0.35117473866E+01 -0.25834904080E+02 -0.78696041530E+02  0.82902603041E+02  0.00000000000E+00 0.  1.
</event>
<event>
 9   1  0.7570500E-01  0.2499980E+03  0.7546771E-02  0.1113306E+00
       21   -1    0    0  503  502  0.00000000000E+00  0.00000000000E+00  0.15383755388E+04  0.15383755388E+04  0.00000000000E+00 0.  1.
       21   -1    0    0  502  503 -0.00000000000E+00 -0.00000000000E+00 -0.10156652130E+02  0.10156652130E+02  0.00000000000E+00 0.  1.
       25    2    1    2    0    0  0.00000000000E+00  0.14210854715E-13  0.15282188867E+04  0.15485321910E+04  0.24999796154E+03 0.  0.
       24    2    3    3    0    0 -0.45396453475E+01  0.54942157722E+02  0.27220707229E+03  0.28906903155E+03  0.80155883886E+02 0.  0.
      -24    2    3    3    0    0  0.45396453475E+01 -0.54942157722E+02  0.12560118144E+04  0.12594631594E+04  0.75116728495E+02 0.  0.
      -13    1    4    4    0    0 -0.25050759557E+02  0.28926466302E+02  0.23942036339E+03  0.24245905100E+03  0.00000000000E+00 0.  1.
       14    1    4    4    0    0  0.20511114210E+02  0.26015691420E+02  0.32786708902E+02  0.46609980549E+02  0.00000000000E+00 0. -1.
        3    1    5    5  501    0  0.28876930106E+02 -0.47545826935E+02  0.10987704180E+04  0.11001776739E+04  0.00000000000E+00 0. -1.
       -4    1    5    5    0  501 -0.24337284758E+02 -0.73963307865E+01  0.15724139642E+03  0.15928548549E+03  0.00000000000E+00 0.  1.
</event>
<event>
 9   1  0.7570500E-01  0.2500013E+03  0.7546771E-02  0.1113304E+00
       21   -1    0    0  503  502  0.00000000000E+00  0.00000000000E+00  0.57403416723E+02  0.57403416723E+02  0.00000000000E+00 0.  1.
       21   -1    0    0  502  503 -0.00000000000E+00 -0.00000000000E+00 -0.27219915898E+03  0.27219915898E+03  0.00000000000E+00 0.  1.
       25    2    1    2    0    0 -0.28421709430E-13  0.00000000000E+00 -0.21479574225E+03  0.32960257570E+03  0.25000129403E+03 0.  0.
       24    2    3    3    0    0  0.93023948990E+02 -0.24484396891E+02 -0.86352213328E+02  0.15301573098E+03  0.81878986346E+02 0.  0.
      -24    2    3    3    0    0 -0.93023948990E+02  0.24484396891E+02 -0.12844352893E+03  0.17658684472E+03  0.73703682587E+02 0.  0.
      -13    1    4    4    0    0 -0.13092805134E+02 -0.10431047838E+02 -0.23601590375E+02  0.28935503685E+02  0.00000000000E+00 0.  1.
       14    1    4    4    0    0  0.10611675412E+03 -0.14053349053E+02 -0.62750622953E+02  0.12408022730E+03  0.00000000000E+00 0. -1.
        1    1    5    5  501    0 -0.88291585996E+02 -0.72285037242E+01 -0.10135105730E+03  0.13460940621E+03  0.00000000000E+00 0. -1.
       -2    1    5    5    0  501 -0.47323629950E+01  0.31712900615E+02 -0.27092471623E+02  0.41977438507E+02  0.00000000000E+00 0.  1.
</event>
<event>
 9   1  0.7570500E-01  0.2499988E+03  0.7546771E-02  0.1113306E+00
       21   -1    0    0  503  502  0.00000000000E+00  0.00000000000E+00  0.12633334729E+02  0.12633334729E+02  0.00000000000E+00 0.  1.
       21   -1    0    0  502  503 -0.00000000000E+00 -0.00000000000E+00 -0.12367950578E+04  0.12367950578E+04  0.00000000000E+00 0.  1.
       25    2    1    2    0    0  0.00000000000E+00  0.00000000000E+00 -0.12241617231E+04  0.12494283926E+04  0.24999876765E+03 0.  0.
       24    2    3    3    0    0 -0.12171028665E+02  0.90523539629E+02 -0.74599526707E+03  0.75582125030E+03  0.80088568107E+02 0.  0.
      -24    2    3    3    0    0  0.12171028665E+02 -0.90523539629E+02 -0.47816645603E+03  0.49360714226E+03  0.81622337966E+02 0.  0.
      -13    1    4    4    0    0 -0.18587248315E+02  0.49878347907E+02 -0.16506000368E+03  0.17343050540E+03  0.00000000000E+00 0.  1.
       14    1    4    4    0    0  0.64162196500E+01  0.40645191722E+02 -0.58093526340E+03  0.58239074490E+03  0.00000000000E+00 0. -1.
        1    1    5    5  501    0 -0.11035342911E+01 -0.63176441821E+02 -0.13454096132E+03  0.14863966786E+03  0.00000000000E+00 0. -1.
       -2    1    5    5    0  501  0.13274562956E+02 -0.27347097807E+02 -0.34362549471E+03  0.34496747440E+03  0.00000000000E+00 0.  1.
</event>
<event>
 9   1  0.7570500E-01  0.2499960E+03  0.7546771E-02  0.1113307E+00
       21   -1    0    0  503  502  0.00000000000E+00  0.00000000000E+00  0.15318163541E+03  0.15318163541E+03  0.00000000000E+00 0. -1.
       21   -1    0    0  502  503 -0.00000000000E+00 -0.00000000000E+00 -0.10199984638E+03  0.10199984638E+03  0.00000000000E+00 0. -1.
       25    2    1    2    0    0  0.71054273576E-14 -0.14210854715E-13  0.51181789037E+02  0.25518148179E+03  0.24999602621E+03 0.  0.
       24    2    3    3    0    0  0.50802361367E+02 -0.66256564869E+02  0.29996431661E+02  0.11865445267E+03  0.78792645068E+02 0.  0.
      -24    2    3    3    0    0 -0.50802361367E+02  0.66256564869E+02  0.21185357375E+02  0.13652702912E+03  0.10592449200E+03 0.  0.
      -13    1    4    4    0    0  0.57562640784E+02 -0.13679537374E+02  0.31887813070E+01  0.59251630214E+02  0.00000000000E+00 0.  1.
       14    1    4    4    0    0 -0.67602794167E+01 -0.52577027495E+02  0.26807650354E+02  0.59402822454E+02  0.00000000000E+00 0. -1.
        3    1    5    5  501    0 -0.45621949075E+01  0.81594345664E+02 -0.37321962816E+01  0.81806968871E+02  0.00000000000E+00 0. -1.
       -4    1    5    5    0  501 -0.46240166460E+02 -0.15337780796E+02  0.24917553657E+02  0.54720060254E+02  0.00000000000E+00 0.  1.
</event>
<event>
 9   1  0.7570500E-01  0.2499987E+03  0.7546771E-02  0.1113306E+00
       21   -1    0    0  503  502  0.00000000000E+00  0.00000000000E+00  0.21870657843E+04  0.21870657843E+04  0.00000000000E+00 0.  1.
       21   -1    0    0  502  503 -0.00000000000E+00 -0.00000000000E+00 -0.71441998143E+01  0.71441998143E+01  0.00000000000E+00 0.  1.
       25    2    1    2    0    0  0.00000000000E+00  0.14210854715E-13  0.21799215844E+04  0.21942099841E+04  0.24999867975E+03 0.  0.
       24    2    3    3    0    0  0.54098303971E+02 -0.64327240246E+02  0.14240327695E+04  0.14292930803E+04  0.89133386215E+02 0.  0.
      -24    2    3    3    0    0 -0.54098303971E+02  0.64327240246E+02  0.75588881498E+03  0.76491690377E+03  0.81641587101E+02 0.  0.
      -13    1    4    4    0    0  0.57821627427E+02 -0.31238782098E+02  0.12701469670E+04  0.12718461070E+04  0.00000000000E+00 0.  1.
       14    1    4    4    0    0 -0.37233234559E+01 -0.33088458148E+02  0.15388580247E+03  0.15744697330E+03  0.00000000000E+00 0. -1.
        1    1    5    5  501    0 -0.12704151086E+02  0.58509741967E+02  0.61635764784E+03  0.61925885977E+03  0.00000000000E+00 0. -1.
       -2    1    5    5    0  501 -0.41394152885E+02  0.58174982794E+01  0.13953116714E+03  0.14565804400E+03  0.00000000000E+00 0.  1.
</event>
<event>
 9   1  0.7570500E-01  0.2499963E+03  0.7546771E-02  0.1113307E+00
       21   -1    0    0  503  502  0.00000000000E+00  0.00000000000E+00  0.35040994706E+03  0.35040994706E+03  0.00000000000E+00 0.  1.
       21   -1    0    0  502  503 -0.00000000000E+00 -0.00000000000E+00 -0.44589321993E+02  0.44589321993E+02  0.00000000000E+00 0.  1.
       25    2    1    2    0    0  0.00000000000E+00  0.00000000000E+00  0.30582062506E+03  0.39499926905E+03  0.24999633564E+03 0.  0.
       24    2    3    3    0    0  0.20473172191E+01  0.87108912699E+02  0.85854465287E+02  0.14535012359E+03  0.78508057162E+02 0.  0.
      -24    2    3    3    0    0 -0.20473172191E+01 -0.87108912699E+02  0.21996615978E+03  0.24964914546E+03  0.79670761267E+02 0.  0.
      -13    1    4    4    0    0  0.25833782516E+02  0.23492832643E+02  0.65870562864E+02  0.74553528131E+02  0.00000000000E+00 0.  1.
       14    1    4    4    0    0 -0.23786465297E+02  0.63616080056E+02  0.19983902423E+02  0.70796595462E+02  0.00000000000E+00 0. -1.
        1    1    5    5  501    0  0.19694615630E+02  0.39494618713E+01  0.70314402656E+02  0.73127227178E+02  0.00000000000E+00 0. -1.
       -2    1    5    5    0  501 -0.21741932849E+02 -0.91058374570E+02  0.14965175712E+03  0.17652191828E+03  0.00000000000E+00 0.  1.
</event>
<event>
 9   1  0.7570500E-01  0.2500035E+03  0.7546771E-02  0.1113303E+00
       21   -1    0    0  503  502  0.00000000000E+00  0.00000000000E+00  0.26493857567E+03  0.26493857567E+03  0.00000000000E+00 0.  1.
       21   -1    0    0  502  503 -0.00000000000E+00 -0.00000000000E+00 -0.58977585623E+02  0.58977585623E+02  0.00000000000E+00 0.  1.
       25    2    1    2    0    0 -0.14210854715E-13  0.00000000000E+00  0.20596099005E+03  0.32391616129E+03  0.25000350023E+03 0.  0.
       24    2    3    3    0    0  0.77722569771E+02 -0.53239129969E+02  0.13220447232E+03  0.17955370065E+03  0.76722266017E+02 0.  0.
      -24    2    3    3    0    0 -0.77722569771E+02  0.53239129969E+02  0.73756517726E+02  0.14436246065E+03  0.80779287724E+02 0.  0.
      -13    1    4    4    0    0  0.19389390737E+02 -0.59370835338E+02  0.75308182050E+02  0.97837451140E+02  0.00000000000E+00 0.  1.
       14    1    4    4    0    0  0.58333179033E+02  0.61317053690E+01  0.56896290270E+02  0.81716249506E+02  0.00000000000E+00 0. -1.
        1    1    5    5  501    0 -0.91945605901E+02  0.32536362123E+02  0.67076261219E+02  0.11837159340E+03  0.00000000000E+00 0. -1.
       -2    1    5    5    0  501  0.14223036130E+02  0.20702767847E+02  0.66802565067E+01  0.25990867247E+02  0.00000000000E+00 0.  1.
</event>
<event>
 9   1  0.7570500E-01  0.2500463E+03  0.7546771E-02  0.1113276E+00
       21   -1    0    0  503  502  0.00000000000E+00  0.00000000000E+00  0.39723267162E+02  0.39723267162E+02  0.00000000000E+00 0.  1.
       21   -1    0    0  502  503 -0.00000000000E+00 -0.00000000000E+00 -0.39349202635E+03  0.39349202635E+03  0.00000000000E+00 0.  1.
       25    2    1    2    0    0 -0.71054273576E-14  0.00000000000E+00 -0.35376875918E+03  0.43321529351E+03  0.25004630682E+03 0.  0.
       24    2    3    3    0    0  0.36162546613E+02 -0.76816529784E+02 -0.10173577730E+03  0.15472377916E+03  0.79879724756E+02 0.  0.
      -24    2    3    3    0    0 -0.36162546613E+02  0.76816529784E+02 -0.25203298188E+03  0.27849151435E+03  0.82634076416E+02 0.  0.
      -13    1    4    4    0    0  0.10882836688E+02 -0.48127112560E+02 -0.10533270393E+03  0.11631695326E+03  0.00000000000E+00 0.  1.
       14    1    4    4    0    0  0.25279709925E+02 -0.28689417224E+02  0.35969266253E+01  0.38406825900E+02  0.00000000000E+00 0. -1.
        3    1    5    5  501    0 -0.49659570398E+02  0.44014521378E+02 -0.85534124336E+02  0.10825635062E+03  0.00000000000E+00 0. -1.
       -4    1    5    5    0  501  0.13497023784E+02  0.32802008406E+02 -0.16649885754E+03  0.17023516373E+03  0.00000000000E+00 0.  1.
</event>
<event>
 9   1  0.7570500E-01  0.2499982E+03  0.7546771E-02  0.1113306E+00
       21   -1    0    0  503  502  0.00000000000E+00  0.00000000000E+00  0.46359010205E+03  0.46359010205E+03  0.00000000000E+00 0.  1.
       21   -1    0    0  502  503 -0.00000000000E+00 -0.00000000000E+00 -0.33703869132E+02  0.33703869132E+02  0.00000000000E+00 0.  1.
       25    2    1    2    0    0  0.00000000000E+00  0.35527136788E-14  0.42988623292E+03  0.49729397118E+03  0.24999824104E+03 0.  0.
       24    2    3    3    0    0 -0.80363006794E+02 -0.18259492716E+02  0.12105949271E+03  0.16778000373E+03  0.81872504191E+02 0.  0.
      -24    2    3    3    0    0  0.80363006794E+02  0.18259492716E+02  0.30882674021E+03  0.32951396745E+03  0.80086686415E+02 0.  0.
      -13    1    4    4    0    0 -0.82449884807E+02  0.79951932493E+01  0.63149685036E+02  0.10416232207E+03  0.00000000000E+00 0.  1.
       14    1    4    4    0    0  0.20868780130E+01 -0.26254685965E+02  0.57909807670E+02  0.63617681657E+02  0.00000000000E+00 0. -1.
        3    1    5    5  501    0  0.67250123231E+02  0.36932344667E+02  0.28986248542E+03  0.29984468914E+03  0.00000000000E+00 0. -1.
       -4    1    5    5    0  501  0.13112883562E+02 -0.18672851951E+02  0.18964254797E+02  0.29669278308E+02  0.00000000000E+00 0.  1.
</event>
<event>
 9   1  0.7570500E-01  0.2499981E+03  0.7546771E-02  0.1113306E+00
       21   -1    0    0  503  502  0.00000000000E+00  0.00000000000E+00  0.34910632615E+03  0.34910632615E+03  0.00000000000E+00 0.  1.
       21   -1    0    0  502  503 -0.00000000000E+00 -0.00000000000E+00 -0.44756442299E+02  0.44756442299E+02  0.00000000000E+00 0.  1.
       25    2    1    2    0    0  0.00000000000E+00  0.35527136788E-14  0.30434988385E+03  0.39386276845E+03  0.24999805713E+03 0.  0.
       24    2    3    3    0    0 -0.42697941720E+02  0.27244243835E+02  0.27989751650E+03  0.29565091501E+03  0.80631760226E+02 0.  0.
      -24    2    3    3    0    0  0.42697941720E+02 -0.27244243835E+02  0.24452367357E+02  0.98211853440E+02  0.80512650170E+02 0.  0.
      -13    1    4    4    0    0  0.23961592685E+01  0.60143294128E+01 -0.38679346197E+01  0.75415287408E+01  0.00000000000E+00 0.  1.
       14    1    4    4    0    0 -0.45094100989E+02  0.21229914422E+02  0.28376545111E+03  0.28810938627E+03  0.00000000000E+00 0. -1.
        1    1    5    5  501    0  0.28351160007E+02  0.23161668395E+02 -0.67386054273E+01  0.37224453787E+02  0.00000000000E+00 0. -1.
       -2    1    5    5    0  501  0.14346781713E+02 -0.50405912230E+02  0.31190972784E+02  0.60987399653E+02  0.00000000000E+00 0.  1.
</event>
<event>
 9   1  0.7570500E-01  0.2499995E+03  0.7546771E-02  0.1113305E+00
       21   -1    0    0  503  502  0.00000000000E+00  0.00000000000E+00  0.35097223791E+02  0.35097223791E+02  0.00000000000E+00 0. -1.
       21   -1    0    0  502  503 -0.00000000000E+00 -0.00000000000E+00 -0.44519000976E+03  0.44519000976E+03  0.00000000000E+00 0. -1.
       25    2    1    2    0    0  0.00000000000E+00  0.00000000000E+00 -0.41009278596E+03  0.48028723355E+03  0.24999946721E+03 0.  0.
       24    2    3    3    0    0  0.32565825260E+02 -0.86253196722E+02 -0.23665963173E+03  0.26618121781E+03  0.79652448202E+02 0.  0.
      -24    2    3    3    0    0 -0.32565825260E+02  0.86253196722E+02 -0.17343315423E+03  0.21410601573E+03  0.85218425632E+02 0.  0.
      -13    1    4    4    0    0  0.13623155268E+02 -0.13688285837E+02 -0.15206736090E+01  0.19371937870E+02  0.00000000000E+00 0.  1.
       14    1    4    4    0    0  0.18942669992E+02 -0.72564910885E+02 -0.23513895813E+03  0.24680927994E+03  0.00000000000E+00 0. -1.
        1    1    5    5  501    0  0.26002428972E+02  0.26324124726E+02 -0.28548901121E+02  0.46734629669E+02  0.00000000000E+00 0. -1.
       -2    1    5    5    0  501 -0.58568254232E+02  0.59929071996E+02 -0.14488425311E+03  0.16737138606E+03  0.00000000000E+00 0.  1.
</event>
<event>
 9   1  0.7570500E-01  0.2500017E+03  0.7546771E-02  0.1113304E+00
       21   -1    0    0  503  502  0.00000000000E+00  0.00000000000E+00  0.38545401617E+02  0.38545401617E+02  0.00000000000E+00 0. -1.
       21   -1    0    0  502  503 -0.00000000000E+00 -0.00000000000E+00 -0.40537150548E+03  0.40537150548E+03  0.00000000000E+00 0. -1.
       25    2    1    2    0    0  0.35527136788E-14 -0.28421709430E-13 -0.36682610387E+03  0.44391690710E+03  0.25000165986E+03 0.  0.
       24    2    3    3    0    0  0.99814250567E+01 -0.93119650502E+02 -0.21380762104E+03  0.24711058217E+03  0.81111299149E+02 0.  0.
      -24    2    3    3    0    0 -0.99814250567E+01  0.93119650502E+02 -0.15301848282E+03  0.19680632493E+03  0.80914617284E+02 0.  0.
      -13    1    4    4    0    0 -0.29763455858E+02 -0.72843460288E+02 -0.14771559442E+03  0.16736764874E+03  0.00000000000E+00 0.  1.
       14    1    4    4    0    0  0.39744880915E+02 -0.20276190214E+02 -0.66092026625E+02  0.79742933429E+02  0.00000000000E+00 0. -1.
        3    1    5    5  501    0 -0.19944131388E+02  0.82114682677E+02 -0.15958297227E+03  0.18057495542E+03  0.00000000000E+00 0. -1.
       -4    1    5    5    0  501  0.99627063317E+01  0.11004967825E+02  0.65644894461E+01  0.16231369504E+02  0.00000000000E+00 0.  1.
</event>
<event>
 9   1  0.7570500E-01  0.2500186E+03  0.7546771E-02  0.1113293E+00
       21   -1    0    0  503  502  0.00000000000E+00  0.00000000000E+00  0.66644217817E+02  0.66644217817E+02  0.00000000000E+00 0.  1.
       21   -1    0    0  502  503 -0.00000000000E+00 -0.00000000000E+00 -0.23448880852E+03  0.23448880852E+03  0.00000000000E+00 0.  1.
       25    2    1    2    0    0  0.35527136788E-14  0.00000000000E+00 -0.16784459071E+03  0.30113302634E+03  0.25001858516E+03 0.  0.
       24    2    3    3    0    0 -0.25021830602E+02 -0.32632830563E+02 -0.18735053227E+03  0.20897882544E+03  0.82951394821E+02 0.  0.
      -24    2    3    3    0    0  0.25021830602E+02  0.32632830563E+02  0.19505941563E+02  0.92154200902E+02  0.80130651753E+02 0.  0.
      -13    1    4    4    0    0 -0.50017172724E+01  0.20258437967E+02 -0.11635744925E+03  0.11821369413E+03  0.00000000000E+00 0.  1.
       14    1    4    4    0    0 -0.20020113329E+02 -0.52891268530E+02 -0.70993083023E+02  0.90765131309E+02  0.00000000000E+00 0. -1.
        3    1    5    5  501    0 -0.17858392615E+02  0.14010537904E+02 -0.20529135305E+02  0.30604946586E+02  0.00000000000E+00 0. -1.
       -4    1    5    5    0  501  0.42880223216E+02  0.18622292658E+02  0.40035076868E+02  0.61549254315E+02  0.00000000000E+00 0.  1.
</event>
<event>
 9   1  0.7570500E-01  0.2499733E+03  0.7546771E-02  0.1113322E+00
       21   -1    0    0  503  502  0.00000000000E+00  0.00000000000E+00  0.12569590116E+03  0.12569590116E+03  0.00000000000E+00 0. -1.
       21   -1    0    0  502  503 -0.00000000000E+00 -0.00000000000E+00 -0.12428138293E+03  0.12428138293E+03  0.00000000000E+00 0. -1.
       25    2    1    2    0    0  0.00000000000E+00  0.71054273576E-14  0.14145182294E+01  0.24997728409E+03  0.24997328197E+03 0.  0.
       24    2    3    3    0    0 -0.10536131208E+02 -0.44598114307E+02 -0.77903972158E+02  0.12804794663E+03  0.90704166926E+02 0.  0.
      -24    2    3    3    0    0  0.10536131208E+02  0.44598114307E+02  0.79318490388E+02  0.12192933745E+03  0.80469488343E+02 0.  0.
      -13    1    4    4    0    0  0.26252161107E+01 -0.51942858922E+01  0.20459550819E+02  0.21271238452E+02  0.00000000000E+00 0.  1.
       14    1    4    4    0    0 -0.13161347319E+02 -0.39403828415E+02 -0.98363522977E+02  0.10677670818E+03  0.00000000000E+00 0. -1.
        1    1    5    5  501    0  0.92655704766E+01 -0.16850137860E+01  0.74820438497E+02  0.75410795545E+02  0.00000000000E+00 0. -1.
       -2    1    5    5    0  501  0.12705607317E+01  0.46283128093E+02  0.44980518903E+01  0.46518541910E+02  0.00000000000E+00 0.  1.
</event>
<event>
 9   1  0.7570500E-01  0.2499974E+03  0.7546771E-02  0.1113306E+00
       21   -1    0    0  503  502  0.00000000000E+00  0.00000000000E+00  0.82315243135E+03  0.82315243135E+03  0.00000000000E+00 0. -1.
       21   -1    0    0  502  503 -0.00000000000E+00 -0.00000000000E+00 -0.18981505498E+02  0.18981505498E+02  0.00000000000E+00 0. -1.
       25    2    1    2    0    0  0.00000000000E+00  0.00000000000E+00  0.80417092585E+03  0.84213393685E+03  0.24999737920E+03 0.  0.
       24    2    3    3    0    0 -0.53104835657E+02 -0.61298673858E+02  0.25175392849E+03  0.27700928868E+03  0.82319223279E+02 0.  0.
      -24    2    3    3    0    0  0.53104835657E+02  0.61298673858E+02  0.55241699737E+03  0.56512464817E+03  0.87313675898E+02 0.  0.
      -13    1    4    4    0    0  0.64851392207E+01 -0.24273017367E+02  0.13256125868E+02  0.28407063837E+02  0.00000000000E+00 0.  1.
       14    1    4    4    0    0 -0.59589974878E+02 -0.37025656491E+02  0.23849780262E+03  0.24860222485E+03  0.00000000000E+00 0. -1.
        1    1    5    5  501    0  0.63761344279E+02  0.60482437782E+02  0.30323717584E+03  0.31571572517E+03  0.00000000000E+00 0. -1.
       -2    1    5    5    0  501 -0.10656508622E+02  0.81623607594E+00  0.24917982152E+03  0.24940892300E+03  0.00000000000E+00 0.  1.
</event>
<event>
 9   1  0.7570500E-01  0.2500019E+03  0.7546771E-02  0.1113304E+00
       21   -1    0    0  503  502  0.00000000000E+00  0.00000000000E+00  0.10532265187E+03  0.10532265187E+03  0.00000000000E+00 0. -1.
       21   -1    0    0  502  503 -0.00000000000E+00 -0.00000000000E+00 -0.14835593671E+03  0.14835593671E+03  0.00000000000E+00 0. -1.
       25    2    1    2    0    0  0.00000000000E+00  0.00000000000E+00 -0.43033284839E+02  0.25367858858E+03  0.25000192539E+03 0.  0.
       24    2    3    3    0    0 -0.88794412351E+02  0.30681686447E+02 -0.10108929892E+02  0.12371395617E+03  0.79856990552E+02 0.  0.
      -24    2    3    3    0    0  0.88794412351E+02 -0.30681686447E+02 -0.32924354947E+02  0.12996463241E+03  0.83552252999E+02 0.  0.
      -13    1    4    4    0    0 -0.32680728618E+02  0.49417558053E+02 -0.22314102880E+02  0.63309116676E+02  0.00000000000E+00 0.  1.
       14    1    4    4    0    0 -0.56113683732E+02 -0.18735871605E+02  0.12205172987E+02  0.60404839495E+02  0.00000000000E+00 0. -1.
        1    1    5    5  501    0  0.81100641344E+02 -0.14599530863E+02 -0.56861278434E+02  0.10011825664E+03  0.00000000000E+00 0. -1.
       -2    1    5    5    0  501  0.76937710069E+01 -0.16082155584E+02  0.23936923487E+02  0.29846375770E+02  0.00000000000E+00 0.  1.
</event>
<event>
 9   1  0.7570500E-01  0.2499982E+03  0.7546771E-02  0.1113306E+00
       21   -1    0    0  503  502  0.00000000000E+00  0.00000000000E+00  0.65825203420E+03  0.65825203420E+03  0.00000000000E+00 0.  1.
       21   -1    0    0  502  503 -0.00000000000E+00 -0.00000000000E+00 -0.23736763354E+02  0.23736763354E+02  0.00000000000E+00 0.  1.
       25    2    1    2    0    0 -0.88817841970E-15 -0.35527136788E-14  0.63451527084E+03  0.68198879755E+03  0.24999818210E+03 0.  0.
       24    2    3    3    0    0 -0.69156085598E+01  0.19771439904E+02  0.61831862596E+02  0.10355363763E+03  0.80383089993E+02 0.  0.
      -24    2    3    3    0    0  0.69156085598E+01 -0.19771439904E+02  0.57268340825E+03  0.57843515992E+03  0.78627047971E+02 0.  0.
      -13    1    4    4    0    0  0.44418372643E+01 -0.21265332802E+02 -0.68198226423E+01  0.22769591088E+02  0.00000000000E+00 0.  1.
       14    1    4    4    0    0 -0.11357445824E+02  0.41036772706E+02  0.68651685238E+02  0.80784046543E+02  0.00000000000E+00 0. -1.
        3    1    5    5  501    0 -0.33699621736E+01 -0.47307997876E+02  0.25330270791E+03  0.25770460831E+03  0.00000000000E+00 0. -1.
       -4    1    5    5    0  501  0.10285570733E+02  0.27536557972E+02  0.31938070034E+03  0.32073055161E+03  0.00000000000E+00 0.  1.
</event>
<event>
 9   1  0.7570500E-01  0.2500024E+03  0.7546771E-02  0.1113303E+00
       21   -1    0    0  503  502  0.00000000000E+00  0.00000000000E+00  0.54560378255E+03  0.54560378255E+03  0.00000000000E+00 0.  1.
       21   -1    0    0  502  503 -0.00000000000E+00 -0.00000000000E+00 -0.28638551847E+02  0.28638551847E+02  0.00000000000E+00 0.  1.
       25    2    1    2    0    0 -0.14210854715E-13 -0.35527136788E-14  0.51696523070E+03  0.57424233440E+03  0.25000241770E+03 0.  0.
       24    2    3    3    0    0  0.88801107123E+02 -0.16891694901E+02  0.18584418122E+03  0.22157843880E+03  0.79924832573E+02 0.  0.
      -24    2    3    3    0    0 -0.88801107123E+02  0.16891694901E+02  0.33112104948E+03  0.35266389560E+03  0.80992023487E+02 0.  0.
      -13    1    4    4    0    0  0.15875307534E+02 -0.14330891017E+02 -0.56643123173E+00  0.21394407470E+02  0.00000000000E+00 0.  1.
       14    1    4    4    0    0  0.72925799589E+02 -0.25608038845E+01  0.18641061246E+03  0.20018403133E+03  0.00000000000E+00 0. -1.
        3    1    5    5  501    0 -0.89680000742E+02  0.17713623284E+02  0.18322057819E+03  0.20475852914E+03  0.00000000000E+00 0. -1.
       -4    1    5    5    0  501  0.87889361896E+00 -0.82192838249E+00  0.14790047129E+03  0.14790536646E+03  0.00000000000E+00 0.  1.
</event>
<event>
 9   1  0.7570500E-01  0.2499962E+03  0.7546771E-02  0.1113307E+00
       21   -1    0    0  503  502  0.00000000000E+00  0.00000000000E+00  0.61289140656E+03  0.61289140656E+03  0.00000000000E+00 0.  1.
       21   -1    0    0  502  503 -0.00000000000E+00 -0.00000000000E+00 -0.25493137523E+02  0.25493137523E+02  0.00000000000E+00 0.  1.
       25    2    1    2    0    0 -0.71054273576E-14  0.71054273576E-14  0.58739826904E+03  0.63838454408E+03  0.24999619928E+03 0.  0.
       24    2    3    3    0    0  0.46163313718E+02 -0.28923489627E+02  0.91359605360E+02  0.13151798451E+03  0.77348451642E+02 0.  0.
      -24    2    3    3    0    0 -0.46163313718E+02  0.28923489627E+02  0.49603866368E+03  0.50686655958E+03  0.88835429692E+02 0.  0.
      -13    1    4    4    0    0  0.87647491345E+01 -0.46001143162E+02  0.24044935874E+02  0.52641095551E+02  0.00000000000E+00 0.  1.
       14    1    4    4    0    0  0.37398564583E+02  0.17077653535E+02  0.67314669486E+02  0.78876888955E+02  0.00000000000E+00 0. -1.
        3    1    5    5  501    0  0.24960104280E+01  0.18495446502E+01  0.35808505618E+03  0.35809853161E+03  0.00000000000E+00 0. -1.
       -4    1    5    5    0  501 -0.48659324146E+02  0.27073944977E+02  0.13795360750E+03  0.14876802797E+03  0.00000000000E+00 0.  1.
</event>
<event>
 9   1  0.7570500E-01  0.2500134E+03  0.7546771E-02  0.1113296E+00
       21   -1    0    0  503  502  0.00000000000E+00  0.00000000000E+00  0.14495500909E+03  0.14495500909E+03  0.00000000000E+00 0.  1.
       21   -1    0    0  502  503 -0.00000000000E+00 -0.00000000000E+00 -0.10780362779E+03  0.10780362779E+03  0.00000000000E+00 0.  1.
       25    2    1    2    0    0  0.14210854715E-13  0.71054273576E-14  0.37151381295E+02  0.25275863688E+03  0.25001340641E+03 0.  0.
       24    2    3    3    0    0  0.80709327670E+02  0.37753380623E+02  0.47319889425E+02  0.12896576046E+03  0.80334812591E+02 0.  0.
      -24    2    3    3    0    0 -0.80709327670E+02 -0.37753380623E+02 -0.10168508130E+02  0.12379287642E+03  0.85334426664E+02 0.  0.
      -13    1    4    4    0    0  0.26643310599E+02  0.54723916486E+02  0.37398758853E+02  0.71436966614E+02  0.00000000000E+00 0.  1.
       14    1    4    4    0    0  0.54066017070E+02 -0.16970535863E+02  0.99211305725E+01  0.57528793844E+02  0.00000000000E+00 0. -1.
        3    1    5    5  501    0 -0.16786206218E+02  0.27301893289E+02 -0.25335450171E+00  0.32050495860E+02  0.00000000000E+00 0. -1.
       -4    1    5    5    0  501 -0.63923121451E+02 -0.65055273912E+02 -0.99151536282E+01  0.91742380563E+02  0.00000000000E+00 0.  1.
</event>
<event>
 9   1  0.7570500E-01  0.2500057E+03  0.7546771E-02  0.1113301E+00
       21   -1    0    0  503  502  0.00000000000E+00  0.00000000000E+00  0.29583302759E+02  0.29583302759E+02  0.00000000000E+00 0.  1.
       21   -1    0    0  502  503 -0.00000000000E+00 -0.00000000000E+00 -0.52819377802E+03  0.52819377802E+03  0.00000000000E+00 0.  1.
       25    2    1    2    0    0  0.00000000000E+00  0.17763568394E-14 -0.49861047526E+03  0.55777708078E+03  0.25000573154E+03 0.  0.
       24    2    3    3    0    0 -0.86418960508E+02  0.15419309499E+02 -0.33607388095E+03  0.35678143013E+03  0.81494439000E+02 0.  0.
      -24    2    3    3    0    0  0.86418960508E+02 -0.15419309499E+02 -0.16253659431E+03  0.20099565065E+03  0.79215625032E+02 0.  0.
      -13    1    4    4    0    0 -0.75798841074E+02  0.13532496444E+02 -0.13496782322E+03  0.15538631237E+03  0.00000000000E+00 0.  1.
       14    1    4    4    0    0 -0.10620119434E+02  0.18868130544E+01 -0.20110605773E+03  0.20139511776E+03  0.00000000000E+00 0. -1.
        1    1    5    5  501    0  0.65735363060E+02  0.18314117756E+02 -0.59189845402E+02  0.90332622371E+02  0.00000000000E+00 0. -1.
       -2    1    5    5    0  501  0.20683597449E+02 -0.33733427255E+02 -0.10334674890E+03  0.11066302827E+03  0.00000000000E+00 0.  1.
</event>
<event>
 9   1  0.7570500E-01  0.2500030E+03  0.7546771E-02  0.1113303E+00
       21   -1    0    0  503  502  0.00000000000E+00  0.00000000000E+00  0.15374914574E+02  0.15374914574E+02  0.00000000000E+00 0. -1.
       21   -1    0    0  502  503 -0.00000000000E+00 -0.00000000000E+00 -0.10162903961E+04  0.10162903961E+04  0.00000000000E+00 0. -1.
       25    2    1    2    0    0  0.71054273576E-14 -0.35527136788E-14 -0.10009154815E+04  0.10316653106E+04  0.25000302416E+03 0.  0.
       24    2    3    3    0    0 -0.33358241758E+02  0.14779795479E+02 -0.11017564538E+03  0.13659906579E+03  0.72037610260E+02 0.  0.
      -24    2    3    3    0    0  0.33358241758E+02 -0.14779795479E+02 -0.89073983610E+03  0.89506624484E+03  0.79968196098E+02 0.  0.
      -13    1    4    4    0    0 -0.32968025495E+02 -0.24664854477E+02 -0.52383582391E+02  0.66627963015E+02  0.00000000000E+00 0.  1.
       14    1    4    4    0    0 -0.39021626292E+00  0.39444649956E+02 -0.57792062988E+02  0.69971102773E+02  0.00000000000E+00 0. -1.
        1    1    5    5  501    0 -0.20475978370E+02 -0.25790712792E+02 -0.34284446292E+03  0.34442234584E+03  0.00000000000E+00 0. -1.
       -2    1    5    5    0  501  0.53834220128E+02  0.11010917313E+02 -0.54789537318E+03  0.55064389900E+03  0.00000000000E+00 0.  1.
</event>
<event>
 9   1  0.7570500E-01  0.2499967E+03  0.7546771E-02  0.1113307E+00
       21   -1    0    0  503  502  0.00000000000E+00  0.00000000000E+00  0.77309446428E+01  0.77309446428E+01  0.00000000000E+00 0.  1.
       21   -1    0    0  502  503 -0.00000000000E+00 -0.00000000000E+00 -0.20210450836E+04  0.20210450836E+04  0.00000000000E+00 0.  1.
       25    2    1    2    0    0  0.00000000000E+00  0.00000000000E+00 -0.20133141389E+04  0.20287760282E+04  0.24999670127E+03 0.  0.
       24    2    3    3    0    0 -0.49568602440E+02  0.82596287398E+02 -0.10279051864E+04  0.10354140442E+04  0.78828787328E+02 0.  0.
      -24    2    3    3    0    0  0.49568602440E+02 -0.82596287398E+02 -0.98540895252E+03  0.99336198398E+03  0.80361896885E+02 0.  0.
      -13    1    4    4    0    0 -0.35856253448E+02  0.21961802329E+02 -0.72377783289E+03  0.72499816762E+03  0.00000000000E+00 0.  1.
       14    1    4    4    0    0 -0.13712348991E+02  0.60634485069E+02 -0.30412735353E+03  0.31041587662E+03  0.00000000000E+00 0. -1.
        1    1    5    5  501    0  0.47520497920E+02 -0.11848214616E+02 -0.26525954148E+03  0.26974284469E+03  0.00000000000E+00 0. -1.
       -2    1    5    5    0  501  0.20481045198E+01 -0.70748072782E+02 -0.72014941103E+03  0.72361913929E+03  0.00000000000E+00 0.  1.
</event>
<event>
 9   1  0.7570500E-01  0.2499994E+03  0.7546771E-02  0.1113305E+00
       21   -1    0    0  503  502  0.00000000000E+00  0.00000000000E+00  0.11187427947E+04  0.11187427947E+04  0.00000000000E+00 0.  1.
       21   -1    0    0  502  503 -0.00000000000E+00 -0.00000000000E+00 -0.13966505412E+02  0.13966505412E+02  0.00000000000E+00 0.  1.
       25    2    1    2    0    0  0.71054273576E-14  0.14210854715E-13  0.11047762893E+04  0.11327093001E+04  0.24999941838E+03 0.  0.
       24    2    3    3    0    0 -0.58489599407E+02 -0.72817462408E+02  0.46060272025E+03  0.47671577641E+03  0.79872708125E+02 0.  0.
      -24    2    3    3    0    0  0.58489599407E+02  0.72817462408E+02  0.64417356905E+03  0.65599352371E+03  0.81513802673E+02 0.  0.
      -13    1    4    4    0    0 -0.74659766282E+01 -0.57349267972E+02  0.33957445081E+03  0.34446405761E+03  0.00000000000E+00 0.  1.
       14    1    4    4    0    0 -0.51023622778E+02 -0.15468194436E+02  0.12102826945E+03  0.13225171880E+03  0.00000000000E+00 0. -1.
        3    1    5    5  501    0  0.68198991748E+02  0.21873174564E+02  0.40184819873E+03  0.40818073578E+03  0.00000000000E+00 0. -1.
       -4    1    5    5    0  501 -0.97093923419E+01  0.50944287844E+02  0.24232537031E+03  0.24781278793E+03  0.00000000000E+00 0.  1.
</event>
<event>
 9   1  0.7570500E-01  0.2499968E+03  0.7546771E-02  0.1113307E+00
       21   -1    0    0  503  502  0.00000000000E+00  0.00000000000E+00  0.19359959816E+03  0.19359959816E+03  0.00000000000E+00 0. -1.
       21   -1    0    0  502  503 -0.00000000000E+00 -0.00000000000E+00 -0.80705752031E+02  0.80705752031E+02  0.00000000000E+00 0. -1.
       25    2    1    2    0    0  0.14210854715E-13  0.00000000000E+00  0.11289384613E+03  0.27430535019E+03  0.24999680928E+03 0.  0.
       24    2    3    3    0    0 -0.58744002065E+02 -0.36623444949E+02  0.12890616843E+03  0.16681333695E+03  0.80110889560E+02 0.  0.
      -24    2    3    3    0    0  0.58744002065E+02  0.36623444949E+02 -0.16012322296E+02  0.10749201325E+03  0.80659803794E+02 0.  0.
      -13    1    4    4    0    0 -0.67275614614E+02 -0.50440983779E+02  0.83124998468E+02  0.11823733140E+03  0.00000000000E+00 0.  1.
       14    1    4    4    0    0  0.85316125491E+01  0.13817538830E+02  0.45781169959E+02  0.48576005546E+02  0.00000000000E+00 0. -1.
        1    1    5    5  501    0  0.44863598100E+02 -0.17296770090E+02 -0.19079240357E+02  0.51729470349E+02  0.00000000000E+00 0. -1.
       -2    1    5    5    0  501  0.13880403965E+02  0.53920215039E+02  0.30669180612E+01  0.55762542898E+02  0.00000000000E+00 0.  1.
</event>
<event>
 9   1  0.7570500E-01  0.2499908E+03  0.7546771E-02  0.1113311E+00
       21   -1    0    0  503  502  0.00000000000E+00  0.00000000000E+00  0.77990325728E+02  0.77990325728E+02  0.00000000000E+00 0. -1.
       21   -1    0    0  502  503 -0.00000000000E+00 -0.00000000000E+00 -0.20033064519E+03  0.20033064519E+03  0.00000000000E+00 0. -1.
       25    2    1    2    0    0 -0.14210854715E-13  0.14210854715E-13 -0.12234031946E+03  0.27832097092E+03  0.24999081800E+03 0.  0.
       24    2    3    3    0    0 -0.73852963986E+02  0.54544165349E+02 -0.93915323666E+02  0.15323925224E+03  0.78948427122E+02 0.  0.
      -24    2    3    3    0    0  0.73852963986E+02 -0.54544165349E+02 -0.28424995793E+02  0.12508171867E+03  0.80050794484E+02 0.  0.
      -13    1    4    4    0    0  0.60851237029E+01 -0.94390712812E+01 -0.31219273783E+02  0.33177821699E+02  0.00000000000E+00 0.  1.
       14    1    4    4    0    0 -0.79938087688E+02  0.63983236630E+02 -0.62696049883E+02  0.12006143054E+03  0.00000000000E+00 0. -1.
        1    1    5    5  501    0  0.60400698355E+01 -0.32580281151E+02 -0.40983242180E+02  0.52702782689E+02  0.00000000000E+00 0. -1.
       -2    1    5    5    0  501  0.67812894150E+02 -0.21963884198E+02  0.12558246388E+02  0.72378935985E+02  0.00000000000E+00 0.  1.
</event>
<event>
 9   1  0.7570500E-01  0.2499591E+03  0.7546771E-02  0.1113331E+00
       21   -1    0    0  503  502  0.00000000000E+00  0.00000000000E+00  0.76025706932E+02  0.76025706932E+02  0.00000000000E+00 0. -1.
       21   -1    0    0  502  503 -0.00000000000E+00 -0.00000000000E+00 -0.20545534558E+03  0.20545534558E+03  0.00000000000E+00 0. -1.
       25    2    1    2    0    0  0.71054273576E-14  0.00000000000E+00 -0.12942963865E+03  0.28148105251E+03  0.24995909978E+03 0.  0.
       24    2    3    3    0    0 -0.62686512431E+02 -0.43482666791E+02  0.87278159440E+00  0.11035456041E+03  0.79730960762E+02 0.  0.
      -24    2    3    3    0    0  0.62686512431E+02  0.43482666791E+02 -0.13030242024E+03  0.17112649210E+03  0.80530829040E+02 0.  0.
      -13    1    4    4    0    0 -0.32092682424E+02 -0.45462006414E+01 -0.36129938356E+02  0.48538445083E+02  0.00000000000E+00 0.  1.
       14    1    4    4    0    0 -0.30593830007E+02 -0.38936466150E+02  0.37002719950E+02  0.61816115329E+02  0.00000000000E+00 0. -1.
        3    1    5    5  501    0  0.34319849451E+02  0.23536563227E+02 -0.12994638676E+03  0.13644737193E+03  0.00000000000E+00 0. -1.
       -4    1    5    5    0  501  0.28366662979E+02  0.19946103565E+02 -0.35603348321E+00  0.34679120171E+02  0.00000000000E+00 0.  1.
</event>
<event>
 9   1  0.7570500E-01  0.2499972E+03  0.7546771E-02  0.1113307E+00
       21   -1    0    0  503  502  0.00000000000E+00  0.00000000000E+00  0.87653631013E+03  0.87653631013E+03  0.00000000000E+00 0. -1.
       21   -1    0    0  502  503 -0.00000000000E+00 -0.00000000000E+00 -0.17825440631E+02  0.17825440631E+02  0.00000000000E+00 0. -1.
       25    2    1    2    0    0 -0.14210854715E-13  0.00000000000E+00  0.85871086950E+03  0.89436175076E+03  0.24999716764E+03 0.  0.
       24    2    3    3    0    0  0.68579682783E+02  0.66809890678E+02  0.47519689191E+03  0.49106588149E+03  0.78529481722E+02 0.  0.
      -24    2    3    3    0    0 -0.68579682783E+02 -0.66809890678E+02  0.38351397759E+03  0.40329586927E+03  0.79986578761E+02 0.  0.
      -13    1    4    4    0    0  0.42814192401E+01  0.71890181649E+01  0.23853511977E+03  0.23868182984E+03  0.00000000000E+00 0.  1.
       14    1    4    4    0    0  0.64298263543E+02  0.59620872513E+02  0.23666177214E+03  0.25238405165E+03  0.00000000000E+00 0. -1.
        1    1    5    5  501    0 -0.49110747492E+02 -0.14898473942E+02  0.82065902328E+02  0.96791747427E+02  0.00000000000E+00 0. -1.
       -2    1    5    5    0  501 -0.19468935291E+02 -0.51911416736E+02  0.30144807526E+03  0.30650412185E+03  0.00000000000E+00 0.  1.
</event>
<event>
 9   1  0.7570500E-01  0.2500018E+03  0.7546771E-02  0.1113304E+00
       21   -1    0    0  503  502  0.00000000000E+00  0.00000000000E+00  0.60347597498E+02  0.60347597498E+02  0.00000000000E+00 0.  1.
       21   -1    0    0  502  503 -0.00000000000E+00 -0.00000000000E+00 -0.25892049474E+03  0.25892049474E+03  0.00000000000E+00 0.  1.
       25    2    1    2    0    0  0.00000000000E+00  0.00000000000E+00 -0.19857289724E+03  0.31926809224E+03  0.25000183840E+03 0.  0.
       24    2    3    3    0    0 -0.35203566334E+02 -0.14384603717E+02  0.12136390197E+02  0.90050268975E+02  0.80718963501E+02 0.  0.
      -24    2    3    3    0    0  0.35203566334E+02  0.14384603717E+02 -0.21070928744E+03  0.22921782326E+03  0.81830304788E+02 0.  0.
      -13    1    4    4    0    0  0.12463381954E+02 -0.28378948596E+02 -0.13891897212E+02  0.33965945023E+02  0.00000000000E+00 0.  1.
       14    1    4    4    0    0 -0.47666948288E+02  0.13994344878E+02  0.26028287410E+02  0.56084323952E+02  0.00000000000E+00 0. -1.
        3    1    5    5  501    0 -0.19642534134E+02  0.56759284488E+01 -0.12782174261E+03  0.12944668090E+03  0.00000000000E+00 0. -1.
       -4    1    5    5    0  501  0.54846100469E+02  0.87086752687E+01 -0.82887544828E+02  0.99771142367E+02  0.00000000000E+00 0.  1.
</event>
<event>
 9   1  0.7570500E-01  0.2500048E+03  0.7546771E-02  0.1113302E+00
       21   -1    0    0  503  502  0.00000000000E+00  0.00000000000E+00  0.40610075099E+03  0.40610075099E+03  0.00000000000E+00 0. -1.
       21   -1    0    0  502  503 -0.00000000000E+00 -0.00000000000E+00 -0.38477143438E+02  0.38477143438E+02  0.00000000000E+00 0. -1.
       25    2    1    2    0    0  0.00000000000E+00  0.00000000000E+00  0.36762360755E+03  0.44457789443E+03  0.25000477472E+03 0.  0.
       24    2    3    3    0    0 -0.80606148330E+01  0.93292652796E+02  0.22195559602E+03  0.25407116720E+03  0.80742670405E+02 0.  0.
      -24    2    3    3    0    0  0.80606148330E+01 -0.93292652796E+02  0.14566801153E+03  0.19050672722E+03  0.79404980672E+02 0.  0.
      -13    1    4    4    0    0  0.91523372492E+01  0.97743590007E+02  0.14512876456E+03  0.17521396339E+03  0.00000000000E+00 0.  1.
       14    1    4    4    0    0 -0.17212952082E+02 -0.44509372114E+01  0.76826831458E+02  0.78857203814E+02  0.00000000000E+00 0. -1.
        1    1    5    5  501    0  0.42726090999E+02 -0.51045919751E+02  0.64755890381E+02  0.92868348291E+02  0.00000000000E+00 0. -1.
       -2    1    5    5    0  501 -0.34665476166E+02 -0.42246733044E+02  0.80912121152E+02  0.97638378930E+02  0.00000000000E+00 0.  1.
</event>
<event>
 9   1  0.7570500E-01  0.2499957E+03  0.7546771E-02  0.1113308E+00
       21   -1    0    0  503  502  0.00000000000E+00  0.00000000000E+00  0.21241885150E+02  0.21241885150E+02  0.00000000000E+00 0.  1.
       21   -1    0    0  502  503 -0.00000000000E+00 -0.00000000000E+00 -0.73554995993E+03  0.73554995993E+03  0.00000000000E+00 0.  1.
       25    2    1    2    0    0  0.00000000000E+00  0.00000000000E+00 -0.71430807478E+03  0.75679184508E+03  0.24999574213E+03 0.  0.
       24    2    3    3    0    0 -0.15099380765E+02  0.92677338548E+02 -0.39031795617E+03  0.40959342046E+03  0.81250124903E+02 0.  0.
      -24    2    3    3    0    0  0.15099380765E+02 -0.92677338548E+02 -0.32399011861E+03  0.34719842461E+03  0.82219637073E+02 0.  0.
      -13    1    4    4    0    0 -0.34940332546E+02  0.70099899219E+02 -0.35345802269E+03  0.36203231419E+03  0.00000000000E+00 0.  1.
       14    1    4    4    0    0  0.19840951780E+02  0.22577439329E+02 -0.36859933477E+02  0.47561106275E+02  0.00000000000E+00 0. -1.
        1    1    5    5  501    0  0.48740937240E+02 -0.50784329166E+02 -0.20156506244E+03  0.21350222821E+03  0.00000000000E+00 0. -1.
       -2    1    5    5    0  501 -0.33641556475E+02 -0.41893009382E+02 -0.12242505617E+03  0.13369619641E+03  0.00000000000E+00 0.  1.
</event>
<event>
 9   1  0.7570500E-01  0.2500042E+03  0.7546771E-02  0.1113302E+00
       21   -1    0    0  503  502  0.00000000000E+00  0.00000000000E+00  0.59318381190E+03  0.59318381190E+03  0.00000000000E+00 0.  1.
       21   -1    0    0  502  503 -0.00000000000E+00 -0.00000000000E+00 -0.26341803167E+02  0.26341803167E+02  0.00000000000E+00 0.  1.
       25    2    1    2    0    0  0.00000000000E+00  0.00000000000E+00  0.56684200873E+03  0.61952561507E+03  0.25000424968E+03 0.  0.
       24    2    3    3    0    0  0.39936526103E+02 -0.35767531529E+02  0.82919569686E+02  0.12605966737E+03  0.78365440547E+02 0.  0.
      -24    2    3    3    0    0 -0.39936526103E+02  0.35767531529E+02  0.48392243905E+03  0.49346594770E+03  0.80333505415E+02 0.  0.
      -13    1    4    4    0    0 -0.20246774446E+02 -0.21283637624E+02  0.11497421320E+02  0.31545456139E+02  0.00000000000E+00 0.  1.
       14    1    4    4    0    0  0.60183300550E+02 -0.14483893905E+02  0.71422148366E+02  0.94514211232E+02  0.00000000000E+00 0. -1.
        3    1    5    5  501    0 -0.31685655350E+02  0.76202469250E+01  0.57951033228E+02  0.66485871960E+02  0.00000000000E+00 0. -1.
       -4    1    5    5    0  501 -0.82508707535E+01  0.28147284604E+02  0.42597140582E+03  0.42698007574E+03  0.00000000000E+00 0.  1.
</event>
<event>
 9   1  0.7570500E-01  0.2499958E+03  0.7546771E-02  0.1113307E+00
       21   -1    0    0  503  502  0.00000000000E+00  0.00000000000E+00  0.14675566924E+03  0.14675566924E+03  0.00000000000E+00 0. -1.
       21   -1    0    0  502  503 -0.00000000000E+00 -0.00000000000E+00 -0.10646588271E+03  0.10646588271E+03  0.00000000000E+00 0. -1.
       25    2    1    2    0    0 -0.71054273576E-14  0.14210854715E-13  0.40289786528E+02  0.25322155195E+03  0.24999577491E+03 0.  0.
       24    2    3    3    0    0  0.63701491325E+02 -0.35964431786E+02 -0.42765786803E+02  0.11658457402E+03  0.80073279108E+02 0.  0.
      -24    2    3    3    0    0 -0.63701491325E+02  0.35964431786E+02  0.83055573331E+02  0.13663697793E+03  0.80125620912E+02 0.  0.
      -13    1    4    4    0    0  0.42892346210E+02  0.20712286284E+02 -0.24149064263E+02  0.53403459357E+02  0.00000000000E+00 0.  1.
       14    1    4    4    0    0  0.20809145115E+02 -0.56676718070E+02 -0.18616722540E+02  0.63181114660E+02  0.00000000000E+00 0. -1.
        3    1    5    5  501    0 -0.13105664772E+02  0.51903920714E+02  0.28927622117E+02  0.60848851722E+02  0.00000000000E+00 0. -1.
       -4    1    5    5    0  501 -0.50595826553E+02 -0.15939488928E+02  0.54127951215E+02  0.75788126211E+02  0.00000000000E+00 0.  1.
</event>
<event>
 9   1  0.7570500E-01  0.2499972E+03  0.7546771E-02  0.1113307E+00
       21   -1    0    0  503  502  0.00000000000E+00  0.00000000000E+00  0.59146434798E+02  0.59146434798E+02  0.00000000000E+00 0. -1.
       21   -1    0    0  502  503 -0.00000000000E+00 -0.00000000000E+00 -0.26416894321E+03  0.26416894321E+03  0.00000000000E+00 0. -1.
       25    2    1    2    0    0 -0.88817841970E-15  0.00000000000E+00 -0.20502250842E+03  0.32331537801E+03  0.24999720939E+03 0.  0.
       24    2    3    3    0    0  0.68360683124E+01  0.55801803399E+02 -0.20245624359E+03  0.22448094147E+03  0.79010059000E+02 0.  0.
      -24    2    3    3    0    0 -0.68360683124E+01 -0.55801803399E+02 -0.25662648315E+01  0.98834436544E+02  0.81247074036E+02 0.  0.
      -13    1    4    4    0    0 -0.39142496506E+01 -0.13616984594E+02 -0.95330388389E+02  0.96377521083E+02  0.00000000000E+00 0.  1.
       14    1    4    4    0    0  0.10750317963E+02  0.69418787993E+02 -0.10712585520E+03  0.12810342038E+03  0.00000000000E+00 0. -1.
        1    1    5    5  501    0 -0.10080275228E+02 -0.63363693301E+02 -0.29539580842E+02  0.70633960768E+02  0.00000000000E+00 0. -1.
       -2    1    5    5    0  501  0.32442069152E+01  0.75618899027E+01  0.26973316011E+02  0.28200475776E+02  0.00000000000E+00 0.  1.
</event>
<event>
 9   1  0.7570500E-01  0.2500022E+03  0.7546771E-02  0.1113303E+00
       21   -1    0    0  503  502  0.00000000000E+00  0.00000000000E+00  0.75543241753E+03  0.75543241753E+03  0.00000000000E+00 0. -1.
       21   -1    0    0  502  503 -0.00000000000E+00 -0.00000000000E+00 -0.20683883342E+02  0.20683883342E+02  0.00000000000E+00 0. -1.
       25    2    1    2    0    0  0.14210854715E-13  0.71054273576E-14  0.73474853419E+03  0.77611630087E+03  0.25000220796E+03 0.  0.
       24    2    3    3    0    0 -0.79477266863E+02 -0.54654298470E+02  0.43726785309E+03  0.45491276963E+03  0.80241662059E+02 0.  0.
      -24    2    3    3    0    0  0.79477266863E+02  0.54654298470E+02  0.29748068110E+03  0.32120353125E+03  0.73302282170E+02 0.  0.
      -13    1    4    4    0    0 -0.29820913201E+02 -0.11791038494E+02  0.31075183807E+03  0.31240201715E+03  0.00000000000E+00 0.  1.
       14    1    4    4    0    0 -0.49656353662E+02 -0.42863259976E+02  0.12651601502E+03  0.14251075248E+03  0.00000000000E+00 0. -1.
        1    1    5    5  501    0  0.44578969613E+02  0.42331895558E+02  0.81558952586E+02  0.10213293622E+03  0.00000000000E+00 0. -1.
       -2    1    5    5    0  501  0.34898297250E+02  0.12322402912E+02  0.21592172851E+03  0.21907059503E+03  0.00000000000E+00 0.  1.
</event>
<event>
 9   1  0.7570500E-01  0.2500016E+03  0.7546771E-02  0.1113304E+00
       21   -1    0    0  503  502  0.00000000000E+00  0.00000000000E+00  0.16894699340E+02  0.16894699340E+02  0.00000000000E+00 0.  1.
       21   -1    0    0  502  503 -0.00000000000E+00 -0.00000000000E+00 -0.92485840420E+03  0.92485840420E+03  0.00000000000E+00 0.  1.
       25    2    1    2    0    0  0.00000000000E+00  0.00000000000E+00 -0.90796370486E+03  0.94175310354E+03  0.25000163736E+03 0.  0.
       24    2    3    3    0    0 -0.52569468611E+02 -0.69753937884E+02 -0.30707263964E+03  0.32923138412E+03  0.80439650625E+02 0.  0.
      -24    2    3    3    0    0  0.52569468611E+02  0.69753937884E+02 -0.60089106522E+03  0.61252171942E+03  0.80520951442E+02 0.  0.
      -13    1    4    4    0    0  0.40576267781E+01  0.10325527897E+02 -0.60557351676E+01  0.12639335024E+02  0.00000000000E+00 0.  1.
       14    1    4    4    0    0 -0.56627095389E+02 -0.80079465781E+02 -0.30101690447E+03  0.31659204909E+03  0.00000000000E+00 0. -1.
        3    1    5    5  501    0  0.70633991526E+02  0.69960138389E+02 -0.47078783097E+03  0.48117020222E+03  0.00000000000E+00 0. -1.
       -4    1    5    5    0  501 -0.18064522915E+02 -0.20620050414E+00 -0.13010323426E+03  0.13135151720E+03  0.00000000000E+00 0.  1.
</event>
<event>
 9   1  0.7570500E-01  0.2500031E+03  0.7546771E-02  0.1113303E+00
       21   -1    0    0  503  502  0.00000000000E+00  0.00000000000E+00  0.26182389921E+02  0.26182389921E+02  0.00000000000E+00 0. -1.
       21   -1    0    0  502  503 -0.00000000000E+00 -0.00000000000E+00 -0.59679007003E+03  0.59679007003E+03  0.00000000000E+00 0. -1.
       25    2    1    2    0    0 -0.71054273576E-14  0.17763568394E-14 -0.57060768011E+03  0.62297245995E+03  0.25000312250E+03 0.  0.
       24    2    3    3    0    0  0.22281014126E+02 -0.93202266115E+01 -0.53621757772E+03  0.54287637356E+03  0.81253652866E+02 0.  0.
      -24    2    3    3    0    0 -0.22281014126E+02  0.93202266115E+01 -0.34390102390E+02  0.80096086387E+02  0.68186462715E+02 0.  0.
      -13    1    4    4    0    0 -0.16897179532E+02  0.25738464185E+02 -0.15280717016E+03  0.15587820395E+03  0.00000000000E+00 0.  1.
       14    1    4    4    0    0  0.39178193658E+02 -0.35058690797E+02 -0.38341040756E+03  0.38699816961E+03  0.00000000000E+00 0. -1.
        3    1    5    5  501    0 -0.28675997082E+02 -0.66410266741E+01 -0.49246201888E+02  0.57372505996E+02  0.00000000000E+00 0. -1.
       -4    1    5    5    0  501  0.63949829554E+01  0.15961253286E+02  0.14856099498E+02  0.22723580390E+02  0.00000000000E+00 0.  1.
</event>
<event>
 9   1  0.7570500E-01  0.2499947E+03  0.7546771E-02  0.1113308E+00
       21   -1    0    0  503  502  0.00000000000E+00  0.00000000000E+00  0.11791332219E+02  0.11791332219E+02  0.00000000000E+00 0.  1.
       21   -1    0    0  502  503 -0.00000000000E+00 -0.00000000000E+00 -0.13250693292E+04  0.13250693292E+04  0.00000000000E+00 0.  1.
       25    2    1    2    0    0  0.00000000000E+00 -0.17763568394E-14 -0.13132779970E+04  0.13368606614E+04  0.24999466134E+03 0.  0.
       24    2    3    3    0    0 -0.73994340702E+02 -0.83105887950E+01 -0.33953746763E+03  0.35690678080E+03  0.80947698621E+02 0.  0.
      -24    2    3    3    0    0  0.73994340702E+02  0.83105887950E+01 -0.97374052935E+03  0.97995388062E+03  0.81208135703E+02 0.  0.
      -13    1    4    4    0    0 -0.90638608776E+01  0.13813144453E+02 -0.80167043205E+01  0.18363661994E+02  0.00000000000E+00 0.  1.
       14    1    4    4    0    0 -0.64930479825E+02 -0.22123733248E+02 -0.33152076331E+03  0.33854311881E+03  0.00000000000E+00 0. -1.
        3    1    5    5  501    0  0.46760205067E+02  0.28538798325E+02 -0.27571755074E+03  0.28110700378E+03  0.00000000000E+00 0. -1.
       -4    1    5    5    0  501  0.27234135635E+02 -0.20228209530E+02 -0.69802297861E+03  0.69884687684E+03  0.00000000000E+00 0.  1.
</event>
<event>
 9   1  0.7570500E-01  0.2499963E+03  0.7546771E-02  0.1113307E+00
       21   -1    0    0  503  502  0.00000000000E+00  0.00000000000E+00  0.32082625365E+03  0.32082625365E+03  0.00000000000E+00 0.  1.
       21   -1    0    0  502  503 -0.00000000000E+00 -0.00000000000E+00 -0.48700914827E+02  0.48700914827E+02  0.00000000000E+00 0.  1.
       25    2    1    2    0    0 -0.17763568394E-14  0.00000000000E+00  0.27212533883E+03  0.36952716848E+03  0.24999625640E+03 0.  0.
       24    2    3    3    0    0  0.12779682796E+02 -0.71129084358E+02  0.37845447577E+02  0.11379105092E+03  0.79331320628E+02 0.  0.
      -24    2    3    3    0    0 -0.12779682796E+02  0.71129084358E+02  0.23427989125E+03  0.25573611756E+03  0.72740823812E+02 0.  0.
      -13    1    4    4    0    0  0.18986300971E+02  0.12255973996E+02  0.14954956553E+02  0.27098694593E+02  0.00000000000E+00 0.  1.
       14    1    4    4    0    0 -0.62066181747E+01 -0.83385058354E+02  0.22890491024E+02  0.86692356325E+02  0.00000000000E+00 0. -1.
        3    1    5    5  501    0 -0.15632252118E+01  0.15957347956E+02  0.16803700907E+03  0.16880022821E+03  0.00000000000E+00 0. -1.
       -4    1    5    5    0  501 -0.11216457584E+02  0.55171736402E+02  0.66242882184E+02  0.86935889358E+02  0.00000000000E+00 0.  1.
</event>
<event>
 9   1  0.7570500E-01  0.2500010E+03  0.7546771E-02  0.1113304E+00
       21   -1    0    0  503  502  0.00000000000E+00  0.00000000000E+00  0.65939785819E+02  0.65939785819E+02  0.00000000000E+00 0.  1.
       21   -1    0    0  502  503 -0.00000000000E+00 -0.00000000000E+00 -0.23696042423E+03  0.23696042423E+03  0.00000000000E+00 0.  1.
       25    2    1    2    0    0  0.71054273576E-14  0.00000000000E+00 -0.17102063841E+03  0.30290021005E+03  0.25000095697E+03 0.  0.
       24    2    3    3    0    0 -0.56638488083E+02  0.78034299403E+02 -0.93929006517E+02  0.15638160931E+03  0.79594467447E+02 0.  0.
      -24    2    3    3    0    0  0.56638488083E+02 -0.78034299403E+02 -0.77091631897E+02  0.14651860075E+03  0.78913309654E+02 0.  0.
      -13    1    4    4    0    0  0.16296702053E+02  0.29612986633E+02 -0.10360438725E+02  0.35353220019E+02  0.00000000000E+00 0.  1.
       14    1    4    4    0    0 -0.72935190137E+02  0.48421312771E+02 -0.83568567792E+02  0.12102838929E+03  0.00000000000E+00 0. -1.
        3    1    5    5  501    0  0.64448425298E+02 -0.30296030789E+02 -0.25109913697E+02  0.75511302272E+02  0.00000000000E+00 0. -1.
       -4    1    5    5    0  501 -0.78099372149E+01 -0.47738268615E+02 -0.51981718200E+02  0.71007298475E+02  0.00000000000E+00 0.  1.
</event>
<event>
 9   1  0.7570500E-01  0.2500019E+03  0.7546771E-02  0.1113304E+00
       21   -1    0    0  503  502  0.00000000000E+00  0.00000000000E+00  0.38745574514E+03  0.38745574514E+03  0.00000000000E+00 0. -1.
       21   -1    0    0  502  503 -0.00000000000E+00 -0.00000000000E+00 -0.40327798566E+02  0.40327798566E+02  0.00000000000E+00 0. -1.
       25    2    1    2    0    0  0.35527136788E-14 -0.28421709430E-13  0.34712794657E+03  0.42778354371E+03  0.25000189794E+03 0.  0.
       24    2    3    3    0    0  0.18726349675E+02 -0.81514385910E+02  0.25336434043E+03  0.27847285144E+03  0.79739379900E+02 0.  0.
      -24    2    3    3    0    0 -0.18726349675E+02  0.81514385910E+02  0.93763606142E+02  0.14931069226E+03  0.80664724041E+02 0.  0.
      -13    1    4    4    0    0 -0.95796172015E+01 -0.33882660911E+02  0.19439010819E+03  0.19755332935E+03  0.00000000000E+00 0.  1.
       14    1    4    4    0    0  0.28305966876E+02 -0.47631724998E+02  0.58974232243E+02  0.80919522093E+02  0.00000000000E+00 0. -1.
        1    1    5    5  501    0 -0.35600761957E+02  0.39800981505E+02  0.10146666718E+02  0.54355195025E+02  0.00000000000E+00 0. -1.
       -2    1    5    5    0  501  0.16874412283E+02  0.41713404404E+02  0.83616939424E+02  0.94955497237E+02  0.00000000000E+00 0.  1.
</event>
<event>
 9   1  0.7570500E-01  0.2499959E+03  0.7546771E-02  0.1113307E+00
       21   -1    0    0  503  502  0.00000000000E+00  0.00000000000E+00  0.31636347222E+03  0.31636347222E+03  0.00000000000E+00 0.  1.
       21   -1    0    0  502  503 -0.00000000000E+00 -0.00000000000E+00 -0.49387792205E+02  0.49387792205E+02  0.00000000000E+00 0.  1.
       25    2    1    2    0    0  0.71054273576E-14  0.00000000000E+00  0.26697568001E+03  0.36575126442E+03  0.24999594738E+03 0.  0.
       24    2    3    3    0    0  0.50647467459E+02  0.79711770413E+02  0.16122106494E+03  0.20289227728E+03  0.79081679899E+02 0.  0.
      -24    2    3    3    0    0 -0.50647467459E+02 -0.79711770413E+02  0.10575461507E+03  0.16285898714E+03  0.80124146062E+02 0.  0.
      -13    1    4    4    0    0  0.12539882420E+02  0.66018608255E+02  0.14396407663E+03  0.15887529904E+03  0.00000000000E+00 0.  1.
       14    1    4    4    0    0  0.38107585039E+02  0.13693162158E+02  0.17256988319E+02  0.44016978238E+02  0.00000000000E+00 0. -1.
        1    1    5    5  501    0 -0.41360427778E+02 -0.10165143193E+02  0.93177858012E+01  0.43598580875E+02  0.00000000000E+00 0. -1.
       -2    1    5    5    0  501 -0.92870396811E+01 -0.69546627220E+02  0.96436829268E+02  0.11926040627E+03  0.00000000000E+00 0.  1.
</event>
<event>
 9   1  0.7570500E-01  0.2499575E+03  0.7546771E-02  0.1113332E+00
       21   -1    0    0  503  502  0.00000000000E+00  0.00000000000E+00  0.11128221464E+03  0.11128221464E+03  0.00000000000E+00 0.  1.
       21   -1    0    0  502  503 -0.00000000000E+00 -0.00000000000E+00 -0.14036105011E+03  0.14036105011E+03  0.00000000000E+00 0.  1.
       25    2    1    2    0    0  0.35527136788E-14 -0.14210854715E-13 -0.29078835464E+02  0.25164326475E+03  0.24995750443E+03 0.  0.
       24    2    3    3    0    0 -0.15746459958E+02 -0.74399700583E+02  0.27028791914E+02  0.11299163768E+03  0.79077734830E+02 0.  0.
      -24    2    3    3    0    0  0.15746459958E+02  0.74399700583E+02 -0.56107627378E+02  0.13865162707E+03  0.10145413442E+03 0.  0.
      -13    1    4    4    0    0 -0.34769420953E+02 -0.18897338346E+02  0.36169443782E+02  0.53612038699E+02  0.00000000000E+00 0.  1.
       14    1    4    4    0    0  0.19022960995E+02 -0.55502362236E+02 -0.91406518676E+01  0.59379598983E+02  0.00000000000E+00 0. -1.
        1    1    5    5  501    0 -0.35737061539E+02  0.61263377983E+02 -0.46083008884E+02  0.84581219884E+02  0.00000000000E+00 0. -1.
       -2    1    5    5    0  501  0.51483521497E+02  0.13136322600E+02 -0.10024618494E+02  0.54070407185E+02  0.00000000000E+00 0.  1.
</event>
<event>
 9   1  0.7570500E-01  0.2500014E+03  0.7546771E-02  0.1113304E+00
       21   -1    0    0  503  502  0.00000000000E+00  0.00000000000E+00  0.65374923315E+02  0.65374923315E+02  0.00000000000E+00 0.  1.
       21   -1    0    0  502  503 -0.00000000000E+00 -0.00000000000E+00 -0.23900868729E+03  0.23900868729E+03  0.00000000000E+00 0.  1.
       25    2    1    2    0    0 -0.71054273576E-14  0.14210854715E-13 -0.17363376398E+03  0.30438361061E+03  0.25000139682E+03 0.  0.
       24    2    3    3    0    0  0.44843868151E+02  0.78375528230E+02 -0.46954686905E+02  0.12894882773E+03  0.79179300417E+02 0.  0.
      -24    2    3    3    0    0 -0.44843868151E+02 -0.78375528230E+02 -0.12667907707E+03  0.17543478288E+03  0.81093023987E+02 0.  0.
      -13    1    4    4    0    0  0.25362749538E+02  0.58590149836E+02  0.10907629189E+02  0.64769214111E+02  0.00000000000E+00 0.  1.
       14    1    4    4    0    0  0.19481118613E+02  0.19785378394E+02 -0.57862316094E+02  0.64179613619E+02  0.00000000000E+00 0. -1.
        3    1    5    5  501    0 -0.60568214795E+02 -0.55052498919E+02 -0.55478951844E+02  0.98879726833E+02  0.00000000000E+00 0. -1.
       -4    1    5    5    0  501  0.15724346644E+02 -0.23323029311E+02 -0.71200125229E+02  0.76555056046E+02  0.00000000000E+00 0.  1.
</event>
<event>
 9   1  0.7570500E-01  0.2499922E+03  0.7546771E-02  0.1113310E+00
       21   -1    0    0  503  502  0.00000000000E+00  0.00000000000E+00  0.39552466802E+02  0.39552466802E+02  0.00000000000E+00 0.  1.
       21   -1    0    0  502  503 -0.00000000000E+00 -0.00000000000E+00 -0.39502010966E+03  0.39502010966E+03  0.00000000000E+00 0.  1.
       25    2    1    2    0    0 -0.21316282073E-13  0.00000000000E+00 -0.35546764285E+03  0.43457257646E+03  0.24999215806E+03 0.  0.
       24    2    3    3    0    0  0.56751653678E+02 -0.21311064852E+02 -0.48785369041E+02  0.11164936066E+03  0.80066571189E+02 0.  0.
      -24    2    3    3    0    0 -0.56751653678E+02  0.21311064852E+02 -0.30668227381E+03  0.32292321580E+03  0.80935002023E+02 0.  0.
      -13    1    4    4    0    0 -0.12468200833E+02  0.11822369730E+02 -0.26775327070E+02  0.31814188624E+02  0.00000000000E+00 0.  1.
       14    1    4    4    0    0  0.69219854511E+02 -0.33133434582E+02 -0.22010041971E+02  0.79835172032E+02  0.00000000000E+00 0. -1.
        1    1    5    5  501    0 -0.70425436435E+02  0.33463557660E+02 -0.19958673875E+03  0.21427649911E+03  0.00000000000E+00 0. -1.
       -2    1    5    5    0  501  0.13673782757E+02 -0.12152492808E+02 -0.10709553507E+03  0.10864671669E+03  0.00000000000E+00 0.  1.
</event>
<event>
 9   1  0.7570500E-01  0.2499962E+03  0.7546771E-02  0.1113307E+00
       21   -1    0    0  503  502  0.00000000000E+00  0.00000000000E+00  0.14645687457E+03  0.14645687457E+03  0.00000000000E+00 0. -1.
       21   -1    0    0  502  503 -0.00000000000E+00 -0.00000000000E+00 -0.10668342852E+03  0.10668342852E+03  0.00000000000E+00 0. -1.
       25    2    1    2    0    0  0.00000000000E+00  0.00000000000E+00  0.39773446047E+02  0.25314030309E+03  0.24999617205E+03 0.  0.
       24    2    3    3    0    0  0.66606879282E+02 -0.62540005074E+02  0.39760897474E+02  0.13039247937E+03  0.84104346535E+02 0.  0.
      -24    2    3    3    0    0 -0.66606879282E+02  0.62540005074E+02  0.12548573440E-01  0.12274782372E+03  0.81971333215E+02 0.  0.
      -13    1    4    4    0    0  0.63546269352E+02 -0.30127897912E+01  0.28599950600E+02  0.69750716306E+02  0.00000000000E+00 0.  1.
       14    1    4    4    0    0  0.30606099305E+01 -0.59527215283E+02  0.11160946874E+02  0.60641763065E+02  0.00000000000E+00 0. -1.
        3    1    5    5  501    0 -0.24458483477E+02  0.74560869632E+02  0.50380738440E+01  0.78631564160E+02  0.00000000000E+00 0. -1.
       -4    1    5    5    0  501 -0.42148395805E+02 -0.12020864558E+02 -0.50255252706E+01  0.44116259564E+02  0.00000000000E+00 0.  1.
</event>
<event>
 9   1  0.7570500E-01  0.2499973E+03  0.7546771E-02  0.1113307E+00
       21   -1    0    0  503  502  0.00000000000E+00  0.00000000000E+00  0.57800446249E+02  0.57800446249E+02  0.00000000000E+00 0. -1.
       21   -1    0    0  502  503 -0.00000000000E+00 -0.00000000000E+00 -0.27032082769E+03  0.27032082769E+03  0.00000000000E+00 0. -1.
       25    2    1    2    0    0  0.00000000000E+00 -0.35527136788E-14 -0.21252038144E+03  0.32812127394E+03  0.24999731575E+03 0.  0.
       24    2    3    3    0    0 -0.72747686805E+02  0.25903542327E+02 -0.33371782813E+02  0.11647513691E+03  0.80557818922E+02 0.  0.
      -24    2    3    3    0    0  0.72747686805E+02 -0.25903542327E+02 -0.17914859863E+03  0.21164613703E+03  0.82077082604E+02 0.  0.
      -13    1    4    4    0    0  0.30754087068E+01 -0.76378789665E+00  0.19833359907E+02  0.20084911647E+02  0.00000000000E+00 0.  1.
       14    1    4    4    0    0 -0.75823095512E+02  0.26667330223E+02 -0.53205142720E+02  0.96390225262E+02  0.00000000000E+00 0. -1.
        3    1    5    5  501    0  0.74504170762E+02  0.24437617551E+01 -0.83800054423E+02  0.11215744538E+03  0.00000000000E+00 0. -1.
       -4    1    5    5    0  501 -0.17564839562E+01 -0.28347304082E+02 -0.95348544208E+02  0.99488691654E+02  0.00000000000E+00 0.  1.
</event>
<event>
 9   1  0.7570500E-01  0.2500004E+03  0.7546771E-02  0.1113305E+00
       21   -1    0    0  503  502  0.00000000000E+00  0.00000000000E+00  0.26579360313E+02  0.26579360313E+02  0.00000000000E+00 0. -1.
       21   -1    0    0  502  503 -0.00000000000E+00 -0.00000000000E+00 -0.58786395073E+03  0.58786395073E+03  0.00000000000E+00 0. -1.
       25    2    1    2    0    0 -0.35527136788E-14  0.00000000000E+00 -0.56128459041E+03  0.61444331104E+03  0.25000038209E+03 0.  0.
       24    2    3    3    0    0 -0.17084996304E+02  0.95049650866E+02 -0.27866111389E+03  0.30540977282E+03  0.79352250818E+02 0.  0.
      -24    2    3    3    0    0  0.17084996304E+02 -0.95049650866E+02 -0.28262347652E+03  0.30903353822E+03  0.79368539329E+02 0.  0.
      -13    1    4    4    0    0 -0.11807758927E+02  0.15777239097E+02 -0.48348742505E+01  0.20290895826E+02  0.00000000000E+00 0.  1.
       14    1    4    4    0    0 -0.52772373771E+01  0.79272411769E+02 -0.27382623964E+03  0.28511887699E+03  0.00000000000E+00 0. -1.
        1    1    5    5  501    0  0.16168511151E+02 -0.16392720733E+02 -0.96729643257E+01  0.24974152332E+02  0.00000000000E+00 0. -1.
       -2    1    5    5    0  501  0.91648515353E+00 -0.78656930133E+02 -0.27295051220E+03  0.28405938589E+03  0.00000000000E+00 0.  1.
</event>
<event>
 9   1  0.7570500E-01  0.2500018E+03  0.7546771E-02  0.1113304E+00
       21   -1    0    0  503  502  0.00000000000E+00  0.00000000000E+00  0.47641427810E+03  0.47641427810E+03  0.00000000000E+00 0.  1.
       21   -1    0    0  502  503 -0.00000000000E+00 -0.00000000000E+00 -0.32797552776E+02  0.32797552776E+02  0.00000000000E+00 0.  1.
       25    2    1    2    0    0 -0.14210854715E-13 -0.17763568394E-14  0.44361672532E+03  0.50921183087E+03  0.25000177943E+03 0.  0.
       24    2    3    3    0    0  0.55215590029E+02  0.22416382698E+01  0.61844299552E+02  0.11509165020E+03  0.79797144271E+02 0.  0.
      -24    2    3    3    0    0 -0.55215590029E+02 -0.22416382698E+01  0.38177242577E+03  0.39412018068E+03  0.80788275225E+02 0.  0.
      -13    1    4    4    0    0  0.40313006620E+02 -0.50025061959E+01  0.80482255714E+02  0.90152964764E+02  0.00000000000E+00 0.  1.
       14    1    4    4    0    0  0.14902583409E+02  0.72441444657E+01 -0.18637956161E+02  0.24938685434E+02  0.00000000000E+00 0. -1.
        1    1    5    5  501    0  0.15666206583E+02  0.15002767579E+02  0.13706482850E+03  0.13877060306E+03  0.00000000000E+00 0. -1.
       -2    1    5    5    0  501 -0.70881796612E+02 -0.17244405849E+02  0.24470759727E+03  0.25534957761E+03  0.00000000000E+00 0.  1.
</event>
<event>
 9   1  0.7570500E-01  0.2500029E+03  0.7546771E-02  0.1113303E+00
       21   -1    0    0  503  502  0.00000000000E+00  0.00000000000E+00  0.75604250427E+02  0.75604250427E+02  0.00000000000E+00 0.  1.
       21   -1    0    0  502  503 -0.00000000000E+00 -0.00000000000E+00 -0.20667309565E+03  0.20667309565E+03  0.00000000000E+00 0.  1.
       25    2    1    2    0    0  0.00000000000E+00  0.00000000000E+00 -0.13106884522E+03  0.28227734608E+03  0.25000291582E+03 0.  0.
       24    2    3    3    0    0 -0.64337990117E+02  0.52301955358E+02 -0.11627458218E+03  0.16400391134E+03  0.80638904795E+02 0.  0.
      -24    2    3    3    0    0  0.64337990117E+02 -0.52301955358E+02 -0.14794263039E+02  0.11827343474E+03  0.83035315611E+02 0.  0.
      -13    1    4    4    0    0 -0.51785382413E+02  0.59321898109E+02 -0.43781463210E+02  0.90097890917E+02  0.00000000000E+00 0.  1.
       14    1    4    4    0    0 -0.12552607704E+02 -0.70199427505E+01 -0.72493118974E+02  0.73906020424E+02  0.00000000000E+00 0. -1.
        1    1    5    5  501    0  0.72211669117E+02 -0.53257686606E+02 -0.35196987670E+02  0.96383267637E+02  0.00000000000E+00 0. -1.
       -2    1    5    5    0  501 -0.78736790001E+01  0.95573124754E+00  0.20402724631E+02  0.21890167099E+02  0.00000000000E+00 0.  1.
</event>
<event>
 9   1  0.7570500E-01  0.2500001E+03  0.7546771E-02  0.1113305E+00
       21   -1    0    0  503  502  0.00000000000E+00  0.00000000000E+00  0.51598632043E+02  0.51598632043E+02  0.00000000000E+00 0. -1.
       21   -1    0    0  502  503 -0.00000000000E+00 -0.00000000000E+00 -0.30281832885E+03  0.30281832885E+03  0.00000000000E+00 0. -1.
       25    2    1    2    0    0  0.00000000000E+00 -0.71054273576E-14 -0.25121969681E+03  0.35441696090E+03  0.25000009221E+03 0.  0.
       24    2    3    3    0    0 -0.91617966902E+02 -0.10029423821E+02 -0.16930835517E+03  0.20898304305E+03  0.80710296431E+02 0.  0.
      -24    2    3    3    0    0  0.91617966902E+02  0.10029423821E+02 -0.81911341638E+02  0.14543391785E+03  0.77117542556E+02 0.  0.
      -13    1    4    4    0    0 -0.23674215800E+02  0.32814932683E+02 -0.40990008525E+02  0.57597474768E+02  0.00000000000E+00 0.  1.
       14    1    4    4    0    0 -0.67943751102E+02 -0.42844356504E+02 -0.12831834665E+03  0.15138556828E+03  0.00000000000E+00 0. -1.
        3    1    5    5  501    0  0.25805617351E+02 -0.23191467541E+02  0.71130222322E+00  0.34702737708E+02  0.00000000000E+00 0. -1.
       -4    1    5    5    0  501  0.65812349551E+02  0.33220891362E+02 -0.82622643861E+02  0.11073118014E+03  0.00000000000E+00 0.  1.
</event>
<event>
 9   1  0.7570500E-01  0.2499934E+03  0.7546771E-02  0.1113309E+00
       21   -1    0    0  503  502  0.00000000000E+00  0.00000000000E+00  0.93600986920E+03  0.93600986920E+03  0.00000000000E+00 0.  1.
       21   -1    0    0  502  503 -0.00000000000E+00 -0.00000000000E+00 -0.16692318066E+02  0.16692318066E+02  0.00000000000E+00 0.  1.
       25    2    1    2    0    0  0.71054273576E-14  0.00000000000E+00  0.91931755113E+03  0.95270218726E+03  0.24999339551E+03 0.  0.
       24    2    3    3    0    0  0.39031946509E+02  0.84036720903E+02  0.36704282145E+03  0.38706606098E+03  0.80709599631E+02 0.  0.
      -24    2    3    3    0    0 -0.39031946509E+02 -0.84036720903E+02  0.55227472968E+03  0.56563612628E+03  0.79694334868E+02 0.  0.
      -13    1    4    4    0    0  0.13508890034E+02 -0.17563465184E+01  0.56403013991E+01  0.14744078911E+02  0.00000000000E+00 0.  1.
       14    1    4    4    0    0  0.25523056475E+02  0.85793067422E+02  0.36140252006E+03  0.37232198207E+03  0.00000000000E+00 0. -1.
        3    1    5    5  501    0 -0.34872108232E+02 -0.39926983921E+02  0.12114616899E+03  0.13223699270E+03  0.00000000000E+00 0. -1.
       -4    1    5    5    0  501 -0.41598382774E+01 -0.44109736982E+02  0.43112856069E+03  0.43339913359E+03  0.00000000000E+00 0.  1.
</event>
<event>
 9   1  0.7570500E-01  0.2500033E+03  0.7546771E-02  0.1113303E+00
       21   -1    0    0  503  502  0.00000000000E+00  0.00000000000E+00  0.18771641547E+04  0.18771641547E+04  0.00000000000E+00 0. -1.
       21   -1    0    0  502  503 -0.00000000000E+00 -0.00000000000E+00 -0.83239457032E+01  0.83239457032E+01  0.00000000000E+00 0. -1.
       25    2    1    2    0    0 -0.71054273576E-14  0.00000000000E+00  0.18688402090E+04  0.18854881004E+04  0.25000329997E+03 0.  0.
       24    2    3    3    0    0  0.58473288734E+02 -0.76941997151E+02  0.93586777466E+03  0.94424224151E+03  0.80035758150E+02 0.  0.
      -24    2    3    3    0    0 -0.58473288734E+02  0.76941997151E+02  0.93297243432E+03  0.94124585888E+03  0.78530294990E+02 0.  0.
      -13    1    4    4    0    0  0.38205914845E+00 -0.44402748887E+02  0.17799453870E+03  0.18344973667E+03  0.00000000000E+00 0.  1.
       14    1    4    4    0    0  0.58091229586E+02 -0.32539248264E+02  0.75787323597E+03  0.76079250484E+03  0.00000000000E+00 0. -1.
        3    1    5    5  501    0 -0.41259839985E+02 -0.29487315436E+01  0.38442609414E+03  0.38664517489E+03  0.00000000000E+00 0. -1.
       -4    1    5    5    0  501 -0.17213448749E+02  0.79890728695E+02  0.54854634018E+03  0.55460068399E+03  0.00000000000E+00 0.  1.
</event>
<event>
 9   1  0.7570500E-01  0.2500010E+03  0.7546771E-02  0.1113304E+00
       21   -1    0    0  503  502  0.00000000000E+00  0.00000000000E+00  0.60449952625E+03  0.60449952625E+03  0.00000000000E+00 0.  1.
       21   -1    0    0  502  503 -0.00000000000E+00 -0.00000000000E+00 -0.25848038366E+02  0.25848038366E+02  0.00000000000E+00 0.  1.
       25    2    1    2    0    0  0.00000000000E+00  0.00000000000E+00  0.57865148788E+03  0.63034756461E+03  0.25000101557E+03 0.  0.
       24    2    3    3    0    0  0.53559222263E+02 -0.60947847042E+02  0.42569387541E+03  0.44094753001E+03  0.81462987393E+02 0.  0.
      -24    2    3    3    0    0 -0.53559222263E+02  0.60947847042E+02  0.15295761247E+03  0.18940003460E+03  0.76766604358E+02 0.  0.
      -13    1    4    4    0    0 -0.75315039508E+01  0.73407401976E+01  0.15119156558E+03  0.15155691842E+03  0.00000000000E+00 0.  1.
       14    1    4    4    0    0  0.61090726214E+02 -0.68288587240E+02  0.27450230983E+03  0.28939061159E+03  0.00000000000E+00 0. -1.
        1    1    5    5  501    0 -0.55239840446E+02  0.67752216134E+02  0.15813322248E+03  0.18068735101E+03  0.00000000000E+00 0. -1.
       -2    1    5    5    0  501  0.16806181833E+01 -0.68043690922E+01 -0.51756100131E+01  0.87126835836E+01  0.00000000000E+00 0.  1.
</event>
<event>
 9   1  0.7570500E-01  0.2499993E+03  0.7546771E-02  0.1113305E+00
       21   -1    0    0  503  502  0.00000000000E+00  0.00000000000E+00  0.18821123167E+03  0.18821123167E+03  0.00000000000E+00 0.  1.
       21   -1    0    0  502  503 -0.00000000000E+00 -0.00000000000E+00 -0.83017945441E+02  0.83017945441E+02  0.00000000000E+00 0.  1.
       25    2    1    2    0    0  0.00000000000E+00 -0.71054273576E-14  0.10519328623E+03  0.27122917711E+03  0.24999927809E+03 0.  0.
       24    2    3    3    0    0 -0.16698488580E+01 -0.35021505976E+02 -0.44642286785E+02  0.97639066993E+02  0.79442805577E+02 0.  0.
      -24    2    3    3    0    0  0.16698488580E+01  0.35021505976E+02  0.14983557301E+03  0.17359011011E+03  0.80333885219E+02 0.  0.
      -13    1    4    4    0    0 -0.10475951570E+02  0.22210239365E+02 -0.28305832778E+02  0.37473463454E+02  0.00000000000E+00 0.  1.
       14    1    4    4    0    0  0.88061027118E+01 -0.57231745341E+02 -0.16336454006E+02  0.60165603540E+02  0.00000000000E+00 0. -1.
        3    1    5    5  501    0  0.33455926001E+02  0.35897976132E+02  0.55717380737E+02  0.74245472529E+02  0.00000000000E+00 0. -1.
       -4    1    5    5    0  501 -0.31786077143E+02 -0.87647015594E+00  0.94118192274E+02  0.99344637586E+02  0.00000000000E+00 0.  1.
</event>
<event>
 9   1  0.7570500E-01  0.2500023E+03  0.7546771E-02  0.1113303E+00
       21   -1    0    0  503  502  0.00000000000E+00  0.00000000000E+00  0.86258007418E+03  0.86258007418E+03  0.00000000000E+00 0. -1.
       21   -1    0    0  502  503 -0.00000000000E+00 -0.00000000000E+00 -0.18114595207E+02  0.18114595207E+02  0.00000000000E+00 0. -1.
       25    2    1    2    0    0  0.00000000000E+00  0.00000000000E+00  0.84446547898E+03  0.88069466939E+03  0.25000231101E+03 0.  0.
       24    2    3    3    0    0  0.69753466269E+02  0.47375800410E+02  0.58172903824E+03  0.59337778068E+03  0.81107978365E+02 0.  0.
      -24    2    3    3    0    0 -0.69753466269E+02 -0.47375800410E+02  0.26273644073E+03  0.28731688871E+03  0.80065877406E+02 0.  0.
      -13    1    4    4    0    0  0.82353053738E+02  0.28709116761E+02  0.52745482413E+03  0.53461652644E+03  0.00000000000E+00 0.  1.
       14    1    4    4    0    0 -0.12599587468E+02  0.18666683649E+02  0.54274214113E+02  0.58761254245E+02  0.00000000000E+00 0. -1.
        1    1    5    5  501    0 -0.13787008706E+02  0.13594708976E+02  0.10877986435E+02  0.22208744001E+02  0.00000000000E+00 0. -1.
       -2    1    5    5    0  501 -0.55966457564E+02 -0.60970509386E+02  0.25185845430E+03  0.26510814471E+03  0.00000000000E+00 0.  1.
</event>
<event>
 9   1  0.7570500E-01  0.2499994E+03  0.7546771E-02  0.1113305E+00
       21   -1    0    0  503  502  0.00000000000E+00  0.00000000000E+00  0.17482705839E+03  0.17482705839E+03  0.00000000000E+00 0. -1.
       21   -1    0    0  502  503 -0.00000000000E+00 -0.00000000000E+00 -0.89373619790E+02  0.89373619790E+02  0.00000000000E+00 0. -1.
       25    2    1    2    0    0  0.35527136788E-14 -0.71054273576E-14  0.85453438602E+02  0.26420067818E+03  0.24999941637E+03 0.  0.
       24    2    3    3    0    0 -0.23172460578E+02  0.41269097000E+02  0.13242370091E+03  0.15980112265E+03  0.75896382923E+02 0.  0.
      -24    2    3    3    0    0  0.23172460578E+02 -0.41269097000E+02 -0.46970262306E+02  0.10439955553E+03  0.80330320292E+02 0.  0.
      -13    1    4    4    0    0 -0.39427321513E+02  0.35582289734E+02  0.41883013662E+02  0.67637266783E+02  0.00000000000E+00 0.  1.
       14    1    4    4    0    0  0.16254860935E+02  0.56868072656E+01  0.90540687246E+02  0.92163855865E+02  0.00000000000E+00 0. -1.
        3    1    5    5  501    0 -0.42126765906E+01  0.16916604945E+02  0.85715628616E+01  0.19426524568E+02  0.00000000000E+00 0. -1.
       -4    1    5    5    0  501  0.27385137169E+02 -0.58185701944E+02 -0.55541825168E+02  0.84973030966E+02  0.00000000000E+00 0.  1.
</event>
<event>
 9   1  0.7570500E-01  0.2500053E+03  0.7546771E-02  0.1113301E+00
       21   -1    0    0  503  502  0.00000000000E+00  0.00000000000E+00  0.18119590059E+02  0.18119590059E+02  0.00000000000E+00 0. -1.
       21   -1    0    0  502  503 -0.00000000000E+00 -0.00000000000E+00 -0.86236294459E+03  0.86236294459E+03  0.00000000000E+00 0. -1.
       25    2    1    2    0    0  0.00000000000E+00  0.00000000000E+00 -0.84424335453E+03  0.88048253465E+03  0.25000530425E+03 0.  0.
       24    2    3    3    0    0 -0.75622995243E+02  0.34817357028E+02 -0.61108059879E+03  0.62066479840E+03  0.69815528368E+02 0.  0.
      -24    2    3    3    0    0  0.75622995243E+02 -0.34817357028E+02 -0.23316275574E+03  0.25981773625E+03  0.78799109400E+02 0.  0.
      -13    1    4    4    0    0  0.23115557095E+01  0.20600452425E+02 -0.25678279927E+03  0.25761818245E+03  0.00000000000E+00 0.  1.
       14    1    4    4    0    0 -0.77934550953E+02  0.14216904603E+02 -0.35429779952E+03  0.36304661595E+03  0.00000000000E+00 0. -1.
        3    1    5    5  501    0  0.13570775045E+02 -0.29984965047E+02 -0.21791072306E+02  0.39472964120E+02  0.00000000000E+00 0. -1.
       -4    1    5    5    0  501  0.62052220198E+02 -0.48323919808E+01 -0.21137168344E+03  0.22034477213E+03  0.00000000000E+00 0.  1.
</event>
<event>
 9   1  0.7570500E-01  0.2500011E+03  0.7546771E-02  0.1113304E+00
       21   -1    0    0  503  502  0.00000000000E+00  0.00000000000E+00  0.85491848401E+03  0.85491848401E+03  0.00000000000E+00 0. -1.
       21   -1    0    0  502  503 -0.00000000000E+00 -0.00000000000E+00 -0.18276754641E+02  0.18276754641E+02  0.00000000000E+00 0. -1.
       25    2    1    2    0    0  0.00000000000E+00  0.71054273576E-14  0.83664172937E+03  0.87319523865E+03  0.25000108296E+03 0.  0.
       24    2    3    3    0    0 -0.63366686952E+02  0.58985178843E+02  0.57030111096E+03  0.58227105231E+03  0.79382824734E+02 0.  0.
      -24    2    3    3    0    0  0.63366686952E+02 -0.58985178843E+02  0.26634061841E+03  0.29092418634E+03  0.78771624602E+02 0.  0.
      -13    1    4    4    0    0 -0.38240654595E+02  0.37263588305E+02  0.12753546228E+03  0.13826140754E+03  0.00000000000E+00 0.  1.
       14    1    4    4    0    0 -0.25126032356E+02  0.21721590538E+02  0.44276564868E+03  0.44400964477E+03  0.00000000000E+00 0. -1.
        3    1    5    5  501    0 -0.10343240226E+02 -0.12437891112E+02  0.75634471586E+01  0.17857477050E+02  0.00000000000E+00 0. -1.
       -4    1    5    5    0  501  0.73709927178E+02 -0.46547287731E+02  0.25877717126E+03  0.27306670929E+03  0.00000000000E+00 0.  1.
</event>
<event>
 9   1  0.7570500E-01  0.2499938E+03  0.7546771E-02  0.1113309E+00
       21   -1    0    0  503  502  0.00000000000E+00  0.00000000000E+00  0.23504099997E+03  0.23504099997E+03  0.00000000000E+00 0.  1.
       21   -1    0    0  502  503 -0.00000000000E+00 -0.00000000000E+00 -0.66474464818E+02  0.66474464818E+02  0.00000000000E+00 0.  1.
       25    2    1    2    0    0  0.35527136788E-14  0.00000000000E+00  0.16856653515E+03  0.30151546479E+03  0.24999379739E+03 0.  0.
       24    2    3    3    0    0  0.13455127860E+02 -0.36747055772E+02  0.18814778872E+03  0.20765451119E+03  0.78672860924E+02 0.  0.
      -24    2    3    3    0    0 -0.13455127860E+02  0.36747055772E+02 -0.19581253564E+02  0.93860953596E+02  0.83036537411E+02 0.  0.
      -13    1    4    4    0    0 -0.25537255937E+02 -0.36125497416E+02  0.66190311058E+02  0.79613819669E+02  0.00000000000E+00 0.  1.
       14    1    4    4    0    0  0.38992383796E+02 -0.62155835558E+00  0.12195747766E+03  0.12804069152E+03  0.00000000000E+00 0. -1.
        1    1    5    5  501    0 -0.28897090166E+02  0.51858403000E+01 -0.42686771770E+02  0.51808254592E+02  0.00000000000E+00 0. -1.
       -2    1    5    5    0  501  0.15441962307E+02  0.31561215472E+02  0.23105518206E+02  0.42052699004E+02  0.00000000000E+00 0.  1.
</event>
<event>
 9   1  0.7570500E-01  0.2500003E+03  0.7546771E-02  0.1113305E+00
       21   -1    0    0  503  502  0.00000000000E+00  0.00000000000E+00  0.53006104920E+02  0.53006104920E+02  0.00000000000E+00 0.  1.
       21   -1    0    0  502  503 -0.00000000000E+00 -0.00000000000E+00 -0.29477810414E+03  0.29477810414E+03  0.00000000000E+00 0.  1.
       25    2    1    2    0    0  0.00000000000E+00  0.00000000000E+00 -0.24177199922E+03  0.34778420906E+03  0.25000031293E+03 0.  0.
       24    2    3    3    0    0 -0.54606984629E+02  0.65442262516E+02 -0.57309664607E+02  0.12914162975E+03  0.78285058494E+02 0.  0.
      -24    2    3    3    0    0  0.54606984629E+02 -0.65442262516E+02 -0.18446233461E+03  0.21864257931E+03  0.80706952012E+02 0.  0.
      -13    1    4    4    0    0 -0.39302182144E+02  0.23108166342E+02 -0.68936006448E+02  0.82648786186E+02  0.00000000000E+00 0.  1.
       14    1    4    4    0    0 -0.15304802485E+02  0.42334096174E+02  0.11626341841E+02  0.46492843564E+02  0.00000000000E+00 0. -1.
        1    1    5    5  501    0  0.27880277513E+01 -0.62774813605E+02 -0.12366475612E+03  0.13871345366E+03  0.00000000000E+00 0. -1.
       -2    1    5    5    0  501  0.51818956878E+02 -0.26674489115E+01 -0.60797578493E+02  0.79929125644E+02  0.00000000000E+00 0.  1.
</event>
<event>
 9   1  0.7570500E-01  0.2500114E+03  0.7546771E-02  0.1113298E+00
       21   -1    0    0  503  502  0.00000000000E+00  0.00000000000E+00  0.22897266485E+03  0.22897266485E+03  0.00000000000E+00 0.  1.
       21   -1    0    0  502  503 -0.00000000000E+00 -0.00000000000E+00 -0.68245793236E+02  0.68245793236E+02  0.00000000000E+00 0.  1.
       25    2    1    2    0    0  0.00000000000E+00  0.00000000000E+00  0.16072687161E+03  0.29721845808E+03  0.25001136888E+03 0.  0.
       24    2    3    3    0    0 -0.91698784938E+02  0.20376979596E+02  0.90284386095E+02  0.15294541164E+03  0.80107054073E+02 0.  0.
      -24    2    3    3    0    0  0.91698784938E+02 -0.20376979596E+02  0.70442485516E+02  0.14427304644E+03  0.83837221496E+02 0.  0.
      -13    1    4    4    0    0 -0.64316168728E+02 -0.21001441713E+02  0.27776360906E+02  0.73137926817E+02  0.00000000000E+00 0.  1.
       14    1    4    4    0    0 -0.27382616210E+02  0.41378421309E+02  0.62508025189E+02  0.79807484821E+02  0.00000000000E+00 0. -1.
        1    1    5    5  501    0  0.24599295826E+02 -0.47524588768E+02  0.30845405544E+02  0.61766908097E+02  0.00000000000E+00 0. -1.
       -2    1    5    5    0  501  0.67099489112E+02  0.27147609171E+02  0.39597079972E+02  0.82506138348E+02  0.00000000000E+00 0.  1.
</event>
<event>
 9   1  0.7570500E-01  0.2499796E+03  0.7546771E-02  0.1113318E+00
       21   -1    0    0  503  502  0.00000000000E+00  0.00000000000E+00  0.18372783954E+03  0.18372783954E+03  0.00000000000E+00 0. -1.
       21   -1    0    0  502  503 -0.00000000000E+00 -0.00000000000E+00 -0.85030418888E+02  0.85030418888E+02  0.00000000000E+00 0. -1.
       25    2    1    2    0    0  0.00000000000E+00  0.14210854715E-13  0.98697420648E+02  0.26875825842E+03  0.24997964043E+03 0.  0.
       24    2    3    3    0    0 -0.52798697707E+02 -0.55162143169E+02 -0.13471775069E+02  0.11160907694E+03  0.80277847588E+02 0.  0.
      -24    2    3    3    0    0  0.52798697707E+02  0.55162143169E+02  0.11216919572E+03  0.15714918149E+03  0.79267725180E+02 0.  0.
      -13    1    4    4    0    0 -0.16659728410E+01 -0.20382538361E+02  0.29793443556E+02  0.36136859499E+02  0.00000000000E+00 0.  1.
       14    1    4    4    0    0 -0.51132724866E+02 -0.34779604808E+02 -0.43265218625E+02  0.75472217441E+02  0.00000000000E+00 0. -1.
        1    1    5    5  501    0  0.46127362118E+02  0.66020964418E+02  0.11821537017E+03  0.14304326276E+03  0.00000000000E+00 0. -1.
       -2    1    5    5    0  501  0.66713355889E+01 -0.10858821250E+02 -0.60461744498E+01  0.14105918721E+02  0.00000000000E+00 0.  1.
</event>
<event>
 9   1  0.7570500E-01  0.2500066E+03  0.7546771E-02  0.1113301E+00
       21   -1    0    0  503  502  0.00000000000E+00  0.00000000000E+00  0.21527477291E+02  0.21527477291E+02  0.00000000000E+00 0. -1.
       21   -1    0    0  502  503 -0.00000000000E+00 -0.00000000000E+00 -0.72585493322E+03  0.72585493322E+03  0.00000000000E+00 0. -1.
       25    2    1    2    0    0 -0.28421709430E-13  0.00000000000E+00 -0.70432745593E+03  0.74738241051E+03  0.25000660465E+03 0.  0.
       24    2    3    3    0    0 -0.87667572814E+02  0.39563618323E+02 -0.30497729972E+03  0.32902923610E+03  0.77448057727E+02 0.  0.
      -24    2    3    3    0    0  0.87667572814E+02 -0.39563618323E+02 -0.39935015621E+03  0.41835317442E+03  0.79296582894E+02 0.  0.
      -13    1    4    4    0    0 -0.60595103737E+02 -0.26092619132E+01 -0.23662066722E+03  0.24427016805E+03  0.00000000000E+00 0.  1.
       14    1    4    4    0    0 -0.27072469077E+02  0.42172880236E+02 -0.68356632494E+02  0.84759068042E+02  0.00000000000E+00 0. -1.
        3    1    5    5  501    0  0.71330773638E+02 -0.57930500479E+02 -0.23768132898E+03  0.25482628652E+03  0.00000000000E+00 0. -1.
       -4    1    5    5    0  501  0.16336799176E+02  0.18366882157E+02 -0.16166882723E+03  0.16352688790E+03  0.00000000000E+00 0.  1.
</event>
<event>
 9   1  0.7570500E-01  0.2500019E+03  0.7546771E-02  0.1113304E+00
       21   -1    0    0  503  502  0.00000000000E+00  0.00000000000E+00  0.58078116619E+03  0.58078116619E+03  0.00000000000E+00 0. -1.
       21   -1    0    0  502  503 -0.00000000000E+00 -0.00000000000E+00 -0.26903818905E+02  0.26903818905E+02  0.00000000000E+00 0. -1.
       25    2    1    2    0    0 -0.35527136788E-14 -0.14210854715E-13  0.55387734729E+03  0.60768498510E+03  0.25000185054E+03 0.  0.
       24    2    3    3    0    0 -0.28851398228E+01 -0.86197668103E+02  0.18238194719E+03  0.21776382619E+03  0.81972845002E+02 0.  0.
      -24    2    3    3    0    0  0.28851398228E+01  0.86197668103E+02  0.37149540010E+03  0.38992115891E+03  0.81186919225E+02 0.  0.
      -13    1    4    4    0    0 -0.32625371102E+02 -0.39345538265E+02  0.39855092983E+02  0.64814463336E+02  0.00000000000E+00 0.  1.
       14    1    4    4    0    0  0.29740231280E+02 -0.46852129838E+02  0.14252685421E+03  0.15294936285E+03  0.00000000000E+00 0. -1.
        1    1    5    5  501    0 -0.33953702728E+02  0.16828430765E+02  0.89511352485E+02  0.97202532038E+02  0.00000000000E+00 0. -1.
       -2    1    5    5    0  501  0.36838842550E+02  0.69369237338E+02  0.28198404761E+03  0.29271862687E+03  0.00000000000E+00 0.  1.
</event>
<event>
 9   1  0.7570500E-01  0.2500006E+03  0.7546771E-02  0.1113304E+00
       21   -1    0    0  503  502  0.00000000000E+00  0.00000000000E+00  0.64776073532E+02  0.64776073532E+02  0.00000000000E+00 0. -1.
       21   -1    0    0  502  503 -0.00000000000E+00 -0.00000000000E+00 -0.24121674139E+03  0.24121674139E+03  0.00000000000E+00 0. -1.
       25    2    1    2    0    0 -0.17763568394E-14  0.00000000000E+00 -0.17644066786E+03  0.30599281492E+03  0.25000058702E+03 0.  0.
       24    2    3    3    0    0  0.55888926576E+01  0.74247616111E+02 -0.15972630848E+03  0.19683440853E+03  0.87677514449E+02 0.  0.
      -24    2    3    3    0    0 -0.55888926576E+01 -0.74247616111E+02 -0.16714359378E+02  0.10915840639E+03  0.78052826073E+02 0.  0.
      -13    1    4    4    0    0  0.37894396204E+02  0.67014096537E+02 -0.13538549629E+03  0.15574372220E+03  0.00000000000E+00 0.  1.
       14    1    4    4    0    0 -0.32305503546E+02  0.72335195740E+01 -0.24340812185E+02  0.41090686324E+02  0.00000000000E+00 0. -1.
        3    1    5    5  501    0  0.42446407050E+01 -0.81969341968E+02 -0.33138857690E+02  0.88516517591E+02  0.00000000000E+00 0. -1.
       -4    1    5    5    0  501 -0.98335333627E+01  0.77217258574E+01  0.16424498312E+02  0.20641888804E+02  0.00000000000E+00 0.  1.
</event>
<event>
 9   1  0.7570500E-01  0.2499972E+03  0.7546771E-02  0.1113307E+00
       21   -1    0    0  503  502  0.00000000000E+00  0.00000000000E+00  0.13494605294E+03  0.13494605294E+03  0.00000000000E+00 0.  1.
       21   -1    0    0  502  503 -0.00000000000E+00 -0.00000000000E+00 -0.11578441985E+03  0.11578441985E+03  0.00000000000E+00 0.  1.
       25    2    1    2    0    0  0.00000000000E+00  0.00000000000E+00  0.19161633085E+02  0.25073047279E+03  0.24999720359E+03 0.  0.
       24    2    3    3    0    0 -0.87178167034E+02 -0.15648697788E+02  0.45176172094E+02  0.12756519218E+03  0.79919191566E+02 0.  0.
      -24    2    3    3    0    0  0.87178167034E+02  0.15648697788E+02 -0.26014539009E+02  0.12316528061E+03  0.81535363850E+02 0.  0.
      -13    1    4    4    0    0  0.11898299408E+02 -0.22657666585E+00  0.21444886168E+02  0.24525578659E+02  0.00000000000E+00 0.  1.
       14    1    4    4    0    0 -0.99076466442E+02 -0.15422121122E+02  0.23731285925E+02  0.10303961352E+03  0.00000000000E+00 0. -1.
        1    1    5    5  501    0  0.36233277697E+02  0.39491275741E+02  0.12451335906E+02  0.55022241304E+02  0.00000000000E+00 0. -1.
       -2    1    5    5    0  501  0.50944889337E+02 -0.23842577952E+02 -0.38465874915E+02  0.68143039306E+02  0.00000000000E+00 0.  1.
</event>
<event>
 9   1  0.7570500E-01  0.2500014E+03  0.7546771E-02  0.1113304E+00
       21   -1    0    0  503  502  0.00000000000E+00  0.00000000000E+00  0.26780028517E+03  0.26780028517E+03  0.00000000000E+00 0. -1.
       21   -1    0    0  502  503 -0.00000000000E+00 -0.00000000000E+00 -0.58346385970E+02  0.58346385970E+02  0.00000000000E+00 0. -1.
       25    2    1    2    0    0  0.14210854715E-13 -0.17763568394E-14  0.20945389920E+03  0.32614667114E+03  0.25000143041E+03 0.  0.
       24    2    3    3    0    0 -0.91424632686E+02 -0.50219651484E+01  0.13416861681E+03  0.18295941816E+03  0.84197668386E+02 0.  0.
      -24    2    3    3    0    0  0.91424632686E+02  0.50219651484E+01  0.75285282393E+02  0.14318725298E+03  0.80318317185E+02 0.  0.
      -13    1    4    4    0    0 -0.53070047220E+02  0.20733527943E+02  0.20999059386E+02  0.60722891795E+02  0.00000000000E+00 0.  1.
       14    1    4    4    0    0 -0.38354585466E+02 -0.25755493091E+02  0.11316955742E+03  0.12223652637E+03  0.00000000000E+00 0. -1.
        3    1    5    5  501    0 -0.48887041701E+01  0.14980322368E+02 -0.59025868401E+01  0.16827062076E+02  0.00000000000E+00 0. -1.
       -4    1    5    5    0  501  0.96313336856E+02 -0.99583572195E+01  0.81187869233E+02  0.12636019090E+03  0.00000000000E+00 0.  1.
</event>
<event>
 9   1  0.7570500E-01  0.2500026E+03  0.7546771E-02  0.1113303E+00
       21   -1    0    0  503  502  0.00000000000E+00  0.00000000000E+00  0.27184371887E+02  0.27184371887E+02  0.00000000000E+00 0.  1.
       21   -1    0    0  502  503 -0.00000000000E+00 -0.00000000000E+00 -0.57479055092E+03  0.57479055092E+03  0.00000000000E+00 0.  1.
       25    2    1    2    0    0  0.00000000000E+00  0.00000000000E+00 -0.54760617903E+03  0.60197492280E+03  0.25000256073E+03 0.  0.
       24    2    3    3    0    0  0.68454393923E+02  0.58573067104E+02 -0.18369812551E+03  0.21937472811E+03  0.79142035474E+02 0.  0.
      -24    2    3    3    0    0 -0.68454393923E+02 -0.58573067104E+02 -0.36390805352E+03  0.38260019470E+03  0.76400453716E+02 0.  0.
      -13    1    4    4    0    0  0.82552310146E+01  0.55999629099E+02 -0.64520652145E+02  0.85831357041E+02  0.00000000000E+00 0.  1.
       14    1    4    4    0    0  0.60199162908E+02  0.25734380047E+01 -0.11917747337E+03  0.13354337107E+03  0.00000000000E+00 0. -1.
        3    1    5    5  501    0 -0.57626303518E+02 -0.10140927415E+02 -0.11771721655E+03  0.13145711216E+03  0.00000000000E+00 0. -1.
       -4    1    5    5    0  501 -0.10828090405E+02 -0.48432139689E+02 -0.24619083697E+03  0.25114308253E+03  0.00000000000E+00 0.  1.
</event>
<event>
 9   1  0.7570500E-01  0.2500197E+03  0.7546771E-02  0.1113292E+00
       21   -1    0    0  503  502  0.00000000000E+00  0.00000000000E+00  0.15374915235E+03  0.15374915235E+03  0.00000000000E+00 0. -1.
       21   -1    0    0  502  503 -0.00000000000E+00 -0.00000000000E+00 -0.10164256817E+03  0.10164256817E+03  0.00000000000E+00 0. -1.
       25    2    1    2    0    0 -0.71054273576E-14 -0.14210854715E-13  0.52106584181E+02  0.25539172052E+03  0.25001966882E+03 0.  0.
       24    2    3    3    0    0  0.55300801120E+02  0.71352022926E+02  0.66693779497E+02  0.13715598194E+03  0.78831550658E+02 0.  0.
      -24    2    3    3    0    0 -0.55300801120E+02 -0.71352022926E+02 -0.14587195315E+02  0.11823573858E+03  0.74950742692E+02 0.  0.
      -13    1    4    4    0    0 -0.11666447683E+02  0.37966201411E+01 -0.93076998458E+01  0.15399792286E+02  0.00000000000E+00 0.  1.
       14    1    4    4    0    0  0.66967248802E+02  0.67555402785E+02  0.76001479342E+02  0.12175618966E+03  0.00000000000E+00 0. -1.
        1    1    5    5  501    0 -0.65136468433E+02 -0.80699768966E+02 -0.11724929718E+02  0.10436803250E+03  0.00000000000E+00 0. -1.
       -2    1    5    5    0  501  0.98356673133E+01  0.93477460403E+01 -0.28622655976E+01  0.13867706079E+02  0.00000000000E+00 0.  1.
</event>
<event>
 9   1  0.7570500E-01  0.2499981E+03  0.7546771E-02  0.1113306E+00
       21   -1    0    0  503  502  0.00000000000E+00  0.00000000000E+00  0.11523149963E+04  0.11523149963E+04  0.00000000000E+00 0.  1.
       21   -1    0    0  502  503 -0.00000000000E+00 -0.00000000000E+00 -0.13559456520E+02  0.13559456520E+02  0.00000000000E+00 0.  1.
       25    2    1    2    0    0  0.00000000000E+00  0.71054273576E-14  0.11387555398E+04  0.11658744529E+04  0.24999812071E+03 0.  0.
       24    2    3    3    0    0 -0.73479999487E+02  0.61849757733E+02  0.55279865002E+03  0.56678509459E+03  0.80214045677E+02 0.  0.
      -24    2    3    3    0    0  0.73479999487E+02 -0.61849757733E+02  0.58595688980E+03  0.59908935828E+03  0.79610801008E+02 0.  0.
      -13    1    4    4    0    0 -0.12032691836E+02 -0.19201033103E+02  0.78595052389E+02  0.81796378924E+02  0.00000000000E+00 0.  1.
       14    1    4    4    0    0 -0.61447307651E+02  0.81050790836E+02  0.47420359763E+03  0.48498871566E+03  0.00000000000E+00 0. -1.
        1    1    5    5  501    0  0.47752715740E+02 -0.75805856240E+02  0.50756740246E+03  0.51541392855E+03  0.00000000000E+00 0. -1.
       -2    1    5    5    0  501  0.25727283747E+02  0.13956098507E+02  0.78389487344E+02  0.83675429731E+02  0.00000000000E+00 0.  1.
</event>
<event>
 9   1  0.7570500E-01  0.2499964E+03  0.7546771E-02  0.1113307E+00
       21   -1    0    0  503  502  0.00000000000E+00  0.00000000000E+00  0.72338563496E+02  0.72338563496E+02  0.00000000000E+00 0.  1.
       21   -1    0    0  502  503 -0.00000000000E+00 -0.00000000000E+00 -0.21599207202E+03  0.21599207202E+03  0.00000000000E+00 0.  1.
       25    2    1    2    0    0  0.35527136788E-14  0.71054273576E-14 -0.14365350853E+03  0.28833063552E+03  0.24999644971E+03 0.  0.
       24    2    3    3    0    0 -0.12874552448E+02 -0.46978234384E+02  0.16833200430E+02  0.94763934393E+02  0.79524449187E+02 0.  0.
      -24    2    3    3    0    0  0.12874552448E+02  0.46978234384E+02 -0.16048670896E+03  0.19356670112E+03  0.96640444049E+02 0.  0.
      -13    1    4    4    0    0 -0.38667230249E+02 -0.20891043468E+02  0.32714248995E+02  0.54788798851E+02  0.00000000000E+00 0.  1.
       14    1    4    4    0    0  0.25792677801E+02 -0.26087190916E+02 -0.15881048565E+02  0.39975135542E+02  0.00000000000E+00 0. -1.
        1    1    5    5  501    0  0.83510847719E+01  0.76384944560E+02 -0.12969740033E+03  0.15075084087E+03  0.00000000000E+00 0. -1.
       -2    1    5    5    0  501  0.45234676756E+01 -0.29406710176E+02 -0.30789308627E+02  0.42815860250E+02  0.00000000000E+00 0.  1.
</event>
<event>
 9   1  0.7570500E-01  0.2500009E+03  0.7546771E-02  0.1113304E+00
       21   -1    0    0  503  502  0.00000000000E+00  0.00000000000E+00  0.48040293252E+03  0.48040293252E+03  0.00000000000E+00 0. -1.
       21   -1    0    0  502  503 -0.00000000000E+00 -0.00000000000E+00 -0.32525011241E+02  0.32525011241E+02  0.00000000000E+00 0. -1.
       25    2    1    2    0    0 -0.71054273576E-14  0.00000000000E+00  0.44787792128E+03  0.51292794376E+03  0.25000088624E+03 0.  0.
       24    2    3    3    0    0  0.59153247593E+02  0.37374261944E+02  0.35386128797E+03  0.36944158420E+03  0.79833143865E+02 0.  0.
      -24    2    3    3    0    0 -0.59153247593E+02 -0.37374261944E+02  0.94016633315E+02  0.14348635956E+03  0.82784454361E+02 0.  0.
      -13    1    4    4    0    0 -0.10232923129E+02  0.18951012932E+02  0.25756137539E+02  0.33574279260E+02  0.00000000000E+00 0.  1.
       14    1    4    4    0    0  0.69386170722E+02  0.18423249012E+02  0.32810515043E+03  0.33586730494E+03  0.00000000000E+00 0. -1.
        1    1    5    5  501    0 -0.31473702460E+02  0.24937403968E+02  0.32644817156E+02  0.51750866179E+02  0.00000000000E+00 0. -1.
       -2    1    5    5    0  501 -0.27679545134E+02 -0.62311665912E+02  0.61371816159E+02  0.91735493382E+02  0.00000000000E+00 0.  1.
</event>
<event>
 9   1  0.7570500E-01  0.2499968E+03  0.7546771E-02  0.1113307E+00
       21   -1    0    0  503  502  0.00000000000E+00  0.00000000000E+00  0.39076106040E+02  0.39076106040E+02  0.00000000000E+00 0.  1.
       21   -1    0    0  502  503 -0.00000000000E+00 -0.00000000000E+00 -0.39985043034E+03  0.39985043034E+03  0.00000000000E+00 0.  1.
       25    2    1    2    0    0 -0.17763568394E-14  0.00000000000E+00 -0.36077432430E+03  0.43892653638E+03  0.24999678251E+03 0.  0.
       24    2    3    3    0    0  0.15035247805E+02  0.18861046369E+02 -0.33787870667E+03  0.34765933459E+03  0.78250845106E+02 0.  0.
      -24    2    3    3    0    0 -0.15035247805E+02 -0.18861046369E+02 -0.22895617628E+02  0.91267201787E+02  0.84992323588E+02 0.  0.
      -13    1    4    4    0    0  0.26138406011E+02  0.31525748263E+02 -0.86366205111E+02  0.95583526079E+02  0.00000000000E+00 0.  1.
       14    1    4    4    0    0 -0.11103158206E+02 -0.12664701893E+02 -0.25151250156E+03  0.25207580851E+03  0.00000000000E+00 0. -1.
        1    1    5    5  501    0 -0.15702768148E+02  0.32965560292E+02 -0.90722037906E+01  0.37624592683E+02  0.00000000000E+00 0. -1.
       -2    1    5    5    0  501  0.66752034299E+00 -0.51826606662E+02 -0.13823413837E+02  0.53642609105E+02  0.00000000000E+00 0.  1.
</event>
<event>
 9   1  0.7570500E-01  0.2499992E+03  0.7546771E-02  0.1113305E+00
       21   -1    0    0  503  502  0.00000000000E+00  0.00000000000E+00  0.77753371068E+02  0.77753371068E+02  0.00000000000E+00 0. -1.
       21   -1    0    0  502  503 -0.00000000000E+00 -0.00000000000E+00 -0.20095465050E+03  0.20095465050E+03  0.00000000000E+00 0. -1.
       25    2    1    2    0    0  0.71054273576E-14  0.14210854715E-13 -0.12320127943E+03  0.27870802157E+03  0.24999921207E+03 0.  0.
       24    2    3    3    0    0  0.20416970247E+02  0.87943172734E+02 -0.99122961688E+02  0.15630927023E+03  0.80351553319E+02 0.  0.
      -24    2    3    3    0    0 -0.20416970247E+02 -0.87943172734E+02 -0.24078317746E+02  0.12239875134E+03  0.79062220057E+02 0.  0.
      -13    1    4    4    0    0 -0.19495502450E+02  0.47718241538E+02 -0.12907215488E+02  0.53138511486E+02  0.00000000000E+00 0.  1.
       14    1    4    4    0    0  0.39912472697E+02  0.40224931196E+02 -0.86215746201E+02  0.10317075874E+03  0.00000000000E+00 0. -1.
        3    1    5    5  501    0  0.22690982719E+02 -0.59619143273E+02  0.35404420121E+01  0.63889417520E+02  0.00000000000E+00 0. -1.
       -4    1    5    5    0  501 -0.43107952966E+02 -0.28324029461E+02 -0.27618759758E+02  0.58509333823E+02  0.00000000000E+00 0.  1.
</event>
<event>
 9   1  0.7570500E-01  0.2499373E+03  0.7546771E-02  0.1113344E+00
       21   -1    0    0  503  502  0.00000000000E+00  0.00000000000E+00  0.50998443009E+02  0.50998443009E+02  0.00000000000E+00 0. -1.
       21   -1    0    0  502  503 -0.00000000000E+00 -0.00000000000E+00 -0.30622833318E+03  0.30622833318E+03  0.00000000000E+00 0. -1.
       25    2    1    2    0    0  0.00000000000E+00  0.14210854715E-13 -0.25522989017E+03  0.35722677619E+03  0.24993733773E+03 0.  0.
       24    2    3    3    0    0  0.32363856464E+02 -0.86825553445E+02 -0.11238188242E+03  0.16590263120E+03  0.79422286585E+02 0.  0.
      -24    2    3    3    0    0 -0.32363856464E+02  0.86825553445E+02 -0.14284800775E+03  0.19132414499E+03  0.87254107076E+02 0.  0.
      -13    1    4    4    0    0  0.78954124757E+01 -0.37533648293E+02 -0.10321812430E+03  0.11011400218E+03  0.00000000000E+00 0.  1.
       14    1    4    4    0    0  0.24468443988E+02 -0.49291905152E+02 -0.91637581186E+01  0.55788629016E+02  0.00000000000E+00 0. -1.
        3    1    5    5  501    0  0.85914179777E+01  0.70046012238E+02 -0.12511309803E+03  0.14364380805E+03  0.00000000000E+00 0. -1.
       -4    1    5    5    0  501 -0.40955274441E+02  0.16779541207E+02 -0.17734909723E+02  0.47680336938E+02  0.00000000000E+00 0.  1.
</event>
<event>
 9   1  0.7570500E-01  0.2500028E+03  0.7546771E-02  0.1113303E+00
       21   -1    0    0  503  502  0.00000000000E+00  0.00000000000E+00  0.97361585119E+02  0.97361585119E+02  0.00000000000E+00 0.  1.
       21   -1    0    0  502  503 -0.00000000000E+00 -0.00000000000E+00 -0.16048784021E+03  0.16048784021E+03  0.00000000000E+00 0.  1.
       25    2    1    2    0    0  0.00000000000E+00  0.00000000000E+00 -0.63126255093E+02  0.25784942533E+03  0.25000280411E+03 0.  0.
       24    2    3    3    0    0 -0.81732742374E+02  0.49502460945E+02 -0.43815059291E+02  0.13237719615E+03  0.80456372182E+02 0.  0.
      -24    2    3    3    0    0  0.81732742374E+02 -0.49502460945E+02 -0.19311195802E+02  0.12547222918E+03  0.78991285574E+02 0.  0.
      -13    1    4    4    0    0 -0.64101682152E+01  0.25202112581E+02 -0.46399318243E+02  0.53189599251E+02  0.00000000000E+00 0.  1.
       14    1    4    4    0    0 -0.75322574158E+02  0.24300348364E+02  0.25842589520E+01  0.79187596900E+02  0.00000000000E+00 0. -1.
        3    1    5    5  501    0  0.53175059534E+02 -0.69144643133E+02 -0.24068201579E+02  0.90486722549E+02  0.00000000000E+00 0. -1.
       -4    1    5    5    0  501  0.28557682840E+02  0.19642182188E+02  0.47570057766E+01  0.34985506631E+02  0.00000000000E+00 0.  1.
</event>
<event>
 9   1  0.7570500E-01  0.2499996E+03  0.7546771E-02  0.1113305E+00
       21   -1    0    0  503  502  0.00000000000E+00  0.00000000000E+00  0.50046041897E+02  0.50046041897E+02  0.00000000000E+00 0. -1.
       21   -1    0    0  502  503 -0.00000000000E+00 -0.00000000000E+00 -0.31221160581E+03  0.31221160581E+03  0.00000000000E+00 0. -1.
       25    2    1    2    0    0  0.00000000000E+00  0.00000000000E+00 -0.26216556391E+03  0.36225764771E+03  0.24999964084E+03 0.  0.
       24    2    3    3    0    0 -0.36944145336E+02  0.83791380934E+02 -0.89917025057E+02  0.15142640404E+03  0.80368022579E+02 0.  0.
      -24    2    3    3    0    0  0.36944145336E+02 -0.83791380934E+02 -0.17224853885E+03  0.21083124366E+03  0.79964922139E+02 0.  0.
      -13    1    4    4    0    0 -0.29112964776E+02  0.50501053336E+01 -0.59906129226E+02  0.66796800827E+02  0.00000000000E+00 0.  1.
       14    1    4    4    0    0 -0.78311805598E+01  0.78741275600E+02 -0.30010895831E+02  0.84629603217E+02  0.00000000000E+00 0. -1.
        1    1    5    5  501    0  0.37084460558E+02 -0.60398808112E+01 -0.90612691272E+02  0.98093818330E+02  0.00000000000E+00 0. -1.
       -2    1    5    5    0  501 -0.14031522210E+00 -0.77751500122E+02 -0.81635847583E+02  0.11273742533E+03  0.00000000000E+00 0.  1.
</event>
<event>
 9   1  0.7570500E-01  0.2500009E+03  0.7546771E-02  0.1113304E+00
       21   -1    0    0  503  502  0.00000000000E+00  0.00000000000E+00  0.64864373060E+02  0.64864373060E+02  0.00000000000E+00 0. -1.
       21   -1    0    0  502  503 -0.00000000000E+00 -0.00000000000E+00 -0.24088897813E+03  0.24088897813E+03  0.00000000000E+00 0. -1.
       25    2    1    2    0    0  0.00000000000E+00  0.00000000000E+00 -0.17602460507E+03  0.30575335119E+03  0.25000090034E+03 0.  0.
       24    2    3    3    0    0 -0.49355397237E+02 -0.56570637055E+02 -0.16338670949E+03  0.19652299240E+03  0.79308747869E+02 0.  0.
      -24    2    3    3    0    0  0.49355397237E+02  0.56570637055E+02 -0.12637895574E+02  0.10923035879E+03  0.78328555862E+02 0.  0.
      -13    1    4    4    0    0 -0.71164718795E+02 -0.45781934362E+02 -0.12108573095E+03  0.14772324446E+03  0.00000000000E+00 0.  1.
       14    1    4    4    0    0  0.21809321559E+02 -0.10788702693E+02 -0.42300978546E+02  0.48799747936E+02  0.00000000000E+00 0. -1.
        1    1    5    5  501    0  0.47725604909E+02  0.88709986888E+01  0.18825038319E+02  0.52065440067E+02  0.00000000000E+00 0. -1.
       -2    1    5    5    0  501  0.16297923275E+01  0.47699638367E+02 -0.31462933893E+02  0.57164918722E+02  0.00000000000E+00 0.  1.
</event>
<event>
 9   1  0.7570500E-01  0.2499994E+03  0.7546771E-02  0.1113305E+00
       21   -1    0    0  503  502  0.00000000000E+00  0.00000000000E+00  0.51006580346E+02  0.51006580346E+02  0.00000000000E+00 0. -1.
       21   -1    0    0  502  503 -0.00000000000E+00 -0.00000000000E+00 -0.30633156840E+03  0.30633156840E+03  0.00000000000E+00 0. -1.
       25    2    1    2    0    0  0.00000000000E+00  0.00000000000E+00 -0.25532498805E+03  0.35733814875E+03  0.24999940605E+03 0.  0.
       24    2    3    3    0    0 -0.85459016328E+02 -0.43982714459E+02 -0.13291834204E+03  0.18182522420E+03  0.78456381911E+02 0.  0.
      -24    2    3    3    0    0  0.85459016328E+02  0.43982714459E+02 -0.12240664601E+03  0.17551292454E+03  0.81139861046E+02 0.  0.
      -13    1    4    4    0    0 -0.28185292555E+02 -0.56604052068E+02 -0.51885241982E+02  0.81795524098E+02  0.00000000000E+00 0.  1.
       14    1    4    4    0    0 -0.57273723773E+02  0.12621337609E+02 -0.81033100059E+02  0.10002970010E+03  0.00000000000E+00 0. -1.
        3    1    5    5  501    0  0.57951936329E+01  0.97879040579E+01  0.11382345383E+02  0.16091771857E+02  0.00000000000E+00 0. -1.
       -4    1    5    5    0  501  0.79663822695E+02  0.34194810401E+02 -0.13378899140E+03  0.15942115269E+03  0.00000000000E+00 0.  1.
</event>
<event>
 9   1  0.7570500E-01  0.2499924E+03  0.7546771E-02  0.1113310E+00
       21   -1    0    0  503  502  0.00000000000E+00  0.00000000000E+00  0.67272651754E+02  0.67272651754E+02  0.00000000000E+00 0.  1.
       21   -1    0    0  502  503 -0.00000000000E+00 -0.00000000000E+00 -0.23224972480E+03  0.23224972480E+03  0.00000000000E+00 0.  1.
       25    2    1    2    0    0  0.00000000000E+00 -0.14210854715E-13 -0.16497707304E+03  0.29952237655E+03  0.24999243874E+03 0.  0.
       24    2    3    3    0    0  0.75833596166E+02 -0.48899051065E+02 -0.40910202843E+02  0.12655298173E+03  0.78741100989E+02 0.  0.
      -24    2    3    3    0    0 -0.75833596166E+02  0.48899051065E+02 -0.12406687020E+03  0.17296939482E+03  0.79899760712E+02 0.  0.
      -13    1    4    4    0    0  0.50064935527E+02 -0.69982262453E+02 -0.24697342329E+02  0.89520799513E+02  0.00000000000E+00 0.  1.
       14    1    4    4    0    0  0.25768660639E+02  0.21083211388E+02 -0.16212860513E+02  0.37032182214E+02  0.00000000000E+00 0. -1.
        1    1    5    5  501    0 -0.23466349912E+00  0.44621989759E+02 -0.50625322058E+02  0.67484074199E+02  0.00000000000E+00 0. -1.
       -2    1    5    5    0  501 -0.75598932667E+02  0.42770613063E+01 -0.73441548143E+02  0.10548532063E+03  0.00000000000E+00 0.  1.
</event>
<event>
 9   1  0.7570500E-01  0.2499954E+03  0.7546771E-02  0.1113308E+00
       21   -1    0    0  503  502  0.00000000000E+00  0.00000000000E+00  0.13279707060E+03  0.13279707060E+03  0.00000000000E+00 0. -1.
       21   -1    0    0  502  503 -0.00000000000E+00 -0.00000000000E+00 -0.11765643747E+03  0.11765643747E+03  0.00000000000E+00 0. -1.
       25    2    1    2    0    0 -0.35527136788E-14  0.14210854715E-13  0.15140633133E+02  0.25045350806E+03  0.24999544182E+03 0.  0.
       24    2    3    3    0    0  0.25725944821E+02 -0.81412180910E+02 -0.36909848438E+02  0.12221700509E+03  0.79277310648E+02 0.  0.
      -24    2    3    3    0    0 -0.25725944821E+02  0.81412180910E+02  0.52050481570E+02  0.12823650298E+03  0.80284373487E+02 0.  0.
      -13    1    4    4    0    0  0.13357269125E+02  0.66990910468E+01 -0.29332897411E+02  0.32919801486E+02  0.00000000000E+00 0.  1.
       14    1    4    4    0    0  0.12368675696E+02 -0.88111271957E+02 -0.75769510263E+01  0.89297203602E+02  0.00000000000E+00 0. -1.
        1    1    5    5  501    0 -0.28113810799E+02 -0.57163703860E+01  0.47877046234E+01  0.29085827539E+02  0.00000000000E+00 0. -1.
       -2    1    5    5    0  501  0.23878659782E+01  0.87128551296E+02  0.47262776947E+02  0.99150675437E+02  0.00000000000E+00 0.  1.
</event>
<event>
 9   1  0.7570500E-01  0.2500000E+03  0.7546771E-02  0.1113305E+00
       21   -1    0    0  503  502  0.00000000000E+00  0.00000000000E+00  0.16919877768E+03  0.16919877768E+03  0.00000000000E+00 0.  1.
       21   -1    0    0  502  503 -0.00000000000E+00 -0.00000000000E+00 -0.92347030750E+02  0.92347030750E+02  0.00000000000E+00 0.  1.
       25    2    1    2    0    0  0.00000000000E+00  0.71054273576E-14  0.76851746933E+02  0.26154580843E+03  0.25000003780E+03 0.  0.
       24    2    3    3    0    0 -0.27934234606E+02 -0.53604222973E+02 -0.38072781961E+02  0.10885925243E+03  0.82140525497E+02 0.  0.
      -24    2    3    3    0    0  0.27934234606E+02  0.53604222973E+02  0.11492452889E+03  0.15268655601E+03  0.80323115356E+02 0.  0.
      -13    1    4    4    0    0 -0.38862770395E+02 -0.17318372632E+02 -0.53143211835E+02  0.68076735509E+02  0.00000000000E+00 0.  1.
       14    1    4    4    0    0  0.10928535790E+02 -0.36285850340E+02  0.15070429874E+02  0.40782516916E+02  0.00000000000E+00 0. -1.
        1    1    5    5  501    0  0.32320668846E+02  0.56947383212E+02  0.38289349884E+02  0.75853176624E+02  0.00000000000E+00 0. -1.
       -2    1    5    5    0  501 -0.43864342404E+01 -0.33431602395E+01  0.76635179010E+02  0.76833379384E+02  0.00000000000E+00 0.  1.
</event>
<event>
 9   1  0.7570500E-01  0.2499984E+03  0.7546771E-02  0.1113306E+00
       21   -1    0    0  503  502  0.00000000000E+00  0.00000000000E+00  0.12927200339E+03  0.12927200339E+03  0.00000000000E+00 0. -1.
       21   -1    0    0  502  503 -0.00000000000E+00 -0.00000000000E+00 -0.12086763911E+03  0.12086763911E+03  0.00000000000E+00 0. -1.
       25    2    1    2    0    0 -0.14210854715E-13  0.00000000000E+00  0.84043642760E+01  0.25013964251E+03  0.24999841482E+03 0.  0.
       24    2    3    3    0    0 -0.39581306235E+02  0.78212245336E+02  0.45829387384E+02  0.12675285124E+03  0.79259809657E+02 0.  0.
      -24    2    3    3    0    0  0.39581306235E+02 -0.78212245336E+02 -0.37425023108E+02  0.12338679126E+03  0.78357085061E+02 0.  0.
      -13    1    4    4    0    0 -0.46624622752E+02  0.25879629683E+02  0.50883420184E+02  0.73707076519E+02  0.00000000000E+00 0.  1.
       14    1    4    4    0    0  0.70433165173E+01  0.52332615653E+02 -0.50540328005E+01  0.53045774726E+02  0.00000000000E+00 0. -1.
        3    1    5    5  501    0  0.21314856783E+02 -0.44025721349E+02  0.21034289134E+02  0.53244986425E+02  0.00000000000E+00 0. -1.
       -4    1    5    5    0  501  0.18266449452E+02 -0.34186523987E+02 -0.58459312242E+02  0.70141804836E+02  0.00000000000E+00 0.  1.
</event>
<event>
 9   1  0.7570500E-01  0.2500046E+03  0.7546771E-02  0.1113302E+00
       21   -1    0    0  503  502  0.00000000000E+00  0.00000000000E+00  0.98680667179E+02  0.98680667179E+02  0.00000000000E+00 0.  1.
       21   -1    0    0  502  503 -0.00000000000E+00 -0.00000000000E+00 -0.15834483034E+03  0.15834483034E+03  0.00000000000E+00 0.  1.
       25    2    1    2    0    0  0.00000000000E+00  0.00000000000E+00 -0.59664163165E+02  0.25702549752E+03  0.25000458798E+03 0.  0.
       24    2    3    3    0    0  0.42539644849E+01  0.17627529970E+02  0.68251288884E+02  0.10525390344E+03  0.78046907228E+02 0.  0.
      -24    2    3    3    0    0 -0.42539644849E+01 -0.17627529970E+02 -0.12791545205E+03  0.15177159409E+03  0.79645639377E+02 0.  0.
      -13    1    4    4    0    0  0.13192027081E+02  0.39423442476E+02  0.10492434712E+02  0.42875734178E+02  0.00000000000E+00 0.  1.
       14    1    4    4    0    0 -0.89380625965E+01 -0.21795912505E+02  0.57758854172E+02  0.62378169260E+02  0.00000000000E+00 0. -1.
        1    1    5    5  501    0  0.26188936099E+02 -0.74869384664E+00 -0.10910220366E+03  0.11220388478E+03  0.00000000000E+00 0. -1.
       -2    1    5    5    0  501 -0.30442900584E+02 -0.16878836124E+02 -0.18813248393E+02  0.39567709309E+02  0.00000000000E+00 0.  1.
</event>
<event>
 9   1  0.7570500E-01  0.2500033E+03  0.7546771E-02  0.1113303E+00
       21   -1    0    0  503  502  0.00000000000E+00  0.00000000000E+00  0.22412894827E+04  0.22412894827E+04  0.00000000000E+00 0. -1.
       21   -1    0    0  502  503 -0.00000000000E+00 -0.00000000000E+00 -0.69716146914E+01  0.69716146914E+01  0.00000000000E+00 0. -1.
       25    2    1    2    0    0  0.00000000000E+00  0.00000000000E+00  0.22343178680E+04  0.22482610974E+04  0.25000325346E+03 0.  0.
       24    2    3    3    0    0  0.10114115274E+02  0.88572863361E+02  0.14246844833E+04  0.14297763342E+04  0.81160590001E+02 0.  0.
      -24    2    3    3    0    0 -0.10114115274E+02 -0.88572863361E+02  0.80963338468E+03  0.81848476318E+03  0.80396781806E+02 0.  0.
      -13    1    4    4    0    0  0.15208957813E+02 -0.11895765632E+02  0.28949627598E+03  0.29013947584E+03  0.00000000000E+00 0.  1.
       14    1    4    4    0    0 -0.50948425396E+01  0.10046862899E+03  0.11351882073E+04  0.11396368584E+04  0.00000000000E+00 0. -1.
        1    1    5    5  501    0  0.19594241824E+02 -0.86953997882E+02  0.55381672200E+03  0.56094375264E+03  0.00000000000E+00 0. -1.
       -2    1    5    5    0  501 -0.29708357098E+02 -0.16188654792E+01  0.25581666268E+03  0.25754101054E+03  0.00000000000E+00 0.  1.
</event>
<event>
 9   1  0.7570500E-01  0.2500016E+03  0.7546771E-02  0.1113304E+00
       21   -1    0    0  503  502  0.00000000000E+00  0.00000000000E+00  0.38432258222E+03  0.38432258222E+03  0.00000000000E+00 0. -1.
       21   -1    0    0  502  503 -0.00000000000E+00 -0.00000000000E+00 -0.40656458976E+02  0.40656458976E+02  0.00000000000E+00 0. -1.
       25    2    1    2    0    0  0.00000000000E+00  0.00000000000E+00  0.34366612325E+03  0.42497904120E+03  0.25000156238E+03 0.  0.
       24    2    3    3    0    0  0.59461471664E+02 -0.67704627369E+02  0.11052229190E+03  0.16414280495E+03  0.81290222241E+02 0.  0.
      -24    2    3    3    0    0 -0.59461471664E+02  0.67704627369E+02  0.23314383135E+03  0.26083623625E+03  0.74564823230E+02 0.  0.
      -13    1    4    4    0    0  0.62047667890E+02 -0.18732398279E+02  0.33829543697E+02  0.73111243066E+02  0.00000000000E+00 0.  1.
       14    1    4    4    0    0 -0.25861962264E+01 -0.48972229090E+02  0.76692748202E+02  0.91031561888E+02  0.00000000000E+00 0. -1.
        1    1    5    5  501    0  0.43293095367E+01  0.10250236863E+02  0.11090735562E+03  0.11146412789E+03  0.00000000000E+00 0. -1.
       -2    1    5    5    0  501 -0.63790781201E+02  0.57454390507E+02  0.12223647573E+03  0.14937210835E+03  0.00000000000E+00 0.  1.
</event>
<event>
 9   1  0.7570500E-01  0.2500025E+03  0.7546771E-02  0.1113303E+00
       21   -1    0    0  503  502  0.00000000000E+00  0.00000000000E+00  0.26097586204E+03  0.26097586204E+03  0.00000000000E+00 0. -1.
       21   -1    0    0  502  503 -0.00000000000E+00 -0.00000000000E+00 -0.59872649660E+02  0.59872649660E+02  0.00000000000E+00 0. -1.
       25    2    1    2    0    0  0.00000000000E+00  0.00000000000E+00  0.20110321238E+03  0.32084851170E+03  0.25000253085E+03 0.  0.
       24    2    3    3    0    0  0.13946711327E+02  0.65538120560E+02  0.15053514129E+02  0.10752847863E+03  0.82740615328E+02 0.  0.
      -24    2    3    3    0    0 -0.13946711327E+02 -0.65538120560E+02  0.18604969825E+03  0.21332003307E+03  0.80007438951E+02 0.  0.
      -13    1    4    4    0    0  0.25233342938E+02  0.73492961963E+02 -0.10571426204E+02  0.78419972621E+02  0.00000000000E+00 0.  1.
       14    1    4    4    0    0 -0.11286631611E+02 -0.79548414025E+01  0.25624940333E+02  0.29108506006E+02  0.00000000000E+00 0. -1.
        3    1    5    5  501    0  0.29643494228E+02 -0.99074155363E+01  0.37517932936E+02  0.48831228987E+02  0.00000000000E+00 0. -1.
       -4    1    5    5    0  501 -0.43590205555E+02 -0.55630705024E+02  0.14853176531E+03  0.16448880408E+03  0.00000000000E+00 0.  1.
</event>
<event>
 9   1  0.7570500E-01  0.2499889E+03  0.7546771E-02  0.1113312E+00
       21   -1    0    0  503  502  0.00000000000E+00  0.00000000000E+00  0.53424577443E+02  0.53424577443E+02  0.00000000000E+00 0. -1.
       21   -1    0    0  502  503 -0.00000000000E+00 -0.00000000000E+00 -0.29244238848E+03  0.29244238848E+03  0.00000000000E+00 0. -1.
       25    2    1    2    0    0  0.14210854715E-13 -0.71054273576E-14 -0.23901781103E+03  0.34586696592E+03  0.24998888800E+03 0.  0.
       24    2    3    3    0    0  0.56325702659E+02 -0.43845132743E+02 -0.20696926569E+03  0.23327728145E+03  0.80542117276E+02 0.  0.
      -24    2    3    3    0    0 -0.56325702659E+02  0.43845132743E+02 -0.32048545344E+02  0.11258968447E+03  0.80958923812E+02 0.  0.
      -13    1    4    4    0    0  0.35342507895E+02 -0.61201789204E+02 -0.18579425371E+03  0.19878193222E+03  0.00000000000E+00 0.  1.
       14    1    4    4    0    0  0.20983194763E+02  0.17356656461E+02 -0.21175011976E+02  0.34495349225E+02  0.00000000000E+00 0. -1.
        3    1    5    5  501    0 -0.67939685555E+02  0.12600974160E+02 -0.37803698600E+02  0.78763602323E+02  0.00000000000E+00 0. -1.
       -4    1    5    5    0  501  0.11613982896E+02  0.31244158583E+02  0.57551532563E+01  0.33826082145E+02  0.00000000000E+00 0.  1.
</event>
<event>
 9   1  0.7570500E-01  0.2500018E+03  0.7546771E-02  0.1113304E+00
       21   -1    0    0  503  502  0.00000000000E+00  0.00000000000E+00  0.46403831201E+03  0.46403831201E+03  0.00000000000E+00 0.  1.
       21   -1    0    0  502  503 -0.00000000000E+00 -0.00000000000E+00 -0.33672283849E+02  0.33672283849E+02  0.00000000000E+00 0.  1.
       25    2    1    2    0    0  0.00000000000E+00  0.00000000000E+00  0.43036602816E+03  0.49771059586E+03  0.25000183807E+03 0.  0.
       24    2    3    3    0    0  0.29252026257E+01 -0.90555593984E+02  0.16496506852E+03  0.20594438150E+03  0.83610657362E+02 0.  0.
      -24    2    3    3    0    0 -0.29252026257E+01  0.90555593984E+02  0.26540095964E+03  0.29176621437E+03  0.80504546802E+02 0.  0.
      -13    1    4    4    0    0  0.34462397959E+02 -0.22234059887E+02  0.93798222760E+02  0.10237244202E+03  0.00000000000E+00 0.  1.
       14    1    4    4    0    0 -0.31537195333E+02 -0.68321534097E+02  0.71166845763E+02  0.10357193948E+03  0.00000000000E+00 0. -1.
        1    1    5    5  501    0  0.16037892795E+02  0.13631250341E+02  0.81154151799E+01  0.22558478555E+02  0.00000000000E+00 0. -1.
       -2    1    5    5    0  501 -0.18963095421E+02  0.76924343643E+02  0.25728554446E+03  0.26920773581E+03  0.00000000000E+00 0.  1.
</event>
<event>
 9   1  0.7570500E-01  0.2499973E+03  0.7546771E-02  0.1113307E+00
       21   -1    0    0  503  502  0.00000000000E+00  0.00000000000E+00  0.32444874483E+03  0.32444874483E+03  0.00000000000E+00 0. -1.
       21   -1    0    0  502  503 -0.00000000000E+00 -0.00000000000E+00 -0.48157551741E+02  0.48157551741E+02  0.00000000000E+00 0. -1.
       25    2    1    2    0    0  0.00000000000E+00  0.14210854715E-13  0.27629119309E+03  0.37260629657E+03  0.24999725772E+03 0.  0.
       24    2    3    3    0    0  0.48545234638E+02  0.73702795988E+02  0.82988929775E+02  0.14505425849E+03  0.79779906607E+02 0.  0.
      -24    2    3    3    0    0 -0.48545234638E+02 -0.73702795988E+02  0.19330226331E+03  0.22755203808E+03  0.81396701962E+02 0.  0.
      -13    1    4    4    0    0  0.13884015522E+02  0.73490705761E+02  0.27614056171E+02  0.79725691082E+02  0.00000000000E+00 0.  1.
       14    1    4    4    0    0  0.34661219116E+02  0.21209022687E+00  0.55374873604E+02  0.65328567408E+02  0.00000000000E+00 0. -1.
        3    1    5    5  501    0  0.18468976591E+02 -0.21026243447E+02  0.19924981531E+02  0.34354197689E+02  0.00000000000E+00 0. -1.
       -4    1    5    5    0  501 -0.67014211229E+02 -0.52676552541E+02  0.17337728178E+03  0.19319784039E+03  0.00000000000E+00 0.  1.
</event>
<event>
 9   1  0.7570500E-01  0.2499999E+03  0.7546771E-02  0.1113305E+00
       21   -1    0    0  503  502  0.00000000000E+00  0.00000000000E+00  0.83968233371E+02  0.83968233371E+02  0.00000000000E+00 0.  1.
       21   -1    0    0  502  503 -0.00000000000E+00 -0.00000000000E+00 -0.18608208456E+03  0.18608208456E+03  0.00000000000E+00 0.  1.
       25    2    1    2    0    0  0.71054273576E-14  0.00000000000E+00 -0.10211385119E+03  0.27005031793E+03  0.24999987122E+03 0.  0.
       24    2    3    3    0    0  0.34216329546E+02  0.22145248073E+02 -0.14458104179E+03  0.17038249057E+03  0.80407376693E+02 0.  0.
      -24    2    3    3    0    0 -0.34216329546E+02 -0.22145248073E+02  0.42467190601E+02  0.99667827364E+02  0.80430369351E+02 0.  0.
      -13    1    4    4    0    0 -0.74629996512E+01 -0.24026356325E+02 -0.62667890382E+02  0.67529450219E+02  0.00000000000E+00 0.  1.
       14    1    4    4    0    0  0.41679329198E+02  0.46171604398E+02 -0.81913151411E+02  0.10285304035E+03  0.00000000000E+00 0. -1.
        3    1    5    5  501    0 -0.15938964348E+02  0.81195389512E+00 -0.22959671420E+02  0.27961694608E+02  0.00000000000E+00 0. -1.
       -4    1    5    5    0  501 -0.18277365199E+02 -0.22957201969E+02  0.65426862022E+02  0.71706132756E+02  0.00000000000E+00 0.  1.
</event>
<event>
 9   1  0.7570500E-01  0.2500019E+03  0.7546771E-02  0.1113304E+00
       21   -1    0    0  503  502  0.00000000000E+00  0.00000000000E+00  0.11805514174E+02  0.11805514174E+02  0.00000000000E+00 0. -1.
       21   -1    0    0  502  503 -0.00000000000E+00 -0.00000000000E+00 -0.13235536469E+04  0.13235536469E+04  0.00000000000E+00 0. -1.
       25    2    1    2    0    0  0.00000000000E+00  0.00000000000E+00 -0.13117481327E+04  0.13353591610E+04  0.25000185070E+03 0.  0.
       24    2    3    3    0    0  0.37786691175E+02  0.85768393629E+02 -0.63186842661E+03  0.64423449238E+03  0.83644015004E+02 0.  0.
      -24    2    3    3    0    0 -0.37786691175E+02 -0.85768393629E+02 -0.67987970606E+03  0.69112466864E+03  0.81442258795E+02 0.  0.
      -13    1    4    4    0    0  0.14743944300E+02 -0.74423915303E+01 -0.25980387774E+02  0.30785607581E+02  0.00000000000E+00 0.  1.
       14    1    4    4    0    0  0.23042746875E+02  0.93210785159E+02 -0.60588803884E+03  0.61344888480E+03  0.00000000000E+00 0. -1.
        3    1    5    5  501    0 -0.33383165122E+01 -0.80313726158E+01 -0.34258849058E+01  0.93479404478E+01  0.00000000000E+00 0. -1.
       -4    1    5    5    0  501 -0.34448374663E+02 -0.77737021013E+02 -0.67645382116E+03  0.68177672820E+03  0.00000000000E+00 0.  1.
</event>
<event>
 9   1  0.7570500E-01  0.2500059E+03  0.7546771E-02  0.1113301E+00
       21   -1    0    0  503  502  0.00000000000E+00  0.00000000000E+00  0.45136654410E+03  0.45136654410E+03  0.00000000000E+00 0. -1.
       21   -1    0    0  502  503 -0.00000000000E+00 -0.00000000000E+00 -0.34618734694E+02  0.34618734694E+02  0.00000000000E+00 0. -1.
       25    2    1    2    0    0 -0.14210854715E-13  0.14210854715E-13  0.41674780941E+03  0.48598527880E+03  0.25000590905E+03 0.  0.
       24    2    3    3    0    0 -0.78564862540E+02  0.52664801088E+02  0.23483052597E+03  0.26483179693E+03  0.77746291463E+02 0.  0.
      -24    2    3    3    0    0  0.78564862540E+02 -0.52664801088E+02  0.18191728344E+03  0.22115348187E+03  0.82879102494E+02 0.  0.
      -13    1    4    4    0    0 -0.51161353843E+02  0.20364763062E+02  0.47344490834E+02  0.72620303731E+02  0.00000000000E+00 0.  1.
       14    1    4    4    0    0 -0.27403508697E+02  0.32300038026E+02  0.18748603514E+03  0.19221149320E+03  0.00000000000E+00 0. -1.
        3    1    5    5  501    0  0.95716887086E+02 -0.49710421168E+02  0.14929681406E+03  0.18418031147E+03  0.00000000000E+00 0. -1.
       -4    1    5    5    0  501 -0.17152024545E+02 -0.29543799205E+01  0.32620469382E+02  0.36973170400E+02  0.00000000000E+00 0.  1.
</event>
<event>
 9   1  0.7570500E-01  0.2500018E+03  0.7546771E-02  0.1113304E+00
       21   -1    0    0  503  502  0.00000000000E+00  0.00000000000E+00  0.52596797355E+03  0.52596797355E+03  0.00000000000E+00 0. -1.
       21   -1    0    0  502  503 -0.00000000000E+00 -0.00000000000E+00 -0.29707550122E+02  0.29707550122E+02  0.00000000000E+00 0. -1.
       25    2    1    2    0    0 -0.71054273576E-14  0.00000000000E+00  0.49626042342E+03  0.55567552367E+03  0.25000175949E+03 0.  0.
       24    2    3    3    0    0 -0.33525500648E+02  0.60511521834E+02  0.36752376857E+03  0.38759958890E+03  0.10185341128E+03 0.  0.
      -24    2    3    3    0    0  0.33525500648E+02 -0.60511521834E+02  0.12873665486E+03  0.16807593476E+03  0.83010782882E+02 0.  0.
      -13    1    4    4    0    0  0.31321556390E+02  0.40692864255E+01  0.15796792036E+03  0.16109457734E+03  0.00000000000E+00 0.  1.
       14    1    4    4    0    0 -0.64847057038E+02  0.56442235408E+02  0.20955584821E+03  0.22650501156E+03  0.00000000000E+00 0. -1.
        3    1    5    5  501    0  0.56020078800E+02 -0.32237601695E+02  0.10947677550E+03  0.12713251577E+03  0.00000000000E+00 0. -1.
       -4    1    5    5    0  501 -0.22494578152E+02 -0.28273920139E+02  0.19259879359E+02  0.40943418997E+02  0.00000000000E+00 0.  1.
</event>
<event>
 9   1  0.7570500E-01  0.2499935E+03  0.7546771E-02  0.1113309E+00
       21   -1    0    0  503  502  0.00000000000E+00  0.00000000000E+00  0.18477357391E+03  0.18477357391E+03  0.00000000000E+00 0.  1.
       21   -1    0    0  502  503 -0.00000000000E+00 -0.00000000000E+00 -0.84558533583E+02  0.84558533583E+02  0.00000000000E+00 0.  1.
       25    2    1    2    0    0  0.00000000000E+00  0.00000000000E+00  0.10021504032E+03  0.26933210749E+03  0.24999345955E+03 0.  0.
       24    2    3    3    0    0  0.65303968458E+02  0.64677270478E+02  0.18053365951E+02  0.12281402788E+03  0.79433014609E+02 0.  0.
      -24    2    3    3    0    0 -0.65303968458E+02 -0.64677270478E+02  0.82161674370E+02  0.14651807961E+03  0.79178591191E+02 0.  0.
      -13    1    4    4    0    0  0.75908910584E+02  0.24532391249E+02  0.15064437207E+02  0.81184593334E+02  0.00000000000E+00 0.  1.
       14    1    4    4    0    0 -0.10604942126E+02  0.40144879230E+02  0.29889287444E+01  0.41629434549E+02  0.00000000000E+00 0. -1.
        3    1    5    5  501    0 -0.10529936695E+02 -0.21819095979E+02  0.72327893238E+02  0.76277628807E+02  0.00000000000E+00 0. -1.
       -4    1    5    5    0  501 -0.54774031763E+02 -0.42858174500E+02  0.98337811324E+01  0.70240450798E+02  0.00000000000E+00 0.  1.
</event>
<event>
 9   1  0.7570500E-01  0.2499976E+03  0.7546771E-02  0.1113306E+00
       21   -1    0    0  503  502  0.00000000000E+00  0.00000000000E+00  0.80783719203E+02  0.80783719203E+02  0.00000000000E+00 0. -1.
       21   -1    0    0  502  503 -0.00000000000E+00 -0.00000000000E+00 -0.19341394174E+03  0.19341394174E+03  0.00000000000E+00 0. -1.
       25    2    1    2    0    0  0.00000000000E+00  0.00000000000E+00 -0.11263022254E+03  0.27419766095E+03  0.24999758047E+03 0.  0.
       24    2    3    3    0    0 -0.75791948172E+02  0.25923636655E+02 -0.10950633038E+03  0.15701981002E+03  0.79038787951E+02 0.  0.
      -24    2    3    3    0    0  0.75791948172E+02 -0.25923636655E+02 -0.31238921628E+01  0.11717785093E+03  0.85465991486E+02 0.  0.
      -13    1    4    4    0    0 -0.70564965974E+02  0.38003637862E+02 -0.46514750490E+02  0.92667755594E+02  0.00000000000E+00 0.  1.
       14    1    4    4    0    0 -0.52269821976E+01 -0.12080001207E+02 -0.62991579888E+02  0.64352054426E+02  0.00000000000E+00 0. -1.
        3    1    5    5  501    0 -0.10257565987E+02  0.47711823563E+01  0.19963051577E+02  0.22945702633E+02  0.00000000000E+00 0. -1.
       -4    1    5    5    0  501  0.86049514158E+02 -0.30694819011E+02 -0.23086943739E+02  0.94232148295E+02  0.00000000000E+00 0.  1.
</event>
<event>
 9   1  0.7570500E-01  0.2500003E+03  0.7546771E-02  0.1113305E+00
       21   -1    0    0  503  502  0.00000000000E+00  0.00000000000E+00  0.45130573989E+02  0.45130573989E+02  0.00000000000E+00 0. -1.
       21   -1    0    0  502  503 -0.00000000000E+00 -0.00000000000E+00 -0.34621846121E+03  0.34621846121E+03  0.00000000000E+00 0. -1.
       25    2    1    2    0    0  0.00000000000E+00 -0.14210854715E-13 -0.30108788722E+03  0.39134903520E+03  0.25000030304E+03 0.  0.
       24    2    3    3    0    0  0.26766081399E+02 -0.78418296879E+02 -0.22920084008E+03  0.25589717672E+03  0.78003125312E+02 0.  0.
      -24    2    3    3    0    0 -0.26766081399E+02  0.78418296879E+02 -0.71887047144E+02  0.13545185849E+03  0.79458202985E+02 0.  0.
      -13    1    4    4    0    0  0.21394417700E+02 -0.82555105645E+02 -0.23300580431E+03  0.24812249277E+03  0.00000000000E+00 0.  1.
       14    1    4    4    0    0  0.53716636986E+01  0.41368087658E+01  0.38049642290E+01  0.77746839447E+01  0.00000000000E+00 0. -1.
        1    1    5    5  501    0  0.29715072868E+01  0.74361317533E+02 -0.22654761627E+02  0.77792503656E+02  0.00000000000E+00 0. -1.
       -2    1    5    5    0  501 -0.29737588686E+02  0.40569793466E+01 -0.49232285517E+02  0.57659354830E+02  0.00000000000E+00 0.  1.
</event>
<event>
 9   1  0.7570500E-01  0.2499985E+03  0.7546771E-02  0.1113306E+00
       21   -1    0    0  503  502  0.00000000000E+00  0.00000000000E+00  0.61081679120E+03  0.61081679120E+03  0.00000000000E+00 0. -1.
       21   -1    0    0  502  503 -0.00000000000E+00 -0.00000000000E+00 -0.25580196656E+02  0.25580196656E+02  0.00000000000E+00 0. -1.
       25    2    1    2    0    0  0.00000000000E+00  0.00000000000E+00  0.58523659454E+03  0.63639698785E+03  0.24999850911E+03 0.  0.
       24    2    3    3    0    0  0.53891504978E+02 -0.69575737548E+02  0.18624868485E+03  0.22136529285E+03  0.81049014229E+02 0.  0.
      -24    2    3    3    0    0 -0.53891504978E+02  0.69575737548E+02  0.39898790969E+03  0.41503169500E+03  0.72903211247E+02 0.  0.
      -13    1    4    4    0    0 -0.17273900687E+02 -0.25190473322E+02  0.24468633663E+02  0.39136448797E+02  0.00000000000E+00 0.  1.
       14    1    4    4    0    0  0.71165405664E+02 -0.44385264226E+02  0.16178005119E+03  0.18222884406E+03  0.00000000000E+00 0. -1.
        3    1    5    5  501    0  0.16653334934E+02  0.32033668445E+01  0.73896850763E+02  0.75817805799E+02  0.00000000000E+00 0. -1.
       -4    1    5    5    0  501 -0.70544839912E+02  0.66372370704E+02  0.32509105893E+03  0.33921388920E+03  0.00000000000E+00 0.  1.
</event>
<event>
 9   1  0.7570500E-01  0.2499975E+03  0.7546771E-02  0.1113306E+00
       21   -1    0    0  503  502  0.00000000000E+00  0.00000000000E+00  0.25555958005E+03  0.25555958005E+03  0.00000000000E+00 0. -1.
       21   -1    0    0  502  503 -0.00000000000E+00 -0.00000000000E+00 -0.61139131352E+02  0.61139131352E+02  0.00000000000E+00 0. -1.
       25    2    1    2    0    0 -0.35527136788E-14  0.71054273576E-14  0.19442044870E+03  0.31669871140E+03  0.24999752585E+03 0.  0.
       24    2    3    3    0    0  0.31919659541E+02  0.86723793849E+01 -0.15210794986E+02  0.89538601072E+02  0.81802921515E+02 0.  0.
      -24    2    3    3    0    0 -0.31919659541E+02 -0.86723793849E+01  0.20963124368E+03  0.22716011033E+03  0.81008533920E+02 0.  0.
      -13    1    4    4    0    0  0.84433851491E+01  0.36842196754E+02  0.16326337054E+02  0.41172654712E+02  0.00000000000E+00 0.  1.
       14    1    4    4    0    0  0.23476274392E+02 -0.28169817369E+02 -0.31537132040E+02  0.48365946359E+02  0.00000000000E+00 0. -1.
        3    1    5    5  501    0  0.12009963084E+02 -0.88548361154E+01  0.16074320531E+03  0.16143427576E+03  0.00000000000E+00 0. -1.
       -4    1    5    5    0  501 -0.43929622625E+02  0.18245673048E+00  0.48888038373E+02  0.65725834573E+02  0.00000000000E+00 0.  1.
</event>
<event>
 9   1  0.7570500E-01  0.2500045E+03  0.7546771E-02  0.1113302E+00
       21   -1    0    0  503  502  0.00000000000E+00  0.00000000000E+00  0.27050411404E+03  0.27050411404E+03  0.00000000000E+00 0. -1.
       21   -1    0    0  502  503 -0.00000000000E+00 -0.00000000000E+00 -0.57764612059E+02  0.57764612059E+02  0.00000000000E+00 0. -1.
       25    2    1    2    0    0  0.14210854715E-13 -0.53290705182E-14  0.21273950198E+03  0.32826872610E+03  0.25000452163E+03 0.  0.
       24    2    3    3    0    0 -0.95697277923E+02 -0.23878260449E+01  0.11151514794E+03  0.16763421446E+03  0.80634551652E+02 0.  0.
      -24    2    3    3    0    0  0.95697277923E+02  0.23878260449E+01  0.10122435404E+03  0.16063451165E+03  0.79958775418E+02 0.  0.
      -13    1    4    4    0    0 -0.29544559815E+02  0.33504051654E+02  0.19449692759E+02  0.48720560755E+02  0.00000000000E+00 0.  1.
       14    1    4    4    0    0 -0.66152718108E+02 -0.35891877699E+02  0.92065455185E+02  0.11891365370E+03  0.00000000000E+00 0. -1.
        3    1    5    5  501    0  0.27542848110E+02  0.92765936810E+01  0.85564530314E+02  0.90365660072E+02  0.00000000000E+00 0. -1.
       -4    1    5    5    0  501  0.68154429813E+02 -0.68887676362E+01  0.15659823726E+02  0.70268851576E+02  0.00000000000E+00 0.  1.
</event>
<event>
 9   1  0.7570500E-01  0.2500002E+03  0.7546771E-02  0.1113305E+00
       21   -1    0    0  503  502  0.00000000000E+00  0.00000000000E+00  0.15465099689E+03  0.15465099689E+03  0.00000000000E+00 0. -1.
       21   -1    0    0  502  503 -0.00000000000E+00 -0.00000000000E+00 -0.10103412167E+03  0.10103412167E+03  0.00000000000E+00 0. -1.
       25    2    1    2    0    0  0.00000000000E+00  0.00000000000E+00  0.53616875219E+02  0.25568511856E+03  0.25000022109E+03 0.  0.
       24    2    3    3    0    0  0.19706698089E+02 -0.26504939061E+02  0.12000793882E+03  0.14739404345E+03  0.78944492662E+02 0.  0.
      -24    2    3    3    0    0 -0.19706698089E+02  0.26504939061E+02 -0.66391063600E+02  0.10829107511E+03  0.78919692583E+02 0.  0.
      -13    1    4    4    0    0  0.19468619334E+02 -0.24133717239E+02  0.38887167495E+01  0.31250369030E+02  0.00000000000E+00 0.  1.
       14    1    4    4    0    0  0.23807875466E+00 -0.23712218215E+01  0.11611922207E+03  0.11614367442E+03  0.00000000000E+00 0. -1.
        3    1    5    5  501    0  0.30791647749E+02  0.10113017899E+02 -0.26974916304E+02  0.42166868649E+02  0.00000000000E+00 0. -1.
       -4    1    5    5    0  501 -0.50498345838E+02  0.16391921162E+02 -0.39416147296E+02  0.66124206456E+02  0.00000000000E+00 0.  1.
</event>
<event>
 9   1  0.7570500E-01  0.2499987E+03  0.7546771E-02  0.1113306E+00
       21   -1    0    0  503  502  0.00000000000E+00  0.00000000000E+00  0.17885763280E+04  0.17885763280E+04  0.00000000000E+00 0.  1.
       21   -1    0    0  502  503 -0.00000000000E+00 -0.00000000000E+00 -0.87359103508E+01  0.87359103508E+01  0.00000000000E+00 0.  1.
       25    2    1    2    0    0  0.00000000000E+00 -0.14210854715E-13  0.17798404176E+04  0.17973122383E+04  0.24999873965E+03 0.  0.
       24    2    3    3    0    0  0.46088910670E+02  0.82615357181E+02  0.96013226977E+03  0.96830449474E+03  0.82523537019E+02 0.  0.
      -24    2    3    3    0    0 -0.46088910670E+02 -0.82615357181E+02  0.81970814788E+03  0.82900774361E+03  0.79893093123E+02 0.  0.
      -13    1    4    4    0    0  0.55922073548E+02  0.20587466624E+02  0.36046133573E+03  0.36535393340E+03  0.00000000000E+00 0.  1.
       14    1    4    4    0    0 -0.98331628780E+01  0.62027890557E+02  0.59967093403E+03  0.60295056134E+03  0.00000000000E+00 0. -1.
        1    1    5    5  501    0 -0.71855168349E+01 -0.44174232663E+02  0.13727107592E+03  0.14438262627E+03  0.00000000000E+00 0. -1.
       -2    1    5    5    0  501 -0.38903393836E+02 -0.38441124518E+02  0.68243707196E+03  0.68462511734E+03  0.00000000000E+00 0.  1.
</event>
<event>
 9   1  0.7570500E-01  0.2499988E+03  0.7546771E-02  0.1113306E+00
       21   -1    0    0  503  502  0.00000000000E+00  0.00000000000E+00  0.70769886726E+03  0.70769886726E+03  0.00000000000E+00 0.  1.
       21   -1    0    0  502  503 -0.00000000000E+00 -0.00000000000E+00 -0.22078388250E+02  0.22078388250E+02  0.00000000000E+00 0.  1.
       25    2    1    2    0    0  0.00000000000E+00 -0.71054273576E-14  0.68562047901E+03  0.72977725551E+03  0.24999880284E+03 0.  0.
       24    2    3    3    0    0  0.84818908038E+02  0.44527662255E+02  0.37340892364E+03  0.39362005422E+03  0.79533407850E+02 0.  0.
      -24    2    3    3    0    0 -0.84818908038E+02 -0.44527662255E+02  0.31221155537E+03  0.33615720129E+03  0.79678408654E+02 0.  0.
      -13    1    4    4    0    0  0.64273902056E+02  0.33480423093E+02  0.35891194650E+03  0.36615551144E+03  0.00000000000E+00 0.  1.
       14    1    4    4    0    0  0.20545005982E+02  0.11047239162E+02  0.14496977133E+02  0.27464542776E+02  0.00000000000E+00 0. -1.
        3    1    5    5  501    0 -0.94764687637E+02 -0.24547339238E+02  0.28261249213E+03  0.29908650688E+03  0.00000000000E+00 0. -1.
       -4    1    5    5    0  501  0.99457795994E+01 -0.19980323017E+02  0.29599063241E+02  0.37070694416E+02  0.00000000000E+00 0.  1.
</event>
<event>
 9   1  0.7570500E-01  0.2500006E+03  0.7546771E-02  0.1113304E+00
       21   -1    0    0  503  502  0.00000000000E+00  0.00000000000E+00  0.10514721890E+03  0.10514721890E+03  0.00000000000E+00 0. -1.
       21   -1    0    0  502  503 -0.00000000000E+00 -0.00000000000E+00 -0.14860189251E+03  0.14860189251E+03  0.00000000000E+00 0. -1.
       25    2    1    2    0    0  0.35527136788E-14 -0.71054273576E-14 -0.43454673612E+02  0.25374911140E+03  0.25000060576E+03 0.  0.
       24    2    3    3    0    0  0.11395442239E+02 -0.54962804342E+02  0.53634099579E+02  0.11558697291E+03  0.85632737340E+02 0.  0.
      -24    2    3    3    0    0 -0.11395442239E+02  0.54962804342E+02 -0.97088773191E+02  0.13816213849E+03  0.80695605008E+02 0.  0.
      -13    1    4    4    0    0  0.42553679740E+02 -0.19806109622E+02  0.49831566062E+02  0.68456428580E+02  0.00000000000E+00 0.  1.
       14    1    4    4    0    0 -0.31158237501E+02 -0.35156694720E+02  0.38025335168E+01  0.47130544332E+02  0.00000000000E+00 0. -1.
        3    1    5    5  501    0  0.11326932363E+02  0.47791353692E+02 -0.10256077599E+03  0.11371466773E+03  0.00000000000E+00 0. -1.
       -4    1    5    5    0  501 -0.22722374602E+02  0.71714506498E+01  0.54720028018E+01  0.24447470761E+02  0.00000000000E+00 0.  1.
</event>
<event>
 9   1  0.7570500E-01  0.2499994E+03  0.7546771E-02  0.1113305E+00
       21   -1    0    0  503  502  0.00000000000E+00  0.00000000000E+00  0.28789302131E+03  0.28789302131E+03  0.00000000000E+00 0.  1.
       21   -1    0    0  502  503 -0.00000000000E+00 -0.00000000000E+00 -0.54273366084E+02  0.54273366084E+02  0.00000000000E+00 0.  1.
       25    2    1    2    0    0  0.00000000000E+00  0.00000000000E+00  0.23361965523E+03  0.34216638740E+03  0.24999938671E+03 0.  0.
       24    2    3    3    0    0  0.26507637015E+02  0.67023106618E+02  0.30072450348E+02  0.11226887819E+03  0.80654802082E+02 0.  0.
      -24    2    3    3    0    0 -0.26507637015E+02 -0.67023106618E+02  0.20354720488E+03  0.22989750921E+03  0.78909115349E+02 0.  0.
      -13    1    4    4    0    0  0.65903153076E+01  0.75323790963E+02  0.43130136921E+02  0.87047771090E+02  0.00000000000E+00 0.  1.
       14    1    4    4    0    0  0.19917321708E+02 -0.83006843458E+01 -0.13057686573E+02  0.25221107098E+02  0.00000000000E+00 0. -1.
        3    1    5    5  501    0 -0.41511675516E+02 -0.25432899032E+02  0.48694411211E+02  0.68856352216E+02  0.00000000000E+00 0. -1.
       -4    1    5    5    0  501  0.15004038501E+02 -0.41590207586E+02  0.15485279367E+03  0.16104115699E+03  0.00000000000E+00 0.  1.
</event>
<event>
 9   1  0.7570500E-01  0.2500004E+03  0.7546771E-02  0.1113305E+00
       21   -1    0    0  503  502  0.00000000000E+00  0.00000000000E+00  0.13317397200E+03  0.13317397200E+03  0.00000000000E+00 0.  1.
       21   -1    0    0  502  503 -0.00000000000E+00 -0.00000000000E+00 -0.11732808888E+03  0.11732808888E+03  0.00000000000E+00 0.  1.
       25    2    1    2    0    0  0.00000000000E+00  0.00000000000E+00  0.15845883120E+02  0.25050206087E+03  0.25000038098E+03 0.  0.
       24    2    3    3    0    0  0.34624085943E+02  0.38168197029E+02  0.88338751160E+02  0.13038717825E+03  0.80879185856E+02 0.  0.
      -24    2    3    3    0    0 -0.34624085943E+02 -0.38168197029E+02 -0.72492868040E+02  0.12011488262E+03  0.80726269071E+02 0.  0.
      -13    1    4    4    0    0 -0.20067856065E+02  0.33465685491E+02  0.50028155627E+02  0.63446728110E+02  0.00000000000E+00 0.  1.
       14    1    4    4    0    0  0.54691942009E+02  0.47025115382E+01  0.38310595533E+02  0.66940450144E+02  0.00000000000E+00 0. -1.
        3    1    5    5  501    0 -0.36369255163E+02 -0.48621543090E+02 -0.16213407723E+02  0.62846254968E+02  0.00000000000E+00 0. -1.
       -4    1    5    5    0  501  0.17451692196E+01  0.10453346060E+02 -0.56279460318E+02  0.57268627652E+02  0.00000000000E+00 0.  1.
</event>
<event>
 9   1  0.7570500E-01  0.2500080E+03  0.7546771E-02  0.1113300E+00
       21   -1    0    0  503  502  0.00000000000E+00  0.00000000000E+00  0.37901291323E+03  0.37901291323E+03  0.00000000000E+00 0. -1.
       21   -1    0    0  502  503 -0.00000000000E+00 -0.00000000000E+00 -0.41228150045E+02  0.41228150045E+02  0.00000000000E+00 0. -1.
       25    2    1    2    0    0  0.00000000000E+00  0.00000000000E+00  0.33778476319E+03  0.42024106328E+03  0.25000800992E+03 0.  0.
       24    2    3    3    0    0 -0.80753313291E+02  0.41335911811E+02  0.22188908338E+03  0.25285167136E+03  0.80432873684E+02 0.  0.
      -24    2    3    3    0    0  0.80753313291E+02 -0.41335911811E+02  0.11589567980E+03  0.16738939192E+03  0.79734840056E+02 0.  0.
      -13    1    4    4    0    0 -0.50652466482E+02  0.58487422053E+02  0.19233407614E+03  0.20731340464E+03  0.00000000000E+00 0.  1.
       14    1    4    4    0    0 -0.30100846809E+02 -0.17151510242E+02  0.29555007247E+02  0.45538266717E+02  0.00000000000E+00 0. -1.
        3    1    5    5  501    0  0.44902224227E+02  0.91682375704E+01  0.88507714158E+02  0.99668860665E+02  0.00000000000E+00 0. -1.
       -4    1    5    5    0  501  0.35851089064E+02 -0.50504149382E+02  0.27387965645E+02  0.67720531259E+02  0.00000000000E+00 0.  1.
</event>
<event>
 9   1  0.7570500E-01  0.2500003E+03  0.7546771E-02  0.1113305E+00
       21   -1    0    0  503  502  0.00000000000E+00  0.00000000000E+00  0.85093893897E+01  0.85093893897E+01  0.00000000000E+00 0. -1.
       21   -1    0    0  502  503 -0.00000000000E+00 -0.00000000000E+00 -0.18362107053E+04  0.18362107053E+04  0.00000000000E+00 0. -1.
       25    2    1    2    0    0  0.71054273576E-14  0.71054273576E-14 -0.18277013159E+04  0.18447200947E+04  0.25000025515E+03 0.  0.
       24    2    3    3    0    0  0.39766441056E+02 -0.46853568125E+02 -0.14626409007E+04  0.14661348858E+04  0.80352176459E+02 0.  0.
      -24    2    3    3    0    0 -0.39766441056E+02  0.46853568125E+02 -0.36506041520E+03  0.37858520889E+03  0.79252930297E+02 0.  0.
      -13    1    4    4    0    0 -0.14139781905E+02 -0.13654495750E+02 -0.85085122496E+03  0.85107824887E+03  0.00000000000E+00 0.  1.
       14    1    4    4    0    0  0.53906222961E+02 -0.33199072375E+02 -0.61178967578E+03  0.61505663696E+03  0.00000000000E+00 0. -1.
        1    1    5    5  501    0 -0.39418626680E+02  0.37067565191E+02 -0.36479840905E+03  0.36878952231E+03  0.00000000000E+00 0. -1.
       -2    1    5    5    0  501 -0.34781437540E+00  0.97860029342E+01 -0.26200614793E+00  0.97956865757E+01  0.00000000000E+00 0.  1.
</event>
<event>
 9   1  0.7570500E-01  0.2499271E+03  0.7546771E-02  0.1113351E+00
       21   -1    0    0  503  502  0.00000000000E+00  0.00000000000E+00  0.34581647739E+03  0.34581647739E+03  0.00000000000E+00 0.  1.
       21   -1    0    0  502  503 -0.00000000000E+00 -0.00000000000E+00 -0.45156575471E+02  0.45156575471E+02  0.00000000000E+00 0.  1.
       25    2    1    2    0    0  0.00000000000E+00  0.00000000000E+00  0.30065990192E+03  0.39097305286E+03  0.24992709225E+03 0.  0.
       24    2    3    3    0    0  0.11870735587E+02 -0.56006512401E+02  0.34165518348E+02  0.10526054638E+03  0.81454626539E+02 0.  0.
      -24    2    3    3    0    0 -0.11870735587E+02  0.56006512401E+02  0.26649438357E+03  0.28571250649E+03  0.85643073819E+02 0.  0.
      -13    1    4    4    0    0  0.18335396213E+02  0.12703935523E+02 -0.87838805343E+01  0.23973595669E+02  0.00000000000E+00 0.  1.
       14    1    4    4    0    0 -0.64646606262E+01 -0.68710447923E+02  0.42949398882E+02  0.81286950707E+02  0.00000000000E+00 0. -1.
        3    1    5    5  501    0  0.36531221622E+02  0.33778108487E+02  0.12869086025E+03  0.13797401306E+03  0.00000000000E+00 0. -1.
       -4    1    5    5    0  501 -0.48401957209E+02  0.22228403914E+02  0.13780352332E+03  0.14773849343E+03  0.00000000000E+00 0.  1.
</event>
<event>
 9   1  0.7570500E-01  0.2500048E+03  0.7546771E-02  0.1113302E+00
       21   -1    0    0  503  502  0.00000000000E+00  0.00000000000E+00  0.14070786867E+03  0.14070786867E+03  0.00000000000E+00 0. -1.
       21   -1    0    0  502  503 -0.00000000000E+00 -0.00000000000E+00 -0.11104990400E+03  0.11104990400E+03  0.00000000000E+00 0. -1.
       25    2    1    2    0    0 -0.14210854715E-13  0.00000000000E+00  0.29657964669E+02  0.25175777267E+03  0.25000476242E+03 0.  0.
       24    2    3    3    0    0 -0.88240444627E+02 -0.47004490890E+01  0.48877226046E+02  0.12901941439E+03  0.80302900163E+02 0.  0.
      -24    2    3    3    0    0  0.88240444627E+02  0.47004490890E+01 -0.19219261377E+02  0.12273835828E+03  0.82987073062E+02 0.  0.
      -13    1    4    4    0    0 -0.20761804710E+02 -0.38498334129E+02  0.21492341978E+02  0.48734946694E+02  0.00000000000E+00 0.  1.
       14    1    4    4    0    0 -0.67478639917E+02  0.33797885040E+02  0.27384884068E+02  0.80284467699E+02  0.00000000000E+00 0. -1.
        1    1    5    5  501    0  0.63384426706E+02 -0.32618707977E+02 -0.28807029797E+02  0.76885698440E+02  0.00000000000E+00 0. -1.
       -2    1    5    5    0  501  0.24856017921E+02  0.37319157066E+02  0.95877684200E+01  0.45852659839E+02  0.00000000000E+00 0.  1.
</event>
<event>
 9   1  0.7570500E-01  0.2499978E+03  0.7546771E-02  0.1113306E+00
       21   -1    0    0  503  502  0.00000000000E+00  0.00000000000E+00  0.11206581252E+03  0.11206581252E+03  0.00000000000E+00 0. -1.
       21   -1    0    0  502  503 -0.00000000000E+00 -0.00000000000E+00 -0.13942450467E+03  0.13942450467E+03  0.00000000000E+00 0. -1.
       25    2    1    2    0    0  0.00000000000E+00  0.00000000000E+00 -0.27358692151E+02  0.25149031719E+03  0.24999776320E+03 0.  0.
       24    2    3    3    0    0 -0.32196683438E+01 -0.95516425081E+02 -0.35990410477E+01  0.12402151324E+03  0.78959666454E+02 0.  0.
      -24    2    3    3    0    0  0.32196683438E+01  0.95516425081E+02 -0.23759651104E+02  0.12746880395E+03  0.80932201467E+02 0.  0.
      -13    1    4    4    0    0  0.32511090981E+02 -0.17460347764E+02 -0.90720253121E+01  0.38001795012E+02  0.00000000000E+00 0.  1.
       14    1    4    4    0    0 -0.35730759325E+02 -0.78056077317E+02  0.54729842644E+01  0.86019718233E+02  0.00000000000E+00 0. -1.
        3    1    5    5  501    0  0.14130163498E+02  0.43033764225E+02  0.27756527380E+02  0.53122417077E+02  0.00000000000E+00 0. -1.
       -4    1    5    5    0  501 -0.10910495155E+02  0.52482660856E+02 -0.51516178483E+02  0.74346386870E+02  0.00000000000E+00 0.  1.
</event>
<event>
 9   1  0.7570500E-01  0.2500002E+03  0.7546771E-02  0.1113305E+00
       21   -1    0    0  503  502  0.00000000000E+00  0.00000000000E+00  0.13988995409E+03  0.13988995409E+03  0.00000000000E+00 0.  1.
       21   -1    0    0  502  503 -0.00000000000E+00 -0.00000000000E+00 -0.11169511425E+03  0.11169511425E+03  0.00000000000E+00 0.  1.
       25    2    1    2    0    0  0.35527136788E-14  0.00000000000E+00  0.28194839841E+02  0.25158506834E+03  0.25000019524E+03 0.  0.
       24    2    3    3    0    0 -0.13354530636E+02 -0.91169869025E+02  0.35827682666E+02  0.12725906393E+03  0.80130880441E+02 0.  0.
      -24    2    3    3    0    0  0.13354530636E+02  0.91169869025E+02 -0.76328428252E+01  0.12432600441E+03  0.83116824873E+02 0.  0.
      -13    1    4    4    0    0  0.23005909446E+02  0.63142994340E+00  0.30222284758E+01  0.23212161429E+02  0.00000000000E+00 0.  1.
       14    1    4    4    0    0 -0.36360440082E+02 -0.91801298969E+02  0.32805454190E+02  0.10404690250E+03  0.00000000000E+00 0. -1.
        1    1    5    5  501    0  0.11102360389E+02  0.40980947515E+02 -0.44883045103E+02  0.61783397472E+02  0.00000000000E+00 0. -1.
       -2    1    5    5    0  501  0.22521702471E+01  0.50188921510E+02  0.37250202278E+02  0.62542606940E+02  0.00000000000E+00 0.  1.
</event>
<event>
 9   1  0.7570500E-01  0.2500054E+03  0.7546771E-02  0.1113301E+00
       21   -1    0    0  503  502  0.00000000000E+00  0.00000000000E+00  0.10703947869E+04  0.10703947869E+04  0.00000000000E+00 0. -1.
       21   -1    0    0  502  503 -0.00000000000E+00 -0.00000000000E+00 -0.14598053685E+02  0.14598053685E+02  0.00000000000E+00 0. -1.
       25    2    1    2    0    0  0.00000000000E+00  0.00000000000E+00  0.10557967332E+04  0.10849928405E+04  0.25000544444E+03 0.  0.
       24    2    3    3    0    0  0.85791334773E+02  0.41525567193E+02  0.48958941584E+03  0.50514941317E+03  0.79960037975E+02 0.  0.
      -24    2    3    3    0    0 -0.85791334773E+02 -0.41525567193E+02  0.56620731733E+03  0.57984342737E+03  0.80889728701E+02 0.  0.
      -13    1    4    4    0    0  0.30073920968E+02  0.58651030213E+02  0.24514933309E+03  0.25385543048E+03  0.00000000000E+00 0.  1.
       14    1    4    4    0    0  0.55717413805E+02 -0.17125463021E+02  0.24444008275E+03  0.25129398269E+03  0.00000000000E+00 0. -1.
        3    1    5    5  501    0 -0.57480989648E+02 -0.66003691734E+02  0.40478861440E+03  0.41414293890E+03  0.00000000000E+00 0. -1.
       -4    1    5    5    0  501 -0.28310345125E+02  0.24478124542E+02  0.16141870293E+03  0.16570048847E+03  0.00000000000E+00 0.  1.
</event>
<event>
 9   1  0.7570500E-01  0.2500016E+03  0.7546771E-02  0.1113304E+00
       21   -1    0    0  503  502  0.00000000000E+00  0.00000000000E+00  0.37986765357E+03  0.37986765357E+03  0.00000000000E+00 0. -1.
       21   -1    0    0  502  503 -0.00000000000E+00 -0.00000000000E+00 -0.41133279852E+02  0.41133279852E+02  0.00000000000E+00 0. -1.
       25    2    1    2    0    0  0.71054273576E-14  0.00000000000E+00  0.33873437372E+03  0.42100093343E+03  0.25000162000E+03 0.  0.
       24    2    3    3    0    0  0.18945320052E+02  0.70154259188E+02  0.27662976665E+03  0.29741533357E+03  0.81555549261E+02 0.  0.
      -24    2    3    3    0    0 -0.18945320052E+02 -0.70154259188E+02  0.62104607076E+02  0.12358559985E+03  0.78331813697E+02 0.  0.
      -13    1    4    4    0    0 -0.23127025121E+02  0.55094611213E+02  0.19971258006E+03  0.20845956469E+03  0.00000000000E+00 0.  1.
       14    1    4    4    0    0  0.42072345173E+02  0.15059647975E+02  0.76917186583E+02  0.88955768882E+02  0.00000000000E+00 0. -1.
        1    1    5    5  501    0 -0.19519779063E+02 -0.12079174868E+02 -0.14726956925E+02  0.27272907811E+02  0.00000000000E+00 0. -1.
       -2    1    5    5    0  501  0.57445901194E+00 -0.58075084320E+02  0.76831564000E+02  0.96312692043E+02  0.00000000000E+00 0.  1.
</event>
<event>
 9   1  0.7570500E-01  0.2499993E+03  0.7546771E-02  0.1113305E+00
       21   -1    0    0  503  502  0.00000000000E+00  0.00000000000E+00  0.74998548115E+02  0.74998548115E+02  0.00000000000E+00 0. -1.
       21   -1    0    0  502  503 -0.00000000000E+00 -0.00000000000E+00 -0.20833616226E+03  0.20833616226E+03  0.00000000000E+00 0. -1.
       25    2    1    2    0    0  0.00000000000E+00 -0.57731597281E-14 -0.13333761414E+03  0.28333471037E+03  0.24999927751E+03 0.  0.
       24    2    3    3    0    0 -0.85206530403E+02  0.36715981932E+01 -0.11538139413E+03  0.16446466253E+03  0.80387347584E+02 0.  0.
      -24    2    3    3    0    0  0.85206530403E+02 -0.36715981932E+01 -0.17956220013E+02  0.11887004785E+03  0.80833340779E+02 0.  0.
      -13    1    4    4    0    0 -0.67650867164E+02  0.42255564831E+01 -0.24770329389E+02  0.72166920217E+02  0.00000000000E+00 0.  1.
       14    1    4    4    0    0 -0.17555663239E+02 -0.55395828984E+00 -0.90611064743E+02  0.92297742309E+02  0.00000000000E+00 0. -1.
        1    1    5    5  501    0  0.25006332545E+02 -0.38805568092E+02  0.24857390844E+01  0.46231674003E+02  0.00000000000E+00 0. -1.
       -2    1    5    5    0  501  0.60200197858E+02  0.35133969899E+02 -0.20441959097E+02  0.72638373845E+02  0.00000000000E+00 0.  1.
</event>
<event>
 9   1  0.7570500E-01  0.2499997E+03  0.7546771E-02  0.1113305E+00
       21   -1    0    0  503  502  0.00000000000E+00  0.00000000000E+00  0.59340654740E+03  0.59340654740E+03  0.00000000000E+00 0.  1.
       21   -1    0    0  502  503 -0.00000000000E+00 -0.00000000000E+00 -0.26330960430E+02  0.26330960430E+02  0.00000000000E+00 0.  1.
       25    2    1    2    0    0 -0.14210854715E-13  0.00000000000E+00  0.56707558697E+03  0.61973750783E+03  0.24999971455E+03 0.  0.
       24    2    3    3    0    0 -0.72356137366E+02  0.63185137764E+02  0.28576894016E+03  0.31191365094E+03  0.79990413384E+02 0.  0.
      -24    2    3    3    0    0  0.72356137366E+02 -0.63185137764E+02  0.28130664681E+03  0.30782385689E+03  0.79964523899E+02 0.  0.
      -13    1    4    4    0    0 -0.84634727963E+02  0.70914881519E+02  0.25599015819E+03  0.27878830443E+03  0.00000000000E+00 0.  1.
       14    1    4    4    0    0  0.12278590598E+02 -0.77297437547E+01  0.29778781977E+02  0.33125346513E+02  0.00000000000E+00 0. -1.
        3    1    5    5  501    0 -0.13387323687E+02  0.21007625224E+01  0.13417232680E+02  0.19069760655E+02  0.00000000000E+00 0. -1.
       -4    1    5    5    0  501  0.85743461052E+02 -0.65285900286E+02  0.26788941413E+03  0.28875409623E+03  0.00000000000E+00 0.  1.
</event>
<event>
 9   1  0.7570500E-01  0.2499974E+03  0.7546771E-02  0.1113306E+00
       21   -1    0    0  503  502  0.00000000000E+00  0.00000000000E+00  0.14505864476E+03  0.14505864476E+03  0.00000000000E+00 0. -1.
       21   -1    0    0  502  503 -0.00000000000E+00 -0.00000000000E+00 -0.10771283072E+03  0.10771283072E+03  0.00000000000E+00 0. -1.
       25    2    1    2    0    0  0.35527136788E-14  0.00000000000E+00  0.37345814032E+02  0.25277147548E+03  0.24999741797E+03 0.  0.
       24    2    3    3    0    0  0.17999759550E+02 -0.93236529028E+02  0.33558452115E+02  0.12818581776E+03  0.79299385109E+02 0.  0.
      -24    2    3    3    0    0 -0.17999759550E+02  0.93236529028E+02  0.37873619171E+01  0.12458565772E+03  0.80561779456E+02 0.  0.
      -13    1    4    4    0    0 -0.31242665397E+02 -0.44648830325E+02  0.16466166164E+02  0.56927645469E+02  0.00000000000E+00 0.  1.
       14    1    4    4    0    0  0.49242424947E+02 -0.48587698703E+02  0.17092285951E+02  0.71258172296E+02  0.00000000000E+00 0. -1.
        1    1    5    5  501    0 -0.11087142204E+01  0.10051832385E+03  0.16981953416E+02  0.10194875879E+03  0.00000000000E+00 0. -1.
       -2    1    5    5    0  501 -0.16891045330E+02 -0.72817948221E+01 -0.13194591499E+02  0.22636898926E+02  0.00000000000E+00 0.  1.
</event>
<event>
 9   1  0.7570500E-01  0.2499943E+03  0.7546771E-02  0.1113308E+00
       21   -1    0    0  503  502  0.00000000000E+00  0.00000000000E+00  0.10719647909E+03  0.10719647909E+03  0.00000000000E+00 0.  1.
       21   -1    0    0  502  503 -0.00000000000E+00 -0.00000000000E+00 -0.14575369571E+03  0.14575369571E+03  0.00000000000E+00 0.  1.
       25    2    1    2    0    0  0.00000000000E+00  0.00000000000E+00 -0.38557216619E+02  0.25295017479E+03  0.24999426388E+03 0.  0.
       24    2    3    3    0    0  0.19923465302E+02  0.12299227587E+02 -0.11201060056E+03  0.14172238912E+03  0.83610079969E+02 0.  0.
      -24    2    3    3    0    0 -0.19923465302E+02 -0.12299227587E+02  0.73453383936E+02  0.11122778567E+03  0.80174841596E+02 0.  0.
      -13    1    4    4    0    0  0.24521197763E+02 -0.28325059097E+02 -0.84532615712E+02  0.92462755917E+02  0.00000000000E+00 0.  1.
       14    1    4    4    0    0 -0.45977324610E+01  0.40624286684E+02 -0.27477984843E+02  0.49259633204E+02  0.00000000000E+00 0. -1.
        1    1    5    5  501    0  0.28078511458E+02 -0.61053226619E+01  0.49474141285E+02  0.57213358811E+02  0.00000000000E+00 0. -1.
       -2    1    5    5    0  501 -0.48001976760E+02 -0.61939049251E+01  0.23979242651E+02  0.54014426862E+02  0.00000000000E+00 0.  1.
</event>
<event>
 9   1  0.7570500E-01  0.2500050E+03  0.7546771E-02  0.1113302E+00
       21   -1    0    0  503  502  0.00000000000E+00  0.00000000000E+00  0.35001819110E+03  0.35001819110E+03  0.00000000000E+00 0.  1.
       21   -1    0    0  502  503 -0.00000000000E+00 -0.00000000000E+00 -0.44642332152E+02  0.44642332152E+02  0.00000000000E+00 0.  1.
       25    2    1    2    0    0  0.00000000000E+00  0.00000000000E+00  0.30537585895E+03  0.39466052325E+03  0.25000502672E+03 0.  0.
       24    2    3    3    0    0 -0.64200139226E+02 -0.69125906219E+02  0.17710545131E+03  0.21675973571E+03  0.81965806006E+02 0.  0.
      -24    2    3    3    0    0  0.64200139226E+02  0.69125906219E+02  0.12827040763E+03  0.17790078754E+03  0.79343203520E+02 0.  0.
      -13    1    4    4    0    0 -0.59147142573E+02 -0.23333634722E+02  0.47960089679E+02  0.79643036017E+02  0.00000000000E+00 0.  1.
       14    1    4    4    0    0 -0.50529966534E+01 -0.45792271497E+02  0.12914536164E+03  0.13711669970E+03  0.00000000000E+00 0. -1.
        3    1    5    5  501    0 -0.16788507028E+02  0.14041730130E+02  0.92518687719E+01  0.23761759805E+02  0.00000000000E+00 0. -1.
       -4    1    5    5    0  501  0.80988646255E+02  0.55084176090E+02  0.11901853886E+03  0.15413902773E+03  0.00000000000E+00 0.  1.
</event>
<event>
 9   1  0.7570500E-01  0.2499974E+03  0.7546771E-02  0.1113306E+00
       21   -1    0    0  503  502  0.00000000000E+00  0.00000000000E+00  0.27589112128E+03  0.27589112128E+03  0.00000000000E+00 0.  1.
       21   -1    0    0  502  503 -0.00000000000E+00 -0.00000000000E+00 -0.56633463644E+02  0.56633463644E+02  0.00000000000E+00 0.  1.
       25    2    1    2    0    0 -0.71054273576E-14 -0.44408920985E-15  0.21925765764E+03  0.33252458492E+03  0.24999735828E+03 0.  0.
       24    2    3    3    0    0 -0.48075083309E+02  0.35381322461E+01  0.21981253121E+03  0.23871961154E+03  0.79660354272E+02 0.  0.
      -24    2    3    3    0    0  0.48075083309E+02 -0.35381322461E+01 -0.55487357048E+00  0.93804973385E+02  0.80469454653E+02 0.  0.
      -13    1    4    4    0    0 -0.59423114024E+02  0.95149682674E+01  0.21751898582E+03  0.22569038591E+03  0.00000000000E+00 0.  1.
       14    1    4    4    0    0  0.11348030715E+02 -0.59768360213E+01  0.22935453860E+01  0.13029225625E+02  0.00000000000E+00 0. -1.
        3    1    5    5  501    0 -0.22670312274E+02 -0.21814101185E+01 -0.31910102507E+01  0.22997481495E+02  0.00000000000E+00 0. -1.
       -4    1    5    5    0  501  0.70745395583E+02 -0.13567221276E+01  0.26361366803E+01  0.70807491890E+02  0.00000000000E+00 0.  1.
</event>
<event>
 9   1  0.7570500E-01  0.2500001E+03  0.7546771E-02  0.1113305E+00
       21   -1    0    0  503  502  0.00000000000E+00  0.00000000000E+00  0.84388025195E+02  0.84388025195E+02  0.00000000000E+00 0.  1.
       21   -1    0    0  502  503 -0.00000000000E+00 -0.00000000000E+00 -0.18515675311E+03  0.18515675311E+03  0.00000000000E+00 0.  1.
       25    2    1    2    0    0  0.00000000000E+00  0.00000000000E+00 -0.10076872792E+03  0.26954477831E+03  0.25000010197E+03 0.  0.
       24    2    3    3    0    0 -0.50074864655E+02  0.69567640161E+02 -0.10099381661E+03  0.15255833428E+03  0.75677907856E+02 0.  0.
      -24    2    3    3    0    0  0.50074864655E+02 -0.69567640161E+02  0.22508869195E+00  0.11698644403E+03  0.79615505984E+02 0.  0.
      -13    1    4    4    0    0 -0.15682806744E+02  0.17794857869E+02 -0.85183376760E+02  0.88424063864E+02  0.00000000000E+00 0.  1.
       14    1    4    4    0    0 -0.34392057911E+02  0.51772782293E+02 -0.15810439848E+02  0.64134270416E+02  0.00000000000E+00 0. -1.
        3    1    5    5  501    0  0.10096685092E+02 -0.58447864083E+02 -0.29204967758E+02  0.66113735391E+02  0.00000000000E+00 0. -1.
       -4    1    5    5    0  501  0.39978179563E+02 -0.11119776079E+02  0.29430056450E+02  0.50872708635E+02  0.00000000000E+00 0.  1.
</event>
<event>
 9   1  0.7570500E-01  0.2499879E+03  0.7546771E-02  0.1113312E+00
       21   -1    0    0  503  502  0.00000000000E+00  0.00000000000E+00  0.92230365122E+02  0.92230365122E+02  0.00000000000E+00 0.  1.
       21   -1    0    0  502  503 -0.00000000000E+00 -0.00000000000E+00 -0.16939635021E+03  0.16939635021E+03  0.00000000000E+00 0.  1.
       25    2    1    2    0    0 -0.71054273576E-14  0.00000000000E+00 -0.77165985083E+02  0.26162671533E+03  0.24998789755E+03 0.  0.
       24    2    3    3    0    0 -0.42702294805E+02  0.15604460716E+02  0.49510285543E+02  0.10645864406E+03  0.82554160070E+02 0.  0.
      -24    2    3    3    0    0  0.42702294805E+02 -0.15604460716E+02 -0.12667627063E+03  0.15516807127E+03  0.77222196453E+02 0.  0.
      -13    1    4    4    0    0 -0.59661646192E+02  0.32179740307E+02  0.47266119766E+02  0.82638573258E+02  0.00000000000E+00 0.  1.
       14    1    4    4    0    0  0.16959351387E+02 -0.16575279591E+02  0.22441657777E+01  0.23820070802E+02  0.00000000000E+00 0. -1.
        1    1    5    5  501    0 -0.20931918687E+02 -0.12693999244E+02 -0.23643985122E+02  0.34034113315E+02  0.00000000000E+00 0. -1.
       -2    1    5    5    0  501  0.63634213491E+02 -0.29104614721E+01 -0.10303228551E+03  0.12113395795E+03  0.00000000000E+00 0.  1.
</event>
<event>
 9   1  0.7570500E-01  0.2499998E+03  0.7546771E-02  0.1113305E+00
       21   -1    0    0  503  502  0.00000000000E+00  0.00000000000E+00  0.36962355412E+02  0.36962355412E+02  0.00000000000E+00 0. -1.
       21   -1    0    0  502  503 -0.00000000000E+00 -0.00000000000E+00 -0.42272664606E+03  0.42272664606E+03  0.00000000000E+00 0. -1.
       25    2    1    2    0    0  0.00000000000E+00  0.00000000000E+00 -0.38576429065E+03  0.45968900147E+03  0.24999978027E+03 0.  0.
       24    2    3    3    0    0  0.57646173862E+00 -0.82629679863E+02 -0.28397709381E+03  0.30608998222E+03  0.78867554209E+02 0.  0.
      -24    2    3    3    0    0 -0.57646173862E+00  0.82629679863E+02 -0.10178719684E+03  0.15359901925E+03  0.80025177107E+02 0.  0.
      -13    1    4    4    0    0 -0.95165442380E+01 -0.26897579381E+02 -0.21478863417E+03  0.21667533722E+03  0.00000000000E+00 0.  1.
       14    1    4    4    0    0  0.10093005977E+02 -0.55732100482E+02 -0.69188459638E+02  0.89414645002E+02  0.00000000000E+00 0. -1.
        3    1    5    5  501    0  0.18264829279E+02  0.58230132575E+02 -0.10617167501E+03  0.12246132820E+03  0.00000000000E+00 0. -1.
       -4    1    5    5    0  501 -0.18841291018E+02  0.24399547288E+02  0.43844781764E+01  0.31137691051E+02  0.00000000000E+00 0.  1.
</event>
<event>
 9   1  0.7570500E-01  0.2500294E+03  0.7546771E-02  0.1113286E+00
       21   -1    0    0  503  502  0.00000000000E+00  0.00000000000E+00  0.49179001453E+02  0.49179001453E+02  0.00000000000E+00 0. -1.
       21   -1    0    0  502  503 -0.00000000000E+00 -0.00000000000E+00 -0.31779162993E+03  0.31779162993E+03  0.00000000000E+00 0. -1.
       25    2    1    2    0    0  0.00000000000E+00  0.00000000000E+00 -0.26861262848E+03  0.36697063139E+03  0.25002939851E+03 0.  0.
       24    2    3    3    0    0  0.70028182892E+02 -0.16410282656E+02 -0.23051990978E+03  0.25454914006E+03  0.80514546045E+02 0.  0.
      -24    2    3    3    0    0 -0.70028182892E+02  0.16410282656E+02 -0.38092718700E+02  0.11242149132E+03  0.77551871143E+02 0.  0.
      -13    1    4    4    0    0  0.70962063630E+01 -0.35446519449E+02 -0.44991685179E+02  0.57715367286E+02  0.00000000000E+00 0.  1.
       14    1    4    4    0    0  0.62931976529E+02  0.19036236793E+02 -0.18552822460E+03  0.19683377278E+03  0.00000000000E+00 0. -1.
        1    1    5    5  501    0 -0.10774806159E+02 -0.28874323240E+02 -0.68869700910E+01  0.31579318348E+02  0.00000000000E+00 0. -1.
       -2    1    5    5    0  501 -0.59253376733E+02  0.45284605895E+02 -0.31205748609E+02  0.80842172977E+02  0.00000000000E+00 0.  1.
</event>
<event>
 9   1  0.7570500E-01  0.2500034E+03  0.7546771E-02  0.1113303E+00
       21   -1    0    0  503  502  0.00000000000E+00  0.00000000000E+00  0.26972431167E+03  0.26972431167E+03  0.00000000000E+00 0. -1.
       21   -1    0    0  502  503 -0.00000000000E+00 -0.00000000000E+00 -0.57931076246E+02  0.57931076246E+02  0.00000000000E+00 0. -1.
       25    2    1    2    0    0 -0.35527136788E-14 -0.71054273576E-14  0.21179323543E+03  0.32765538792E+03  0.25000335730E+03 0.  0.
       24    2    3    3    0    0 -0.52303657099E+01 -0.63156753289E+02  0.19989226654E+03  0.22452064667E+03  0.80227615855E+02 0.  0.
      -24    2    3    3    0    0  0.52303657099E+01  0.63156753289E+02  0.11900968884E+02  0.10313474125E+03  0.80492295164E+02 0.  0.
      -13    1    4    4    0    0 -0.23293847479E+02 -0.54587472185E+02  0.64462615132E+02  0.87623194416E+02  0.00000000000E+00 0.  1.
       14    1    4    4    0    0  0.18063481769E+02 -0.85692811035E+01  0.13542965141E+03  0.13689745225E+03  0.00000000000E+00 0. -1.
        3    1    5    5  501    0  0.37038170689E+02  0.81128369480E+01  0.11279180533E+02  0.39558363526E+02  0.00000000000E+00 0. -1.
       -4    1    5    5    0  501 -0.31807804979E+02  0.55043916341E+02  0.62178835141E+00  0.63576377724E+02  0.00000000000E+00 0.  1.
</event>
<event>
 9   1  0.7570500E-01  0.2500053E+03  0.7546771E-02  0.1113301E+00
       21   -1    0    0  503  502  0.00000000000E+00  0.00000000000E+00  0.16496178598E+03  0.16496178598E+03  0.00000000000E+00 0.  1.
       21   -1    0    0  502  503 -0.00000000000E+00 -0.00000000000E+00 -0.94722899798E+02  0.94722899798E+02  0.00000000000E+00 0.  1.
       25    2    1    2    0    0  0.00000000000E+00  0.17763568394E-14  0.70238886186E+02  0.25968468578E+03  0.25000526974E+03 0.  0.
       24    2    3    3    0    0 -0.30650557307E+02  0.12262635148E+02  0.12812440544E+03  0.15625790833E+03  0.83131472751E+02 0.  0.
      -24    2    3    3    0    0  0.30650557307E+02 -0.12262635148E+02 -0.57885519251E+02  0.10342677746E+03  0.79098268452E+02 0.  0.
      -13    1    4    4    0    0  0.12473322293E+02 -0.14883039015E+02  0.91417007502E+02  0.93456716612E+02  0.00000000000E+00 0.  1.
       14    1    4    4    0    0 -0.43123879600E+02  0.27145674163E+02  0.36707397935E+02  0.62801191714E+02  0.00000000000E+00 0. -1.
        1    1    5    5  501    0 -0.14785715484E+02 -0.19354009221E+02 -0.51539664293E+02  0.57004666921E+02  0.00000000000E+00 0. -1.
       -2    1    5    5    0  501  0.45436272791E+02  0.70913740731E+01 -0.63458549581E+01  0.46422110535E+02  0.00000000000E+00 0.  1.
</event>
<event>
 9   1  0.7570500E-01  0.2499911E+03  0.7546771E-02  0.1113310E+00
       21   -1    0    0  503  502  0.00000000000E+00  0.00000000000E+00  0.22749191305E+02  0.22749191305E+02  0.00000000000E+00 0.  1.
       21   -1    0    0  502  503 -0.00000000000E+00 -0.00000000000E+00 -0.68678843250E+03  0.68678843250E+03  0.00000000000E+00 0.  1.
       25    2    1    2    0    0 -0.35527136788E-14  0.00000000000E+00 -0.66403924119E+03  0.70953762380E+03  0.24999105134E+03 0.  0.
       24    2    3    3    0    0 -0.18378032248E+02  0.29518556330E+02 -0.85971423265E+02  0.12490436367E+03  0.83671483849E+02 0.  0.
      -24    2    3    3    0    0  0.18378032248E+02 -0.29518556330E+02 -0.57806781793E+03  0.58463326013E+03  0.80153287442E+02 0.  0.
      -13    1    4    4    0    0  0.18424702486E+02  0.35307490976E+02 -0.76838216316E+02  0.86545941946E+02  0.00000000000E+00 0.  1.
       14    1    4    4    0    0 -0.36802734734E+02 -0.57889346465E+01 -0.91332069488E+01  0.38358421728E+02  0.00000000000E+00 0. -1.
        3    1    5    5  501    0  0.14418844319E+02  0.87385710262E+01 -0.46301656323E+03  0.46332343295E+03  0.00000000000E+00 0. -1.
       -4    1    5    5    0  501  0.39591879289E+01 -0.38257127356E+02 -0.11505125469E+03  0.12130982717E+03  0.00000000000E+00 0.  1.
</event>
<event>
 8   1  0.7570500E-01  0.2494921E+03  0.7546771E-02  0.1113626E+00
       21   -1    0    0  503  502  0.00000000000E+00  0.00000000000E+00  0.45949241167E+03  0.45949241167E+03  0.00000000000E+00 0.  1.
       21   -1    0    0  502  503 -0.00000000000E+00 -0.00000000000E+00 -0.33866881800E+02  0.33866881800E+02  0.00000000000E+00 0.  1.
       24    2    1    2    0    0 -0.27395903274E+02  0.21873407833E+02  0.38732843544E+03  0.39662938621E+03  0.77862517405E+02 0.  0.
      -24    2    1    2    0    0  0.27395903274E+02 -0.21873407833E+02  0.38297094428E+02  0.96729907260E+02  0.81615109082E+02 0.  0.
      -13    1    3    3    0    0 -0.54900923793E+02  0.12391785717E+02  0.25885528559E+03  0.26490324019E+03  0.00000000000E+00 0.  1.
       14    1    3    3    0    0  0.27505020519E+02  0.94816221157E+01  0.12847314985E+03  0.13172614602E+03  0.00000000000E+00 0. -1.
        1    1    4    4  501    0 -0.21078650189E+02  0.42423086778E+01  0.35615767041E+02  0.41602758786E+02  0.00000000000E+00 0. -1.
       -2    1    4    4    0  501  0.48474553463E+02 -0.26115716511E+02  0.26813273863E+01  0.55127148474E+02  0.00000000000E+00 0.  1.
</event>
<event>
 9   1  0.7570500E-01  0.2499983E+03  0.7546771E-02  0.1113306E+00
       21   -1    0    0  503  502  0.00000000000E+00  0.00000000000E+00  0.17410987938E+02  0.17410987938E+02  0.00000000000E+00 0.  1.
       21   -1    0    0  502  503 -0.00000000000E+00 -0.00000000000E+00 -0.89740985726E+03  0.89740985726E+03  0.00000000000E+00 0.  1.
       25    2    1    2    0    0  0.00000000000E+00  0.00000000000E+00 -0.87999886932E+03  0.91482084519E+03  0.24999833760E+03 0.  0.
       24    2    3    3    0    0 -0.72782150623E+02 -0.31387649316E+02 -0.23997485686E+03  0.26522584044E+03  0.80463585122E+02 0.  0.
      -24    2    3    3    0    0  0.72782150623E+02  0.31387649316E+02 -0.64002401245E+03  0.64959500476E+03  0.77849262724E+02 0.  0.
      -13    1    4    4    0    0 -0.90445278261E+02 -0.24024179750E+02 -0.20524719905E+03  0.22557464904E+03  0.00000000000E+00 0.  1.
       14    1    4    4    0    0  0.17663127638E+02 -0.73634695655E+01 -0.34727657816E+02  0.39651191399E+02  0.00000000000E+00 0. -1.
        3    1    5    5  501    0  0.22555209959E+02  0.49008632319E+02 -0.40753957155E+03  0.41109498406E+03  0.00000000000E+00 0. -1.
       -4    1    5    5    0  501  0.50226940664E+02 -0.17620983004E+02 -0.23248444091E+03  0.23850002070E+03  0.00000000000E+00 0.  1.
</event>
<event>
 9   1  0.7570500E-01  0.2499968E+03  0.7546771E-02  0.1113307E+00
       21   -1    0    0  503  502  0.00000000000E+00  0.00000000000E+00  0.27700859976E+03  0.27700859976E+03  0.00000000000E+00 0.  1.
       21   -1    0    0  502  503 -0.00000000000E+00 -0.00000000000E+00 -0.56404729097E+02  0.56404729097E+02  0.00000000000E+00 0.  1.
       25    2    1    2    0    0  0.00000000000E+00  0.14210854715E-13  0.22060387067E+03  0.33341332886E+03  0.24999676020E+03 0.  0.
       24    2    3    3    0    0 -0.39109970937E+02  0.87477305871E+02  0.12706364922E+03  0.17630877020E+03  0.75879790630E+02 0.  0.
      -24    2    3    3    0    0  0.39109970937E+02 -0.87477305871E+02  0.93540221447E+02  0.15710455866E+03  0.82159603551E+02 0.  0.
      -13    1    4    4    0    0 -0.46597179579E+02  0.14696379298E+02  0.55894886456E+02  0.74239605610E+02  0.00000000000E+00 0.  1.
       14    1    4    4    0    0  0.74872086422E+01  0.72780926573E+02  0.71168762765E+02  0.10206916459E+03  0.00000000000E+00 0. -1.
        3    1    5    5  501    0  0.44614860933E+02 -0.93823803455E+02  0.10170690196E+03  0.14538805253E+03  0.00000000000E+00 0. -1.
       -4    1    5    5    0  501 -0.55048899957E+01  0.63464975845E+01 -0.81666805143E+01  0.11716506138E+02  0.00000000000E+00 0.  1.
</event>
<event>
 9   1  0.7570500E-01  0.2499991E+03  0.7546771E-02  0.1113305E+00
       21   -1    0    0  503  502  0.00000000000E+00  0.00000000000E+00  0.28095349708E+03  0.28095349708E+03  0.00000000000E+00 0. -1.
       21   -1    0    0  502  503 -0.00000000000E+00 -0.00000000000E+00 -0.55613794487E+02  0.55613794487E+02  0.00000000000E+00 0. -1.
       25    2    1    2    0    0  0.00000000000E+00  0.00000000000E+00  0.22533970260E+03  0.33656729157E+03  0.24999912037E+03 0.  0.
       24    2    3    3    0    0  0.88107413635E+02  0.44190473932E+01  0.15902808153E+03  0.19946582783E+03  0.81940474970E+02 0.  0.
      -24    2    3    3    0    0 -0.88107413635E+02 -0.44190473932E+01  0.66311621062E+02  0.13710146374E+03  0.81345780188E+02 0.  0.
      -13    1    4    4    0    0  0.69797022014E+02  0.18190278909E+02  0.16105151168E+03  0.17646557722E+03  0.00000000000E+00 0.  1.
       14    1    4    4    0    0  0.18310391621E+02 -0.13771231516E+02 -0.20234301430E+01  0.23000250614E+02  0.00000000000E+00 0. -1.
        1    1    5    5  501    0 -0.65885209689E+01 -0.11082380938E+02  0.52615218763E+02  0.54171847128E+02  0.00000000000E+00 0. -1.
       -2    1    5    5    0  501 -0.81518892666E+02  0.66633335445E+01  0.13696402300E+02  0.82929616612E+02  0.00000000000E+00 0.  1.
</event>
<event>
 9   1  0.7570500E-01  0.2500022E+03  0.7546771E-02  0.1113303E+00
       21   -1    0    0  503  502  0.00000000000E+00  0.00000000000E+00  0.14394748990E+03  0.14394748990E+03  0.00000000000E+00 0.  1.
       21   -1    0    0  502  503 -0.00000000000E+00 -0.00000000000E+00 -0.10854844853E+03  0.10854844853E+03  0.00000000000E+00 0.  1.
       25    2    1    2    0    0  0.14210854715E-13  0.14210854715E-13  0.35399041372E+02  0.25249593842E+03  0.25000221357E+03 0.  0.
       24    2    3    3    0    0  0.58975216617E+02  0.56772520746E+02 -0.28120577869E+02  0.12182916907E+03  0.85734381961E+02 0.  0.
      -24    2    3    3    0    0 -0.58975216617E+02 -0.56772520746E+02  0.63519619241E+02  0.13066676935E+03  0.79610723509E+02 0.  0.
      -13    1    4    4    0    0  0.38728582379E+02  0.43256750522E+01 -0.48333638494E+02  0.62086674640E+02  0.00000000000E+00 0.  1.
       14    1    4    4    0    0  0.20246634238E+02  0.52446845694E+02  0.20213060625E+02  0.59742494433E+02  0.00000000000E+00 0. -1.
        1    1    5    5  501    0 -0.75934693408E+02 -0.28707433900E+02  0.48842206933E+02  0.94740464439E+02  0.00000000000E+00 0. -1.
       -2    1    5    5    0  501  0.16959476790E+02 -0.28065086846E+02  0.14677412308E+02  0.35926304913E+02  0.00000000000E+00 0.  1.
</event>
<event>
 9   1  0.7570500E-01  0.2499992E+03  0.7546771E-02  0.1113305E+00
       21   -1    0    0  503  502  0.00000000000E+00  0.00000000000E+00  0.43548171045E+02  0.43548171045E+02  0.00000000000E+00 0. -1.
       21   -1    0    0  502  503 -0.00000000000E+00 -0.00000000000E+00 -0.35879563763E+03  0.35879563763E+03  0.00000000000E+00 0. -1.
       25    2    1    2    0    0  0.00000000000E+00  0.35527136788E-14 -0.31524746659E+03  0.40234380868E+03  0.24999915038E+03 0.  0.
       24    2    3    3    0    0  0.91060808456E+02 -0.57325374760E+01 -0.20767723809E+03  0.24071218058E+03  0.80545551295E+02 0.  0.
      -24    2    3    3    0    0 -0.91060808456E+02  0.57325374760E+01 -0.10757022849E+03  0.16163162810E+03  0.78920823116E+02 0.  0.
      -13    1    4    4    0    0  0.46188776399E+02 -0.12973964651E+02 -0.18260658850E+03  0.18880384792E+03  0.00000000000E+00 0.  1.
       14    1    4    4    0    0  0.44872032057E+02  0.72414271753E+01 -0.25070649590E+02  0.51908332658E+02  0.00000000000E+00 0. -1.
        1    1    5    5  501    0 -0.25345115916E+02  0.23319562626E+02 -0.82030158303E+02  0.88966981364E+02  0.00000000000E+00 0. -1.
       -2    1    5    5    0  501 -0.65715692540E+02 -0.17587025150E+02 -0.25540070189E+02  0.72664646734E+02  0.00000000000E+00 0.  1.
</event>
<event>
 9   1  0.7570500E-01  0.2500054E+03  0.7546771E-02  0.1113301E+00
       21   -1    0    0  503  502  0.00000000000E+00  0.00000000000E+00  0.33443414764E+02  0.33443414764E+02  0.00000000000E+00 0.  1.
       21   -1    0    0  502  503 -0.00000000000E+00 -0.00000000000E+00 -0.46722727187E+03  0.46722727187E+03  0.00000000000E+00 0.  1.
       25    2    1    2    0    0 -0.71054273576E-14  0.71054273576E-14 -0.43378385710E+03  0.50067068663E+03  0.25000540348E+03 0.  0.
       24    2    3    3    0    0 -0.54132420615E+02  0.48429623490E+02 -0.35444043013E+03  0.37052101509E+03  0.79887775797E+02 0.  0.
      -24    2    3    3    0    0  0.54132420615E+02 -0.48429623490E+02 -0.79343426973E+02  0.13014967154E+03  0.73265341087E+02 0.  0.
      -13    1    4    4    0    0  0.13919114921E+02 -0.48806616625E+01 -0.11521887497E+03  0.11615916566E+03  0.00000000000E+00 0.  1.
       14    1    4    4    0    0 -0.68051535535E+02  0.53310285152E+02 -0.23922155516E+03  0.25436184943E+03  0.00000000000E+00 0. -1.
        1    1    5    5  501    0  0.39685820080E+02 -0.62722764076E+02 -0.36460637103E+02  0.82695148024E+02  0.00000000000E+00 0. -1.
       -2    1    5    5    0  501  0.14446600534E+02  0.14293140586E+02 -0.42882789871E+02  0.47454523514E+02  0.00000000000E+00 0.  1.
</event>
<event>
 9   1  0.7570500E-01  0.2499947E+03  0.7546771E-02  0.1113308E+00
       21   -1    0    0  503  502  0.00000000000E+00  0.00000000000E+00  0.90270527276E+03  0.90270527276E+03  0.00000000000E+00 0.  1.
       21   -1    0    0  502  503 -0.00000000000E+00 -0.00000000000E+00 -0.17308344358E+02  0.17308344358E+02  0.00000000000E+00 0.  1.
       25    2    1    2    0    0 -0.35527136788E-14  0.00000000000E+00  0.88539692841E+03  0.92001361712E+03  0.24999466966E+03 0.  0.
       24    2    3    3    0    0 -0.19900868164E+02  0.46230244629E+02  0.13877684867E+03  0.16723495619E+03  0.78582674763E+02 0.  0.
      -24    2    3    3    0    0  0.19900868164E+02 -0.46230244629E+02  0.74662007973E+03  0.75277866093E+03  0.81858956866E+02 0.  0.
      -13    1    4    4    0    0  0.28622897197E+02  0.40333740792E+01  0.39363379109E+02  0.48836604769E+02  0.00000000000E+00 0.  1.
       14    1    4    4    0    0 -0.48523765362E+02  0.42196870550E+02  0.99413469565E+02  0.11839835142E+03  0.00000000000E+00 0. -1.
        3    1    5    5  501    0  0.40115394372E+02 -0.25833482922E+02  0.65564498477E+03  0.65737885558E+03  0.00000000000E+00 0. -1.
       -4    1    5    5    0  501 -0.20214526207E+02 -0.20396761707E+02  0.90975094961E+02  0.95399805351E+02  0.00000000000E+00 0.  1.
</event>
<event>
 9   1  0.7570500E-01  0.2500048E+03  0.7546771E-02  0.1113302E+00
       21   -1    0    0  503  502  0.00000000000E+00  0.00000000000E+00  0.24692365726E+02  0.24692365726E+02  0.00000000000E+00 0. -1.
       21   -1    0    0  502  503 -0.00000000000E+00 -0.00000000000E+00 -0.63281106621E+03  0.63281106621E+03  0.00000000000E+00 0. -1.
       25    2    1    2    0    0  0.00000000000E+00 -0.71054273576E-14 -0.60811870048E+03  0.65750343193E+03  0.25000481821E+03 0.  0.
       24    2    3    3    0    0 -0.35100038014E+01 -0.58977282419E+02 -0.50079528066E+03  0.51086587415E+03  0.81837572477E+02 0.  0.
      -24    2    3    3    0    0  0.35100038014E+01  0.58977282419E+02 -0.10732341982E+03  0.14663755778E+03  0.80582981721E+02 0.  0.
      -13    1    4    4    0    0  0.76405343094E+01 -0.42187716420E+02 -0.91200995062E+02  0.10077600251E+03  0.00000000000E+00 0.  1.
       14    1    4    4    0    0 -0.11150538111E+02 -0.16789566000E+02 -0.40959428560E+03  0.41008987164E+03  0.00000000000E+00 0. -1.
        3    1    5    5  501    0  0.29582312396E+02 -0.39895172246E+01 -0.46698980841E+02  0.55424040506E+02  0.00000000000E+00 0. -1.
       -4    1    5    5    0  501 -0.26072308595E+02  0.62966799644E+02 -0.60624438977E+02  0.91213517277E+02  0.00000000000E+00 0.  1.
</event>
<event>
 9   1  0.7570500E-01  0.2499965E+03  0.7546771E-02  0.1113307E+00
       21   -1    0    0  503  502  0.00000000000E+00  0.00000000000E+00  0.23734509068E+02  0.23734509068E+02  0.00000000000E+00 0. -1.
       21   -1    0    0  502  503 -0.00000000000E+00 -0.00000000000E+00 -0.65830564303E+03  0.65830564303E+03  0.00000000000E+00 0. -1.
       25    2    1    2    0    0  0.00000000000E+00  0.00000000000E+00 -0.63457113396E+03  0.68204015210E+03  0.24999649001E+03 0.  0.
       24    2    3    3    0    0  0.21400630374E+02  0.87081210364E+02 -0.40426329507E+03  0.42194893401E+03  0.81061501277E+02 0.  0.
      -24    2    3    3    0    0 -0.21400630374E+02 -0.87081210364E+02 -0.23030783889E+03  0.26009121809E+03  0.81022323434E+02 0.  0.
      -13    1    4    4    0    0 -0.27321267371E+02  0.24902420781E+02 -0.19057396190E+03  0.19412629180E+03  0.00000000000E+00 0.  1.
       14    1    4    4    0    0  0.48721897745E+02  0.62178789583E+02 -0.21368933317E+03  0.22782264221E+03  0.00000000000E+00 0. -1.
        3    1    5    5  501    0  0.60549124195E+01  0.39410605507E+01 -0.91855144601E+02  0.92138816534E+02  0.00000000000E+00 0. -1.
       -4    1    5    5    0  501 -0.27455542794E+02 -0.91022270915E+02 -0.13845269429E+03  0.16795240156E+03  0.00000000000E+00 0.  1.
</event>
<event>
 9   1  0.7570500E-01  0.2500024E+03  0.7546771E-02  0.1113303E+00
       21   -1    0    0  503  502  0.00000000000E+00  0.00000000000E+00  0.86820603067E+03  0.86820603067E+03  0.00000000000E+00 0. -1.
       21   -1    0    0  502  503 -0.00000000000E+00 -0.00000000000E+00 -0.17997219366E+02  0.17997219366E+02  0.00000000000E+00 0. -1.
       25    2    1    2    0    0  0.14210854715E-13  0.00000000000E+00  0.85020881130E+03  0.88620325004E+03  0.25000235510E+03 0.  0.
       24    2    3    3    0    0 -0.68232390637E+02  0.37289131896E+00  0.66454958484E+03  0.67284724493E+03  0.80258744752E+02 0.  0.
      -24    2    3    3    0    0  0.68232390637E+02 -0.37289131896E+00  0.18565922646E+03  0.21335600511E+03  0.79972735145E+02 0.  0.
      -13    1    4    4    0    0 -0.92130978959E+01 -0.26168131524E+02  0.38092218733E+03  0.38193109992E+03  0.00000000000E+00 0.  1.
       14    1    4    4    0    0 -0.59019292741E+02  0.26541022843E+02  0.28362739751E+03  0.29091614501E+03  0.00000000000E+00 0. -1.
        3    1    5    5  501    0  0.69280484543E+02  0.27857387529E+02  0.15246108250E+03  0.16976513557E+03  0.00000000000E+00 0. -1.
       -4    1    5    5    0  501 -0.10480939057E+01 -0.28230278848E+02  0.33198143957E+02  0.43590869536E+02  0.00000000000E+00 0.  1.
</event>
<event>
 9   1  0.7570500E-01  0.2499578E+03  0.7546771E-02  0.1113331E+00
       21   -1    0    0  503  502  0.00000000000E+00  0.00000000000E+00  0.30104498963E+03  0.30104498963E+03  0.00000000000E+00 0. -1.
       21   -1    0    0  502  503 -0.00000000000E+00 -0.00000000000E+00 -0.51885025526E+02  0.51885025526E+02  0.00000000000E+00 0. -1.
       25    2    1    2    0    0  0.35527136788E-14  0.00000000000E+00  0.24915996410E+03  0.35293001515E+03  0.24995781221E+03 0.  0.
       24    2    3    3    0    0  0.13291590046E+01 -0.88986091333E+02  0.78553510450E+02  0.14441251455E+03  0.82243718542E+02 0.  0.
      -24    2    3    3    0    0 -0.13291590046E+01  0.88986091333E+02  0.17060645365E+03  0.20851750061E+03  0.80328668090E+02 0.  0.
      -13    1    4    4    0    0 -0.27127469947E+02 -0.67633620614E+02  0.19441162286E+02  0.75419924782E+02  0.00000000000E+00 0.  1.
       14    1    4    4    0    0  0.28456628952E+02 -0.21352470718E+02  0.59112348163E+02  0.68992589765E+02  0.00000000000E+00 0. -1.
        1    1    5    5  501    0  0.26633233934E+02  0.51065800838E+02  0.41234034845E+02  0.70832836980E+02  0.00000000000E+00 0. -1.
       -2    1    5    5    0  501 -0.27962392938E+02  0.37920290494E+02  0.12937241881E+03  0.13768466363E+03  0.00000000000E+00 0.  1.
</event>
<event>
 9   1  0.7570500E-01  0.2500004E+03  0.7546771E-02  0.1113305E+00
       21   -1    0    0  503  502  0.00000000000E+00  0.00000000000E+00  0.32587450009E+02  0.32587450009E+02  0.00000000000E+00 0.  1.
       21   -1    0    0  502  503 -0.00000000000E+00 -0.00000000000E+00 -0.47948045697E+03  0.47948045697E+03  0.00000000000E+00 0.  1.
       25    2    1    2    0    0  0.00000000000E+00  0.00000000000E+00 -0.44689300696E+03  0.51206790698E+03  0.25000036337E+03 0.  0.
       24    2    3    3    0    0 -0.65957900108E+02 -0.69677131731E+02 -0.24232963891E+03  0.27292748131E+03  0.80996351074E+02 0.  0.
      -24    2    3    3    0    0  0.65957900108E+02  0.69677131731E+02 -0.20456336805E+03  0.23914042567E+03  0.78336609370E+02 0.  0.
      -13    1    4    4    0    0  0.49133627743E+01 -0.33838890756E+02 -0.13588359674E+03  0.14011981846E+03  0.00000000000E+00 0.  1.
       14    1    4    4    0    0 -0.70871262883E+02 -0.35838240975E+02 -0.10644604216E+03  0.13280766285E+03  0.00000000000E+00 0. -1.
        1    1    5    5  501    0  0.47627366067E+02  0.22538560203E+02 -0.37723654785E+02  0.64802984691E+02  0.00000000000E+00 0. -1.
       -2    1    5    5    0  501  0.18330534041E+02  0.47138571528E+02 -0.16683971326E+03  0.17433744098E+03  0.00000000000E+00 0.  1.
</event>
<event>
 9   1  0.7570500E-01  0.2500005E+03  0.7546771E-02  0.1113305E+00
       21   -1    0    0  503  502  0.00000000000E+00  0.00000000000E+00  0.94970857115E+01  0.94970857115E+01  0.00000000000E+00 0. -1.
       21   -1    0    0  502  503 -0.00000000000E+00 -0.00000000000E+00 -0.16452476934E+04  0.16452476934E+04  0.00000000000E+00 0. -1.
       25    2    1    2    0    0  0.00000000000E+00  0.71054273576E-14 -0.16357506077E+04  0.16547447791E+04  0.25000046689E+03 0.  0.
       24    2    3    3    0    0 -0.73056780621E+02 -0.57358297752E+02 -0.96764287793E+03  0.97542818030E+03  0.80623372426E+02 0.  0.
      -24    2    3    3    0    0  0.73056780621E+02  0.57358297752E+02 -0.66810772979E+03  0.67931659885E+03  0.80472575173E+02 0.  0.
      -13    1    4    4    0    0 -0.81871721492E+01 -0.27869448331E+02 -0.61351260511E+03  0.61419984742E+03  0.00000000000E+00 0.  1.
       14    1    4    4    0    0 -0.64869608472E+02 -0.29488849421E+02 -0.35413027282E+03  0.36122833288E+03  0.00000000000E+00 0. -1.
        1    1    5    5  501    0  0.20643067805E+02  0.66443058717E+02 -0.39362313150E+03  0.39972488783E+03  0.00000000000E+00 0. -1.
       -2    1    5    5    0  501  0.52413712816E+02 -0.90847609649E+01 -0.27448459829E+03  0.27959171102E+03  0.00000000000E+00 0.  1.
</event>
<event>
 9   1  0.7570500E-01  0.2499961E+03  0.7546771E-02  0.1113307E+00
       21   -1    0    0  503  502  0.00000000000E+00  0.00000000000E+00  0.34554985905E+03  0.34554985905E+03  0.00000000000E+00 0.  1.
       21   -1    0    0  502  503 -0.00000000000E+00 -0.00000000000E+00 -0.45216369451E+02  0.45216369451E+02  0.00000000000E+00 0.  1.
       25    2    1    2    0    0  0.00000000000E+00  0.17763568394E-14  0.30033348960E+03  0.39076622850E+03  0.24999608069E+03 0.  0.
       24    2    3    3    0    0  0.64141275030E+02  0.37124887769E+00  0.26508321947E+03  0.28331165468E+03  0.76695107051E+02 0.  0.
      -24    2    3    3    0    0 -0.64141275030E+02 -0.37124887769E+00  0.35250270126E+02  0.10745457382E+03  0.78674410720E+02 0.  0.
      -13    1    4    4    0    0  0.17882412312E+02 -0.11785513671E+02  0.97401992970E+01  0.23527653621E+02  0.00000000000E+00 0.  1.
       14    1    4    4    0    0  0.46258862718E+02  0.12156762549E+02  0.25534302017E+03  0.25978400106E+03  0.00000000000E+00 0. -1.
        3    1    5    5  501    0 -0.70596888812E+02 -0.24049041017E+02  0.36183766947E+02  0.82894765060E+02  0.00000000000E+00 0. -1.
       -4    1    5    5    0  501  0.64556137825E+01  0.23677792139E+02 -0.93349682123E+00  0.24559808758E+02  0.00000000000E+00 0.  1.
</event>
<event>
 9   1  0.7570500E-01  0.2500048E+03  0.7546771E-02  0.1113302E+00
       21   -1    0    0  503  502  0.00000000000E+00  0.00000000000E+00  0.76717576941E+02  0.76717576941E+02  0.00000000000E+00 0.  1.
       21   -1    0    0  502  503 -0.00000000000E+00 -0.00000000000E+00 -0.20367688829E+03  0.20367688829E+03  0.00000000000E+00 0.  1.
       25    2    1    2    0    0  0.00000000000E+00  0.00000000000E+00 -0.12695931135E+03  0.28039446523E+03  0.25000477874E+03 0.  0.
       24    2    3    3    0    0 -0.86529694791E+02  0.27974482237E+02 -0.98891299601E+02  0.15551056722E+03  0.78320416516E+02 0.  0.
      -24    2    3    3    0    0  0.86529694791E+02 -0.27974482237E+02 -0.28068011745E+02  0.12488389801E+03  0.80859229290E+02 0.  0.
      -13    1    4    4    0    0 -0.66855095896E+02  0.54827421002E+01 -0.18260629865E+02  0.69520607817E+02  0.00000000000E+00 0.  1.
       14    1    4    4    0    0 -0.19674598895E+02  0.22491740137E+02 -0.80630669736E+02  0.85989959403E+02  0.00000000000E+00 0. -1.
        3    1    5    5  501    0 -0.41262244740E+01 -0.22149704285E+01  0.18979429567E+02  0.19548671799E+02  0.00000000000E+00 0. -1.
       -4    1    5    5    0  501  0.90655919265E+02 -0.25759511809E+02 -0.47047441313E+02  0.10533522621E+03  0.00000000000E+00 0.  1.
</event>
<event>
 9   1  0.7570500E-01  0.2500030E+03  0.7546771E-02  0.1113303E+00
       21   -1    0    0  503  502  0.00000000000E+00  0.00000000000E+00  0.24338911469E+03  0.24338911469E+03  0.00000000000E+00 0. -1.
       21   -1    0    0  502  503 -0.00000000000E+00 -0.00000000000E+00 -0.64199135357E+02  0.64199135357E+02  0.00000000000E+00 0. -1.
       25    2    1    2    0    0  0.00000000000E+00  0.35527136788E-14  0.17918997934E+03  0.30758825005E+03  0.25000296573E+03 0.  0.
       24    2    3    3    0    0  0.76769203076E+02 -0.10708449864E+02  0.16607745891E+03  0.19513811104E+03  0.66999840156E+02 0.  0.
      -24    2    3    3    0    0 -0.76769203076E+02  0.10708449864E+02  0.13112520426E+02  0.11245013901E+03  0.80404689745E+02 0.  0.
      -13    1    4    4    0    0  0.10611783039E+02 -0.10950499258E+02  0.10166666995E+03  0.10280386739E+03  0.00000000000E+00 0.  1.
       14    1    4    4    0    0  0.66157420037E+02  0.24204939369E+00  0.64410788966E+02  0.92334243642E+02  0.00000000000E+00 0. -1.
        3    1    5    5  501    0 -0.32270536593E+02 -0.34625391572E+02  0.12371189073E+02  0.48921892774E+02  0.00000000000E+00 0. -1.
       -4    1    5    5    0  501 -0.44498666483E+02  0.45333841437E+02  0.74133135315E+00  0.63528246240E+02  0.00000000000E+00 0.  1.
</event>
<event>
 9   1  0.7570500E-01  0.2500011E+03  0.7546771E-02  0.1113304E+00
       21   -1    0    0  503  502  0.00000000000E+00  0.00000000000E+00  0.16584211535E+04  0.16584211535E+04  0.00000000000E+00 0. -1.
       21   -1    0    0  502  503 -0.00000000000E+00 -0.00000000000E+00 -0.94216925385E+01  0.94216925385E+01  0.00000000000E+00 0. -1.
       25    2    1    2    0    0  0.00000000000E+00  0.17763568394E-14  0.16489994609E+04  0.16678428460E+04  0.25000107366E+03 0.  0.
       24    2    3    3    0    0  0.80556791385E+02 -0.15062903531E+02  0.50116108638E+03  0.51420037770E+03  0.80766987247E+02 0.  0.
      -24    2    3    3    0    0 -0.80556791385E+02  0.15062903531E+02  0.11478383746E+04  0.11536424683E+04  0.81496766071E+02 0.  0.
      -13    1    4    4    0    0 -0.95288959774E+01  0.44354599381E+01  0.17361188109E+03  0.17392975139E+03  0.00000000000E+00 0.  1.
       14    1    4    4    0    0  0.90085687363E+02 -0.19498363469E+02  0.32754920528E+03  0.34027062631E+03  0.00000000000E+00 0. -1.
        3    1    5    5  501    0 -0.52392781530E+02  0.26737297062E+02  0.10375991540E+04  0.10392650725E+04  0.00000000000E+00 0. -1.
       -4    1    5    5    0  501 -0.28164009855E+02 -0.11674393530E+02  0.11023922061E+03  0.11437739583E+03  0.00000000000E+00 0.  1.
</event>
<event>
 9   1  0.7570500E-01  0.2499999E+03  0.7546771E-02  0.1113305E+00
       21   -1    0    0  503  502  0.00000000000E+00  0.00000000000E+00  0.77835616398E+02  0.77835616398E+02  0.00000000000E+00 0. -1.
       21   -1    0    0  502  503 -0.00000000000E+00 -0.00000000000E+00 -0.20074337724E+03  0.20074337724E+03  0.00000000000E+00 0. -1.
       25    2    1    2    0    0 -0.35527136788E-14  0.00000000000E+00 -0.12290776085E+03  0.27857899364E+03  0.24999987605E+03 0.  0.
       24    2    3    3    0    0  0.46306987910E+01 -0.60573733816E+02  0.26946336255E+02  0.97326230568E+02  0.71103231427E+02 0.  0.
      -24    2    3    3    0    0 -0.46306987910E+01  0.60573733816E+02 -0.14985409710E+03  0.18125276307E+03  0.81888296506E+02 0.  0.
      -13    1    4    4    0    0  0.31764334100E+02 -0.21246358611E+02 -0.68209835474E+01  0.38818893487E+02  0.00000000000E+00 0.  1.
       14    1    4    4    0    0 -0.27133635309E+02 -0.39327375205E+02  0.33767319803E+02  0.58507337081E+02  0.00000000000E+00 0. -1.
        3    1    5    5  501    0  0.32762008252E+02  0.52147565748E+02 -0.10926455081E+03  0.12542511655E+03  0.00000000000E+00 0. -1.
       -4    1    5    5    0  501 -0.37392707043E+02  0.84261680679E+01 -0.40589546295E+02  0.55827646527E+02  0.00000000000E+00 0.  1.
</event>
<event>
 9   1  0.7570500E-01  0.2499993E+03  0.7546771E-02  0.1113305E+00
       21   -1    0    0  503  502  0.00000000000E+00  0.00000000000E+00  0.35103896338E+03  0.35103896338E+03  0.00000000000E+00 0.  1.
       21   -1    0    0  502  503 -0.00000000000E+00 -0.00000000000E+00 -0.44510491907E+02  0.44510491907E+02  0.00000000000E+00 0.  1.
       25    2    1    2    0    0  0.00000000000E+00  0.00000000000E+00  0.30652847148E+03  0.39554945529E+03  0.24999933551E+03 0.  0.
       24    2    3    3    0    0  0.26234729452E+02  0.93643221387E+02  0.17366216639E+03  0.21406811474E+03  0.78799084852E+02 0.  0.
      -24    2    3    3    0    0 -0.26234729452E+02 -0.93643221387E+02  0.13286630509E+03  0.18148134055E+03  0.76319774619E+02 0.  0.
      -13    1    4    4    0    0 -0.78721967887E+01  0.82175216928E+02  0.14933447139E+03  0.17063271112E+03  0.00000000000E+00 0.  1.
       14    1    4    4    0    0  0.34106926240E+02  0.11468004459E+02  0.24327695002E+02  0.43435403624E+02  0.00000000000E+00 0. -1.
        1    1    5    5  501    0 -0.15062532480E+02 -0.22467988223E+01 -0.47053765906E+01  0.15939528177E+02  0.00000000000E+00 0. -1.
       -2    1    5    5    0  501 -0.11172196972E+02 -0.91396422565E+02  0.13757168168E+03  0.16554181237E+03  0.00000000000E+00 0.  1.
</event>
<event>
 9   1  0.7570500E-01  0.2499984E+03  0.7546771E-02  0.1113306E+00
       21   -1    0    0  503  502  0.00000000000E+00  0.00000000000E+00  0.28670079943E+02  0.28670079943E+02  0.00000000000E+00 0.  1.
       21   -1    0    0  502  503 -0.00000000000E+00 -0.00000000000E+00 -0.54498607590E+03  0.54498607590E+03  0.00000000000E+00 0.  1.
       25    2    1    2    0    0 -0.71054273576E-14  0.00000000000E+00 -0.51631599595E+03  0.57365615584E+03  0.24999835490E+03 0.  0.
       24    2    3    3    0    0  0.45645793564E+02  0.18321653916E+02 -0.70664270440E+02  0.11737703469E+03  0.79779118097E+02 0.  0.
      -24    2    3    3    0    0 -0.45645793564E+02 -0.18321653916E+02 -0.44565172551E+03  0.45627912115E+03  0.84651960808E+02 0.  0.
      -13    1    4    4    0    0  0.52012050431E+02  0.11259568967E+01 -0.86874113875E+01  0.52744594847E+02  0.00000000000E+00 0.  1.
       14    1    4    4    0    0 -0.63662568671E+01  0.17195697020E+02 -0.61976859053E+02  0.64632439847E+02  0.00000000000E+00 0. -1.
        1    1    5    5  501    0  0.13793721257E+02 -0.26235813647E+02 -0.72259107554E+02  0.78102261737E+02  0.00000000000E+00 0. -1.
       -2    1    5    5    0  501 -0.59439514821E+02  0.79141597308E+01 -0.37339261796E+03  0.37817685941E+03  0.00000000000E+00 0.  1.
</event>
<event>
 9   1  0.7570500E-01  0.2500127E+03  0.7546771E-02  0.1113297E+00
       21   -1    0    0  503  502  0.00000000000E+00  0.00000000000E+00  0.79701560593E+01  0.79701560593E+01  0.00000000000E+00 0.  1.
       21   -1    0    0  502  503 -0.00000000000E+00 -0.00000000000E+00 -0.19606371008E+04  0.19606371008E+04  0.00000000000E+00 0.  1.
       25    2    1    2    0    0  0.71054273576E-14  0.00000000000E+00 -0.19526669447E+04  0.19686072568E+04  0.25001266903E+03 0.  0.
       24    2    3    3    0    0 -0.22028648005E+02  0.28582968526E+02 -0.16994147573E+04  0.17015828544E+04  0.77919480262E+02 0.  0.
      -24    2    3    3    0    0  0.22028648005E+02 -0.28582968526E+02 -0.25325218739E+03  0.26702440247E+03  0.76570971506E+02 0.  0.
      -13    1    4    4    0    0 -0.49247701362E+02  0.22189118090E+02 -0.13372172346E+04  0.13383077469E+04  0.00000000000E+00 0.  1.
       14    1    4    4    0    0  0.27219053356E+02  0.63938504365E+01 -0.36219752277E+03  0.36327510744E+03  0.00000000000E+00 0. -1.
        1    1    5    5  501    0  0.42682011779E+02  0.52953553096E+01 -0.16004939348E+03  0.16572749703E+03  0.00000000000E+00 0. -1.
       -2    1    5    5    0  501 -0.20653363774E+02 -0.33878323836E+02 -0.93202793904E+02  0.10129690544E+03  0.00000000000E+00 0.  1.
</event>
<event>
 9   1  0.7570500E-01  0.2500036E+03  0.7546771E-02  0.1113303E+00
       21   -1    0    0  503  502  0.00000000000E+00  0.00000000000E+00  0.62509095672E+02  0.62509095672E+02  0.00000000000E+00 0. -1.
       21   -1    0    0  502  503 -0.00000000000E+00 -0.00000000000E+00 -0.24997081983E+03  0.24997081983E+03  0.00000000000E+00 0. -1.
       25    2    1    2    0    0  0.00000000000E+00  0.14210854715E-13 -0.18746172416E+03  0.31247991550E+03  0.25000359911E+03 0.  0.
       24    2    3    3    0    0  0.20144388900E+02 -0.80174285048E+02 -0.15337004227E+03  0.19072245693E+03  0.77582042543E+02 0.  0.
      -24    2    3    3    0    0 -0.20144388900E+02  0.80174285048E+02 -0.34091681890E+02  0.12175745857E+03  0.82637301243E+02 0.  0.
      -13    1    4    4    0    0  0.43065359996E+02 -0.35862339822E+02 -0.46651087577E+02  0.72918150149E+02  0.00000000000E+00 0.  1.
       14    1    4    4    0    0 -0.22920971097E+02 -0.44311945226E+02 -0.10671895469E+03  0.11780430678E+03  0.00000000000E+00 0. -1.
        3    1    5    5  501    0 -0.20130957796E+01  0.59220687639E+02  0.18700054293E+02  0.62135613215E+02  0.00000000000E+00 0. -1.
       -4    1    5    5    0  501 -0.18131293120E+02  0.20953597408E+02 -0.52791736182E+02  0.59621845357E+02  0.00000000000E+00 0.  1.
</event>
<event>
 9   1  0.7570500E-01  0.2500016E+03  0.7546771E-02  0.1113304E+00
       21   -1    0    0  503  502  0.00000000000E+00  0.00000000000E+00  0.27325647843E+03  0.27325647843E+03  0.00000000000E+00 0. -1.
       21   -1    0    0  502  503 -0.00000000000E+00 -0.00000000000E+00 -0.57181451113E+02  0.57181451113E+02  0.00000000000E+00 0. -1.
       25    2    1    2    0    0  0.00000000000E+00  0.00000000000E+00  0.21607502732E+03  0.33043792954E+03  0.25000161570E+03 0.  0.
       24    2    3    3    0    0 -0.28385977990E+02  0.47132497232E+02  0.21185858784E+03  0.23264300195E+03  0.78812873778E+02 0.  0.
      -24    2    3    3    0    0  0.28385977990E+02 -0.47132497232E+02  0.42164394740E+01  0.97794927591E+02  0.80739293154E+02 0.  0.
      -13    1    4    4    0    0 -0.62980734177E+01  0.49129075725E+02  0.20267367759E+03  0.20863832678E+03  0.00000000000E+00 0.  1.
       14    1    4    4    0    0 -0.22087904572E+02 -0.19965784933E+01  0.91849102494E+01  0.24004675177E+02  0.00000000000E+00 0. -1.
        1    1    5    5  501    0  0.12765984994E+02 -0.71286873926E+01  0.39560297857E+02  0.42175890309E+02  0.00000000000E+00 0. -1.
       -2    1    5    5    0  501  0.15619992996E+02 -0.40003809839E+02 -0.35343858383E+02  0.55619037282E+02  0.00000000000E+00 0.  1.
</event>
<event>
 9   1  0.7570500E-01  0.2500024E+03  0.7546771E-02  0.1113303E+00
       21   -1    0    0  503  502  0.00000000000E+00  0.00000000000E+00  0.20679218735E+03  0.20679218735E+03  0.00000000000E+00 0. -1.
       21   -1    0    0  502  503 -0.00000000000E+00 -0.00000000000E+00 -0.75560397784E+02  0.75560397784E+02  0.00000000000E+00 0. -1.
       25    2    1    2    0    0  0.00000000000E+00 -0.35527136788E-14  0.13123178956E+03  0.28235258513E+03  0.25000239946E+03 0.  0.
       24    2    3    3    0    0 -0.87139039450E+02  0.17842927513E+02  0.32638821096E+02  0.12485111698E+03  0.81307604257E+02 0.  0.
      -24    2    3    3    0    0  0.87139039450E+02 -0.17842927513E+02  0.98592968467E+02  0.15750146815E+03  0.84702755445E+02 0.  0.
      -13    1    4    4    0    0 -0.97515023227E+01  0.15858654508E+02  0.42895883000E+02  0.46761581439E+02  0.00000000000E+00 0.  1.
       14    1    4    4    0    0 -0.77387537127E+02  0.19842730049E+01 -0.10257061904E+02  0.78089535540E+02  0.00000000000E+00 0. -1.
        1    1    5    5  501    0  0.50439126520E+02 -0.25770316095E+02  0.10510417939E+03  0.11939473690E+03  0.00000000000E+00 0. -1.
       -2    1    5    5    0  501  0.36699912930E+02  0.79273885820E+01 -0.65112109184E+01  0.38106731248E+02  0.00000000000E+00 0.  1.
</event>
<event>
 9   1  0.7570500E-01  0.2500169E+03  0.7546771E-02  0.1113294E+00
       21   -1    0    0  503  502  0.00000000000E+00  0.00000000000E+00  0.19496182144E+03  0.19496182144E+03  0.00000000000E+00 0.  1.
       21   -1    0    0  502  503 -0.00000000000E+00 -0.00000000000E+00 -0.80154704777E+02  0.80154704777E+02  0.00000000000E+00 0.  1.
       25    2    1    2    0    0  0.00000000000E+00  0.00000000000E+00  0.11480711666E+03  0.27511652622E+03  0.25001685735E+03 0.  0.
       24    2    3    3    0    0 -0.69996306016E+02  0.26481540666E+02 -0.77414141511E+01  0.11055598051E+03  0.81005805231E+02 0.  0.
      -24    2    3    3    0    0  0.69996306016E+02 -0.26481540666E+02  0.12254853081E+03  0.16456054571E+03  0.80382062348E+02 0.  0.
      -13    1    4    4    0    0 -0.91057420115E+00  0.35841091345E+02 -0.17951002135E+02  0.40095529075E+02  0.00000000000E+00 0.  1.
       14    1    4    4    0    0 -0.69085731815E+02 -0.93595506786E+01  0.10209587984E+02  0.70460451433E+02  0.00000000000E+00 0. -1.
        1    1    5    5  501    0  0.10896093317E+02  0.20230910798E+02  0.67372790612E+02  0.71183618313E+02  0.00000000000E+00 0. -1.
       -2    1    5    5    0  501  0.59100212699E+02 -0.46712451464E+02  0.55175740200E+02  0.93376927394E+02  0.00000000000E+00 0.  1.
</event>
<event>
 9   1  0.7570500E-01  0.2500021E+03  0.7546771E-02  0.1113303E+00
       21   -1    0    0  503  502  0.00000000000E+00  0.00000000000E+00  0.79262542148E+02  0.79262542148E+02  0.00000000000E+00 0. -1.
       21   -1    0    0  502  503 -0.00000000000E+00 -0.00000000000E+00 -0.19713302649E+03  0.19713302649E+03  0.00000000000E+00 0. -1.
       25    2    1    2    0    0  0.35527136788E-14 -0.14210854715E-13 -0.11787048434E+03  0.27639556864E+03  0.25000211856E+03 0.  0.
       24    2    3    3    0    0  0.29876840688E+02 -0.86421051471E+02 -0.28083452629E+02  0.12604857064E+03  0.82087380891E+02 0.  0.
      -24    2    3    3    0    0 -0.29876840688E+02  0.86421051471E+02 -0.89787031712E+02  0.15034699800E+03  0.78621148534E+02 0.  0.
      -13    1    4    4    0    0 -0.78294439363E+01 -0.15817018559E+02  0.24562211381E+02  0.30245338424E+02  0.00000000000E+00 0.  1.
       14    1    4    4    0    0  0.37706284624E+02 -0.70604032912E+02 -0.52645664010E+02  0.95803232214E+02  0.00000000000E+00 0. -1.
        1    1    5    5  501    0  0.21990874751E+01  0.83826176511E+02 -0.44909070077E+02  0.95123542982E+02  0.00000000000E+00 0. -1.
       -2    1    5    5    0  501 -0.32075928163E+02  0.25948749604E+01 -0.44877961634E+02  0.55223455017E+02  0.00000000000E+00 0.  1.
</event>
<event>
 9   1  0.7570500E-01  0.2499807E+03  0.7546771E-02  0.1113317E+00
       21   -1    0    0  503  502  0.00000000000E+00  0.00000000000E+00  0.66884837349E+02  0.66884837349E+02  0.00000000000E+00 0.  1.
       21   -1    0    0  502  503 -0.00000000000E+00 -0.00000000000E+00 -0.23357436526E+03  0.23357436526E+03  0.00000000000E+00 0.  1.
       25    2    1    2    0    0 -0.14210854715E-13  0.00000000000E+00 -0.16668952791E+03  0.30045920261E+03  0.24998066669E+03 0.  0.
       24    2    3    3    0    0  0.40390394148E+02  0.55112654277E+02 -0.15811762785E+03  0.19971529919E+03  0.10107535750E+03 0.  0.
      -24    2    3    3    0    0 -0.40390394148E+02 -0.55112654277E+02 -0.85719000674E+01  0.10074390342E+03  0.73532768238E+02 0.  0.
      -13    1    4    4    0    0 -0.29933474841E+02  0.39212718174E+02 -0.73873699435E+02  0.88831152479E+02  0.00000000000E+00 0.  1.
       14    1    4    4    0    0  0.70323868990E+02  0.15899936103E+02 -0.84243928411E+02  0.11088414671E+03  0.00000000000E+00 0. -1.
        1    1    5    5  501    0 -0.43501211440E+02 -0.73443849518E+01 -0.24287805368E+02  0.50360628239E+02  0.00000000000E+00 0. -1.
       -2    1    5    5    0  501  0.31108172915E+01 -0.47768269325E+02  0.15715905301E+02  0.50383275181E+02  0.00000000000E+00 0.  1.
</event>
<event>
 8   1  0.7570500E-01  0.2508758E+03  0.7546771E-02  0.1112753E+00
       21   -1    0    0  503  502  0.00000000000E+00  0.00000000000E+00  0.49004210711E+02  0.49004210711E+02  0.00000000000E+00 0.  1.
       21   -1    0    0  502  503 -0.00000000000E+00 -0.00000000000E+00 -0.32108802182E+03  0.32108802182E+03  0.00000000000E+00 0.  1.
       24    2    1    2    0    0  0.41821953800E+02  0.65723662420E+02 -0.21851593990E+03  0.24586032158E+03  0.81421165036E+02 0.  0.
      -24    2    1    2    0    0 -0.41821953800E+02 -0.65723662420E+02 -0.53567871208E+02  0.12423191095E+03  0.80593890903E+02 0.  0.
      -13    1    3    3    0    0  0.48557007382E+02  0.46884540008E+02 -0.21525486948E+03  0.22558945430E+03  0.00000000000E+00 0.  1.
       14    1    3    3    0    0 -0.67350535819E+01  0.18839122412E+02 -0.32610704221E+01  0.20270867280E+02  0.00000000000E+00 0. -1.
        1    1    4    4  501    0  0.11449954248E+02 -0.49543095145E+02 -0.44999910247E+02  0.67901484896E+02  0.00000000000E+00 0. -1.
       -2    1    4    4    0  501 -0.53271908048E+02 -0.16180567275E+02 -0.85679609611E+01  0.56330426054E+02  0.00000000000E+00 0.  1.
</event>
<event>
 9   1  0.7570500E-01  0.2500592E+03  0.7546771E-02  0.1113267E+00
       21   -1    0    0  503  502  0.00000000000E+00  0.00000000000E+00  0.30321988354E+03  0.30321988354E+03  0.00000000000E+00 0.  1.
       21   -1    0    0  502  503 -0.00000000000E+00 -0.00000000000E+00 -0.51554683298E+02  0.51554683298E+02  0.00000000000E+00 0.  1.
       25    2    1    2    0    0  0.00000000000E+00  0.00000000000E+00  0.25166520024E+03  0.35477456684E+03  0.25005923351E+03 0.  0.
       24    2    3    3    0    0 -0.21838054383E+02 -0.80164016669E+02  0.56186064069E+02  0.12890522808E+03  0.80972302943E+02 0.  0.
      -24    2    3    3    0    0  0.21838054383E+02  0.80164016669E+02  0.19547913617E+03  0.22586933876E+03  0.76822492296E+02 0.  0.
      -13    1    4    4    0    0  0.22698638377E+02 -0.58266762514E+02  0.14738681727E+02  0.64245408685E+02  0.00000000000E+00 0.  1.
       14    1    4    4    0    0 -0.44536692761E+02 -0.21897254154E+02  0.41447382342E+02  0.64659819398E+02  0.00000000000E+00 0. -1.
        1    1    5    5  501    0  0.37800625884E+02  0.26030138650E+02  0.13749597757E+03  0.14495378327E+03  0.00000000000E+00 0. -1.
       -2    1    5    5    0  501 -0.15962571501E+02  0.54133878018E+02  0.57983158601E+02  0.80915555486E+02  0.00000000000E+00 0.  1.
</event>
<event>
 9   1  0.7570500E-01  0.2500032E+03  0.7546771E-02  0.1113303E+00
       21   -1    0    0  503  502  0.00000000000E+00  0.00000000000E+00  0.89082883953E+02  0.89082883953E+02  0.00000000000E+00 0. -1.
       21   -1    0    0  502  503 -0.00000000000E+00 -0.00000000000E+00 -0.17540295473E+03  0.17540295473E+03  0.00000000000E+00 0. -1.
       25    2    1    2    0    0  0.35527136788E-14  0.00000000000E+00 -0.86320070780E+02  0.26448583869E+03  0.25000320847E+03 0.  0.
       24    2    3    3    0    0  0.16929020408E+02  0.92571337273E+02 -0.27839618502E+02  0.12758692986E+03  0.81531197070E+02 0.  0.
      -24    2    3    3    0    0 -0.16929020408E+02 -0.92571337273E+02 -0.58480452278E+02  0.13689890883E+03  0.80407112392E+02 0.  0.
      -13    1    4    4    0    0  0.32983007540E+02  0.26446541466E+02  0.17568522412E+02  0.45781560935E+02  0.00000000000E+00 0.  1.
       14    1    4    4    0    0 -0.16053987132E+02  0.66124795806E+02 -0.45408140914E+02  0.81805368922E+02  0.00000000000E+00 0. -1.
        1    1    5    5  501    0 -0.16816043314E+01 -0.75940269161E+02 -0.18966622937E+01  0.75982561165E+02  0.00000000000E+00 0. -1.
       -2    1    5    5    0  501 -0.15247416077E+02 -0.16631068111E+02 -0.56583789985E+02  0.60916347663E+02  0.00000000000E+00 0.  1.
</event>
<event>
 9   1  0.7570500E-01  0.2500475E+03  0.7546771E-02  0.1113275E+00
       21   -1    0    0  503  502  0.00000000000E+00  0.00000000000E+00  0.15892833149E+03  0.15892833149E+03  0.00000000000E+00 0.  1.
       21   -1    0    0  502  503 -0.00000000000E+00 -0.00000000000E+00 -0.98352120248E+02  0.98352120248E+02  0.00000000000E+00 0.  1.
       25    2    1    2    0    0  0.00000000000E+00  0.00000000000E+00  0.60576211240E+02  0.25728045174E+03  0.25004750244E+03 0.  0.
       24    2    3    3    0    0 -0.56381632963E+02  0.70461531636E+02  0.25803048076E+02  0.12531273796E+03  0.83028724115E+02 0.  0.
      -24    2    3    3    0    0  0.56381632963E+02 -0.70461531636E+02  0.34773163164E+02  0.13196771378E+03  0.89791918498E+02 0.  0.
      -13    1    4    4    0    0 -0.11618828478E+02  0.42102405018E+02 -0.26312077054E+02  0.50989558563E+02  0.00000000000E+00 0.  1.
       14    1    4    4    0    0 -0.44762804485E+02  0.28359126618E+02  0.52115125130E+02  0.74323179394E+02  0.00000000000E+00 0. -1.
        1    1    5    5  501    0  0.23679595246E+02 -0.53215149149E+02  0.62741090709E+02  0.85609694506E+02  0.00000000000E+00 0. -1.
       -2    1    5    5    0  501  0.32702037717E+02 -0.17246382487E+02 -0.27967927546E+02  0.46358019273E+02  0.00000000000E+00 0.  1.
</event>
<event>
 9   1  0.7570500E-01  0.2500040E+03  0.7546771E-02  0.1113302E+00
       21   -1    0    0  503  502  0.00000000000E+00  0.00000000000E+00  0.29169008431E+02  0.29169008431E+02  0.00000000000E+00 0. -1.
       21   -1    0    0  502  503 -0.00000000000E+00 -0.00000000000E+00 -0.53568821705E+03  0.53568821705E+03  0.00000000000E+00 0. -1.
       25    2    1    2    0    0  0.00000000000E+00  0.14210854715E-13 -0.50651920861E+03  0.56485722548E+03  0.25000395293E+03 0.  0.
       24    2    3    3    0    0 -0.64043929290E+02  0.72230645787E+02 -0.30959128688E+03  0.33385518346E+03  0.79332386464E+02 0.  0.
      -24    2    3    3    0    0  0.64043929290E+02 -0.72230645787E+02 -0.19692792173E+03  0.23100204202E+03  0.72542718361E+02 0.  0.
      -13    1    4    4    0    0 -0.42158866845E+02  0.82668516735E+02 -0.28320150042E+03  0.29801769000E+03  0.00000000000E+00 0.  1.
       14    1    4    4    0    0 -0.21885062444E+02 -0.10437870948E+02 -0.26389786458E+02  0.35837493459E+02  0.00000000000E+00 0. -1.
        1    1    5    5  501    0  0.90713055451E+01  0.14621973582E+02 -0.20002778203E+02  0.26385636842E+02  0.00000000000E+00 0. -1.
       -2    1    5    5    0  501  0.54972623744E+02 -0.86852619369E+02 -0.17692514353E+03  0.20461640517E+03  0.00000000000E+00 0.  1.
</event>
<event>
 9   1  0.7570500E-01  0.2499770E+03  0.7546771E-02  0.1113319E+00
       21   -1    0    0  503  502  0.00000000000E+00  0.00000000000E+00  0.62217538827E+03  0.62217538827E+03  0.00000000000E+00 0. -1.
       21   -1    0    0  502  503 -0.00000000000E+00 -0.00000000000E+00 -0.25108882691E+02  0.25108882691E+02  0.00000000000E+00 0. -1.
       25    2    1    2    0    0  0.35527136788E-14  0.00000000000E+00  0.59706650558E+03  0.64728427096E+03  0.24997702964E+03 0.  0.
       24    2    3    3    0    0  0.23638890457E+02  0.73844619039E+02  0.14935053617E+03  0.18568902521E+03  0.78504818489E+02 0.  0.
      -24    2    3    3    0    0 -0.23638890457E+02 -0.73844619039E+02  0.44771596941E+03  0.46159524575E+03  0.81294260146E+02 0.  0.
      -13    1    4    4    0    0 -0.10758692956E+02  0.41510351780E+02  0.18720505038E+02  0.46790128103E+02  0.00000000000E+00 0.  1.
       14    1    4    4    0    0  0.34397583413E+02  0.32334267259E+02  0.13063003113E+03  0.13889889711E+03  0.00000000000E+00 0. -1.
        1    1    5    5  501    0 -0.22023817361E+02 -0.70020020984E+02  0.18763841063E+03  0.20148455279E+03  0.00000000000E+00 0. -1.
       -2    1    5    5    0  501 -0.16150730958E+01 -0.38245980550E+01  0.26007755878E+03  0.26011069296E+03  0.00000000000E+00 0.  1.
</event>
<event>
 9   1  0.7570500E-01  0.2500010E+03  0.7546771E-02  0.1113304E+00
       21   -1    0    0  503  502  0.00000000000E+00  0.00000000000E+00  0.54701183011E+03  0.54701183011E+03  0.00000000000E+00 0. -1.
       21   -1    0    0  502  503 -0.00000000000E+00 -0.00000000000E+00 -0.28564517261E+02  0.28564517261E+02  0.00000000000E+00 0. -1.
       25    2    1    2    0    0 -0.14210854715E-13 -0.35527136788E-14  0.51844731285E+03  0.57557634738E+03  0.25000103090E+03 0.  0.
       24    2    3    3    0    0  0.78565615680E+02  0.25796101994E+02  0.37216580911E+03  0.38923569210E+03  0.78479549466E+02 0.  0.
      -24    2    3    3    0    0 -0.78565615680E+02 -0.25796101994E+02  0.14628150374E+03  0.18634065528E+03  0.80539224155E+02 0.  0.
      -13    1    4    4    0    0  0.37435171005E+02 -0.12388067736E+02  0.58243359977E+02  0.70335945517E+02  0.00000000000E+00 0.  1.
       14    1    4    4    0    0  0.41130444675E+02  0.38184169730E+02  0.31392244914E+03  0.31889974658E+03  0.00000000000E+00 0. -1.
        3    1    5    5  501    0 -0.11839656342E+02 -0.18718113574E+02 -0.33052885564E+01  0.22393529657E+02  0.00000000000E+00 0. -1.
       -4    1    5    5    0  501 -0.66725959338E+02 -0.70779884203E+01  0.14958679230E+03  0.16394712562E+03  0.00000000000E+00 0.  1.
</event>
<event>
 9   1  0.7570500E-01  0.2499925E+03  0.7546771E-02  0.1113310E+00
       21   -1    0    0  503  502  0.00000000000E+00  0.00000000000E+00  0.17643625922E+03  0.17643625922E+03  0.00000000000E+00 0. -1.
       21   -1    0    0  502  503 -0.00000000000E+00 -0.00000000000E+00 -0.88553613425E+02  0.88553613425E+02  0.00000000000E+00 0. -1.
       25    2    1    2    0    0  0.00000000000E+00  0.00000000000E+00  0.87882645795E+02  0.26498987265E+03  0.24999254623E+03 0.  0.
       24    2    3    3    0    0 -0.87096458204E+02  0.36355581660E+02  0.43849126278E+02  0.13303418807E+03  0.82872359508E+02 0.  0.
      -24    2    3    3    0    0  0.87096458204E+02 -0.36355581660E+02  0.44033519517E+02  0.13195568458E+03  0.81029812424E+02 0.  0.
      -13    1    4    4    0    0 -0.71058963776E+02  0.14188799939E+02  0.65859911364E+02  0.97919488875E+02  0.00000000000E+00 0.  1.
       14    1    4    4    0    0 -0.16037494428E+02  0.22166781721E+02 -0.22010785086E+02  0.35114699195E+02  0.00000000000E+00 0. -1.
        1    1    5    5  501    0  0.90881985883E+02 -0.30621280342E+02  0.60994813426E+02  0.11365546812E+03  0.00000000000E+00 0. -1.
       -2    1    5    5    0  501 -0.37855276789E+01 -0.57343013181E+01 -0.16961293909E+02  0.18300216460E+02  0.00000000000E+00 0.  1.
</event>
<event>
 9   1  0.7570500E-01  0.2499841E+03  0.7546771E-02  0.1113315E+00
       21   -1    0    0  503  502  0.00000000000E+00  0.00000000000E+00  0.45390654341E+02  0.45390654341E+02  0.00000000000E+00 0.  1.
       21   -1    0    0  502  503 -0.00000000000E+00 -0.00000000000E+00 -0.34419014379E+03  0.34419014379E+03  0.00000000000E+00 0.  1.
       25    2    1    2    0    0  0.00000000000E+00 -0.14210854715E-13 -0.29879948945E+03  0.38958079813E+03  0.24998412625E+03 0.  0.
       24    2    3    3    0    0 -0.26069535103E+02  0.73810639045E+02 -0.22577988202E+03  0.25559652285E+03  0.90693970416E+02 0.  0.
      -24    2    3    3    0    0  0.26069535103E+02 -0.73810639045E+02 -0.73019607429E+02  0.13398427528E+03  0.80574759432E+02 0.  0.
      -13    1    4    4    0    0  0.24043651970E+02  0.63304728930E+02 -0.11298301902E+03  0.13172223993E+03  0.00000000000E+00 0.  1.
       14    1    4    4    0    0 -0.50113187073E+02  0.10505910116E+02 -0.11279686300E+03  0.12387428292E+03  0.00000000000E+00 0. -1.
        1    1    5    5  501    0 -0.50689203148E+00 -0.53435255895E+02 -0.83288152841E+02  0.98957060969E+02  0.00000000000E+00 0. -1.
       -2    1    5    5    0  501  0.26576427135E+02 -0.20375383151E+02  0.10268545412E+02  0.35027214315E+02  0.00000000000E+00 0.  1.
</event>
<event>
 9   1  0.7570500E-01  0.2500001E+03  0.7546771E-02  0.1113305E+00
       21   -1    0    0  503  502  0.00000000000E+00  0.00000000000E+00  0.20067977941E+03  0.20067977941E+03  0.00000000000E+00 0.  1.
       21   -1    0    0  502  503 -0.00000000000E+00 -0.00000000000E+00 -0.77860434622E+02  0.77860434622E+02  0.00000000000E+00 0.  1.
       25    2    1    2    0    0 -0.14210854715E-13  0.00000000000E+00  0.12281934479E+03  0.27854021403E+03  0.25000011876E+03 0.  0.
       24    2    3    3    0    0  0.81778623550E+02  0.47930299284E+02  0.43756283859E+02  0.13152143757E+03  0.79988869876E+02 0.  0.
      -24    2    3    3    0    0 -0.81778623550E+02 -0.47930299284E+02  0.79063060930E+02  0.14701877646E+03  0.79865487978E+02 0.  0.
      -13    1    4    4    0    0  0.39229399862E+02  0.17020801238E+02 -0.21375625794E+02  0.47807644435E+02  0.00000000000E+00 0.  1.
       14    1    4    4    0    0  0.42549223688E+02  0.30909498046E+02  0.65131909653E+02  0.83713793135E+02  0.00000000000E+00 0. -1.
        1    1    5    5  501    0 -0.20633728302E+02 -0.49142277598E+02  0.65376167490E+02  0.84349021731E+02  0.00000000000E+00 0. -1.
       -2    1    5    5    0  501 -0.61144895247E+02  0.12119783142E+01  0.13686893440E+02  0.62669754733E+02  0.00000000000E+00 0.  1.
</event>
<event>
 9   1  0.7570500E-01  0.2500159E+03  0.7546771E-02  0.1113295E+00
       21   -1    0    0  503  502  0.00000000000E+00  0.00000000000E+00  0.16738848166E+02  0.16738848166E+02  0.00000000000E+00 0. -1.
       21   -1    0    0  502  503 -0.00000000000E+00 -0.00000000000E+00 -0.93357581898E+03  0.93357581898E+03  0.00000000000E+00 0. -1.
       25    2    1    2    0    0 -0.71054273576E-14 -0.14210854715E-13 -0.91683697082E+03  0.95031466715E+03  0.25001587058E+03 0.  0.
       24    2    3    3    0    0 -0.40893557000E+02  0.81804296910E+02 -0.57044160005E+03  0.58317184959E+03  0.79508245426E+02 0.  0.
      -24    2    3    3    0    0  0.40893557000E+02 -0.81804296910E+02 -0.34639537077E+03  0.36714281756E+03  0.80248798110E+02 0.  0.
      -13    1    4    4    0    0 -0.45070501051E+02  0.44217610851E+02 -0.49259874137E+03  0.49662870152E+03  0.00000000000E+00 0.  1.
       14    1    4    4    0    0  0.41769440511E+01  0.37586686059E+02 -0.77842858678E+02  0.86543148069E+02  0.00000000000E+00 0. -1.
        3    1    5    5  501    0  0.24597663035E+01 -0.61767762562E+02 -0.10466048226E+03  0.12155296578E+03  0.00000000000E+00 0. -1.
       -4    1    5    5    0  501  0.38433790696E+02 -0.20036534348E+02 -0.24173488851E+03  0.24558985179E+03  0.00000000000E+00 0.  1.
</event>
<event>
 9   1  0.7570500E-01  0.2499911E+03  0.7546771E-02  0.1113310E+00
       21   -1    0    0  503  502  0.00000000000E+00  0.00000000000E+00  0.21490634722E+03  0.21490634722E+03  0.00000000000E+00 0.  1.
       21   -1    0    0  502  503 -0.00000000000E+00 -0.00000000000E+00 -0.72700917734E+02  0.72700917734E+02  0.00000000000E+00 0.  1.
       25    2    1    2    0    0 -0.35527136788E-14  0.28421709430E-13  0.14220542948E+03  0.28760726495E+03  0.24999110920E+03 0.  0.
       24    2    3    3    0    0  0.14619336210E+02 -0.89990746925E+02  0.34483750204E+02  0.12609310054E+03  0.79989258362E+02 0.  0.
      -24    2    3    3    0    0 -0.14619336210E+02  0.89990746925E+02  0.10772167928E+03  0.16151416441E+03  0.78554475326E+02 0.  0.
      -13    1    4    4    0    0  0.11144602553E+02 -0.26637317627E+01  0.36925869603E+02  0.38662869512E+02  0.00000000000E+00 0.  1.
       14    1    4    4    0    0  0.34747336567E+01 -0.87327015162E+02 -0.24421193986E+01  0.87430231032E+02  0.00000000000E+00 0. -1.
        3    1    5    5  501    0  0.19251014933E+02  0.27728343469E+02  0.14661932677E+01  0.33787754145E+02  0.00000000000E+00 0. -1.
       -4    1    5    5    0  501 -0.33870351143E+02  0.62262403456E+02  0.10625548601E+03  0.12772641026E+03  0.00000000000E+00 0.  1.
</event>
<event>
 9   1  0.7570500E-01  0.2500057E+03  0.7546771E-02  0.1113301E+00
       21   -1    0    0  503  502  0.00000000000E+00  0.00000000000E+00  0.27228135349E+03  0.27228135349E+03  0.00000000000E+00 0.  1.
       21   -1    0    0  502  503 -0.00000000000E+00 -0.00000000000E+00 -0.57388120177E+02  0.57388120177E+02  0.00000000000E+00 0.  1.
       25    2    1    2    0    0  0.00000000000E+00  0.00000000000E+00  0.21489323332E+03  0.32966947367E+03  0.25000572022E+03 0.  0.
       24    2    3    3    0    0  0.29091877222E+02 -0.49943106157E+02  0.20482345638E+03  0.22784575437E+03  0.81365768789E+02 0.  0.
      -24    2    3    3    0    0 -0.29091877222E+02  0.49943106157E+02  0.10069776940E+02  0.10182371930E+03  0.83222702619E+02 0.  0.
      -13    1    4    4    0    0  0.50021764689E+02 -0.58268301808E+02  0.14840565796E+03  0.16709760995E+03  0.00000000000E+00 0.  1.
       14    1    4    4    0    0 -0.20929887467E+02  0.83251956506E+01  0.56417798420E+02  0.60748144420E+02  0.00000000000E+00 0. -1.
        3    1    5    5  501    0 -0.87374087768E+01  0.51722506244E+02  0.39732857434E+02  0.65804710501E+02  0.00000000000E+00 0. -1.
       -4    1    5    5    0  501 -0.20354468445E+02 -0.17794000871E+01 -0.29663080493E+02  0.36019008797E+02  0.00000000000E+00 0.  1.
</event>
<event>
 9   1  0.7570500E-01  0.2499963E+03  0.7546771E-02  0.1113307E+00
       21   -1    0    0  503  502  0.00000000000E+00  0.00000000000E+00  0.51781123406E+02  0.51781123406E+02  0.00000000000E+00 0.  1.
       21   -1    0    0  502  503 -0.00000000000E+00 -0.00000000000E+00 -0.30174201983E+03  0.30174201983E+03  0.00000000000E+00 0.  1.
       25    2    1    2    0    0  0.00000000000E+00  0.00000000000E+00 -0.24996089642E+03  0.35352314323E+03  0.24999632610E+03 0.  0.
       24    2    3    3    0    0 -0.58740815118E+02  0.66563477873E+02 -0.17604367642E+03  0.21303386457E+03  0.80689971498E+02 0.  0.
      -24    2    3    3    0    0  0.58740815118E+02 -0.66563477873E+02 -0.73917220003E+02  0.14048927866E+03  0.79951873389E+02 0.  0.
      -13    1    4    4    0    0  0.12700445880E+02  0.29312592694E+02 -0.20778127070E+02  0.38108528974E+02  0.00000000000E+00 0.  1.
       14    1    4    4    0    0 -0.71441260998E+02  0.37250885178E+02 -0.15526554935E+03  0.17492533560E+03  0.00000000000E+00 0. -1.
        3    1    5    5  501    0 -0.65896353539E+00  0.14605249575E+02  0.16086004463E+01  0.14708335851E+02  0.00000000000E+00 0. -1.
       -4    1    5    5    0  501  0.59399778653E+02 -0.81168727448E+02 -0.75525820449E+02  0.12578094281E+03  0.00000000000E+00 0.  1.
</event>
<event>
 9   1  0.7570500E-01  0.2500020E+03  0.7546771E-02  0.1113304E+00
       21   -1    0    0  503  502  0.00000000000E+00  0.00000000000E+00  0.95009478419E+03  0.95009478419E+03  0.00000000000E+00 0. -1.
       21   -1    0    0  502  503 -0.00000000000E+00 -0.00000000000E+00 -0.16445989112E+02  0.16445989112E+02  0.00000000000E+00 0. -1.
       25    2    1    2    0    0  0.00000000000E+00  0.00000000000E+00  0.93364879507E+03  0.96654077330E+03  0.25000198780E+03 0.  0.
       24    2    3    3    0    0  0.36976924951E+02 -0.46798711074E+02  0.80742328973E+03  0.81350379741E+03  0.79364017359E+02 0.  0.
      -24    2    3    3    0    0 -0.36976924951E+02  0.46798711074E+02  0.12622550534E+03  0.15303697589E+03  0.62689915096E+02 0.  0.
      -13    1    4    4    0    0  0.33085305566E+02 -0.75605327437E+01  0.66080466285E+03  0.66167560144E+03  0.00000000000E+00 0.  1.
       14    1    4    4    0    0  0.38916193851E+01 -0.39238178330E+02  0.14661862689E+03  0.15182819597E+03  0.00000000000E+00 0. -1.
        3    1    5    5  501    0  0.18518507324E+01  0.29859697949E+02  0.13899884793E+02  0.32988448129E+02  0.00000000000E+00 0. -1.
       -4    1    5    5    0  501 -0.38828775683E+02  0.16939013125E+02  0.11232562055E+03  0.12004852776E+03  0.00000000000E+00 0.  1.
</event>
<event>
 9   1  0.7570500E-01  0.2500002E+03  0.7546771E-02  0.1113305E+00
       21   -1    0    0  503  502  0.00000000000E+00  0.00000000000E+00  0.11053407063E+03  0.11053407063E+03  0.00000000000E+00 0.  1.
       21   -1    0    0  502  503 -0.00000000000E+00 -0.00000000000E+00 -0.14135936073E+03  0.14135936073E+03  0.00000000000E+00 0.  1.
       25    2    1    2    0    0  0.00000000000E+00  0.35527136788E-14 -0.30825290100E+02  0.25189343137E+03  0.25000020451E+03 0.  0.
       24    2    3    3    0    0 -0.93310618224E+02  0.18409037453E+02 -0.83388403250E+01  0.12512629017E+03  0.80878230070E+02 0.  0.
      -24    2    3    3    0    0  0.93310618224E+02 -0.18409037453E+02 -0.22486449775E+02  0.12676714120E+03  0.80737249966E+02 0.  0.
      -13    1    4    4    0    0 -0.46605953020E+02  0.34647641107E+02  0.27303679598E+02  0.64172149806E+02  0.00000000000E+00 0.  1.
       14    1    4    4    0    0 -0.46704665204E+02 -0.16238603654E+02 -0.35642519923E+02  0.60954140359E+02  0.00000000000E+00 0. -1.
        3    1    5    5  501    0  0.43514574984E+02 -0.49612566084E+02 -0.11799224085E+02  0.67038396748E+02  0.00000000000E+00 0. -1.
       -4    1    5    5    0  501  0.49796043240E+02  0.31203528631E+02 -0.10687225689E+02  0.59728744456E+02  0.00000000000E+00 0.  1.
</event>
<event>
 9   1  0.7570500E-01  0.2499982E+03  0.7546771E-02  0.1113306E+00
       21   -1    0    0  503  502  0.00000000000E+00  0.00000000000E+00  0.13705498797E+02  0.13705498797E+02  0.00000000000E+00 0. -1.
       21   -1    0    0  502  503 -0.00000000000E+00 -0.00000000000E+00 -0.11400366109E+04  0.11400366109E+04  0.00000000000E+00 0. -1.
       25    2    1    2    0    0  0.00000000000E+00  0.00000000000E+00 -0.11263311121E+04  0.11537421097E+04  0.24999816318E+03 0.  0.
       24    2    3    3    0    0 -0.88267955604E+01  0.63313117099E+02 -0.21209745570E+03  0.23347117528E+03  0.73735987523E+02 0.  0.
      -24    2    3    3    0    0  0.88267955604E+01 -0.63313117099E+02 -0.91423365637E+03  0.92027093439E+03  0.83599946855E+02 0.  0.
      -13    1    4    4    0    0  0.31914426468E+02  0.17960376104E+02 -0.78834772806E+02  0.86925411302E+02  0.00000000000E+00 0.  1.
       14    1    4    4    0    0 -0.40741222029E+02  0.45352740995E+02 -0.13326268289E+03  0.14654576398E+03  0.00000000000E+00 0. -1.
        1    1    5    5  501    0  0.28276797812E+02 -0.69925050241E+02 -0.51338153182E+03  0.51889275111E+03  0.00000000000E+00 0. -1.
       -2    1    5    5    0  501 -0.19450002252E+02  0.66119331422E+01 -0.40085212455E+03  0.40137818327E+03  0.00000000000E+00 0.  1.
</event>
<event>
 9   1  0.7570500E-01  0.2500015E+03  0.7546771E-02  0.1113304E+00
       21   -1    0    0  503  502  0.00000000000E+00  0.00000000000E+00  0.52709764590E+02  0.52709764590E+02  0.00000000000E+00 0.  1.
       21   -1    0    0  502  503 -0.00000000000E+00 -0.00000000000E+00 -0.29643814596E+03  0.29643814596E+03  0.00000000000E+00 0.  1.
       25    2    1    2    0    0  0.00000000000E+00  0.00000000000E+00 -0.24372838137E+03  0.34914791056E+03  0.25000147911E+03 0.  0.
       24    2    3    3    0    0 -0.29675043313E+02 -0.75086429811E+02 -0.54515105634E+02  0.12732225794E+03  0.81978536751E+02 0.  0.
      -24    2    3    3    0    0  0.29675043313E+02  0.75086429811E+02 -0.18921327574E+03  0.22182565261E+03  0.82984193095E+02 0.  0.
      -13    1    4    4    0    0 -0.77972319572E+00 -0.27640731751E+02  0.20181341018E+02  0.34233091378E+02  0.00000000000E+00 0.  1.
       14    1    4    4    0    0 -0.28895320118E+02 -0.47445698060E+02 -0.74696446653E+02  0.93089166564E+02  0.00000000000E+00 0. -1.
        1    1    5    5  501    0  0.61882035759E+01  0.66935220910E+02 -0.59562027121E+02  0.89812319514E+02  0.00000000000E+00 0. -1.
       -2    1    5    5    0  501  0.23486839738E+02  0.81512089008E+01 -0.12965124862E+03  0.13201333310E+03  0.00000000000E+00 0.  1.
</event>
<event>
 9   1  0.7570500E-01  0.2500001E+03  0.7546771E-02  0.1113305E+00
       21   -1    0    0  503  502  0.00000000000E+00  0.00000000000E+00  0.33361003304E+03  0.33361003304E+03  0.00000000000E+00 0. -1.
       21   -1    0    0  502  503 -0.00000000000E+00 -0.00000000000E+00 -0.46836148033E+02  0.46836148033E+02  0.00000000000E+00 0. -1.
       25    2    1    2    0    0 -0.71054273576E-14 -0.53290705182E-14  0.28677388501E+03  0.38044618107E+03  0.25000007114E+03 0.  0.
       24    2    3    3    0    0  0.63992349630E+02 -0.13092922093E+02  0.35075139456E+02  0.10748085437E+03  0.77816599957E+02 0.  0.
      -24    2    3    3    0    0 -0.63992349630E+02  0.13092922093E+02  0.25169874555E+03  0.27296532670E+03  0.83014249671E+02 0.  0.
      -13    1    4    4    0    0  0.40494035802E+02 -0.17573364661E+01 -0.20988511460E+02  0.45643978577E+02  0.00000000000E+00 0.  1.
       14    1    4    4    0    0  0.23498313827E+02 -0.11335585627E+02  0.56063650916E+02  0.61836875797E+02  0.00000000000E+00 0. -1.
        1    1    5    5  501    0 -0.42166942887E+02 -0.27423526000E+02  0.74520300752E+02  0.89907597426E+02  0.00000000000E+00 0. -1.
       -2    1    5    5    0  501 -0.21825406742E+02  0.40516448094E+02  0.17717844480E+03  0.18305772927E+03  0.00000000000E+00 0.  1.
</event>
<event>
 9   1  0.7570500E-01  0.2499990E+03  0.7546771E-02  0.1113305E+00
       21   -1    0    0  503  502  0.00000000000E+00  0.00000000000E+00  0.10310322292E+03  0.10310322292E+03  0.00000000000E+00 0.  1.
       21   -1    0    0  502  503 -0.00000000000E+00 -0.00000000000E+00 -0.15154589701E+03  0.15154589701E+03  0.00000000000E+00 0.  1.
       25    2    1    2    0    0 -0.17763568394E-14  0.00000000000E+00 -0.48442674087E+02  0.25464911993E+03  0.24999896322E+03 0.  0.
       24    2    3    3    0    0  0.17377633645E+01  0.72723681698E+02 -0.87962962614E+02  0.13971304790E+03  0.80563634849E+02 0.  0.
      -24    2    3    3    0    0 -0.17377633645E+01 -0.72723681698E+02  0.39520288527E+02  0.11493607203E+03  0.79728876502E+02 0.  0.
      -13    1    4    4    0    0  0.44428844687E+01  0.23565525360E+02 -0.87239259698E+02  0.90475199035E+02  0.00000000000E+00 0.  1.
       14    1    4    4    0    0 -0.27051211042E+01  0.49158156338E+02 -0.72370291637E+00  0.49237848863E+02  0.00000000000E+00 0. -1.
        1    1    5    5  501    0  0.84161491170E+01 -0.50573131716E+02 -0.16489729038E+02  0.53855216843E+02  0.00000000000E+00 0. -1.
       -2    1    5    5    0  501 -0.10153912481E+02 -0.22150549982E+02  0.56010017565E+02  0.61080855191E+02  0.00000000000E+00 0.  1.
</event>
<event>
 9   1  0.7570500E-01  0.2499981E+03  0.7546771E-02  0.1113306E+00
       21   -1    0    0  503  502  0.00000000000E+00  0.00000000000E+00  0.25869504074E+02  0.25869504074E+02  0.00000000000E+00 0. -1.
       21   -1    0    0  502  503 -0.00000000000E+00 -0.00000000000E+00 -0.60398388472E+03  0.60398388472E+03  0.00000000000E+00 0. -1.
       25    2    1    2    0    0 -0.71054273576E-14 -0.88817841970E-15 -0.57811438065E+03  0.62985338879E+03  0.24999810853E+03 0.  0.
       24    2    3    3    0    0  0.41544092943E+02  0.61532969311E+01 -0.50938002569E+03  0.51607280394E+03  0.71409758928E+02 0.  0.
      -24    2    3    3    0    0 -0.41544092943E+02 -0.61532969311E+01 -0.68734354956E+02  0.11378058486E+03  0.80360657151E+02 0.  0.
      -13    1    4    4    0    0  0.27402766117E+02 -0.36810863026E+01 -0.48722898165E+03  0.48801285080E+03  0.00000000000E+00 0.  1.
       14    1    4    4    0    0  0.14141326826E+02  0.98343832337E+01 -0.22151044045E+02  0.28059953141E+02  0.00000000000E+00 0. -1.
        1    1    5    5  501    0 -0.61572925466E+02 -0.19885577661E+02 -0.39632741044E+02  0.75877635124E+02  0.00000000000E+00 0. -1.
       -2    1    5    5    0  501  0.20028832523E+02  0.13732280730E+02 -0.29101613912E+02  0.37902949734E+02  0.00000000000E+00 0.  1.
</event>
<event>
 9   1  0.7570500E-01  0.2500030E+03  0.7546771E-02  0.1113303E+00
       21   -1    0    0  503  502  0.00000000000E+00  0.00000000000E+00  0.41436754514E+02  0.41436754514E+02  0.00000000000E+00 0.  1.
       21   -1    0    0  502  503 -0.00000000000E+00 -0.00000000000E+00 -0.37708984047E+03  0.37708984047E+03  0.00000000000E+00 0.  1.
       25    2    1    2    0    0  0.71054273576E-14  0.00000000000E+00 -0.33565308595E+03  0.41852659498E+03  0.25000303317E+03 0.  0.
       24    2    3    3    0    0 -0.60417438251E+02  0.37611613485E+02 -0.26150540349E+03  0.28258429795E+03  0.80024428013E+02 0.  0.
      -24    2    3    3    0    0  0.60417438251E+02 -0.37611613485E+02 -0.74147682464E+02  0.13594229703E+03  0.88980497830E+02 0.  0.
      -13    1    4    4    0    0 -0.49472123701E+02 -0.11917681388E+02 -0.17556377055E+03  0.18278993321E+03  0.00000000000E+00 0.  1.
       14    1    4    4    0    0 -0.10945314550E+02  0.49529294873E+02 -0.85941632941E+02  0.99794364739E+02  0.00000000000E+00 0. -1.
        1    1    5    5  501    0  0.82354633920E+01 -0.49482644383E+02 -0.79026512972E+01  0.50781953979E+02  0.00000000000E+00 0. -1.
       -2    1    5    5    0  501  0.52181974859E+02  0.11871030898E+02 -0.66245031166E+02  0.85160343054E+02  0.00000000000E+00 0.  1.
</event>
<event>
 9   1  0.7570500E-01  0.2500045E+03  0.7546771E-02  0.1113302E+00
       21   -1    0    0  503  502  0.00000000000E+00  0.00000000000E+00  0.21560706666E+02  0.21560706666E+02  0.00000000000E+00 0.  1.
       21   -1    0    0  502  503 -0.00000000000E+00 -0.00000000000E+00 -0.72472407984E+03  0.72472407984E+03  0.00000000000E+00 0.  1.
       25    2    1    2    0    0 -0.14210854715E-13 -0.14210854715E-13 -0.70316337317E+03  0.74628478650E+03  0.25000450636E+03 0.  0.
       24    2    3    3    0    0 -0.69240619149E+02  0.66202384739E+02 -0.34414324235E+03  0.36627788322E+03  0.80919079275E+02 0.  0.
      -24    2    3    3    0    0  0.69240619149E+02 -0.66202384739E+02 -0.35902013082E+03  0.38000690329E+03  0.79578722838E+02 0.  0.
      -13    1    4    4    0    0  0.48729992831E+01  0.23661863057E+02 -0.17615185344E+03  0.17780074622E+03  0.00000000000E+00 0.  1.
       14    1    4    4    0    0 -0.74113618432E+02  0.42540521682E+02 -0.16799138891E+03  0.18847713700E+03  0.00000000000E+00 0. -1.
        3    1    5    5  501    0  0.26689338475E+02 -0.65487333452E+02 -0.29334600133E+03  0.30174954536E+03  0.00000000000E+00 0. -1.
       -4    1    5    5    0  501  0.42551280674E+02 -0.71505128711E+00 -0.65674129492E+02  0.78257357928E+02  0.00000000000E+00 0.  1.
</event>
<event>
 9   1  0.7570500E-01  0.2499959E+03  0.7546771E-02  0.1113307E+00
       21   -1    0    0  503  502  0.00000000000E+00  0.00000000000E+00  0.11498023290E+03  0.11498023290E+03  0.00000000000E+00 0. -1.
       21   -1    0    0  502  503 -0.00000000000E+00 -0.00000000000E+00 -0.13588849726E+03  0.13588849726E+03  0.00000000000E+00 0. -1.
       25    2    1    2    0    0  0.71054273576E-14  0.14210854715E-13 -0.20908264365E+02  0.25086873016E+03  0.24999592847E+03 0.  0.
       24    2    3    3    0    0  0.46507225358E+02  0.50544186182E+02 -0.76609775810E+02  0.13090791296E+03  0.80933226536E+02 0.  0.
      -24    2    3    3    0    0 -0.46507225358E+02 -0.50544186182E+02  0.55701511446E+02  0.11996081720E+03  0.81057402619E+02 0.  0.
      -13    1    4    4    0    0  0.31560977740E+02 -0.11291785609E+02 -0.30553448957E+01  0.33659097887E+02  0.00000000000E+00 0.  1.
       14    1    4    4    0    0  0.14946247619E+02  0.61835971791E+02 -0.73554430915E+02  0.97248815069E+02  0.00000000000E+00 0. -1.
        1    1    5    5  501    0 -0.42595837955E+02 -0.58819412270E+01  0.61195425925E+02  0.74792264291E+02  0.00000000000E+00 0. -1.
       -2    1    5    5    0  501 -0.39113874036E+01 -0.44662244955E+02 -0.54939144794E+01  0.45168552912E+02  0.00000000000E+00 0.  1.
</event>
<event>
 9   1  0.7570500E-01  0.2499990E+03  0.7546771E-02  0.1113305E+00
       21   -1    0    0  503  502  0.00000000000E+00  0.00000000000E+00  0.58264091761E+03  0.58264091761E+03  0.00000000000E+00 0. -1.
       21   -1    0    0  502  503 -0.00000000000E+00 -0.00000000000E+00 -0.26817331333E+02  0.26817331333E+02  0.00000000000E+00 0. -1.
       25    2    1    2    0    0 -0.71054273576E-14  0.00000000000E+00  0.55582358628E+03  0.60945824895E+03  0.24999899628E+03 0.  0.
       24    2    3    3    0    0  0.51857625605E+02 -0.79087398866E+02  0.33121151673E+03  0.35365223606E+03  0.80154882940E+02 0.  0.
      -24    2    3    3    0    0 -0.51857625605E+02  0.79087398866E+02  0.22461206955E+03  0.25580601289E+03  0.77730974848E+02 0.  0.
      -13    1    4    4    0    0  0.22536828809E+02 -0.50658406100E+02  0.29136591568E+03  0.29659446991E+03  0.00000000000E+00 0.  1.
       14    1    4    4    0    0  0.29320796796E+02 -0.28428992766E+02  0.39845601054E+02  0.57057766148E+02  0.00000000000E+00 0. -1.
        1    1    5    5  501    0 -0.33031983528E+02  0.85399146246E+02  0.21512382166E+03  0.23379988187E+03  0.00000000000E+00 0. -1.
       -2    1    5    5    0  501 -0.18825642078E+02 -0.63117473795E+01  0.94882478889E+01  0.22006131023E+02  0.00000000000E+00 0.  1.
</event>
<event>
 9   1  0.7570500E-01  0.2500009E+03  0.7546771E-02  0.1113304E+00
       21   -1    0    0  503  502  0.00000000000E+00  0.00000000000E+00  0.38426809370E+03  0.38426809370E+03  0.00000000000E+00 0. -1.
       21   -1    0    0  502  503 -0.00000000000E+00 -0.00000000000E+00 -0.40662014606E+02  0.40662014606E+02  0.00000000000E+00 0. -1.
       25    2    1    2    0    0 -0.17763568394E-14  0.00000000000E+00  0.34360607910E+03  0.42493010831E+03  0.25000091871E+03 0.  0.
       24    2    3    3    0    0 -0.11058217840E+02  0.61067481482E+02  0.47688204717E+02  0.11250167659E+03  0.80814236931E+02 0.  0.
      -24    2    3    3    0    0  0.11058217840E+02 -0.61067481482E+02  0.29591787438E+03  0.31242843172E+03  0.78693170547E+02 0.  0.
      -13    1    4    4    0    0 -0.33479019521E+02  0.10810840225E+02 -0.59196046288E+01  0.35675772359E+02  0.00000000000E+00 0.  1.
       14    1    4    4    0    0  0.22420801681E+02  0.50256641256E+02  0.53607809346E+02  0.76825904233E+02  0.00000000000E+00 0. -1.
        1    1    5    5  501    0  0.10936229146E+02 -0.77958207401E+02  0.19819523725E+03  0.21325673559E+03  0.00000000000E+00 0. -1.
       -2    1    5    5    0  501  0.12198869336E+00  0.16890725920E+02  0.97722637135E+02  0.99171696124E+02  0.00000000000E+00 0.  1.
</event>
<event>
 9   1  0.7570500E-01  0.2500049E+03  0.7546771E-02  0.1113302E+00
       21   -1    0    0  503  502  0.00000000000E+00  0.00000000000E+00  0.30144751320E+03  0.30144751320E+03  0.00000000000E+00 0. -1.
       21   -1    0    0  502  503 -0.00000000000E+00 -0.00000000000E+00 -0.51835266437E+02  0.51835266437E+02  0.00000000000E+00 0. -1.
       25    2    1    2    0    0  0.00000000000E+00  0.00000000000E+00  0.24961224676E+03  0.35328277963E+03  0.25000489726E+03 0.  0.
       24    2    3    3    0    0 -0.50906602079E+02  0.33680324512E+02  0.35713047792E+02  0.10566092982E+03  0.78504547093E+02 0.  0.
      -24    2    3    3    0    0  0.50906602079E+02 -0.33680324512E+02  0.21389919897E+03  0.24762184981E+03  0.10880196133E+03 0.  0.
      -13    1    4    4    0    0 -0.30047367748E+02  0.37844877812E+02  0.57569820530E+02  0.75162246647E+02  0.00000000000E+00 0.  1.
       14    1    4    4    0    0 -0.20859234331E+02 -0.41645532991E+01 -0.21856772738E+02  0.30498683177E+02  0.00000000000E+00 0. -1.
        3    1    5    5  501    0  0.12269440157E+01 -0.24308791256E+02  0.19026306512E+03  0.19181359877E+03  0.00000000000E+00 0. -1.
       -4    1    5    5    0  501  0.49679658063E+02 -0.93715332564E+01  0.23636133846E+02  0.55808251039E+02  0.00000000000E+00 0.  1.
</event>
<event>
 9   1  0.7570500E-01  0.2500089E+03  0.7546771E-02  0.1113299E+00
       21   -1    0    0  503  502  0.00000000000E+00  0.00000000000E+00  0.48505883004E+03  0.48505883004E+03  0.00000000000E+00 0. -1.
       21   -1    0    0  502  503 -0.00000000000E+00 -0.00000000000E+00 -0.32214874044E+02  0.32214874044E+02  0.00000000000E+00 0. -1.
       25    2    1    2    0    0  0.00000000000E+00  0.00000000000E+00  0.45284395600E+03  0.51727370409E+03  0.25000887275E+03 0.  0.
       24    2    3    3    0    0  0.31543612106E+02  0.58707379703E+02  0.34875654678E+03  0.36425007556E+03  0.81273813268E+02 0.  0.
      -24    2    3    3    0    0 -0.31543612106E+02 -0.58707379703E+02  0.10408740922E+03  0.15302362853E+03  0.90224643168E+02 0.  0.
      -13    1    4    4    0    0  0.43206596732E+02  0.27297902445E+02  0.91372238589E+02  0.10469418066E+03  0.00000000000E+00 0.  1.
       14    1    4    4    0    0 -0.11662984626E+02  0.31409477258E+02  0.25738430819E+03  0.25955589490E+03  0.00000000000E+00 0. -1.
        3    1    5    5  501    0  0.15075058306E+02 -0.62143220149E+02  0.47681659315E+02  0.79765768525E+02  0.00000000000E+00 0. -1.
       -4    1    5    5    0  501 -0.46618670412E+02  0.34358404459E+01  0.56405749902E+02  0.73257860005E+02  0.00000000000E+00 0.  1.
</event>
<event>
 9   1  0.7570500E-01  0.2499905E+03  0.7546771E-02  0.1113311E+00
       21   -1    0    0  503  502  0.00000000000E+00  0.00000000000E+00  0.54315484979E+03  0.54315484979E+03  0.00000000000E+00 0.  1.
       21   -1    0    0  502  503 -0.00000000000E+00 -0.00000000000E+00 -0.28764924251E+02  0.28764924251E+02  0.00000000000E+00 0.  1.
       25    2    1    2    0    0  0.00000000000E+00  0.00000000000E+00  0.51438992553E+03  0.57191977404E+03  0.24999046470E+03 0.  0.
       24    2    3    3    0    0  0.92880921128E+02  0.26606423886E+02  0.24416453482E+03  0.27419300495E+03  0.78934888334E+02 0.  0.
      -24    2    3    3    0    0 -0.92880921128E+02 -0.26606423886E+02  0.27022539071E+03  0.29772676909E+03  0.79276099452E+02 0.  0.
      -13    1    4    4    0    0  0.66348973974E+02  0.12731464692E+02  0.23240501626E+03  0.24202555262E+03  0.00000000000E+00 0.  1.
       14    1    4    4    0    0  0.26531947154E+02  0.13874959193E+02  0.11759518568E+02  0.32167452329E+02  0.00000000000E+00 0. -1.
        1    1    5    5  501    0 -0.74519388868E+02 -0.47306028825E+02  0.14726481666E+03  0.17169136818E+03  0.00000000000E+00 0. -1.
       -2    1    5    5    0  501 -0.18361532259E+02  0.20699604939E+02  0.12296057405E+03  0.12603540091E+03  0.00000000000E+00 0.  1.
</event>
<event>
 9   1  0.7570500E-01  0.2500072E+03  0.7546771E-02  0.1113300E+00
       21   -1    0    0  503  502  0.00000000000E+00  0.00000000000E+00  0.27929015626E+03  0.27929015626E+03  0.00000000000E+00 0. -1.
       21   -1    0    0  502  503 -0.00000000000E+00 -0.00000000000E+00 -0.55948612349E+02  0.55948612349E+02  0.00000000000E+00 0. -1.
       25    2    1    2    0    0  0.00000000000E+00  0.00000000000E+00  0.22334154391E+03  0.33523876860E+03  0.25000717338E+03 0.  0.
       24    2    3    3    0    0  0.93906325797E+02 -0.20042466970E+02  0.10109052860E+03  0.16007374516E+03  0.78639750824E+02 0.  0.
      -24    2    3    3    0    0 -0.93906325797E+02  0.20042466970E+02  0.12225101531E+03  0.17516502344E+03  0.80730268102E+02 0.  0.
      -13    1    4    4    0    0  0.35969150056E+02 -0.45462573904E+02  0.31327104454E+02  0.65893951583E+02  0.00000000000E+00 0.  1.
       14    1    4    4    0    0  0.57937175741E+02  0.25420106934E+02  0.69763424147E+02  0.94179793577E+02  0.00000000000E+00 0. -1.
        3    1    5    5  501    0 -0.39495479356E+02  0.44986926734E+01 -0.76465081517E+00  0.39758216965E+02  0.00000000000E+00 0. -1.
       -4    1    5    5    0  501 -0.54410846441E+02  0.15543774297E+02  0.12301566612E+03  0.13540680648E+03  0.00000000000E+00 0.  1.
</event>
<event>
 8   1  0.7570500E-01  0.2506229E+03  0.7546771E-02  0.1112912E+00
       21   -1    0    0  503  502  0.00000000000E+00  0.00000000000E+00  0.14826569184E+03  0.14826569184E+03  0.00000000000E+00 0. -1.
       21   -1    0    0  502  503 -0.00000000000E+00 -0.00000000000E+00 -0.10591097730E+03  0.10591097730E+03  0.00000000000E+00 0. -1.
       24    2    1    2    0    0  0.54597346659E+02 -0.58428019861E+02  0.71899097163E+02  0.13501232738E+03  0.81634212213E+02 0.  0.
      -24    2    1    2    0    0 -0.54597346659E+02  0.58428019861E+02 -0.29544382623E+02  0.11916434177E+03  0.83262032391E+02 0.  0.
      -13    1    3    3    0    0  0.84297515358E+00 -0.35790751532E+02  0.67640539619E+02  0.76530589323E+02  0.00000000000E+00 0.  1.
       14    1    3    3    0    0  0.53754371505E+02 -0.22637268330E+02  0.42585575443E+01  0.58481738053E+02  0.00000000000E+00 0. -1.
        3    1    4    4  501    0  0.14917090636E+02  0.36310859807E+02  0.28249782450E+01  0.39357065885E+02  0.00000000000E+00 0. -1.
       -4    1    4    4    0  501 -0.69514437294E+02  0.22117160054E+02 -0.32369360868E+02  0.79807275885E+02  0.00000000000E+00 0.  1.
</event>
<event>
 9   1  0.7570500E-01  0.2499996E+03  0.7546771E-02  0.1113305E+00
       21   -1    0    0  503  502  0.00000000000E+00  0.00000000000E+00  0.27419753192E+03  0.27419753192E+03  0.00000000000E+00 0. -1.
       21   -1    0    0  502  503 -0.00000000000E+00 -0.00000000000E+00 -0.56984278472E+02  0.56984278472E+02  0.00000000000E+00 0. -1.
       25    2    1    2    0    0 -0.35527136788E-14 -0.35527136788E-14  0.21721325345E+03  0.33118181040E+03  0.24999958812E+03 0.  0.
       24    2    3    3    0    0  0.31563594613E+02  0.27053873666E+02  0.33738502587E+01  0.99164186992E+02  0.89966552290E+02 0.  0.
      -24    2    3    3    0    0 -0.31563594613E+02 -0.27053873666E+02  0.21383940319E+03  0.23201762340E+03  0.79854333800E+02 0.  0.
      -13    1    4    4    0    0  0.13765989487E+01  0.54798617254E+02 -0.10632341022E+02  0.55837533553E+02  0.00000000000E+00 0.  1.
       14    1    4    4    0    0  0.30186995664E+02 -0.27744743589E+02  0.14006191281E+02  0.43326653439E+02  0.00000000000E+00 0. -1.
        3    1    5    5  501    0 -0.12220629943E+02  0.24068488786E+02  0.12361488354E+03  0.12652776526E+03  0.00000000000E+00 0. -1.
       -4    1    5    5    0  501 -0.19342964670E+02 -0.51122362452E+02  0.90224519656E+02  0.10548985815E+03  0.00000000000E+00 0.  1.
</event>
<event>
 9   1  0.7570500E-01  0.2499943E+03  0.7546771E-02  0.1113308E+00
       21   -1    0    0  503  502  0.00000000000E+00  0.00000000000E+00  0.14589536656E+03  0.14589536656E+03  0.00000000000E+00 0. -1.
       21   -1    0    0  502  503 -0.00000000000E+00 -0.00000000000E+00 -0.10709241711E+03  0.10709241711E+03  0.00000000000E+00 0. -1.
       25    2    1    2    0    0  0.00000000000E+00 -0.14210854715E-13  0.38802949449E+02  0.25298778367E+03  0.24999429954E+03 0.  0.
       24    2    3    3    0    0  0.70003355515E+01  0.75148720117E+02 -0.38854662864E+02  0.11776083248E+03  0.81618588616E+02 0.  0.
      -24    2    3    3    0    0 -0.70003355515E+01 -0.75148720117E+02  0.77657612313E+02  0.13522695119E+03  0.80989436009E+02 0.  0.
      -13    1    4    4    0    0 -0.27148028058E+02 -0.11149472749E+01 -0.51247397483E+01  0.27649981778E+02  0.00000000000E+00 0.  1.
       14    1    4    4    0    0  0.34148363609E+02  0.76263667392E+02 -0.33729923115E+02  0.90110850705E+02  0.00000000000E+00 0. -1.
        1    1    5    5  501    0  0.32089011925E+02 -0.43758429847E+02  0.17711800442E+02  0.57080756336E+02  0.00000000000E+00 0. -1.
       -2    1    5    5    0  501 -0.39089347476E+02 -0.31390290270E+02  0.59945811871E+02  0.78146194854E+02  0.00000000000E+00 0.  1.
</event>
<event>
 9   1  0.7570500E-01  0.2499239E+03  0.7546771E-02  0.1113353E+00
       21   -1    0    0  503  502  0.00000000000E+00  0.00000000000E+00  0.58984311716E+02  0.58984311716E+02  0.00000000000E+00 0.  1.
       21   -1    0    0  502  503 -0.00000000000E+00 -0.00000000000E+00 -0.26473962708E+03  0.26473962708E+03  0.00000000000E+00 0.  1.
       25    2    1    2    0    0  0.00000000000E+00  0.00000000000E+00 -0.20575531537E+03  0.32372393880E+03  0.24992386591E+03 0.  0.
       24    2    3    3    0    0  0.64189279598E+02  0.60546499385E+02 -0.37317223375E+02  0.11828721122E+03  0.69376847545E+02 0.  0.
      -24    2    3    3    0    0 -0.64189279598E+02 -0.60546499385E+02 -0.16843809199E+03  0.20543672757E+03  0.77760632714E+02 0.  0.
      -13    1    4    4    0    0  0.68927896709E+02  0.72016477140E+02 -0.35066849170E+02  0.10567455623E+03  0.00000000000E+00 0.  1.
       14    1    4    4    0    0 -0.47386171114E+01 -0.11469977754E+02 -0.22503742054E+01  0.12612654989E+02  0.00000000000E+00 0. -1.
        3    1    5    5  501    0 -0.24813123453E+02  0.16872928071E+02 -0.53901624774E+02  0.61690938965E+02  0.00000000000E+00 0. -1.
       -4    1    5    5    0  501 -0.39376156145E+02 -0.77419427456E+02 -0.11453646722E+03  0.14374578861E+03  0.00000000000E+00 0.  1.
</event>
<event>
 9   1  0.7570500E-01  0.2500001E+03  0.7546771E-02  0.1113305E+00
       21   -1    0    0  503  502  0.00000000000E+00  0.00000000000E+00  0.15095466047E+02  0.15095466047E+02  0.00000000000E+00 0. -1.
       21   -1    0    0  502  503 -0.00000000000E+00 -0.00000000000E+00 -0.10350802054E+04  0.10350802054E+04  0.00000000000E+00 0. -1.
       25    2    1    2    0    0  0.00000000000E+00  0.00000000000E+00 -0.10199847394E+04  0.10501756714E+04  0.25000014477E+03 0.  0.
       24    2    3    3    0    0  0.33531494437E+02  0.13986723239E+02 -0.88081198288E+03  0.88505345372E+03  0.78548565965E+02 0.  0.
      -24    2    3    3    0    0 -0.33531494437E+02 -0.13986723239E+02 -0.13917275647E+03  0.16512221772E+03  0.81094396203E+02 0.  0.
      -13    1    4    4    0    0  0.20182134376E+02  0.41407572943E+02 -0.71344316870E+03  0.71492871016E+03  0.00000000000E+00 0.  1.
       14    1    4    4    0    0  0.13349360060E+02 -0.27420849704E+02 -0.16736881418E+03  0.17012474357E+03  0.00000000000E+00 0. -1.
        1    1    5    5  501    0 -0.33506007008E+02  0.17802138929E+02 -0.22313925565E+02  0.44016814175E+02  0.00000000000E+00 0. -1.
       -2    1    5    5    0  501 -0.25487429050E-01 -0.31788862167E+02 -0.11685883090E+03  0.12110540355E+03  0.00000000000E+00 0.  1.
</event>
<event>
 9   1  0.7570500E-01  0.2500374E+03  0.7546771E-02  0.1113281E+00
       21   -1    0    0  503  502  0.00000000000E+00  0.00000000000E+00  0.93680062767E+02  0.93680062767E+02  0.00000000000E+00 0. -1.
       21   -1    0    0  502  503 -0.00000000000E+00 -0.00000000000E+00 -0.16684095070E+03  0.16684095070E+03  0.00000000000E+00 0. -1.
       25    2    1    2    0    0 -0.71054273576E-14  0.14210854715E-13 -0.73160887932E+02  0.26052101347E+03  0.25003736308E+03 0.  0.
       24    2    3    3    0    0  0.57359286704E+02 -0.34416628879E+02 -0.11075154265E+03  0.14822866442E+03  0.72327316013E+02 0.  0.
      -24    2    3    3    0    0 -0.57359286704E+02  0.34416628879E+02  0.37590654713E+02  0.11229234905E+03  0.81987329625E+02 0.  0.
      -13    1    4    4    0    0  0.10593155989E+02 -0.15980885479E+02 -0.92940930069E+02  0.94897945903E+02  0.00000000000E+00 0.  1.
       14    1    4    4    0    0  0.46766130715E+02 -0.18435743400E+02 -0.17810612576E+02  0.53330718513E+02  0.00000000000E+00 0. -1.
        1    1    5    5  501    0 -0.29588480631E+02 -0.19325163522E+02 -0.83725381029E+01  0.36318583749E+02  0.00000000000E+00 0. -1.
       -2    1    5    5    0  501 -0.27770806073E+02  0.53741792401E+02  0.45963192816E+02  0.75973765302E+02  0.00000000000E+00 0.  1.
</event>
<event>
 9   1  0.7570500E-01  0.2499997E+03  0.7546771E-02  0.1113305E+00
       21   -1    0    0  503  502  0.00000000000E+00  0.00000000000E+00  0.43024480141E+03  0.43024480141E+03  0.00000000000E+00 0.  1.
       21   -1    0    0  502  503 -0.00000000000E+00 -0.00000000000E+00 -0.36316458723E+02  0.36316458723E+02  0.00000000000E+00 0.  1.
       25    2    1    2    0    0 -0.71054273576E-14  0.71054273576E-14  0.39392834268E+03  0.46656126013E+03  0.24999974057E+03 0.  0.
       24    2    3    3    0    0  0.59371166691E+02 -0.57247734528E+02  0.10642059970E+03  0.15683942375E+03  0.80442664426E+02 0.  0.
      -24    2    3    3    0    0 -0.59371166691E+02  0.57247734528E+02  0.28750774298E+03  0.30972183638E+03  0.80403203354E+02 0.  0.
      -13    1    4    4    0    0  0.24917259816E+02 -0.30876675639E+02  0.10628723806E+03  0.11345138126E+03  0.00000000000E+00 0.  1.
       14    1    4    4    0    0  0.34453906875E+02 -0.26371058890E+02  0.13336163713E+00  0.43388042492E+02  0.00000000000E+00 0. -1.
        3    1    5    5  501    0 -0.30583779124E+02  0.38589649887E+02  0.26298043648E+03  0.26755044121E+03  0.00000000000E+00 0. -1.
       -4    1    5    5    0  501 -0.28787387567E+02  0.18658084641E+02  0.24527306504E+02  0.42171395160E+02  0.00000000000E+00 0.  1.
</event>
<event>
 8   1  0.7570500E-01  0.2495470E+03  0.7546771E-02  0.1113591E+00
       21   -1    0    0  503  502  0.00000000000E+00  0.00000000000E+00  0.37923895054E+02  0.37923895054E+02  0.00000000000E+00 0. -1.
       21   -1    0    0  502  503 -0.00000000000E+00 -0.00000000000E+00 -0.41051758360E+03  0.41051758360E+03  0.00000000000E+00 0. -1.
       24    2    1    2    0    0 -0.76897396675E+01 -0.52652835316E+02 -0.36933912215E+02  0.97862397853E+02  0.73358584222E+02 0.  0.
      -24    2    1    2    0    0  0.76897396675E+01  0.52652835316E+02 -0.33565977633E+03  0.35057908080E+03  0.86062496391E+02 0.  0.
      -13    1    3    3    0    0 -0.38357565764E+02 -0.37345010064E+02 -0.34093176087E+02  0.63468868619E+02  0.00000000000E+00 0.  1.
       14    1    3    3    0    0  0.30667826097E+02 -0.15307825252E+02 -0.28407361280E+01  0.34393529234E+02  0.00000000000E+00 0. -1.
        1    1    4    4  501    0 -0.27087857752E+02 -0.41956911395E+01 -0.16692505278E+03  0.16916066064E+03  0.00000000000E+00 0. -1.
       -2    1    4    4    0  501  0.34777597419E+02  0.56848526456E+02 -0.16873472355E+03  0.18141842016E+03  0.00000000000E+00 0.  1.
</event>
<event>
 9   1  0.7570500E-01  0.2499977E+03  0.7546771E-02  0.1113306E+00
       21   -1    0    0  503  502  0.00000000000E+00  0.00000000000E+00  0.14423325710E+03  0.14423325710E+03  0.00000000000E+00 0. -1.
       21   -1    0    0  502  503 -0.00000000000E+00 -0.00000000000E+00 -0.10832944688E+03  0.10832944688E+03  0.00000000000E+00 0. -1.
       25    2    1    2    0    0  0.14210854715E-13 -0.71054273576E-14  0.35903810221E+02  0.25256270399E+03  0.24999767170E+03 0.  0.
       24    2    3    3    0    0  0.73169897500E+02 -0.56157556677E+02 -0.75300984006E+01  0.12276944811E+03  0.80672981449E+02 0.  0.
      -24    2    3    3    0    0 -0.73169897500E+02  0.56157556677E+02  0.43433908622E+02  0.12979325587E+03  0.80326084060E+02 0.  0.
      -13    1    4    4    0    0 -0.56630414161E+01 -0.15904648161E+02  0.23532473447E+02  0.28962133515E+02  0.00000000000E+00 0.  1.
       14    1    4    4    0    0  0.78832938916E+02 -0.40252908516E+02 -0.31062571848E+02  0.93807314597E+02  0.00000000000E+00 0. -1.
        1    1    5    5  501    0 -0.81562221701E+02  0.26327763397E+02  0.48371977794E+02  0.98414406313E+02  0.00000000000E+00 0. -1.
       -2    1    5    5    0  501  0.83923242016E+01  0.29829793280E+02 -0.49380691726E+01  0.31378849561E+02  0.00000000000E+00 0.  1.
</event>
<event>
 9   1  0.7570500E-01  0.2500029E+03  0.7546771E-02  0.1113303E+00
       21   -1    0    0  503  502  0.00000000000E+00  0.00000000000E+00  0.90928327013E+03  0.90928327013E+03  0.00000000000E+00 0.  1.
       21   -1    0    0  502  503 -0.00000000000E+00 -0.00000000000E+00 -0.17184256588E+02  0.17184256588E+02  0.00000000000E+00 0.  1.
       25    2    1    2    0    0  0.00000000000E+00  0.00000000000E+00  0.89209901354E+03  0.92646752672E+03  0.25000285618E+03 0.  0.
       24    2    3    3    0    0 -0.70356306566E+01  0.21384061098E+02  0.79489397881E+03  0.79892863369E+03  0.76965875680E+02 0.  0.
      -24    2    3    3    0    0  0.70356306566E+01 -0.21384061098E+02  0.97205034729E+02  0.12753889302E+03  0.79439110574E+02 0.  0.
      -13    1    4    4    0    0 -0.28076674913E+02 -0.13867331512E+02  0.18307434374E+03  0.18573319007E+03  0.00000000000E+00 0.  1.
       14    1    4    4    0    0  0.21041044257E+02  0.35251392611E+02  0.61181963507E+03  0.61319544362E+03  0.00000000000E+00 0. -1.
        3    1    5    5  501    0 -0.13392245741E+02 -0.32003884103E+02  0.98547961957E+02  0.10447632100E+03  0.00000000000E+00 0. -1.
       -4    1    5    5    0  501  0.20427876397E+02  0.10619823004E+02 -0.13429272285E+01  0.23062572022E+02  0.00000000000E+00 0.  1.
</event>
<event>
 9   1  0.7570500E-01  0.2500064E+03  0.7546771E-02  0.1113301E+00
       21   -1    0    0  503  502  0.00000000000E+00  0.00000000000E+00  0.77710325254E+02  0.77710325254E+02  0.00000000000E+00 0.  1.
       21   -1    0    0  502  503 -0.00000000000E+00 -0.00000000000E+00 -0.20107747252E+03  0.20107747252E+03  0.00000000000E+00 0.  1.
       25    2    1    2    0    0  0.00000000000E+00  0.00000000000E+00 -0.12336714727E+03  0.27878779777E+03  0.25000636625E+03 0.  0.
       24    2    3    3    0    0  0.36364075004E+02 -0.13548868726E+02 -0.16201454232E+03  0.18523621528E+03  0.80980403395E+02 0.  0.
      -24    2    3    3    0    0 -0.36364075004E+02  0.13548868726E+02  0.38647395052E+02  0.93551582494E+02  0.75844311904E+02 0.  0.
      -13    1    4    4    0    0 -0.21680815358E+02 -0.16813013298E+02 -0.28229940757E+02  0.39365781154E+02  0.00000000000E+00 0.  1.
       14    1    4    4    0    0  0.58044890363E+02  0.32641445714E+01 -0.13378460156E+03  0.14587043413E+03  0.00000000000E+00 0. -1.
        3    1    5    5  501    0 -0.30578463194E+02 -0.19305771628E+02  0.46863933708E+02  0.59194455078E+02  0.00000000000E+00 0. -1.
       -4    1    5    5    0  501 -0.57856118106E+01  0.32854640354E+02 -0.82165386552E+01  0.34357127416E+02  0.00000000000E+00 0.  1.
</event>
<event>
 9   1  0.7570500E-01  0.2499959E+03  0.7546771E-02  0.1113307E+00
       21   -1    0    0  503  502  0.00000000000E+00  0.00000000000E+00  0.13796566309E+03  0.13796566309E+03  0.00000000000E+00 0.  1.
       21   -1    0    0  502  503 -0.00000000000E+00 -0.00000000000E+00 -0.11324907297E+03  0.11324907297E+03  0.00000000000E+00 0.  1.
       25    2    1    2    0    0  0.00000000000E+00 -0.71054273576E-14  0.24716590116E+02  0.25121473607E+03  0.24999586754E+03 0.  0.
       24    2    3    3    0    0 -0.91463237096E+02 -0.21069176873E+02 -0.43099400952E+01  0.12371356180E+03  0.80480033775E+02 0.  0.
      -24    2    3    3    0    0  0.91463237096E+02  0.21069176873E+02  0.29026530211E+02  0.12750117426E+03  0.81268542670E+02 0.  0.
      -13    1    4    4    0    0 -0.54792157307E+02 -0.45091202247E+02  0.19815023078E+02  0.73675180095E+02  0.00000000000E+00 0.  1.
       14    1    4    4    0    0 -0.36671079789E+02  0.24022025374E+02 -0.24124963173E+02  0.50038381710E+02  0.00000000000E+00 0. -1.
        3    1    5    5  501    0  0.15068574928E+02 -0.27841003050E+02  0.17185983618E+02  0.36021402445E+02  0.00000000000E+00 0. -1.
       -4    1    5    5    0  501  0.76394662168E+02  0.48910179923E+02  0.11840546594E+02  0.91479771816E+02  0.00000000000E+00 0.  1.
</event>
<event>
 9   1  0.7570500E-01  0.2500009E+03  0.7546771E-02  0.1113304E+00
       21   -1    0    0  503  502  0.00000000000E+00  0.00000000000E+00  0.15378345739E+03  0.15378345739E+03  0.00000000000E+00 0. -1.
       21   -1    0    0  502  503 -0.00000000000E+00 -0.00000000000E+00 -0.10160461557E+03  0.10160461557E+03  0.00000000000E+00 0. -1.
       25    2    1    2    0    0  0.14210854715E-13 -0.35527136788E-14  0.52178841826E+02  0.25538807296E+03  0.25000087255E+03 0.  0.
       24    2    3    3    0    0 -0.41406222685E+02  0.24786487747E+01 -0.59432929026E+02  0.11190976687E+03  0.85269595353E+02 0.  0.
      -24    2    3    3    0    0  0.41406222685E+02 -0.24786487747E+01  0.11161177085E+03  0.14347830609E+03  0.80051345696E+02 0.  0.
      -13    1    4    4    0    0 -0.25358078117E+02 -0.37798787182E+02 -0.10847140197E+02  0.46791461706E+02  0.00000000000E+00 0.  1.
       14    1    4    4    0    0 -0.16048144569E+02  0.40277435956E+02 -0.48585788829E+02  0.65118305164E+02  0.00000000000E+00 0. -1.
        3    1    5    5  501    0  0.35591250946E+02  0.15049087542E+02  0.96111362423E+01  0.39819418876E+02  0.00000000000E+00 0. -1.
       -4    1    5    5    0  501  0.58149717392E+01 -0.17527736317E+02  0.10200063461E+03  0.10365888721E+03  0.00000000000E+00 0.  1.
</event>
<event>
 9   1  0.7570500E-01  0.2500006E+03  0.7546771E-02  0.1113304E+00
       21   -1    0    0  503  502  0.00000000000E+00  0.00000000000E+00  0.16892972795E+03  0.16892972795E+03  0.00000000000E+00 0. -1.
       21   -1    0    0  502  503 -0.00000000000E+00 -0.00000000000E+00 -0.92494529440E+02  0.92494529440E+02  0.00000000000E+00 0. -1.
       25    2    1    2    0    0  0.00000000000E+00 -0.35527136788E-14  0.76435198506E+02  0.26142425739E+03  0.25000060556E+03 0.  0.
       24    2    3    3    0    0 -0.83139921108E+01  0.81938213150E+01 -0.59894713140E+02  0.10306229304E+03  0.83055393634E+02 0.  0.
      -24    2    3    3    0    0  0.83139921108E+01 -0.81938213150E+01  0.13632991165E+03  0.15836196435E+03  0.79727070498E+02 0.  0.
      -13    1    4    4    0    0  0.40773783257E+01  0.37345620868E+02 -0.60689768881E+02  0.71376245761E+02  0.00000000000E+00 0.  1.
       14    1    4    4    0    0 -0.12391370436E+02 -0.29151799553E+02  0.79505574145E+00  0.31686047278E+02  0.00000000000E+00 0. -1.
        3    1    5    5  501    0  0.91858726230E+01 -0.37079595211E+02  0.31170407867E+02  0.49303863575E+02  0.00000000000E+00 0. -1.
       -4    1    5    5    0  501 -0.87188051223E+00  0.28885773896E+02  0.10515950378E+03  0.10905810077E+03  0.00000000000E+00 0.  1.
</event>
<event>
 9   1  0.7570500E-01  0.2499869E+03  0.7546771E-02  0.1113313E+00
       21   -1    0    0  503  502  0.00000000000E+00  0.00000000000E+00  0.95503427767E+02  0.95503427767E+02  0.00000000000E+00 0. -1.
       21   -1    0    0  502  503 -0.00000000000E+00 -0.00000000000E+00 -0.16358960513E+03  0.16358960513E+03  0.00000000000E+00 0. -1.
       25    2    1    2    0    0  0.00000000000E+00  0.71054273576E-14 -0.68086177361E+02  0.25909303289E+03  0.24998694395E+03 0.  0.
       24    2    3    3    0    0 -0.86497820288E+01  0.23369380339E+02  0.61350013457E+02  0.10354404890E+03  0.79602759033E+02 0.  0.
      -24    2    3    3    0    0  0.86497820288E+01 -0.23369380339E+02 -0.12943619082E+03  0.15554898399E+03  0.82588208967E+02 0.  0.
      -13    1    4    4    0    0 -0.37752088253E+02  0.28146909046E+02  0.16560906767E+02  0.49917254424E+02  0.00000000000E+00 0.  1.
       14    1    4    4    0    0  0.29102306224E+02 -0.47775287067E+01  0.44789106690E+02  0.53626794480E+02  0.00000000000E+00 0. -1.
        3    1    5    5  501    0 -0.33299504018E+02 -0.24438512722E+02 -0.43917369944E+02  0.60289578326E+02  0.00000000000E+00 0. -1.
       -4    1    5    5    0  501  0.41949286047E+02  0.10691323830E+01 -0.85518820874E+02  0.95259405665E+02  0.00000000000E+00 0.  1.
</event>
<event>
 9   1  0.7570500E-01  0.2500031E+03  0.7546771E-02  0.1113303E+00
       21   -1    0    0  503  502  0.00000000000E+00  0.00000000000E+00  0.63099719533E+02  0.63099719533E+02  0.00000000000E+00 0.  1.
       21   -1    0    0  502  503 -0.00000000000E+00 -0.00000000000E+00 -0.24762998380E+03  0.24762998380E+03  0.00000000000E+00 0.  1.
       25    2    1    2    0    0  0.00000000000E+00  0.71054273576E-14 -0.18453026426E+03  0.31072970333E+03  0.25000306018E+03 0.  0.
       24    2    3    3    0    0 -0.75671796996E+02  0.53255273599E+02 -0.10575663763E+03  0.16485097016E+03  0.86191826375E+02 0.  0.
      -24    2    3    3    0    0  0.75671796996E+02 -0.53255273599E+02 -0.78773626630E+02  0.14587873316E+03  0.80703008063E+02 0.  0.
      -13    1    4    4    0    0 -0.54924754315E+02  0.51970245962E+02 -0.11842602385E+03  0.14050750239E+03  0.00000000000E+00 0.  1.
       14    1    4    4    0    0 -0.20747042681E+02  0.12850276375E+01  0.12669386221E+02  0.24343467774E+02  0.00000000000E+00 0. -1.
        3    1    5    5  501    0 -0.15141704064E+02 -0.14100072407E+02 -0.22059648813E+01  0.20807439172E+02  0.00000000000E+00 0. -1.
       -4    1    5    5    0  501  0.90813501060E+02 -0.39155201193E+02 -0.76567661749E+02  0.12507129399E+03  0.00000000000E+00 0.  1.
</event>
<event>
 9   1  0.7570500E-01  0.2500011E+03  0.7546771E-02  0.1113304E+00
       21   -1    0    0  503  502  0.00000000000E+00  0.00000000000E+00  0.15928235368E+02  0.15928235368E+02  0.00000000000E+00 0.  1.
       21   -1    0    0  502  503 -0.00000000000E+00 -0.00000000000E+00 -0.98097141684E+03  0.98097141684E+03  0.00000000000E+00 0.  1.
       25    2    1    2    0    0  0.00000000000E+00  0.00000000000E+00 -0.96504318147E+03  0.99689965221E+03  0.25000114893E+03 0.  0.
       24    2    3    3    0    0  0.75502378948E+02  0.56926895468E+02 -0.38245294494E+03  0.40183326791E+03  0.79110299287E+02 0.  0.
      -24    2    3    3    0    0 -0.75502378948E+02 -0.56926895468E+02 -0.58259023654E+03  0.59506638430E+03  0.75837572231E+02 0.  0.
      -13    1    4    4    0    0  0.28446040973E+02 -0.16447296023E+02 -0.68004677388E+02  0.75526994777E+02  0.00000000000E+00 0.  1.
       14    1    4    4    0    0  0.47056337976E+02  0.73374191491E+02 -0.31444826755E+03  0.32630627313E+03  0.00000000000E+00 0. -1.
        1    1    5    5  501    0 -0.64921493415E+02 -0.46874375528E+02 -0.25782991950E+03  0.26997828575E+03  0.00000000000E+00 0. -1.
       -2    1    5    5    0  501 -0.10580885533E+02 -0.10052519940E+02 -0.32476031704E+03  0.32508809855E+03  0.00000000000E+00 0.  1.
</event>
<event>
 9   1  0.7570500E-01  0.2499986E+03  0.7546771E-02  0.1113306E+00
       21   -1    0    0  503  502  0.00000000000E+00  0.00000000000E+00  0.22977417638E+03  0.22977417638E+03  0.00000000000E+00 0.  1.
       21   -1    0    0  502  503 -0.00000000000E+00 -0.00000000000E+00 -0.68000773226E+02  0.68000773226E+02  0.00000000000E+00 0.  1.
       25    2    1    2    0    0  0.00000000000E+00  0.00000000000E+00  0.16177340316E+03  0.29777494961E+03  0.24999857329E+03 0.  0.
       24    2    3    3    0    0  0.79549645696E+02 -0.44549635992E+02  0.11445375800E+03  0.16681908293E+03  0.80100733523E+02 0.  0.
      -24    2    3    3    0    0 -0.79549645696E+02  0.44549635992E+02  0.47319645153E+02  0.13095586668E+03  0.81224836123E+02 0.  0.
      -13    1    4    4    0    0 -0.14145250041E+01  0.14308623566E+02 -0.50691024518E+00  0.14387305076E+02  0.00000000000E+00 0.  1.
       14    1    4    4    0    0  0.80964170700E+02 -0.58858259558E+02  0.11496066825E+03  0.15243177785E+03  0.00000000000E+00 0. -1.
        3    1    5    5  501    0 -0.83405891608E+02  0.62150262729E+02  0.41933014281E+02  0.11214979090E+03  0.00000000000E+00 0. -1.
       -4    1    5    5    0  501  0.38562459122E+01 -0.17600626738E+02  0.53866308724E+01  0.18806075780E+02  0.00000000000E+00 0.  1.
</event>
<event>
 9   1  0.7570500E-01  0.2499966E+03  0.7546771E-02  0.1113307E+00
       21   -1    0    0  503  502  0.00000000000E+00  0.00000000000E+00  0.23578216737E+02  0.23578216737E+02  0.00000000000E+00 0. -1.
       21   -1    0    0  502  503 -0.00000000000E+00 -0.00000000000E+00 -0.66266973906E+03  0.66266973906E+03  0.00000000000E+00 0. -1.
       25    2    1    2    0    0  0.00000000000E+00  0.00000000000E+00 -0.63909152232E+03  0.68624795579E+03  0.24999656584E+03 0.  0.
       24    2    3    3    0    0 -0.29590298398E+02  0.84706815453E+02 -0.34887194744E+03  0.37166381721E+03  0.91496048929E+02 0.  0.
      -24    2    3    3    0    0  0.29590298398E+02 -0.84706815453E+02 -0.29021957487E+03  0.31458413858E+03  0.81761532892E+02 0.  0.
      -13    1    4    4    0    0 -0.57889842316E+02  0.28281598141E+02 -0.15829365900E+03  0.17090337948E+03  0.00000000000E+00 0.  1.
       14    1    4    4    0    0  0.28299543918E+02  0.56425217312E+02 -0.19057828844E+03  0.20076043774E+03  0.00000000000E+00 0. -1.
        1    1    5    5  501    0  0.48245641417E+02 -0.37302215491E+02 -0.95499827474E+02  0.11331069783E+03  0.00000000000E+00 0. -1.
       -2    1    5    5    0  501 -0.18655343019E+02 -0.47404599962E+02 -0.19471974740E+03  0.20127344074E+03  0.00000000000E+00 0.  1.
</event>
<event>
 9   1  0.7570500E-01  0.2500008E+03  0.7546771E-02  0.1113304E+00
       21   -1    0    0  503  502  0.00000000000E+00  0.00000000000E+00  0.67486043379E+01  0.67486043379E+01  0.00000000000E+00 0. -1.
       21   -1    0    0  502  503 -0.00000000000E+00 -0.00000000000E+00 -0.23153078269E+04  0.23153078269E+04  0.00000000000E+00 0. -1.
       25    2    1    2    0    0 -0.71054273576E-14  0.00000000000E+00 -0.23085592226E+04  0.23220564313E+04  0.25000077155E+03 0.  0.
       24    2    3    3    0    0 -0.53912098206E+02  0.19603812433E+02 -0.43212339356E+03  0.44275534227E+03  0.77529620465E+02 0.  0.
      -24    2    3    3    0    0  0.53912098206E+02 -0.19603812433E+02 -0.18764358290E+04  0.18793010890E+04  0.86431121993E+02 0.  0.
      -13    1    4    4    0    0 -0.39308781734E+02  0.66916347952E+01 -0.41469347539E+03  0.41660609312E+03  0.00000000000E+00 0.  1.
       14    1    4    4    0    0 -0.14603316473E+02  0.12912177637E+02 -0.17429918172E+02  0.26149249145E+02  0.00000000000E+00 0. -1.
        1    1    5    5  501    0  0.36327796760E+02  0.31513214568E+02 -0.72159960702E+03  0.72320037636E+03  0.00000000000E+00 0. -1.
       -2    1    5    5    0  501  0.17584301447E+02 -0.51117027001E+02 -0.11548362220E+04  0.11561007126E+04  0.00000000000E+00 0.  1.
</event>
<event>
 8   1  0.7570500E-01  0.2502196E+03  0.7546771E-02  0.1113166E+00
       21   -1    0    0  503  502  0.00000000000E+00  0.00000000000E+00  0.24593065306E+03  0.24593065306E+03  0.00000000000E+00 0.  1.
       21   -1    0    0  502  503 -0.00000000000E+00 -0.00000000000E+00 -0.63645852976E+02  0.63645852976E+02  0.00000000000E+00 0.  1.
       24    2    1    2    0    0 -0.92255101570E+02  0.14565472807E+02  0.88219294371E+02  0.15241899021E+03  0.82010657319E+02 0.  0.
      -24    2    1    2    0    0  0.92255101570E+02 -0.14565472807E+02  0.94065505714E+02  0.15715751583E+03  0.84421612470E+02 0.  0.
      -13    1    3    3    0    0 -0.18004699930E+02 -0.30524849104E+02  0.13799005034E+02  0.38030884454E+02  0.00000000000E+00 0.  1.
       14    1    3    3    0    0 -0.74250401639E+02  0.45090321911E+02  0.74420289337E+02  0.11438810576E+03  0.00000000000E+00 0. -1.
        1    1    4    4  501    0  0.77713630960E+02 -0.63486970927E+01  0.10949401417E+03  0.13441969175E+03  0.00000000000E+00 0. -1.
       -2    1    4    4    0  501  0.14541470610E+02 -0.82167757146E+01 -0.15428508454E+02  0.22737824077E+02  0.00000000000E+00 0.  1.
</event>
<event>
 9   1  0.7570500E-01  0.2499970E+03  0.7546771E-02  0.1113307E+00
       21   -1    0    0  503  502  0.00000000000E+00  0.00000000000E+00  0.10721880557E+03  0.10721880557E+03  0.00000000000E+00 0.  1.
       21   -1    0    0  502  503 -0.00000000000E+00 -0.00000000000E+00 -0.14572656041E+03  0.14572656041E+03  0.00000000000E+00 0.  1.
       25    2    1    2    0    0  0.00000000000E+00  0.00000000000E+00 -0.38507754835E+02  0.25294536598E+03  0.24999702196E+03 0.  0.
       24    2    3    3    0    0  0.29493563339E+02 -0.88883170091E+02 -0.24304864278E+02  0.11854346571E+03  0.68496267271E+02 0.  0.
      -24    2    3    3    0    0 -0.29493563339E+02  0.88883170091E+02 -0.14202890557E+02  0.13440190028E+03  0.95352296740E+02 0.  0.
      -13    1    4    4    0    0  0.32068604943E+01 -0.33906209120E+02  0.23257632245E+02  0.41241149702E+02  0.00000000000E+00 0.  1.
       14    1    4    4    0    0  0.26286702845E+02 -0.54976960971E+02 -0.47562496523E+02  0.77302316004E+02  0.00000000000E+00 0. -1.
        1    1    5    5  501    0  0.64387174656E+00  0.95517016919E+02  0.87842858131E+01  0.95922253775E+02  0.00000000000E+00 0. -1.
       -2    1    5    5    0  501 -0.30137435086E+02 -0.66338468288E+01 -0.22987176370E+02  0.38479646500E+02  0.00000000000E+00 0.  1.
</event>
<event>
 9   1  0.7570500E-01  0.2500026E+03  0.7546771E-02  0.1113303E+00
       21   -1    0    0  503  502  0.00000000000E+00  0.00000000000E+00  0.13348421016E+03  0.13348421016E+03  0.00000000000E+00 0.  1.
       21   -1    0    0  502  503 -0.00000000000E+00 -0.00000000000E+00 -0.11705746828E+03  0.11705746828E+03  0.00000000000E+00 0.  1.
       25    2    1    2    0    0  0.14210854715E-13  0.00000000000E+00  0.16426741885E+02  0.25054167844E+03  0.25000258956E+03 0.  0.
       24    2    3    3    0    0 -0.77532333356E+02  0.54829837408E+02  0.50353912242E+01  0.12497873428E+03  0.81097195211E+02 0.  0.
      -24    2    3    3    0    0  0.77532333356E+02 -0.54829837408E+02  0.11391350661E+02  0.12556294416E+03  0.81355493301E+02 0.  0.
      -13    1    4    4    0    0 -0.29263174933E+02  0.66142130458E+02 -0.10363811315E+02  0.73065199744E+02  0.00000000000E+00 0.  1.
       14    1    4    4    0    0 -0.48269158423E+02 -0.11312293050E+02  0.15399202540E+02  0.51913534534E+02  0.00000000000E+00 0. -1.
        1    1    5    5  501    0  0.81383167592E+01 -0.22628294351E+02  0.37655214264E+02  0.44678709316E+02  0.00000000000E+00 0. -1.
       -2    1    5    5    0  501  0.69394016597E+02 -0.32201543057E+02 -0.26263863603E+02  0.80884234843E+02  0.00000000000E+00 0.  1.
</event>
<event>
 9   1  0.7570500E-01  0.2499866E+03  0.7546771E-02  0.1113313E+00
       21   -1    0    0  503  502  0.00000000000E+00  0.00000000000E+00  0.14128089100E+03  0.14128089100E+03  0.00000000000E+00 0.  1.
       21   -1    0    0  502  503 -0.00000000000E+00 -0.00000000000E+00 -0.11058346186E+03  0.11058346186E+03  0.00000000000E+00 0.  1.
       25    2    1    2    0    0  0.71054273576E-14  0.00000000000E+00  0.30697429145E+02  0.25186435286E+03  0.24998663981E+03 0.  0.
       24    2    3    3    0    0  0.40842522713E+02  0.83910789613E+02  0.28162419797E+02  0.12685627009E+03  0.81180410803E+02 0.  0.
      -24    2    3    3    0    0 -0.40842522713E+02 -0.83910789613E+02  0.25350093480E+01  0.12500808276E+03  0.83135204390E+02 0.  0.
      -13    1    4    4    0    0 -0.22994266048E+02  0.39886513180E+02  0.13030867296E+02  0.47848445191E+02  0.00000000000E+00 0.  1.
       14    1    4    4    0    0  0.63836788760E+02  0.44024276433E+02  0.15131552501E+02  0.79007824902E+02  0.00000000000E+00 0. -1.
        1    1    5    5  501    0 -0.53175817142E+02 -0.72956677805E+02 -0.24314499044E+02  0.93496199007E+02  0.00000000000E+00 0. -1.
       -2    1    5    5    0  501  0.12333294430E+02 -0.10954111808E+02  0.26849508392E+02  0.31511883757E+02  0.00000000000E+00 0.  1.
</event>
<event>
 9   1  0.7570500E-01  0.2499956E+03  0.7546771E-02  0.1113308E+00
       21   -1    0    0  503  502  0.00000000000E+00  0.00000000000E+00  0.14161993578E+04  0.14161993578E+04  0.00000000000E+00 0.  1.
       21   -1    0    0  502  503 -0.00000000000E+00 -0.00000000000E+00 -0.11032665842E+02  0.11032665842E+02  0.00000000000E+00 0.  1.
       25    2    1    2    0    0  0.00000000000E+00  0.00000000000E+00  0.14051666920E+04  0.14272320237E+04  0.24999563420E+03 0.  0.
       24    2    3    3    0    0 -0.53575274053E+02 -0.11754310967E+01  0.11506685586E+04  0.11547427558E+04  0.80752762558E+02 0.  0.
      -24    2    3    3    0    0  0.53575274053E+02  0.11754310967E+01  0.25449813342E+03  0.27248926792E+03  0.81298275429E+02 0.  0.
      -13    1    4    4    0    0 -0.67408123114E+02  0.18901558315E+02  0.95469358726E+03  0.95725700286E+03  0.00000000000E+00 0.  1.
       14    1    4    4    0    0  0.13832849062E+02 -0.20076989412E+02  0.19597497133E+03  0.19748575291E+03  0.00000000000E+00 0. -1.
        3    1    5    5  501    0  0.51391198589E+02  0.33534142977E+02  0.19859425574E+03  0.20785878007E+03  0.00000000000E+00 0. -1.
       -4    1    5    5    0  501  0.21840754634E+01 -0.32358711881E+02  0.55903877677E+02  0.64630487849E+02  0.00000000000E+00 0.  1.
</event>
<event>
 9   1  0.7570500E-01  0.2499963E+03  0.7546771E-02  0.1113307E+00
       21   -1    0    0  503  502  0.00000000000E+00  0.00000000000E+00  0.18024108372E+03  0.18024108372E+03  0.00000000000E+00 0.  1.
       21   -1    0    0  502  503 -0.00000000000E+00 -0.00000000000E+00 -0.86686847854E+02  0.86686847854E+02  0.00000000000E+00 0.  1.
       25    2    1    2    0    0  0.00000000000E+00  0.00000000000E+00  0.93554235871E+02  0.26692793158E+03  0.24999625119E+03 0.  0.
       24    2    3    3    0    0  0.56669241977E+02 -0.77889832100E+02  0.62075695650E+02  0.13957364810E+03  0.79681756531E+02 0.  0.
      -24    2    3    3    0    0 -0.56669241977E+02  0.77889832100E+02  0.31478540221E+02  0.12735428347E+03  0.77136152964E+02 0.  0.
      -13    1    4    4    0    0  0.16467871472E+02 -0.64975754715E+02  0.69660920408E+02  0.96673074450E+02  0.00000000000E+00 0.  1.
       14    1    4    4    0    0  0.40201370505E+02 -0.12914077385E+02 -0.75852247579E+01  0.42900573654E+02  0.00000000000E+00 0. -1.
        1    1    5    5  501    0 -0.20288710860E+02  0.44685049547E+02  0.54194991376E+02  0.73112806892E+02  0.00000000000E+00 0. -1.
       -2    1    5    5    0  501 -0.36380531117E+02  0.33204782553E+02 -0.22716451156E+02  0.54241476582E+02  0.00000000000E+00 0.  1.
</event>
<event>
 9   1  0.7570500E-01  0.2499975E+03  0.7546771E-02  0.1113306E+00
       21   -1    0    0  503  502  0.00000000000E+00  0.00000000000E+00  0.17235615546E+03  0.17235615546E+03  0.00000000000E+00 0. -1.
       21   -1    0    0  502  503 -0.00000000000E+00 -0.00000000000E+00 -0.90653512746E+02  0.90653512746E+02  0.00000000000E+00 0. -1.
       25    2    1    2    0    0  0.00000000000E+00  0.35527136788E-14  0.81702642718E+02  0.26300966821E+03  0.24999752748E+03 0.  0.
       24    2    3    3    0    0  0.45428310922E+02 -0.28979459944E+01 -0.47024025406E+02  0.10286493509E+03  0.79358719635E+02 0.  0.
      -24    2    3    3    0    0 -0.45428310922E+02  0.28979459944E+01  0.12872666812E+03  0.16014473312E+03  0.83687818314E+02 0.  0.
      -13    1    4    4    0    0  0.35184018310E+02  0.28697892444E+02 -0.13540494154E+00  0.45403771976E+02  0.00000000000E+00 0.  1.
       14    1    4    4    0    0  0.10244292612E+02 -0.31595838438E+02 -0.46888620465E+02  0.57461163118E+02  0.00000000000E+00 0. -1.
        3    1    5    5  501    0  0.18762728034E+02 -0.14644774822E+02  0.59677455679E+02  0.64248798504E+02  0.00000000000E+00 0. -1.
       -4    1    5    5    0  501 -0.64191038956E+02  0.17542720816E+02  0.69049212446E+02  0.95895934613E+02  0.00000000000E+00 0.  1.
</event>
<event>
 9   1  0.7570500E-01  0.2499906E+03  0.7546771E-02  0.1113311E+00
       21   -1    0    0  503  502  0.00000000000E+00  0.00000000000E+00  0.19562423342E+03  0.19562423342E+03  0.00000000000E+00 0. -1.
       21   -1    0    0  502  503 -0.00000000000E+00 -0.00000000000E+00 -0.79866507292E+02  0.79866507292E+02  0.00000000000E+00 0. -1.
       25    2    1    2    0    0 -0.14210854715E-13  0.71054273576E-14  0.11575772613E+03  0.27549074071E+03  0.24999059394E+03 0.  0.
       24    2    3    3    0    0  0.62440105386E+02 -0.56904149370E+02  0.10789850466E+03  0.15873286724E+03  0.80107345840E+02 0.  0.
      -24    2    3    3    0    0 -0.62440105386E+02  0.56904149370E+02  0.78592214699E+01  0.11675787348E+03  0.80210876323E+02 0.  0.
      -13    1    4    4    0    0  0.10209956001E+02 -0.57264146022E+02  0.31392882661E+02  0.66097947797E+02  0.00000000000E+00 0.  1.
       14    1    4    4    0    0  0.52230149385E+02  0.35999665190E+00  0.76505621999E+02  0.92634919441E+02  0.00000000000E+00 0. -1.
        1    1    5    5  501    0  0.13473136822E+02 -0.83898025483E+01  0.47957140770E+01  0.16580502892E+02  0.00000000000E+00 0. -1.
       -2    1    5    5    0  501 -0.75913242208E+02  0.65293951919E+02  0.30635073928E+01  0.10017737058E+03  0.00000000000E+00 0.  1.
</event>
<event>
 9   1  0.7570500E-01  0.2499851E+03  0.7546771E-02  0.1113314E+00
       21   -1    0    0  503  502  0.00000000000E+00  0.00000000000E+00  0.59910109556E+02  0.59910109556E+02  0.00000000000E+00 0.  1.
       21   -1    0    0  502  503 -0.00000000000E+00 -0.00000000000E+00 -0.26077639518E+03  0.26077639518E+03  0.00000000000E+00 0.  1.
       25    2    1    2    0    0  0.00000000000E+00 -0.14210854715E-13 -0.20086628563E+03  0.32068650474E+03  0.24998513880E+03 0.  0.
       24    2    3    3    0    0  0.33485623495E+02 -0.59144966194E+02 -0.18661063595E+03  0.21437490747E+03  0.80707233231E+02 0.  0.
      -24    2    3    3    0    0 -0.33485623495E+02  0.59144966194E+02 -0.14255649682E+02  0.10631159728E+03  0.80495454285E+02 0.  0.
      -13    1    4    4    0    0  0.14102182420E+02 -0.50328130425E+02 -0.38941931623E+02  0.65178725821E+02  0.00000000000E+00 0.  1.
       14    1    4    4    0    0  0.19383441075E+02 -0.88168357684E+01 -0.14766870432E+03  0.14919618164E+03  0.00000000000E+00 0. -1.
        3    1    5    5  501    0 -0.12336217050E+02 -0.18079538842E+02 -0.14479155328E+02  0.26243054603E+02  0.00000000000E+00 0. -1.
       -4    1    5    5    0  501 -0.21149406445E+02  0.77224505036E+02  0.22350564613E+00  0.80068542673E+02  0.00000000000E+00 0.  1.
</event>
<event>
 9   1  0.7570500E-01  0.2500113E+03  0.7546771E-02  0.1113298E+00
       21   -1    0    0  503  502  0.00000000000E+00  0.00000000000E+00  0.93548062755E+02  0.93548062755E+02  0.00000000000E+00 0. -1.
       21   -1    0    0  502  503 -0.00000000000E+00 -0.00000000000E+00 -0.16704159287E+03  0.16704159287E+03  0.00000000000E+00 0. -1.
       25    2    1    2    0    0  0.00000000000E+00  0.00000000000E+00 -0.73493530118E+02  0.26058965563E+03  0.25001133905E+03 0.  0.
       24    2    3    3    0    0 -0.89503308120E+02 -0.16799176874E+01 -0.73536504533E+02  0.14073484295E+03  0.79906284064E+02 0.  0.
      -24    2    3    3    0    0  0.89503308120E+02  0.16799176874E+01  0.42974415066E-01  0.11985481268E+03  0.79696361196E+02 0.  0.
      -13    1    4    4    0    0  0.43783846995E+01  0.13448321755E+02 -0.35685132034E+02  0.38385625680E+02  0.00000000000E+00 0.  1.
       14    1    4    4    0    0 -0.93881692820E+02 -0.15128239443E+02 -0.37851372500E+02  0.10234921727E+03  0.00000000000E+00 0. -1.
        1    1    5    5  501    0  0.78717375498E+02  0.26065441601E+02 -0.21400480150E+02  0.85637684472E+02  0.00000000000E+00 0. -1.
       -2    1    5    5    0  501  0.10785932622E+02 -0.24385523914E+02  0.21443454565E+02  0.34217128208E+02  0.00000000000E+00 0.  1.
</event>
<event>
 9   1  0.7570500E-01  0.2500029E+03  0.7546771E-02  0.1113303E+00
       21   -1    0    0  503  502  0.00000000000E+00  0.00000000000E+00  0.59570099999E+02  0.59570099999E+02  0.00000000000E+00 0. -1.
       21   -1    0    0  502  503 -0.00000000000E+00 -0.00000000000E+00 -0.26230208371E+03  0.26230208371E+03  0.00000000000E+00 0. -1.
       25    2    1    2    0    0  0.00000000000E+00 -0.88817841970E-15 -0.20273198371E+03  0.32187218371E+03  0.25000289084E+03 0.  0.
       24    2    3    3    0    0 -0.25229871205E+02  0.50603468757E+01 -0.22101451262E+03  0.23687347610E+03  0.81237155159E+02 0.  0.
      -24    2    3    3    0    0  0.25229871205E+02 -0.50603468757E+01  0.18282528911E+02  0.84998707610E+02  0.78920060317E+02 0.  0.
      -13    1    4    4    0    0 -0.54868003217E+02  0.12521683147E+01 -0.13112129861E+03  0.14214380272E+03  0.00000000000E+00 0.  1.
       14    1    4    4    0    0  0.29638132013E+02  0.38081785610E+01 -0.89893214009E+02  0.94729673377E+02  0.00000000000E+00 0. -1.
        3    1    5    5  501    0 -0.36035119545E+01 -0.33217554018E+02 -0.11006534885E+02  0.35178615714E+02  0.00000000000E+00 0. -1.
       -4    1    5    5    0  501  0.28833383159E+02  0.28157207142E+02  0.29289063797E+02  0.49820091896E+02  0.00000000000E+00 0.  1.
</event>
<event>
 9   1  0.7570500E-01  0.2499994E+03  0.7546771E-02  0.1113305E+00
       21   -1    0    0  503  502  0.00000000000E+00  0.00000000000E+00  0.72514536595E+02  0.72514536595E+02  0.00000000000E+00 0.  1.
       21   -1    0    0  502  503 -0.00000000000E+00 -0.00000000000E+00 -0.21547294330E+03  0.21547294330E+03  0.00000000000E+00 0.  1.
       25    2    1    2    0    0  0.71054273576E-14  0.00000000000E+00 -0.14295840671E+03  0.28798747990E+03  0.24999936506E+03 0.  0.
       24    2    3    3    0    0  0.37390273396E+02 -0.36916678706E+02  0.55660431593E+01  0.96646799763E+02  0.80924343413E+02 0.  0.
      -24    2    3    3    0    0 -0.37390273396E+02  0.36916678706E+02 -0.14852444987E+03  0.19134068013E+03  0.10858577234E+03 0.  0.
      -13    1    4    4    0    0 -0.22562475127E+02 -0.13066151786E+02 -0.13507507519E+02  0.29363963726E+02  0.00000000000E+00 0.  1.
       14    1    4    4    0    0  0.59952748523E+02 -0.23850526920E+02  0.19073550678E+02  0.67282836037E+02  0.00000000000E+00 0. -1.
        1    1    5    5  501    0  0.17763796564E+02 -0.21402413477E+02 -0.83588407874E+02  0.88094481677E+02  0.00000000000E+00 0. -1.
       -2    1    5    5    0  501 -0.55154069960E+02  0.58319092182E+02 -0.64936041994E+02  0.10324619846E+03  0.00000000000E+00 0.  1.
</event>
<event>
 9   1  0.7570500E-01  0.2500026E+03  0.7546771E-02  0.1113303E+00
       21   -1    0    0  503  502  0.00000000000E+00  0.00000000000E+00  0.20465863443E+03  0.20465863443E+03  0.00000000000E+00 0.  1.
       21   -1    0    0  502  503 -0.00000000000E+00 -0.00000000000E+00 -0.76348211553E+02  0.76348211553E+02  0.00000000000E+00 0.  1.
       25    2    1    2    0    0 -0.14210854715E-13  0.00000000000E+00  0.12831042288E+03  0.28100684599E+03  0.25000256573E+03 0.  0.
       24    2    3    3    0    0 -0.78159515937E+02  0.18377050623E+02  0.12176715479E+03  0.16685329613E+03  0.81031824138E+02 0.  0.
      -24    2    3    3    0    0  0.78159515937E+02 -0.18377050623E+02  0.65432680882E+01  0.11415354985E+03  0.80880112920E+02 0.  0.
      -13    1    4    4    0    0 -0.70154682336E+01  0.36474226638E+02  0.61625333971E+02  0.71953233356E+02  0.00000000000E+00 0.  1.
       14    1    4    4    0    0 -0.71144047703E+02 -0.18097176015E+02  0.60141820821E+02  0.94900062776E+02  0.00000000000E+00 0. -1.
        1    1    5    5  501    0  0.94533211839E+02 -0.20318098441E+02  0.10310790420E+02  0.97240247141E+02  0.00000000000E+00 0. -1.
       -2    1    5    5    0  501 -0.16373695903E+02  0.19410478177E+01 -0.37675223321E+01  0.16913302713E+02  0.00000000000E+00 0.  1.
</event>
<event>
 9   1  0.7570500E-01  0.2499990E+03  0.7546771E-02  0.1113305E+00
       21   -1    0    0  503  502  0.00000000000E+00  0.00000000000E+00  0.15044169952E+03  0.15044169952E+03  0.00000000000E+00 0.  1.
       21   -1    0    0  502  503 -0.00000000000E+00 -0.00000000000E+00 -0.10385999677E+03  0.10385999677E+03  0.00000000000E+00 0.  1.
       25    2    1    2    0    0  0.00000000000E+00  0.71054273576E-14  0.46581702756E+02  0.25430169629E+03  0.24999899541E+03 0.  0.
       24    2    3    3    0    0 -0.13942235140E+02  0.55951164805E+02  0.10328923127E+03  0.13938810257E+03  0.73725565969E+02 0.  0.
      -24    2    3    3    0    0  0.13942235140E+02 -0.55951164805E+02 -0.56707528518E+02  0.11491359372E+03  0.81636214186E+02 0.  0.
      -13    1    4    4    0    0 -0.31672955144E+02 -0.30087190787E+01  0.39721913400E+02  0.50892621098E+02  0.00000000000E+00 0.  1.
       14    1    4    4    0    0  0.17730720004E+02  0.58959883884E+02  0.63567317875E+02  0.88495481474E+02  0.00000000000E+00 0. -1.
        3    1    5    5  501    0 -0.18481373222E+02 -0.26731668524E+02  0.11040794822E+02  0.34322622402E+02  0.00000000000E+00 0. -1.
       -4    1    5    5    0  501  0.32423608363E+02 -0.29219496281E+02 -0.67748323340E+02  0.80590971315E+02  0.00000000000E+00 0.  1.
</event>
<event>
 9   1  0.7570500E-01  0.2499984E+03  0.7546771E-02  0.1113306E+00
       21   -1    0    0  503  502  0.00000000000E+00  0.00000000000E+00  0.36116490077E+04  0.36116490077E+04  0.00000000000E+00 0. -1.
       21   -1    0    0  502  503 -0.00000000000E+00 -0.00000000000E+00 -0.43262249191E+01  0.43262249191E+01  0.00000000000E+00 0. -1.
       25    2    1    2    0    0  0.00000000000E+00  0.71054273576E-14  0.36073227828E+04  0.36159752326E+04  0.24999844749E+03 0.  0.
       24    2    3    3    0    0  0.51785657130E+02  0.57625754986E+02  0.26410727133E+04  0.26433223329E+04  0.76716339555E+02 0.  0.
      -24    2    3    3    0    0 -0.51785657130E+02 -0.57625754986E+02  0.96625006952E+03  0.97265289976E+03  0.80074868942E+02 0.  0.
      -13    1    4    4    0    0  0.46389081453E+02  0.30338786034E+02  0.75015553764E+03  0.75220058460E+03  0.00000000000E+00 0.  1.
       14    1    4    4    0    0  0.53965756776E+01  0.27286968951E+02  0.18909171756E+04  0.18911217483E+04  0.00000000000E+00 0. -1.
        1    1    5    5  501    0 -0.36924202945E+02 -0.77638841047E+02  0.70729809691E+03  0.71250388370E+03  0.00000000000E+00 0. -1.
       -2    1    5    5    0  501 -0.14861454185E+02  0.20013086061E+02  0.25895197261E+03  0.26014901605E+03  0.00000000000E+00 0.  1.
</event>
<event>
 9   1  0.7570500E-01  0.2500013E+03  0.7546771E-02  0.1113304E+00
       21   -1    0    0  503  502  0.00000000000E+00  0.00000000000E+00  0.57959513737E+03  0.57959513737E+03  0.00000000000E+00 0. -1.
       21   -1    0    0  502  503 -0.00000000000E+00 -0.00000000000E+00 -0.26958746564E+02  0.26958746564E+02  0.00000000000E+00 0. -1.
       25    2    1    2    0    0  0.00000000000E+00  0.00000000000E+00  0.55263639081E+03  0.60655388394E+03  0.25000126734E+03 0.  0.
       24    2    3    3    0    0 -0.77053558084E+02 -0.63815011301E+02  0.28784224503E+03  0.31522362567E+03  0.80642232583E+02 0.  0.
      -24    2    3    3    0    0  0.77053558084E+02  0.63815011301E+02  0.26479414577E+03  0.29133025826E+03  0.68904087415E+02 0.  0.
      -13    1    4    4    0    0 -0.53751672631E+02 -0.15927765627E+02  0.22942225149E+03  0.23617261803E+03  0.00000000000E+00 0.  1.
       14    1    4    4    0    0 -0.23301885454E+02 -0.47887245674E+02  0.58419993547E+02  0.79051007647E+02  0.00000000000E+00 0. -1.
        1    1    5    5  501    0  0.40598674927E+02  0.50747603225E+02  0.82785845110E+02  0.10524764980E+03  0.00000000000E+00 0. -1.
       -2    1    5    5    0  501  0.36454883158E+02  0.13067408077E+02  0.18200830066E+03  0.18608260846E+03  0.00000000000E+00 0.  1.
</event>
<event>
 9   1  0.7570500E-01  0.2499804E+03  0.7546771E-02  0.1113317E+00
       21   -1    0    0  503  502  0.00000000000E+00  0.00000000000E+00  0.37696171009E+03  0.37696171009E+03  0.00000000000E+00 0. -1.
       21   -1    0    0  502  503 -0.00000000000E+00 -0.00000000000E+00 -0.41443326343E+02  0.41443326343E+02  0.00000000000E+00 0. -1.
       25    2    1    2    0    0  0.00000000000E+00 -0.35527136788E-14  0.33551838374E+03  0.41840503643E+03  0.24998037659E+03 0.  0.
       24    2    3    3    0    0  0.54628053843E+02 -0.28777729107E+02  0.30251737431E+03  0.31901039493E+03  0.80240191655E+02 0.  0.
      -24    2    3    3    0    0 -0.54628053843E+02  0.28777729107E+02  0.33001009435E+02  0.99394641497E+02  0.70553853015E+02 0.  0.
      -13    1    4    4    0    0  0.47541045985E+01  0.24018273099E+02  0.12195885810E+03  0.12439229085E+03  0.00000000000E+00 0.  1.
       14    1    4    4    0    0  0.49873949245E+02 -0.52796002205E+02  0.18055851621E+03  0.19461810409E+03  0.00000000000E+00 0. -1.
        3    1    5    5  501    0 -0.49964237690E+02 -0.93355687401E+01  0.33708569071E+02  0.60990536319E+02  0.00000000000E+00 0. -1.
       -4    1    5    5    0  501 -0.46638161537E+01  0.38113297847E+02 -0.70755963648E+00  0.38404105178E+02  0.00000000000E+00 0.  1.
</event>
<event>
 9   1  0.7570500E-01  0.2499996E+03  0.7546771E-02  0.1113305E+00
       21   -1    0    0  503  502  0.00000000000E+00  0.00000000000E+00  0.19208944947E+03  0.19208944947E+03  0.00000000000E+00 0.  1.
       21   -1    0    0  502  503 -0.00000000000E+00 -0.00000000000E+00 -0.81342048302E+02  0.81342048302E+02  0.00000000000E+00 0.  1.
       25    2    1    2    0    0  0.00000000000E+00  0.00000000000E+00  0.11074740117E+03  0.27343149777E+03  0.24999959421E+03 0.  0.
       24    2    3    3    0    0 -0.91049912254E+02  0.30047133183E+02  0.60861264968E+02  0.13851773921E+03  0.79310489646E+02 0.  0.
      -24    2    3    3    0    0  0.91049912254E+02 -0.30047133183E+02  0.49886136198E+02  0.13491375856E+03  0.80747624921E+02 0.  0.
      -13    1    4    4    0    0 -0.40243138205E+02 -0.20966334132E+02  0.18310542776E+01  0.45414205919E+02  0.00000000000E+00 0.  1.
       14    1    4    4    0    0 -0.50806774049E+02  0.51013467315E+02  0.59030210691E+02  0.93103533289E+02  0.00000000000E+00 0. -1.
        1    1    5    5  501    0  0.16077277391E+02 -0.52973743988E+01 -0.22258401383E+02  0.27963859819E+02  0.00000000000E+00 0. -1.
       -2    1    5    5    0  501  0.74972634863E+02 -0.24749758784E+02  0.72144537582E+02  0.10694989874E+03  0.00000000000E+00 0.  1.
</event>
<event>
 9   1  0.7570500E-01  0.2499986E+03  0.7546771E-02  0.1113306E+00
       21   -1    0    0  503  502  0.00000000000E+00  0.00000000000E+00  0.36076663955E+03  0.36076663955E+03  0.00000000000E+00 0.  1.
       21   -1    0    0  502  503 -0.00000000000E+00 -0.00000000000E+00 -0.43310053173E+02  0.43310053173E+02  0.00000000000E+00 0.  1.
       25    2    1    2    0    0 -0.71054273576E-14  0.14210854715E-13  0.31745658638E+03  0.40407669273E+03  0.24999857873E+03 0.  0.
       24    2    3    3    0    0 -0.69853324312E+00  0.97091301729E+02  0.14601638071E+03  0.19196877760E+03  0.78128223559E+02 0.  0.
      -24    2    3    3    0    0  0.69853324312E+00 -0.97091301729E+02  0.17144020567E+03  0.21210791513E+03  0.78554533415E+02 0.  0.
      -13    1    4    4    0    0 -0.36040472747E+02  0.26141116916E+02  0.63453047119E+02  0.77514920229E+02  0.00000000000E+00 0.  1.
       14    1    4    4    0    0  0.35341939503E+02  0.70950184813E+02  0.82563333594E+02  0.11445385737E+03  0.00000000000E+00 0. -1.
        1    1    5    5  501    0 -0.34783216156E+02 -0.66746727159E+02  0.12713533526E+03  0.14774434400E+03  0.00000000000E+00 0. -1.
       -2    1    5    5    0  501  0.35481749399E+02 -0.30344574570E+02  0.44304870406E+02  0.64363571125E+02  0.00000000000E+00 0.  1.
</event>
<event>
 9   1  0.7570500E-01  0.2499944E+03  0.7546771E-02  0.1113308E+00
       21   -1    0    0  503  502  0.00000000000E+00  0.00000000000E+00  0.11331458553E+02  0.11331458553E+02  0.00000000000E+00 0.  1.
       21   -1    0    0  502  503 -0.00000000000E+00 -0.00000000000E+00 -0.13788425115E+04  0.13788425115E+04  0.00000000000E+00 0.  1.
       25    2    1    2    0    0  0.00000000000E+00  0.00000000000E+00 -0.13675110530E+04  0.13901739701E+04  0.24999437410E+03 0.  0.
       24    2    3    3    0    0  0.34072966279E+02 -0.85884457629E+02 -0.82245241407E+03  0.83128500458E+03  0.77908140341E+02 0.  0.
      -24    2    3    3    0    0 -0.34072966279E+02  0.85884457629E+02 -0.54505863890E+03  0.55888896550E+03  0.82041750494E+02 0.  0.
      -13    1    4    4    0    0  0.19618634097E+02 -0.57719268914E+02 -0.22858914354E+03  0.23657853105E+03  0.00000000000E+00 0.  1.
       14    1    4    4    0    0  0.14454332182E+02 -0.28165188715E+02 -0.59386327053E+03  0.59470647353E+03  0.00000000000E+00 0. -1.
        1    1    5    5  501    0  0.21314532150E+02  0.12500610369E+02 -0.55216808067E+02  0.60493556959E+02  0.00000000000E+00 0. -1.
       -2    1    5    5    0  501 -0.55387498429E+02  0.73383847260E+02 -0.48984183084E+03  0.49839540854E+03  0.00000000000E+00 0.  1.
</event>
<event>
 9   1  0.7570500E-01  0.2499930E+03  0.7546771E-02  0.1113309E+00
       21   -1    0    0  503  502  0.00000000000E+00  0.00000000000E+00  0.12650288705E+04  0.12650288705E+04  0.00000000000E+00 0.  1.
       21   -1    0    0  502  503 -0.00000000000E+00 -0.00000000000E+00 -0.12350804334E+02  0.12350804334E+02  0.00000000000E+00 0.  1.
       25    2    1    2    0    0 -0.14210854715E-13 -0.71054273576E-14  0.12526780662E+04  0.12773796748E+04  0.24999299235E+03 0.  0.
       24    2    3    3    0    0 -0.91055848862E+02 -0.74647191709E+01  0.76931427527E+03  0.77890685776E+03  0.80650786098E+02 0.  0.
      -24    2    3    3    0    0  0.91055848862E+02  0.74647191709E+01  0.48336379091E+03  0.49847281709E+03  0.80546293279E+02 0.  0.
      -13    1    4    4    0    0 -0.34636443296E+02 -0.41479218979E+02  0.41690465159E+03  0.42039231360E+03  0.00000000000E+00 0.  1.
       14    1    4    4    0    0 -0.56419405566E+02  0.34014499808E+02  0.35240962367E+03  0.35851454417E+03  0.00000000000E+00 0. -1.
        3    1    5    5  501    0  0.56366533073E+02  0.42971137667E+02  0.24789648703E+03  0.25783012432E+03  0.00000000000E+00 0. -1.
       -4    1    5    5    0  501  0.34689315790E+02 -0.35506418496E+02  0.23546730388E+03  0.24064269277E+03  0.00000000000E+00 0.  1.
</event>
<event>
 9   1  0.7570500E-01  0.2499959E+03  0.7546771E-02  0.1113307E+00
       21   -1    0    0  503  502  0.00000000000E+00  0.00000000000E+00  0.51202553471E+02  0.51202553471E+02  0.00000000000E+00 0. -1.
       21   -1    0    0  502  503 -0.00000000000E+00 -0.00000000000E+00 -0.30515058716E+03  0.30515058716E+03  0.00000000000E+00 0. -1.
       25    2    1    2    0    0  0.00000000000E+00  0.00000000000E+00 -0.25394803369E+03  0.35635314063E+03  0.24999591401E+03 0.  0.
       24    2    3    3    0    0 -0.45125564348E+02 -0.13281222773E+02 -0.79965462543E+01  0.93252130942E+02  0.80120582481E+02 0.  0.
      -24    2    3    3    0    0  0.45125564348E+02  0.13281222773E+02 -0.24595148744E+03  0.26310100969E+03  0.80729794329E+02 0.  0.
      -13    1    4    4    0    0 -0.63950329713E+02 -0.42058399608E+00  0.93142188443E+01  0.64626436031E+02  0.00000000000E+00 0.  1.
       14    1    4    4    0    0  0.18824765366E+02 -0.12860638777E+02 -0.17310765099E+02  0.28625694911E+02  0.00000000000E+00 0. -1.
        3    1    5    5  501    0  0.67276642021E+02  0.10304147124E+02 -0.15224358538E+03  0.16676459846E+03  0.00000000000E+00 0. -1.
       -4    1    5    5    0  501 -0.22151077673E+02  0.29770756498E+01 -0.93707902055E+02  0.96336411232E+02  0.00000000000E+00 0.  1.
</event>
<event>
 9   1  0.7570500E-01  0.2499913E+03  0.7546771E-02  0.1113310E+00
       21   -1    0    0  503  502  0.00000000000E+00  0.00000000000E+00  0.66949011754E+01  0.66949011754E+01  0.00000000000E+00 0. -1.
       21   -1    0    0  502  503 -0.00000000000E+00 -0.00000000000E+00 -0.23337023033E+04  0.23337023033E+04  0.00000000000E+00 0. -1.
       25    2    1    2    0    0 -0.14210854715E-13  0.14210854715E-13 -0.23270074021E+04  0.23403972044E+04  0.24999125019E+03 0.  0.
       24    2    3    3    0    0  0.37294732165E+02 -0.65021919800E+02 -0.60576726881E+03  0.61568749140E+03  0.80612381197E+02 0.  0.
      -24    2    3    3    0    0 -0.37294732165E+02  0.65021919800E+02 -0.17212401333E+04  0.17247097130E+04  0.79606851114E+02 0.  0.
      -13    1    4    4    0    0  0.55396030320E+02 -0.29262508671E+02 -0.25260245642E+03  0.26025567348E+03  0.00000000000E+00 0.  1.
       14    1    4    4    0    0 -0.18101298155E+02 -0.35759411129E+02 -0.35316481239E+03  0.35543181792E+03  0.00000000000E+00 0. -1.
        3    1    5    5  501    0 -0.43332176209E+02  0.61798432824E+02 -0.82546464496E+03  0.82890807926E+03  0.00000000000E+00 0. -1.
       -4    1    5    5    0  501  0.60374440442E+01  0.32234869762E+01 -0.89577548833E+03  0.89580163379E+03  0.00000000000E+00 0.  1.
</event>
<event>
 9   1  0.7570500E-01  0.2499929E+03  0.7546771E-02  0.1113309E+00
       21   -1    0    0  503  502  0.00000000000E+00  0.00000000000E+00  0.16042805549E+03  0.16042805549E+03  0.00000000000E+00 0. -1.
       21   -1    0    0  502  503 -0.00000000000E+00 -0.00000000000E+00 -0.97390157260E+02  0.97390157260E+02  0.00000000000E+00 0. -1.
       25    2    1    2    0    0  0.00000000000E+00  0.35527136788E-14  0.63037898233E+02  0.25781821275E+03  0.24999290833E+03 0.  0.
       24    2    3    3    0    0 -0.91256535533E+02 -0.24118727489E+02  0.13814454965E+02  0.12541918962E+03  0.81422758888E+02 0.  0.
      -24    2    3    3    0    0  0.91256535533E+02  0.24118727489E+02  0.49223443268E+02  0.13239902314E+03  0.78721570533E+02 0.  0.
      -13    1    4    4    0    0 -0.78011695025E+02 -0.46260469087E+02  0.29319559195E+02  0.95317847815E+02  0.00000000000E+00 0.  1.
       14    1    4    4    0    0 -0.13244840508E+02  0.22141741598E+02 -0.15505104230E+02  0.30101341801E+02  0.00000000000E+00 0. -1.
        1    1    5    5  501    0 -0.31535084359E+01  0.13016751872E+02  0.33459162679E+02  0.36040199942E+02  0.00000000000E+00 0. -1.
       -2    1    5    5    0  501  0.94410043968E+02  0.11101975618E+02  0.15764280589E+02  0.96358823193E+02  0.00000000000E+00 0.  1.
</event>
<event>
 9   1  0.7570500E-01  0.2499981E+03  0.7546771E-02  0.1113306E+00
       21   -1    0    0  503  502  0.00000000000E+00  0.00000000000E+00  0.17153690949E+02  0.17153690949E+02  0.00000000000E+00 0. -1.
       21   -1    0    0  502  503 -0.00000000000E+00 -0.00000000000E+00 -0.91086848696E+03  0.91086848696E+03  0.00000000000E+00 0. -1.
       25    2    1    2    0    0 -0.14210854715E-13  0.00000000000E+00 -0.89371479602E+03  0.92802217791E+03  0.24999805216E+03 0.  0.
       24    2    3    3    0    0 -0.91644439427E+02  0.60245962588E+01 -0.34065580208E+03  0.36176111742E+03  0.79935796434E+02 0.  0.
      -24    2    3    3    0    0  0.91644439427E+02 -0.60245962588E+01 -0.55305899394E+03  0.56626106049E+03  0.79638802196E+02 0.  0.
      -13    1    4    4    0    0 -0.45771348796E+02 -0.28644769925E+02 -0.93190945650E+02  0.10770372122E+03  0.00000000000E+00 0.  1.
       14    1    4    4    0    0 -0.45873090631E+02  0.34669366184E+02 -0.24746485643E+03  0.25405739620E+03  0.00000000000E+00 0. -1.
        1    1    5    5  501    0  0.57742656698E+02  0.14176265215E+02 -0.15122175347E+03  0.16249061394E+03  0.00000000000E+00 0. -1.
       -2    1    5    5    0  501  0.33901782729E+02 -0.20200861474E+02 -0.40183724047E+03  0.40377044655E+03  0.00000000000E+00 0.  1.
</event>
<event>
 9   1  0.7570500E-01  0.2500049E+03  0.7546771E-02  0.1113302E+00
       21   -1    0    0  503  502  0.00000000000E+00  0.00000000000E+00  0.27049781644E+03  0.27049781644E+03  0.00000000000E+00 0. -1.
       21   -1    0    0  502  503 -0.00000000000E+00 -0.00000000000E+00 -0.57766122434E+02  0.57766122434E+02  0.00000000000E+00 0. -1.
       25    2    1    2    0    0  0.14210854715E-13 -0.35527136788E-14  0.21273169401E+03  0.32826393888E+03  0.25000487981E+03 0.  0.
       24    2    3    3    0    0  0.82275448525E+02  0.73362999713E+01  0.45989050573E+02  0.12527889905E+03  0.82199385932E+02 0.  0.
      -24    2    3    3    0    0 -0.82275448525E+02 -0.73362999713E+01  0.16674264344E+03  0.20298503982E+03  0.81097142521E+02 0.  0.
      -13    1    4    4    0    0  0.56602376888E+02  0.40031425559E+02  0.95186655981E+01  0.69978204438E+02  0.00000000000E+00 0.  1.
       14    1    4    4    0    0  0.25673071638E+02 -0.32695125588E+02  0.36470384974E+02  0.55300694613E+02  0.00000000000E+00 0. -1.
        1    1    5    5  501    0 -0.25647928452E+02 -0.29536474374E+02  0.12017601523E+03  0.12638233337E+03  0.00000000000E+00 0. -1.
       -2    1    5    5    0  501 -0.56627520073E+02  0.22200174402E+02  0.46566628206E+02  0.76602706451E+02  0.00000000000E+00 0.  1.
</event>
<event>
 9   1  0.7570500E-01  0.2500081E+03  0.7546771E-02  0.1113300E+00
       21   -1    0    0  503  502  0.00000000000E+00  0.00000000000E+00  0.30579983841E+02  0.30579983841E+02  0.00000000000E+00 0. -1.
       21   -1    0    0  502  503 -0.00000000000E+00 -0.00000000000E+00 -0.51098844601E+03  0.51098844601E+03  0.00000000000E+00 0. -1.
       25    2    1    2    0    0 -0.71054273576E-14  0.00000000000E+00 -0.48040846217E+03  0.54156842986E+03  0.25000814724E+03 0.  0.
       24    2    3    3    0    0  0.36776458465E+02 -0.78177070125E+02 -0.29227358381E+03  0.31616783186E+03  0.84107597258E+02 0.  0.
      -24    2    3    3    0    0 -0.36776458465E+02  0.78177070125E+02 -0.18813487836E+03  0.22540059800E+03  0.89143339240E+02 0.  0.
      -13    1    4    4    0    0 -0.16367206851E+02 -0.62352676875E+02 -0.14053214495E+03  0.15461250123E+03  0.00000000000E+00 0.  1.
       14    1    4    4    0    0  0.53143665316E+02 -0.15824393250E+02 -0.15174143886E+03  0.16155533062E+03  0.00000000000E+00 0. -1.
        1    1    5    5  501    0 -0.17006060682E+02  0.26412258871E+02 -0.23195876121E+01  0.31499111182E+02  0.00000000000E+00 0. -1.
       -2    1    5    5    0  501 -0.19770397783E+02  0.51764811254E+02 -0.18581529075E+03  0.19390148682E+03  0.00000000000E+00 0.  1.
</event>
<event>
 9   1  0.7570500E-01  0.2499971E+03  0.7546771E-02  0.1113307E+00
       21   -1    0    0  503  502  0.00000000000E+00  0.00000000000E+00  0.10061066371E+03  0.10061066371E+03  0.00000000000E+00 0. -1.
       21   -1    0    0  502  503 -0.00000000000E+00 -0.00000000000E+00 -0.15529802808E+03  0.15529802808E+03  0.00000000000E+00 0. -1.
       25    2    1    2    0    0  0.00000000000E+00  0.00000000000E+00 -0.54687364368E+02  0.25590869179E+03  0.24999710141E+03 0.  0.
       24    2    3    3    0    0  0.43822954324E+02  0.79032159395E+02 -0.37108210717E+00  0.12231730125E+03  0.82430885833E+02 0.  0.
      -24    2    3    3    0    0 -0.43822954324E+02 -0.79032159395E+02 -0.54316282260E+02  0.13359139054E+03  0.82035770022E+02 0.  0.
      -13    1    4    4    0    0  0.26832747636E+02  0.73273386525E+02  0.32768889724E+02  0.84633242006E+02  0.00000000000E+00 0.  1.
       14    1    4    4    0    0  0.16990206688E+02  0.57587728696E+01 -0.33139971831E+02  0.37684059246E+02  0.00000000000E+00 0. -1.
        3    1    5    5  501    0 -0.27436370933E+02 -0.76803695987E+01  0.15495000032E+02  0.32432045158E+02  0.00000000000E+00 0. -1.
       -4    1    5    5    0  501 -0.16386583391E+02 -0.71351789796E+02 -0.69811282293E+02  0.10115934538E+03  0.00000000000E+00 0.  1.
</event>
<event>
 9   1  0.7570500E-01  0.2500022E+03  0.7546771E-02  0.1113303E+00
       21   -1    0    0  503  502  0.00000000000E+00  0.00000000000E+00  0.22152610946E+03  0.22152610946E+03  0.00000000000E+00 0.  1.
       21   -1    0    0  502  503 -0.00000000000E+00 -0.00000000000E+00 -0.70534679689E+02  0.70534679689E+02  0.00000000000E+00 0.  1.
       25    2    1    2    0    0  0.17763568394E-14  0.00000000000E+00  0.15099142977E+03  0.29206078915E+03  0.25000218538E+03 0.  0.
       24    2    3    3    0    0  0.13584494605E+02 -0.95157219352E+02  0.92953990102E+02  0.15622228930E+03  0.80780718679E+02 0.  0.
      -24    2    3    3    0    0 -0.13584494605E+02  0.95157219352E+02  0.58037439670E+02  0.13583849985E+03  0.76448144184E+02 0.  0.
      -13    1    4    4    0    0  0.26709887945E+02 -0.14114469844E+02 -0.25068338458E+01  0.30313702990E+02  0.00000000000E+00 0.  1.
       14    1    4    4    0    0 -0.13125393341E+02 -0.81042749508E+02  0.95460823948E+02  0.12590858631E+03  0.00000000000E+00 0. -1.
        3    1    5    5  501    0  0.17394829827E+02  0.11069956293E+02 -0.10389474580E+02  0.23088205194E+02  0.00000000000E+00 0. -1.
       -4    1    5    5    0  501 -0.30979324431E+02  0.84087263059E+02  0.68426914250E+02  0.11275029465E+03  0.00000000000E+00 0.  1.
</event>
<event>
 9   1  0.7570500E-01  0.2499995E+03  0.7546771E-02  0.1113305E+00
       21   -1    0    0  503  502  0.00000000000E+00  0.00000000000E+00  0.36177938856E+02  0.36177938856E+02  0.00000000000E+00 0. -1.
       21   -1    0    0  502  503 -0.00000000000E+00 -0.00000000000E+00 -0.43189134212E+03  0.43189134212E+03  0.00000000000E+00 0. -1.
       25    2    1    2    0    0 -0.35527136788E-14  0.17763568394E-14 -0.39571340326E+03  0.46806928097E+03  0.24999950854E+03 0.  0.
       24    2    3    3    0    0 -0.28153350150E+02  0.13056898714E+02 -0.36936637133E+03  0.37906919741E+03  0.79365272186E+02 0.  0.
      -24    2    3    3    0    0  0.28153350150E+02 -0.13056898714E+02 -0.26347031935E+02  0.89000083564E+02  0.79143888291E+02 0.  0.
      -13    1    4    4    0    0 -0.36234028332E+02  0.28948193222E+02 -0.11388052755E+03  0.12296209683E+03  0.00000000000E+00 0.  1.
       14    1    4    4    0    0  0.80806781812E+01 -0.15891294508E+02 -0.25548584377E+03  0.25610710058E+03  0.00000000000E+00 0. -1.
        3    1    5    5  501    0 -0.16266576071E+02  0.78918617245E+01  0.16006994184E+02  0.24147605292E+02  0.00000000000E+00 0. -1.
       -4    1    5    5    0  501  0.44419926221E+02 -0.20948760438E+02 -0.42354026120E+02  0.64852478271E+02  0.00000000000E+00 0.  1.
</event>
<event>
 9   1  0.7570500E-01  0.2499945E+03  0.7546771E-02  0.1113308E+00
       21   -1    0    0  503  502  0.00000000000E+00  0.00000000000E+00  0.45650763727E+02  0.45650763727E+02  0.00000000000E+00 0.  1.
       21   -1    0    0  502  503 -0.00000000000E+00 -0.00000000000E+00 -0.34225749483E+03  0.34225749483E+03  0.00000000000E+00 0.  1.
       25    2    1    2    0    0  0.00000000000E+00  0.00000000000E+00 -0.29660673110E+03  0.38790825856E+03  0.24999452818E+03 0.  0.
       24    2    3    3    0    0 -0.69778034333E+02 -0.16849351905E+02 -0.24564470123E+03  0.26888216356E+03  0.82482870344E+02 0.  0.
      -24    2    3    3    0    0  0.69778034333E+02  0.16849351905E+02 -0.50962029870E+02  0.11902609500E+03  0.80107478226E+02 0.  0.
      -13    1    4    4    0    0 -0.32030193572E+02 -0.24214741201E+01 -0.21696101089E+03  0.21932596080E+03  0.00000000000E+00 0.  1.
       14    1    4    4    0    0 -0.37747840760E+02 -0.14427877785E+02 -0.28683690345E+02  0.49556202753E+02  0.00000000000E+00 0. -1.
        1    1    5    5  501    0  0.33066280418E+02 -0.12938040101E+02  0.14435769736E+02  0.38329665146E+02  0.00000000000E+00 0. -1.
       -2    1    5    5    0  501  0.36711753915E+02  0.29787392005E+02 -0.65397799606E+02  0.80696429855E+02  0.00000000000E+00 0.  1.
</event>
<event>
 9   1  0.7570500E-01  0.2499978E+03  0.7546771E-02  0.1113306E+00
       21   -1    0    0  503  502  0.00000000000E+00  0.00000000000E+00  0.20715686008E+02  0.20715686008E+02  0.00000000000E+00 0. -1.
       21   -1    0    0  502  503 -0.00000000000E+00 -0.00000000000E+00 -0.75424629353E+03  0.75424629353E+03  0.00000000000E+00 0. -1.
       25    2    1    2    0    0 -0.71054273576E-14  0.00000000000E+00 -0.73353060752E+03  0.77496197953E+03  0.24999783511E+03 0.  0.
       24    2    3    3    0    0 -0.34136826369E+02  0.67651818277E+02 -0.21089759878E+03  0.24087276563E+03  0.88316479905E+02 0.  0.
      -24    2    3    3    0    0  0.34136826369E+02 -0.67651818277E+02 -0.52263300874E+03  0.53408921390E+03  0.79774276241E+02 0.  0.
      -13    1    4    4    0    0 -0.12132901842E+02 -0.16967732607E+02 -0.13150462627E+02  0.24658587230E+02  0.00000000000E+00 0.  1.
       14    1    4    4    0    0 -0.22003924528E+02  0.84619550884E+02 -0.19774713615E+03  0.21621417840E+03  0.00000000000E+00 0. -1.
        3    1    5    5  501    0 -0.19404581542E+02 -0.45184020771E+02 -0.18119443247E+03  0.18774865080E+03  0.00000000000E+00 0. -1.
       -4    1    5    5    0  501  0.53541407912E+02 -0.22467797506E+02 -0.34143857627E+03  0.34634056310E+03  0.00000000000E+00 0.  1.
</event>
<event>
 9   1  0.7570500E-01  0.2499998E+03  0.7546771E-02  0.1113305E+00
       21   -1    0    0  503  502  0.00000000000E+00  0.00000000000E+00  0.84763960108E+03  0.84763960108E+03  0.00000000000E+00 0. -1.
       21   -1    0    0  502  503 -0.00000000000E+00 -0.00000000000E+00 -0.18433512347E+02  0.18433512347E+02  0.00000000000E+00 0. -1.
       25    2    1    2    0    0  0.00000000000E+00 -0.28421709430E-13  0.82920608873E+03  0.86607311343E+03  0.24999980042E+03 0.  0.
       24    2    3    3    0    0 -0.30392473552E+02 -0.83620979395E+02  0.29323194882E+03  0.31702363303E+03  0.81257845466E+02 0.  0.
      -24    2    3    3    0    0  0.30392473552E+02  0.83620979395E+02  0.53597413991E+03  0.54904948039E+03  0.79188904662E+02 0.  0.
      -13    1    4    4    0    0 -0.14689449163E+02 -0.97705946425E+02  0.22866453335E+03  0.24909777337E+03  0.00000000000E+00 0.  1.
       14    1    4    4    0    0 -0.15703024388E+02  0.14084967031E+02  0.64567415469E+02  0.67925859667E+02  0.00000000000E+00 0. -1.
        3    1    5    5  501    0  0.30661907315E+02 -0.30524153072E+01  0.18389635282E+03  0.18646001818E+03  0.00000000000E+00 0. -1.
       -4    1    5    5    0  501 -0.26943376308E+00  0.86673394702E+02  0.35207778709E+03  0.36258946221E+03  0.00000000000E+00 0.  1.
</event>
<event>
 9   1  0.7570500E-01  0.2499985E+03  0.7546771E-02  0.1113306E+00
       21   -1    0    0  503  502  0.00000000000E+00  0.00000000000E+00  0.41493807338E+02  0.41493807338E+02  0.00000000000E+00 0. -1.
       21   -1    0    0  502  503 -0.00000000000E+00 -0.00000000000E+00 -0.37655771967E+03  0.37655771967E+03  0.00000000000E+00 0. -1.
       25    2    1    2    0    0 -0.71054273576E-14 -0.14210854715E-13 -0.33506391233E+03  0.41805152701E+03  0.24999850777E+03 0.  0.
       24    2    3    3    0    0  0.30361263532E+02  0.89135886959E+02 -0.19824653690E+03  0.23275354852E+03  0.77495240412E+02 0.  0.
      -24    2    3    3    0    0 -0.30361263532E+02 -0.89135886959E+02 -0.13681737543E+03  0.18529797849E+03  0.82154330051E+02 0.  0.
      -13    1    4    4    0    0  0.16650652987E+02  0.92642732440E+02 -0.11641654959E+03  0.14970882786E+03  0.00000000000E+00 0.  1.
       14    1    4    4    0    0  0.13710610544E+02 -0.35068454813E+01 -0.81829987308E+02  0.83044720661E+02  0.00000000000E+00 0. -1.
        3    1    5    5  501    0 -0.57035981428E+02 -0.63993850535E+02 -0.77464228448E+02  0.11553797113E+03  0.00000000000E+00 0. -1.
       -4    1    5    5    0  501  0.26674717896E+02 -0.25142036424E+02 -0.59353146981E+02  0.69760007360E+02  0.00000000000E+00 0.  1.
</event>
<event>
 9   1  0.7570500E-01  0.2500041E+03  0.7546771E-02  0.1113302E+00
       21   -1    0    0  503  502  0.00000000000E+00  0.00000000000E+00  0.22516892061E+02  0.22516892061E+02  0.00000000000E+00 0.  1.
       21   -1    0    0  502  503 -0.00000000000E+00 -0.00000000000E+00 -0.69394596713E+03  0.69394596713E+03  0.00000000000E+00 0.  1.
       25    2    1    2    0    0 -0.14210854715E-13  0.00000000000E+00 -0.67142907507E+03  0.71646285919E+03  0.25000405147E+03 0.  0.
       24    2    3    3    0    0  0.55178249012E+02 -0.47926256244E+02 -0.15019609513E+03  0.18415110190E+03  0.77531903984E+02 0.  0.
      -24    2    3    3    0    0 -0.55178249012E+02  0.47926256244E+02 -0.52123297994E+03  0.53231175730E+03  0.79563951503E+02 0.  0.
      -13    1    4    4    0    0  0.45068869980E+02 -0.71857464848E+01 -0.12958716404E+03  0.13738875892E+03  0.00000000000E+00 0.  1.
       14    1    4    4    0    0  0.10109379031E+02 -0.40740509759E+02 -0.20608931091E+02  0.46762342975E+02  0.00000000000E+00 0. -1.
        3    1    5    5  501    0 -0.68304998540E+02  0.32979090778E+02 -0.27475950140E+03  0.28503679914E+03  0.00000000000E+00 0. -1.
       -4    1    5    5    0  501  0.13126749529E+02  0.14947165465E+02 -0.24647347853E+03  0.24727495815E+03  0.00000000000E+00 0.  1.
</event>
<event>
 9   1  0.7570500E-01  0.2500027E+03  0.7546771E-02  0.1113303E+00
       21   -1    0    0  503  502  0.00000000000E+00  0.00000000000E+00  0.14163146290E+02  0.14163146290E+02  0.00000000000E+00 0.  1.
       21   -1    0    0  502  503 -0.00000000000E+00 -0.00000000000E+00 -0.11032394937E+04  0.11032394937E+04  0.00000000000E+00 0.  1.
       25    2    1    2    0    0 -0.14210854715E-13  0.00000000000E+00 -0.10890763474E+04  0.11174026399E+04  0.25000273872E+03 0.  0.
       24    2    3    3    0    0  0.50700674832E+02 -0.45398807012E+02 -0.84690871380E+03  0.85366446962E+03  0.82807288799E+02 0.  0.
      -24    2    3    3    0    0 -0.50700674832E+02  0.45398807012E+02 -0.24216763356E+03  0.26373817032E+03  0.79253073333E+02 0.  0.
      -13    1    4    4    0    0  0.55014553082E+02 -0.31549263733E+02 -0.30316303423E+03  0.30972533383E+03  0.00000000000E+00 0.  1.
       14    1    4    4    0    0 -0.43138782498E+01 -0.13849543278E+02 -0.54374567957E+03  0.54393913579E+03  0.00000000000E+00 0. -1.
        1    1    5    5  501    0  0.12404492148E+01  0.17643154626E+02 -0.16849165937E+03  0.16941741026E+03  0.00000000000E+00 0. -1.
       -2    1    5    5    0  501 -0.51941124047E+02  0.27755652386E+02 -0.73675974188E+02  0.94320760065E+02  0.00000000000E+00 0.  1.
</event>
<event>
 9   1  0.7570500E-01  0.2500016E+03  0.7546771E-02  0.1113304E+00
       21   -1    0    0  503  502  0.00000000000E+00  0.00000000000E+00  0.36895802348E+02  0.36895802348E+02  0.00000000000E+00 0. -1.
       21   -1    0    0  502  503 -0.00000000000E+00 -0.00000000000E+00 -0.42349548943E+03  0.42349548943E+03  0.00000000000E+00 0. -1.
       25    2    1    2    0    0  0.35527136788E-14  0.71054273576E-14 -0.38659968709E+03  0.46039129178E+03  0.25000164698E+03 0.  0.
       24    2    3    3    0    0 -0.28062507023E+02 -0.25364853118E+02 -0.35056626355E+03  0.36033489800E+03  0.74253979731E+02 0.  0.
      -24    2    3    3    0    0  0.28062507023E+02  0.25364853118E+02 -0.36033423536E+02  0.10005639378E+03  0.85334601715E+02 0.  0.
      -13    1    4    4    0    0 -0.96599695995E+01 -0.47566594841E+02 -0.27876843873E+03  0.28296243282E+03  0.00000000000E+00 0.  1.
       14    1    4    4    0    0 -0.18402537423E+02  0.22201741724E+02 -0.71797824821E+02  0.77372465181E+02  0.00000000000E+00 0. -1.
        3    1    5    5  501    0 -0.11204136662E+02 -0.11060642632E+02  0.18042176338E+02  0.23945576225E+02  0.00000000000E+00 0. -1.
       -4    1    5    5    0  501  0.39266643684E+02  0.36425495749E+02 -0.54075599873E+02  0.76110817552E+02  0.00000000000E+00 0.  1.
</event>
<event>
 9   1  0.7570500E-01  0.2499967E+03  0.7546771E-02  0.1113307E+00
       21   -1    0    0  503  502  0.00000000000E+00  0.00000000000E+00  0.14085825290E+02  0.14085825290E+02  0.00000000000E+00 0. -1.
       21   -1    0    0  502  503 -0.00000000000E+00 -0.00000000000E+00 -0.11092415242E+04  0.11092415242E+04  0.00000000000E+00 0. -1.
       25    2    1    2    0    0  0.00000000000E+00  0.00000000000E+00 -0.10951556989E+04  0.11233273494E+04  0.24999665849E+03 0.  0.
       24    2    3    3    0    0  0.44437362254E+02  0.83251818124E+02 -0.47304937186E+03  0.48883768965E+03  0.79252976096E+02 0.  0.
      -24    2    3    3    0    0 -0.44437362254E+02 -0.83251818124E+02 -0.62210632700E+03  0.63448965979E+03  0.81580033728E+02 0.  0.
      -13    1    4    4    0    0  0.25849693265E+02 -0.38346583119E+00 -0.41712631604E+02  0.49074405990E+02  0.00000000000E+00 0.  1.
       14    1    4    4    0    0  0.18587668989E+02  0.83635283956E+02 -0.43133674026E+03  0.43976328366E+03  0.00000000000E+00 0. -1.
        3    1    5    5  501    0 -0.59349131480E+01 -0.80324879290E+02 -0.49933438078E+03  0.50578862508E+03  0.00000000000E+00 0. -1.
       -4    1    5    5    0  501 -0.38502449106E+02 -0.29269388346E+01 -0.12277194622E+03  0.12870103471E+03  0.00000000000E+00 0.  1.
</event>
<event>
 9   1  0.7570500E-01  0.2499915E+03  0.7546771E-02  0.1113310E+00
       21   -1    0    0  503  502  0.00000000000E+00  0.00000000000E+00  0.40877944520E+03  0.40877944520E+03  0.00000000000E+00 0.  1.
       21   -1    0    0  502  503 -0.00000000000E+00 -0.00000000000E+00 -0.38220951431E+02  0.38220951431E+02  0.00000000000E+00 0.  1.
       25    2    1    2    0    0  0.17763568394E-14  0.35527136788E-14  0.37055849377E+03  0.44700039663E+03  0.24999151442E+03 0.  0.
       24    2    3    3    0    0  0.65838111794E+01 -0.70918429539E+01  0.15997595707E+02  0.83211660053E+02  0.81084008869E+02 0.  0.
      -24    2    3    3    0    0 -0.65838111794E+01  0.70918429539E+01  0.35456089807E+03  0.36378873658E+03  0.80840420705E+02 0.  0.
      -13    1    4    4    0    0  0.19242150641E+02  0.33756828509E+02  0.88909724940E+01  0.39860170900E+02  0.00000000000E+00 0.  1.
       14    1    4    4    0    0 -0.12658339462E+02 -0.40848671463E+02  0.71066232129E+01  0.43351489153E+02  0.00000000000E+00 0. -1.
        3    1    5    5  501    0  0.18775715883E+02  0.36544716591E+02  0.21637088029E+03  0.22023714867E+03  0.00000000000E+00 0. -1.
       -4    1    5    5    0  501 -0.25359527063E+02 -0.29452873637E+02  0.13819001777E+03  0.14355158791E+03  0.00000000000E+00 0.  1.
</event>
<event>
 9   1  0.7570500E-01  0.2499945E+03  0.7546771E-02  0.1113308E+00
       21   -1    0    0  503  502  0.00000000000E+00  0.00000000000E+00  0.16898920197E+03  0.16898920197E+03  0.00000000000E+00 0.  1.
       21   -1    0    0  502  503 -0.00000000000E+00 -0.00000000000E+00 -0.92457474195E+02  0.92457474195E+02  0.00000000000E+00 0.  1.
       25    2    1    2    0    0 -0.17763568394E-14  0.00000000000E+00  0.76531727775E+02  0.26144667616E+03  0.24999451818E+03 0.  0.
       24    2    3    3    0    0 -0.28146473370E+01 -0.87347987058E+02  0.66743780906E+01  0.12387626474E+03  0.87539639942E+02 0.  0.
      -24    2    3    3    0    0  0.28146473370E+01  0.87347987058E+02  0.69857349684E+02  0.13757041142E+03  0.80049832673E+02 0.  0.
      -13    1    4    4    0    0  0.17348821652E+02 -0.78660176241E+02 -0.25883597980E+02  0.84607124897E+02  0.00000000000E+00 0.  1.
       14    1    4    4    0    0 -0.20163468989E+02 -0.86878108173E+01  0.32557976071E+02  0.39269139847E+02  0.00000000000E+00 0. -1.
        3    1    5    5  501    0  0.11103813056E+02  0.59858211987E+01 -0.15079733060E+02  0.19660189952E+02  0.00000000000E+00 0. -1.
       -4    1    5    5    0  501 -0.82891657187E+01  0.81362165859E+02  0.84937082745E+02  0.11791022147E+03  0.00000000000E+00 0.  1.
</event>
<event>
 9   1  0.7570500E-01  0.2500008E+03  0.7546771E-02  0.1113304E+00
       21   -1    0    0  503  502  0.00000000000E+00  0.00000000000E+00  0.38596092629E+02  0.38596092629E+02  0.00000000000E+00 0.  1.
       21   -1    0    0  502  503 -0.00000000000E+00 -0.00000000000E+00 -0.40483634469E+03  0.40483634469E+03  0.00000000000E+00 0.  1.
       25    2    1    2    0    0  0.71054273576E-14  0.00000000000E+00 -0.36624025206E+03  0.44343243732E+03  0.25000080847E+03 0.  0.
       24    2    3    3    0    0 -0.44859594565E+02  0.58729479161E+02 -0.29646257832E+03  0.31655496571E+03  0.82797651071E+02 0.  0.
      -24    2    3    3    0    0  0.44859594565E+02 -0.58729479161E+02 -0.69777673738E+02  0.12687747161E+03  0.75943624501E+02 0.  0.
      -13    1    4    4    0    0  0.13649203280E+02  0.35141047297E+02 -0.18195990876E+03  0.18582411671E+03  0.00000000000E+00 0.  1.
       14    1    4    4    0    0 -0.58508797845E+02  0.23588431864E+02 -0.11450266956E+03  0.13073084900E+03  0.00000000000E+00 0. -1.
        1    1    5    5  501    0  0.47437535458E+02 -0.73590205964E+02 -0.69510503601E+02  0.11179243398E+03  0.00000000000E+00 0. -1.
       -2    1    5    5    0  501 -0.25779408937E+01  0.14860726803E+02 -0.26717013742E+00  0.15085037628E+02  0.00000000000E+00 0.  1.
</event>
<event>
 9   1  0.7570500E-01  0.2500026E+03  0.7546771E-02  0.1113303E+00
       21   -1    0    0  503  502  0.00000000000E+00  0.00000000000E+00  0.27067164928E+02  0.27067164928E+02  0.00000000000E+00 0.  1.
       21   -1    0    0  502  503 -0.00000000000E+00 -0.00000000000E+00 -0.57727991260E+03  0.57727991260E+03  0.00000000000E+00 0.  1.
       25    2    1    2    0    0  0.00000000000E+00 -0.35527136788E-14 -0.55021274767E+03  0.60434707753E+03  0.25000264482E+03 0.  0.
       24    2    3    3    0    0  0.70412517037E+02  0.16589546697E+02 -0.44415741184E+03  0.45285861687E+03  0.50714739130E+02 0.  0.
      -24    2    3    3    0    0 -0.70412517037E+02 -0.16589546697E+02 -0.10605533583E+03  0.15148846066E+03  0.80423154872E+02 0.  0.
      -13    1    4    4    0    0  0.11227210595E+02  0.25773312541E+02 -0.16102837792E+03  0.16346391770E+03  0.00000000000E+00 0.  1.
       14    1    4    4    0    0  0.59185306442E+02 -0.91837658442E+01 -0.28312903392E+03  0.28939469916E+03  0.00000000000E+00 0. -1.
        3    1    5    5  501    0 -0.58099297322E+02  0.25625593914E+01 -0.11350143968E+03  0.12753302266E+03  0.00000000000E+00 0. -1.
       -4    1    5    5    0  501 -0.12313219715E+02 -0.19152106088E+02  0.74461038438E+01  0.23955438001E+02  0.00000000000E+00 0.  1.
</event>
<event>
 9   1  0.7570500E-01  0.2500065E+03  0.7546771E-02  0.1113301E+00
       21   -1    0    0  503  502  0.00000000000E+00  0.00000000000E+00  0.42506881885E+02  0.42506881885E+02  0.00000000000E+00 0. -1.
       21   -1    0    0  502  503 -0.00000000000E+00 -0.00000000000E+00 -0.36760677309E+03  0.36760677309E+03  0.00000000000E+00 0. -1.
       25    2    1    2    0    0 -0.14210854715E-13 -0.35527136788E-14 -0.32509989121E+03  0.41011365498E+03  0.25000654139E+03 0.  0.
       24    2    3    3    0    0  0.81277613286E+02  0.11262881863E+01 -0.24485037818E+03  0.27007572671E+03  0.79886616620E+02 0.  0.
      -24    2    3    3    0    0 -0.81277613286E+02 -0.11262881863E+01 -0.80249513028E+02  0.14003792827E+03  0.81014307790E+02 0.  0.
      -13    1    4    4    0    0  0.32130589878E+02 -0.37157311109E+02 -0.80377986900E+02  0.94200113338E+02  0.00000000000E+00 0.  1.
       14    1    4    4    0    0  0.49147023408E+02  0.38283599295E+02 -0.16447239128E+03  0.17587561337E+03  0.00000000000E+00 0. -1.
        3    1    5    5  501    0 -0.85022012002E+01  0.81300601167E+01  0.15472559302E+02  0.19436702244E+02  0.00000000000E+00 0. -1.
       -4    1    5    5    0  501 -0.72775412086E+02 -0.92563483029E+01 -0.95722072330E+02  0.12060122603E+03  0.00000000000E+00 0.  1.
</event>
<event>
 9   1  0.7570500E-01  0.2499925E+03  0.7546771E-02  0.1113310E+00
       21   -1    0    0  503  502  0.00000000000E+00  0.00000000000E+00  0.73996957599E+02  0.73996957599E+02  0.00000000000E+00 0. -1.
       21   -1    0    0  502  503 -0.00000000000E+00 -0.00000000000E+00 -0.21114462194E+03  0.21114462194E+03  0.00000000000E+00 0. -1.
       25    2    1    2    0    0  0.35527136788E-14  0.00000000000E+00 -0.13714766434E+03  0.28514157953E+03  0.24999247698E+03 0.  0.
       24    2    3    3    0    0 -0.93221940138E+01 -0.94290465236E+02 -0.53384609570E+02  0.13495748979E+03  0.79912529530E+02 0.  0.
      -24    2    3    3    0    0  0.93221940138E+01  0.94290465236E+02 -0.83763054767E+02  0.15018408974E+03  0.81002569913E+02 0.  0.
      -13    1    4    4    0    0 -0.37408448652E+02 -0.80882816446E+02 -0.53294278097E+02  0.10383497534E+03  0.00000000000E+00 0.  1.
       14    1    4    4    0    0  0.28086254639E+02 -0.13407648790E+02 -0.90331472912E-01  0.31122514447E+02  0.00000000000E+00 0. -1.
        1    1    5    5  501    0 -0.34431840367E+02  0.44548934660E+02 -0.24900789785E+02  0.61564669595E+02  0.00000000000E+00 0. -1.
       -2    1    5    5    0  501  0.43754034381E+02  0.49741530576E+02 -0.58862264983E+02  0.88619420149E+02  0.00000000000E+00 0.  1.
</event>
<event>
 9   1  0.7570500E-01  0.2499995E+03  0.7546771E-02  0.1113305E+00
       21   -1    0    0  503  502  0.00000000000E+00  0.00000000000E+00  0.85567791193E+02  0.85567791193E+02  0.00000000000E+00 0. -1.
       21   -1    0    0  502  503 -0.00000000000E+00 -0.00000000000E+00 -0.18260298804E+03  0.18260298804E+03  0.00000000000E+00 0. -1.
       25    2    1    2    0    0 -0.35527136788E-14  0.00000000000E+00 -0.97035196845E+02  0.26817077923E+03  0.24999947481E+03 0.  0.
       24    2    3    3    0    0  0.11579172021E+02  0.83276341074E+02 -0.38318773750E+01  0.11950895719E+03  0.84845043211E+02 0.  0.
      -24    2    3    3    0    0 -0.11579172021E+02 -0.83276341074E+02 -0.93203319470E+02  0.14866182204E+03  0.79652070686E+02 0.  0.
      -13    1    4    4    0    0  0.97524399929E+01  0.61379094962E+02 -0.42320297194E+02  0.75189832682E+02  0.00000000000E+00 0.  1.
       14    1    4    4    0    0  0.18267320277E+01  0.21897246112E+02  0.38488419819E+02  0.44319124510E+02  0.00000000000E+00 0. -1.
        1    1    5    5  501    0  0.23615872276E+02 -0.51381605431E+02 -0.17324251641E+02  0.59143118746E+02  0.00000000000E+00 0. -1.
       -2    1    5    5    0  501 -0.35195044297E+02 -0.31894735643E+02 -0.75879067829E+02  0.89518703294E+02  0.00000000000E+00 0.  1.
</event>
<event>
 9   1  0.7570500E-01  0.2500048E+03  0.7546771E-02  0.1113302E+00
       21   -1    0    0  503  502  0.00000000000E+00  0.00000000000E+00  0.21211577535E+03  0.21211577535E+03  0.00000000000E+00 0. -1.
       21   -1    0    0  502  503 -0.00000000000E+00 -0.00000000000E+00 -0.73665453087E+02  0.73665453087E+02  0.00000000000E+00 0. -1.
       25    2    1    2    0    0  0.00000000000E+00  0.00000000000E+00  0.13845032227E+03  0.28578122844E+03  0.25000483754E+03 0.  0.
       24    2    3    3    0    0  0.52735250501E+02  0.80022448523E+01  0.16121688437E+03  0.18814505019E+03  0.81010082925E+02 0.  0.
      -24    2    3    3    0    0 -0.52735250501E+02 -0.80022448523E+01 -0.22766562107E+02  0.97636178252E+02  0.78545938059E+02 0.  0.
      -13    1    4    4    0    0  0.73911336448E+02  0.13354895268E+02  0.12719462587E+03  0.14771496787E+03  0.00000000000E+00 0.  1.
       14    1    4    4    0    0 -0.21176085947E+02 -0.53526504155E+01  0.34022258504E+02  0.40430082317E+02  0.00000000000E+00 0. -1.
        3    1    5    5  501    0  0.95870767381E+01  0.85230168598E+01 -0.30124177936E+02  0.32741715793E+02  0.00000000000E+00 0. -1.
       -4    1    5    5    0  501 -0.62322327239E+02 -0.16525261712E+02  0.73576158294E+01  0.64894462459E+02  0.00000000000E+00 0.  1.
</event>
<event>
 9   1  0.7570500E-01  0.2499747E+03  0.7546771E-02  0.1113321E+00
       21   -1    0    0  503  502  0.00000000000E+00  0.00000000000E+00  0.40193228501E+03  0.40193228501E+03  0.00000000000E+00 0.  1.
       21   -1    0    0  502  503 -0.00000000000E+00 -0.00000000000E+00 -0.38866836044E+02  0.38866836044E+02  0.00000000000E+00 0.  1.
       25    2    1    2    0    0  0.00000000000E+00 -0.71054273576E-14  0.36306544897E+03  0.44079912105E+03  0.24997468850E+03 0.  0.
       24    2    3    3    0    0  0.77344154390E+02 -0.42279709121E+02  0.12391793203E+03  0.17161648372E+03  0.79541634293E+02 0.  0.
      -24    2    3    3    0    0 -0.77344154390E+02  0.42279709121E+02  0.23914751694E+03  0.26918263733E+03  0.86591370012E+02 0.  0.
      -13    1    4    4    0    0  0.29104636876E+02 -0.40001243176E+02  0.11115373497E+03  0.12166483527E+03  0.00000000000E+00 0.  1.
       14    1    4    4    0    0  0.48239517515E+02 -0.22784659457E+01  0.12764197062E+02  0.49951648459E+02  0.00000000000E+00 0. -1.
        1    1    5    5  501    0 -0.14014318730E+02  0.56288806422E+02  0.98747515343E+02  0.11452468138E+03  0.00000000000E+00 0. -1.
       -2    1    5    5    0  501 -0.63329835661E+02 -0.14009097301E+02  0.14040000160E+03  0.15465795595E+03  0.00000000000E+00 0.  1.
</event>
<event>
 9   1  0.7570500E-01  0.2499988E+03  0.7546771E-02  0.1113306E+00
       21   -1    0    0  503  502  0.00000000000E+00  0.00000000000E+00  0.32521526490E+03  0.32521526490E+03  0.00000000000E+00 0.  1.
       21   -1    0    0  502  503 -0.00000000000E+00 -0.00000000000E+00 -0.48044644748E+02  0.48044644748E+02  0.00000000000E+00 0.  1.
       25    2    1    2    0    0 -0.35527136788E-14 -0.14210854715E-13  0.27717062015E+03  0.37325990965E+03  0.24999881495E+03 0.  0.
       24    2    3    3    0    0 -0.16318067225E+02  0.86312377920E+02  0.19321532608E+03  0.22739752077E+03  0.81617181517E+02 0.  0.
      -24    2    3    3    0    0  0.16318067225E+02 -0.86312377920E+02  0.83955294074E+02  0.14586238888E+03  0.80692249861E+02 0.  0.
      -13    1    4    4    0    0 -0.14453816467E+02  0.43418179992E+02  0.21802143633E+02  0.50689097755E+02  0.00000000000E+00 0.  1.
       14    1    4    4    0    0 -0.18642507584E+01  0.42894197928E+02  0.17141318245E+03  0.17670842301E+03  0.00000000000E+00 0. -1.
        3    1    5    5  501    0 -0.92683686069E+01  0.40879292771E+01 -0.91073376134E+01  0.13621946293E+02  0.00000000000E+00 0. -1.
       -4    1    5    5    0  501  0.25586435832E+02 -0.90400307197E+02  0.93062631688E+02  0.13224044259E+03  0.00000000000E+00 0.  1.
</event>
<event>
 9   1  0.7570500E-01  0.2500005E+03  0.7546771E-02  0.1113305E+00
       21   -1    0    0  503  502  0.00000000000E+00  0.00000000000E+00  0.51760665007E+03  0.51760665007E+03  0.00000000000E+00 0. -1.
       21   -1    0    0  502  503 -0.00000000000E+00 -0.00000000000E+00 -0.30187129026E+02  0.30187129026E+02  0.00000000000E+00 0. -1.
       25    2    1    2    0    0  0.14210854715E-13 -0.71054273576E-14  0.48741952105E+03  0.54779377910E+03  0.25000046984E+03 0.  0.
       24    2    3    3    0    0 -0.65542510282E+02  0.59126487140E+02  0.16689725224E+03  0.20525588276E+03  0.80520323320E+02 0.  0.
      -24    2    3    3    0    0  0.65542510282E+02 -0.59126487140E+02  0.32052226881E+03  0.34253789634E+03  0.82498021123E+02 0.  0.
      -13    1    4    4    0    0 -0.21736091068E+02 -0.11421522743E+02  0.85568121892E+02  0.89021414956E+02  0.00000000000E+00 0.  1.
       14    1    4    4    0    0 -0.43806419214E+02  0.70548009883E+02  0.81329130343E+02  0.11623446780E+03  0.00000000000E+00 0. -1.
        1    1    5    5  501    0  0.22908809908E+02 -0.29547307851E+02  0.26061144769E+03  0.26327966810E+03  0.00000000000E+00 0. -1.
       -2    1    5    5    0  501  0.42633700373E+02 -0.29579179289E+02  0.59910821125E+02  0.79258228234E+02  0.00000000000E+00 0.  1.
</event>
<event>
 9   1  0.7570500E-01  0.2500080E+03  0.7546771E-02  0.1113300E+00
       21   -1    0    0  503  502  0.00000000000E+00  0.00000000000E+00  0.14053201725E+04  0.14053201725E+04  0.00000000000E+00 0.  1.
       21   -1    0    0  502  503 -0.00000000000E+00 -0.00000000000E+00 -0.11119173308E+02  0.11119173308E+02  0.00000000000E+00 0.  1.
       25    2    1    2    0    0  0.00000000000E+00 -0.14210854715E-13  0.13942009992E+04  0.14164393458E+04  0.25000798829E+03 0.  0.
       24    2    3    3    0    0  0.76825686180E+02 -0.60521860380E+02  0.70724062504E+03  0.71802248538E+03  0.76170244623E+02 0.  0.
      -24    2    3    3    0    0 -0.76825686180E+02  0.60521860380E+02  0.68696037414E+03  0.69841686042E+03  0.79413308914E+02 0.  0.
      -13    1    4    4    0    0  0.18855400128E+02  0.12390069622E+02  0.59785617247E+02  0.63901173454E+02  0.00000000000E+00 0.  1.
       14    1    4    4    0    0  0.57970286051E+02 -0.72911930002E+02  0.64745500780E+03  0.65412131193E+03  0.00000000000E+00 0. -1.
        3    1    5    5  501    0 -0.48441988924E+02 -0.44524320846E+01  0.17746794588E+03  0.18401446208E+03  0.00000000000E+00 0. -1.
       -4    1    5    5    0  501 -0.28383697256E+02  0.64974292465E+02  0.50949242827E+03  0.51440239833E+03  0.00000000000E+00 0.  1.
</event>
<event>
 9   1  0.7570500E-01  0.2499973E+03  0.7546771E-02  0.1113307E+00
       21   -1    0    0  503  502  0.00000000000E+00  0.00000000000E+00  0.17972435371E+02  0.17972435371E+02  0.00000000000E+00 0.  1.
       21   -1    0    0  502  503 -0.00000000000E+00 -0.00000000000E+00 -0.86936814116E+03  0.86936814116E+03  0.00000000000E+00 0.  1.
       25    2    1    2    0    0  0.71054273576E-14  0.71054273576E-14 -0.85139570579E+03  0.88734057653E+03  0.24999730183E+03 0.  0.
       24    2    3    3    0    0  0.18244862283E+02  0.58561553818E+02 -0.68382973968E+03  0.69144130600E+03  0.81887948955E+02 0.  0.
      -24    2    3    3    0    0 -0.18244862283E+02 -0.58561553818E+02 -0.16756596611E+03  0.19589927053E+03  0.80844545962E+02 0.  0.
      -13    1    4    4    0    0 -0.31757239648E+02  0.22050500473E+02 -0.32731934749E+03  0.32959475433E+03  0.00000000000E+00 0.  1.
       14    1    4    4    0    0  0.50002101931E+02  0.36511053345E+02 -0.35651039219E+03  0.36184655167E+03  0.00000000000E+00 0. -1.
        1    1    5    5  501    0 -0.35026117861E+02 -0.71876519953E+02 -0.12848657994E+03  0.15133361912E+03  0.00000000000E+00 0. -1.
       -2    1    5    5    0  501  0.16781255578E+02  0.13314966135E+02 -0.39079386171E+02  0.44565651408E+02  0.00000000000E+00 0.  1.
</event>
<event>
 9   1  0.7570500E-01  0.2500009E+03  0.7546771E-02  0.1113304E+00
       21   -1    0    0  503  502  0.00000000000E+00  0.00000000000E+00  0.32347333510E+03  0.32347333510E+03  0.00000000000E+00 0. -1.
       21   -1    0    0  502  503 -0.00000000000E+00 -0.00000000000E+00 -0.48304192599E+02  0.48304192599E+02  0.00000000000E+00 0. -1.
       25    2    1    2    0    0  0.00000000000E+00  0.00000000000E+00  0.27516914250E+03  0.37177752770E+03  0.25000094623E+03 0.  0.
       24    2    3    3    0    0 -0.89999729267E+02 -0.17527990184E+02  0.92905795656E+02  0.15353251685E+03  0.80830471711E+02 0.  0.
      -24    2    3    3    0    0  0.89999729267E+02  0.17527990184E+02  0.18226334684E+03  0.21824501084E+03  0.77484033499E+02 0.  0.
      -13    1    4    4    0    0 -0.47583467937E+02 -0.45307965764E+02  0.75119941160E+02  0.99799818349E+02  0.00000000000E+00 0.  1.
       14    1    4    4    0    0 -0.42416261330E+02  0.27779975581E+02  0.17785854496E+02  0.53732698505E+02  0.00000000000E+00 0. -1.
        1    1    5    5  501    0  0.99408426071E+02  0.35374552869E+01  0.13236251877E+03  0.16557289977E+03  0.00000000000E+00 0. -1.
       -2    1    5    5    0  501 -0.94086968045E+01  0.13990534897E+02  0.49900828072E+02  0.52672111069E+02  0.00000000000E+00 0.  1.
</event>
<event>
 9   1  0.7570500E-01  0.2500056E+03  0.7546771E-02  0.1113301E+00
       21   -1    0    0  503  502  0.00000000000E+00  0.00000000000E+00  0.22045679489E+02  0.22045679489E+02  0.00000000000E+00 0. -1.
       21   -1    0    0  502  503 -0.00000000000E+00 -0.00000000000E+00 -0.70878724563E+03  0.70878724563E+03  0.00000000000E+00 0. -1.
       25    2    1    2    0    0  0.14210854715E-13  0.00000000000E+00 -0.68674156614E+03  0.73083292512E+03  0.25000557148E+03 0.  0.
       24    2    3    3    0    0 -0.90660161745E+02  0.28937436585E+02 -0.36847936169E+03  0.38924226532E+03  0.81705942002E+02 0.  0.
      -24    2    3    3    0    0  0.90660161745E+02 -0.28937436585E+02 -0.31826220445E+03  0.34159065980E+03  0.79603441595E+02 0.  0.
      -13    1    4    4    0    0 -0.22806203201E+02  0.23334654273E+02 -0.25369321502E+03  0.25578286952E+03  0.00000000000E+00 0.  1.
       14    1    4    4    0    0 -0.67853958544E+02  0.56027823117E+01 -0.11478614667E+03  0.13345939580E+03  0.00000000000E+00 0. -1.
        3    1    5    5  501    0  0.97537322574E+01  0.65997506096E+01 -0.15916286707E+03  0.15959796444E+03  0.00000000000E+00 0. -1.
       -4    1    5    5    0  501  0.80906429487E+02 -0.35537187194E+02 -0.15909933739E+03  0.18199269536E+03  0.00000000000E+00 0.  1.
</event>
<event>
 8   1  0.7570500E-01  0.2499002E+03  0.7546771E-02  0.1113368E+00
       21   -1    0    0  503  502  0.00000000000E+00  0.00000000000E+00  0.22423738764E+03  0.22423738764E+03  0.00000000000E+00 0.  1.
       21   -1    0    0  502  503 -0.00000000000E+00 -0.00000000000E+00 -0.69625005784E+02  0.69625005784E+02  0.00000000000E+00 0.  1.
       24    2    1    2    0    0 -0.55979335599E+02 -0.77198422517E+02  0.71006869366E+02  0.14318648965E+03  0.79794190690E+02 0.  0.
      -24    2    1    2    0    0  0.55979335599E+02  0.77198422517E+02  0.83605512489E+02  0.15067590377E+03  0.81363774529E+02 0.  0.
      -13    1    3    3    0    0  0.53917348565E+01 -0.43277152208E+02  0.56847759608E+02  0.71649497420E+02  0.00000000000E+00 0.  1.
       14    1    3    3    0    0 -0.61371070456E+02 -0.33921270309E+02  0.14159109757E+02  0.71536992231E+02  0.00000000000E+00 0. -1.
        1    1    4    4  501    0  0.47353426282E+01  0.57012379008E+02  0.75926480053E+02  0.95066635594E+02  0.00000000000E+00 0. -1.
       -2    1    4    4    0  501  0.51243992971E+02  0.20186043510E+02  0.76790324368E+01  0.55609268178E+02  0.00000000000E+00 0.  1.
</event>
<event>
 9   1  0.7570500E-01  0.2499942E+03  0.7546771E-02  0.1113308E+00
       21   -1    0    0  503  502  0.00000000000E+00  0.00000000000E+00  0.38718486027E+02  0.38718486027E+02  0.00000000000E+00 0. -1.
       21   -1    0    0  502  503 -0.00000000000E+00 -0.00000000000E+00 -0.40353531310E+03  0.40353531310E+03  0.00000000000E+00 0. -1.
       25    2    1    2    0    0  0.00000000000E+00  0.00000000000E+00 -0.36481682708E+03  0.44225379913E+03  0.24999421099E+03 0.  0.
       24    2    3    3    0    0 -0.85409272491E+02  0.39982263129E+02 -0.20955039974E+03  0.24320782691E+03  0.79657716819E+02 0.  0.
      -24    2    3    3    0    0  0.85409272491E+02 -0.39982263129E+02 -0.15526642734E+03  0.19904597222E+03  0.81352998748E+02 0.  0.
      -13    1    4    4    0    0 -0.44976378318E+02  0.43653942732E+02 -0.18599066993E+03  0.19626785428E+03  0.00000000000E+00 0.  1.
       14    1    4    4    0    0 -0.40432894173E+02 -0.36716796029E+01 -0.23559729813E+02  0.46939972637E+02  0.00000000000E+00 0. -1.
        1    1    5    5  501    0  0.86278499553E+02 -0.59210140094E+02 -0.12315068526E+03  0.16160418143E+03  0.00000000000E+00 0. -1.
       -2    1    5    5    0  501 -0.86922706180E+00  0.19227876965E+02 -0.32115742079E+02  0.37441790790E+02  0.00000000000E+00 0.  1.
</event>
<event>
 9   1  0.7570500E-01  0.2499995E+03  0.7546771E-02  0.1113305E+00
       21   -1    0    0  503  502  0.00000000000E+00  0.00000000000E+00  0.37803088415E+03  0.37803088415E+03  0.00000000000E+00 0.  1.
       21   -1    0    0  502  503 -0.00000000000E+00 -0.00000000000E+00 -0.41332448528E+02  0.41332448528E+02  0.00000000000E+00 0.  1.
       25    2    1    2    0    0  0.00000000000E+00  0.00000000000E+00  0.33669843563E+03  0.41936333268E+03  0.24999953649E+03 0.  0.
       24    2    3    3    0    0 -0.47872731253E+02 -0.69305925615E+02  0.10331578411E+03  0.15864370544E+03  0.86014907458E+02 0.  0.
      -24    2    3    3    0    0  0.47872731253E+02  0.69305925615E+02  0.23338265151E+03  0.26071962724E+03  0.80075915736E+02 0.  0.
      -13    1    4    4    0    0  0.90724295803E+01 -0.33798934345E+02  0.80475469883E+02  0.87755217476E+02  0.00000000000E+00 0.  1.
       14    1    4    4    0    0 -0.56945160833E+02 -0.35506991270E+02  0.22840314230E+02  0.70888487961E+02  0.00000000000E+00 0. -1.
        3    1    5    5  501    0  0.22657099330E+02  0.18019721714E+01  0.79964433564E+01  0.24094280651E+02  0.00000000000E+00 0. -1.
       -4    1    5    5    0  501  0.25215631923E+02  0.67503953443E+02  0.22538620816E+03  0.23662534659E+03  0.00000000000E+00 0.  1.
</event>
<event>
 9   1  0.7570500E-01  0.2499952E+03  0.7546771E-02  0.1113308E+00
       21   -1    0    0  503  502  0.00000000000E+00  0.00000000000E+00  0.36287419582E+02  0.36287419582E+02  0.00000000000E+00 0.  1.
       21   -1    0    0  502  503 -0.00000000000E+00 -0.00000000000E+00 -0.43057333758E+03  0.43057333758E+03  0.00000000000E+00 0.  1.
       25    2    1    2    0    0  0.35527136788E-14  0.00000000000E+00 -0.39428591800E+03  0.46686075716E+03  0.24999516285E+03 0.  0.
       24    2    3    3    0    0  0.20086816719E+02  0.66672073747E+02 -0.27381274209E+03  0.29427844248E+03  0.82327020821E+02 0.  0.
      -24    2    3    3    0    0 -0.20086816719E+02 -0.66672073747E+02 -0.12047317591E+03  0.17258231468E+03  0.10208929230E+03 0.  0.
      -13    1    4    4    0    0  0.77587520054E+01  0.56925517132E+02 -0.27251977414E+03  0.27850985626E+03  0.00000000000E+00 0.  1.
       14    1    4    4    0    0  0.12328064714E+02  0.97465566147E+01 -0.12929679435E+01  0.15768586225E+02  0.00000000000E+00 0. -1.
        1    1    5    5  501    0  0.13136153173E+02 -0.33396175616E+01 -0.96061745430E+02  0.97013249098E+02  0.00000000000E+00 0. -1.
       -2    1    5    5    0  501 -0.33222969892E+02 -0.63332456185E+02 -0.24411430483E+02  0.75569065583E+02  0.00000000000E+00 0.  1.
</event>
<event>
 9   1  0.7570500E-01  0.2499979E+03  0.7546771E-02  0.1113306E+00
       21   -1    0    0  503  502  0.00000000000E+00  0.00000000000E+00  0.83145067954E+02  0.83145067954E+02  0.00000000000E+00 0. -1.
       21   -1    0    0  502  503 -0.00000000000E+00 -0.00000000000E+00 -0.18792144472E+03  0.18792144472E+03  0.00000000000E+00 0. -1.
       25    2    1    2    0    0 -0.71054273576E-14  0.35527136788E-14 -0.10477637676E+03  0.27106651267E+03  0.24999793032E+03 0.  0.
       24    2    3    3    0    0  0.49910527858E+02  0.23021840896E+02 -0.13673852309E+03  0.16811841580E+03  0.80903103056E+02 0.  0.
      -24    2    3    3    0    0 -0.49910527858E+02 -0.23021840896E+02  0.31962146332E+02  0.10294809687E+03  0.80967066771E+02 0.  0.
      -13    1    4    4    0    0 -0.85643383339E+01  0.32745419742E+02 -0.76259274074E+02  0.83433130634E+02  0.00000000000E+00 0.  1.
       14    1    4    4    0    0  0.58474866192E+02 -0.97235788457E+01 -0.60479249020E+02  0.84685285166E+02  0.00000000000E+00 0. -1.
        1    1    5    5  501    0 -0.19289175700E+02 -0.43311702673E+02 -0.86417077260E+01  0.48193931154E+02  0.00000000000E+00 0. -1.
       -2    1    5    5    0  501 -0.30621352157E+02  0.20289861777E+02  0.40603854058E+02  0.54754165716E+02  0.00000000000E+00 0.  1.
</event>
<event>
 9   1  0.7570500E-01  0.2500011E+03  0.7546771E-02  0.1113304E+00
       21   -1    0    0  503  502  0.00000000000E+00  0.00000000000E+00  0.53448786022E+02  0.53448786022E+02  0.00000000000E+00 0.  1.
       21   -1    0    0  502  503 -0.00000000000E+00 -0.00000000000E+00 -0.29233844017E+03  0.29233844017E+03  0.00000000000E+00 0.  1.
       25    2    1    2    0    0  0.00000000000E+00  0.00000000000E+00 -0.23888965415E+03  0.34578722619E+03  0.25000107787E+03 0.  0.
       24    2    3    3    0    0 -0.53546286771E+02  0.66463954063E+02 -0.18403728967E+03  0.21741213076E+03  0.78189824106E+02 0.  0.
      -24    2    3    3    0    0  0.53546286771E+02 -0.66463954063E+02 -0.54852364474E+02  0.12837509543E+03  0.78655713220E+02 0.  0.
      -13    1    4    4    0    0 -0.18560509806E+02 -0.19269319826E+01 -0.10701271342E+03  0.10862746626E+03  0.00000000000E+00 0.  1.
       14    1    4    4    0    0 -0.34985776966E+02  0.68390886046E+02 -0.77024576247E+02  0.10878466450E+03  0.00000000000E+00 0. -1.
        3    1    5    5  501    0  0.29762958304E+02 -0.82191732721E+02 -0.38628160387E+02  0.95569081765E+02  0.00000000000E+00 0. -1.
       -4    1    5    5    0  501  0.23783328467E+02  0.15727778657E+02 -0.16224204087E+02  0.32806013667E+02  0.00000000000E+00 0.  1.
</event>
<event>
 9   1  0.7570500E-01  0.2500013E+03  0.7546771E-02  0.1113304E+00
       21   -1    0    0  503  502  0.00000000000E+00  0.00000000000E+00  0.40299082166E+02  0.40299082166E+02  0.00000000000E+00 0. -1.
       21   -1    0    0  502  503 -0.00000000000E+00 -0.00000000000E+00 -0.38773003509E+03  0.38773003509E+03  0.00000000000E+00 0. -1.
       25    2    1    2    0    0  0.71054273576E-14  0.00000000000E+00 -0.34743095293E+03  0.42802911726E+03  0.25000131633E+03 0.  0.
       24    2    3    3    0    0 -0.20085743399E+02 -0.68060430738E+02 -0.27449083996E+03  0.29464365594E+03  0.80212239967E+02 0.  0.
      -24    2    3    3    0    0  0.20085743399E+02  0.68060430738E+02 -0.72940112962E+02  0.13338546132E+03  0.86230863919E+02 0.  0.
      -13    1    4    4    0    0  0.15805703134E+02 -0.31335709794E+02 -0.20638721830E+03  0.20935001991E+03  0.00000000000E+00 0.  1.
       14    1    4    4    0    0 -0.35891446533E+02 -0.36724720944E+02 -0.68103621662E+02  0.85293636024E+02  0.00000000000E+00 0. -1.
        1    1    5    5  501    0 -0.10621642622E+02  0.63264359225E+02 -0.78953580038E+02  0.10172937747E+03  0.00000000000E+00 0. -1.
       -2    1    5    5    0  501  0.30707386021E+02  0.47960715134E+01  0.60134670761E+01  0.31656083846E+02  0.00000000000E+00 0.  1.
</event>
<event>
 9   1  0.7570500E-01  0.2499800E+03  0.7546771E-02  0.1113317E+00
       21   -1    0    0  503  502  0.00000000000E+00  0.00000000000E+00  0.97158703199E+02  0.97158703199E+02  0.00000000000E+00 0. -1.
       21   -1    0    0  502  503 -0.00000000000E+00 -0.00000000000E+00 -0.16079358431E+03  0.16079358431E+03  0.00000000000E+00 0. -1.
       25    2    1    2    0    0  0.00000000000E+00 -0.14210854715E-13 -0.63634881109E+02  0.25795228751E+03  0.24997996827E+03 0.  0.
       24    2    3    3    0    0  0.67227105502E+02  0.65303651185E+02 -0.41751324336E+02  0.13264586021E+03  0.84069617437E+02 0.  0.
      -24    2    3    3    0    0 -0.67227105502E+02 -0.65303651185E+02 -0.21883556773E+02  0.12530642729E+03  0.80241884897E+02 0.  0.
      -13    1    4    4    0    0  0.65039487768E+02  0.84003790403E+02 -0.29778333224E+02  0.11033367981E+03  0.00000000000E+00 0.  1.
       14    1    4    4    0    0  0.21876177335E+01 -0.18700139219E+02 -0.11972991112E+02  0.22312180402E+02  0.00000000000E+00 0. -1.
        1    1    5    5  501    0 -0.45509905535E+02 -0.16071402543E+02  0.24624997054E+02  0.54183318110E+02  0.00000000000E+00 0. -1.
       -2    1    5    5    0  501 -0.21717199966E+02 -0.49232248641E+02 -0.46508553828E+02  0.71123109183E+02  0.00000000000E+00 0.  1.
</event>
<event>
 9   1  0.7570500E-01  0.2499991E+03  0.7546771E-02  0.1113305E+00
       21   -1    0    0  503  502  0.00000000000E+00  0.00000000000E+00  0.11943378586E+03  0.11943378586E+03  0.00000000000E+00 0. -1.
       21   -1    0    0  502  503 -0.00000000000E+00 -0.00000000000E+00 -0.13082472545E+03  0.13082472545E+03  0.00000000000E+00 0. -1.
       25    2    1    2    0    0  0.35527136788E-14  0.14210854715E-13 -0.11390939590E+02  0.25025851132E+03  0.24999913796E+03 0.  0.
       24    2    3    3    0    0  0.78900169641E+01  0.90147442367E+02  0.27844159173E+02  0.12440582374E+03  0.80701289013E+02 0.  0.
      -24    2    3    3    0    0 -0.78900169641E+01 -0.90147442367E+02 -0.39235098763E+02  0.12585268757E+03  0.78170916977E+02 0.  0.
      -13    1    4    4    0    0 -0.15258835212E+02  0.43550978706E+02 -0.23084894934E+02  0.51598761346E+02  0.00000000000E+00 0.  1.
       14    1    4    4    0    0  0.23148852176E+02  0.46596463661E+02  0.50929054108E+02  0.72807062398E+02  0.00000000000E+00 0. -1.
        3    1    5    5  501    0  0.29100978344E+02 -0.20525386060E+02 -0.29831306972E+02  0.46454981317E+02  0.00000000000E+00 0. -1.
       -4    1    5    5    0  501 -0.36990995308E+02 -0.69622056307E+02 -0.94037917904E+01  0.79397706254E+02  0.00000000000E+00 0.  1.
</event>
<event>
 9   1  0.7570500E-01  0.2500000E+03  0.7546771E-02  0.1113305E+00
       21   -1    0    0  503  502  0.00000000000E+00  0.00000000000E+00  0.39331994180E+02  0.39331994180E+02  0.00000000000E+00 0.  1.
       21   -1    0    0  502  503 -0.00000000000E+00 -0.00000000000E+00 -0.39725916033E+03  0.39725916033E+03  0.00000000000E+00 0.  1.
       25    2    1    2    0    0  0.00000000000E+00  0.00000000000E+00 -0.35792716614E+03  0.43659115451E+03  0.24999995986E+03 0.  0.
       24    2    3    3    0    0  0.77905149030E+02  0.30137055133E+02 -0.25539742691E+03  0.28117983886E+03  0.82805807583E+02 0.  0.
      -24    2    3    3    0    0 -0.77905149030E+02 -0.30137055133E+02 -0.10252973923E+03  0.15541131565E+03  0.81626437303E+02 0.  0.
      -13    1    4    4    0    0  0.52180770995E+02 -0.15649435787E+02 -0.18801562364E+03  0.19574885040E+03  0.00000000000E+00 0.  1.
       14    1    4    4    0    0  0.25724378035E+02  0.45786490920E+02 -0.67381803276E+02  0.85430988457E+02  0.00000000000E+00 0. -1.
        1    1    5    5  501    0 -0.54862093369E+02 -0.27899992347E+02 -0.11401523798E+03  0.12956748571E+03  0.00000000000E+00 0. -1.
       -2    1    5    5    0  501 -0.23043055661E+02 -0.22370627861E+01  0.11485498751E+02  0.25843829934E+02  0.00000000000E+00 0.  1.
</event>
<event>
 9   1  0.7570500E-01  0.2500006E+03  0.7546771E-02  0.1113304E+00
       21   -1    0    0  503  502  0.00000000000E+00  0.00000000000E+00  0.96340347967E+03  0.96340347967E+03  0.00000000000E+00 0. -1.
       21   -1    0    0  502  503 -0.00000000000E+00 -0.00000000000E+00 -0.16218625692E+02  0.16218625692E+02  0.00000000000E+00 0. -1.
       25    2    1    2    0    0  0.00000000000E+00  0.71054273576E-14  0.94718485398E+03  0.97962210537E+03  0.25000064341E+03 0.  0.
       24    2    3    3    0    0  0.77486424814E+02 -0.23553227804E+02  0.26953354489E+03  0.29250420758E+03  0.79696167138E+02 0.  0.
      -24    2    3    3    0    0 -0.77486424814E+02  0.23553227804E+02  0.67765130909E+03  0.68711789779E+03  0.79754674988E+02 0.  0.
      -13    1    4    4    0    0  0.10006804098E+02  0.58959600039E+01 -0.14426470133E+01  0.11703832835E+02  0.00000000000E+00 0.  1.
       14    1    4    4    0    0  0.67479620716E+02 -0.29449187807E+02  0.27097619191E+03  0.28080037474E+03  0.00000000000E+00 0. -1.
        3    1    5    5  501    0 -0.55517186748E+02 -0.21075770652E+02  0.27064666051E+03  0.27708475414E+03  0.00000000000E+00 0. -1.
       -4    1    5    5    0  501 -0.21969238066E+02  0.44628998455E+02  0.40700464858E+03  0.41003314365E+03  0.00000000000E+00 0.  1.
</event>
<event>
 9   1  0.7570500E-01  0.2499964E+03  0.7546771E-02  0.1113307E+00
       21   -1    0    0  503  502  0.00000000000E+00  0.00000000000E+00  0.19749176417E+03  0.19749176417E+03  0.00000000000E+00 0.  1.
       21   -1    0    0  502  503 -0.00000000000E+00 -0.00000000000E+00 -0.79114950616E+02  0.79114950616E+02  0.00000000000E+00 0.  1.
       25    2    1    2    0    0 -0.14210854715E-13 -0.17763568394E-14  0.11837681355E+03  0.27660671478E+03  0.24999640933E+03 0.  0.
       24    2    3    3    0    0  0.92790453290E+02 -0.64132362214E+01  0.82173768940E+02  0.14931660668E+03  0.83016401440E+02 0.  0.
      -24    2    3    3    0    0 -0.92790453290E+02  0.64132362214E+01  0.36203044610E+02  0.12729010810E+03  0.78999451650E+02 0.  0.
      -13    1    4    4    0    0  0.60245272557E+02 -0.20413257781E+02  0.92638504773E+02  0.11237475929E+03  0.00000000000E+00 0.  1.
       14    1    4    4    0    0  0.32545180733E+02  0.14000021560E+02 -0.10464735833E+02  0.36941847391E+02  0.00000000000E+00 0. -1.
        3    1    5    5  501    0 -0.57643463799E+02  0.19266378916E+02  0.57974847644E+02  0.83994316680E+02  0.00000000000E+00 0. -1.
       -4    1    5    5    0  501 -0.35146989491E+02 -0.12853142695E+02 -0.21771803034E+02  0.43295791421E+02  0.00000000000E+00 0.  1.
</event>
<event>
 9   1  0.7570500E-01  0.2500017E+03  0.7546771E-02  0.1113304E+00
       21   -1    0    0  503  502  0.00000000000E+00  0.00000000000E+00  0.12278039071E+03  0.12278039071E+03  0.00000000000E+00 0.  1.
       21   -1    0    0  502  503 -0.00000000000E+00 -0.00000000000E+00 -0.12726143749E+03  0.12726143749E+03  0.00000000000E+00 0.  1.
       25    2    1    2    0    0  0.14210854715E-13  0.00000000000E+00 -0.44810467809E+01  0.25004182819E+03  0.25000167213E+03 0.  0.
       24    2    3    3    0    0  0.77557103859E+02  0.13643038628E+02  0.51477555885E+02  0.12456150440E+03  0.81635732105E+02 0.  0.
      -24    2    3    3    0    0 -0.77557103859E+02 -0.13643038628E+02 -0.55958602666E+02  0.12548032379E+03  0.80079395510E+02 0.  0.
      -13    1    4    4    0    0  0.50556740024E+02 -0.10168447043E+02 -0.10743504177E+02  0.52676409892E+02  0.00000000000E+00 0.  1.
       14    1    4    4    0    0  0.27000363835E+02  0.23811485670E+02  0.62221060062E+02  0.71885094507E+02  0.00000000000E+00 0. -1.
        1    1    5    5  501    0 -0.87252156132E+02 -0.30860545193E+02 -0.45741061590E+02  0.10323544311E+03  0.00000000000E+00 0. -1.
       -2    1    5    5    0  501  0.96950522732E+01  0.17217506565E+02 -0.10217541076E+02  0.22244880681E+02  0.00000000000E+00 0.  1.
</event>
<event>
 9   1  0.7570500E-01  0.2500016E+03  0.7546771E-02  0.1113304E+00
       21   -1    0    0  503  502  0.00000000000E+00  0.00000000000E+00  0.29291726032E+02  0.29291726032E+02  0.00000000000E+00 0. -1.
       21   -1    0    0  502  503 -0.00000000000E+00 -0.00000000000E+00 -0.53343404955E+03  0.53343404955E+03  0.00000000000E+00 0. -1.
       25    2    1    2    0    0 -0.14210854715E-13  0.00000000000E+00 -0.50414232352E+03  0.56272577558E+03  0.25000163228E+03 0.  0.
       24    2    3    3    0    0 -0.82693228620E+02  0.21454699499E+02 -0.15607007709E+03  0.19549122805E+03  0.80996772102E+02 0.  0.
      -24    2    3    3    0    0  0.82693228620E+02 -0.21454699499E+02 -0.34807224644E+03  0.36723454754E+03  0.80052794942E+02 0.  0.
      -13    1    4    4    0    0 -0.18718903365E+02 -0.40108237182E+01 -0.11225678166E+03  0.11387743006E+03  0.00000000000E+00 0.  1.
       14    1    4    4    0    0 -0.63974325255E+02  0.25465523217E+02 -0.43813295429E+02  0.81613797981E+02  0.00000000000E+00 0. -1.
        1    1    5    5  501    0  0.89840378980E+02 -0.71510707511E+01 -0.33396227695E+03  0.34590928570E+03  0.00000000000E+00 0. -1.
       -2    1    5    5    0  501 -0.71471503604E+01 -0.14303628748E+02 -0.14109969486E+02  0.21325261840E+02  0.00000000000E+00 0.  1.
</event>
<event>
 9   1  0.7570500E-01  0.2499983E+03  0.7546771E-02  0.1113306E+00
       21   -1    0    0  503  502  0.00000000000E+00  0.00000000000E+00  0.30899756279E+02  0.30899756279E+02  0.00000000000E+00 0.  1.
       21   -1    0    0  502  503 -0.00000000000E+00 -0.00000000000E+00 -0.50566062476E+03  0.50566062476E+03  0.00000000000E+00 0.  1.
       25    2    1    2    0    0  0.14210854715E-13  0.71054273576E-14 -0.47476086848E+03  0.53656038104E+03  0.24999832051E+03 0.  0.
       24    2    3    3    0    0  0.76766470916E+02  0.49183243415E+02 -0.30455947197E+03  0.32755361568E+03  0.78884831808E+02 0.  0.
      -24    2    3    3    0    0 -0.76766470916E+02 -0.49183243415E+02 -0.17020139651E+03  0.20900676536E+03  0.80020185586E+02 0.  0.
      -13    1    4    4    0    0  0.24508696685E+02 -0.61807950618E+01 -0.17940292350E+02  0.30995685674E+02  0.00000000000E+00 0.  1.
       14    1    4    4    0    0  0.52257774232E+02  0.55364038477E+02 -0.28661917962E+03  0.29655793001E+03  0.00000000000E+00 0. -1.
        1    1    5    5  501    0 -0.37469323872E+02  0.46951054669E+01 -0.16016999265E+02  0.41018758053E+02  0.00000000000E+00 0. -1.
       -2    1    5    5    0  501 -0.39297147045E+02 -0.53878348882E+02 -0.15418439725E+03  0.16798800731E+03  0.00000000000E+00 0.  1.
</event>
<event>
 8   1  0.7570500E-01  0.2503965E+03  0.7546771E-02  0.1113054E+00
       21   -1    0    0  503  502  0.00000000000E+00  0.00000000000E+00  0.63518754407E+02  0.63518754407E+02  0.00000000000E+00 0.  1.
       21   -1    0    0  502  503 -0.00000000000E+00 -0.00000000000E+00 -0.24677132942E+03  0.24677132942E+03  0.00000000000E+00 0.  1.
       24    2    1    2    0    0  0.36433068200E+02 -0.83778276717E+02 -0.13985438138E+03  0.18593911974E+03  0.81657456187E+02 0.  0.
      -24    2    1    2    0    0 -0.36433068200E+02  0.83778276717E+02 -0.43398193632E+02  0.12435096408E+03  0.72343561910E+02 0.  0.
      -13    1    3    3    0    0  0.52432852847E+02 -0.45570786267E+02 -0.45911049214E+02  0.83268992180E+02  0.00000000000E+00 0.  1.
       14    1    3    3    0    0 -0.15999784647E+02 -0.38207490450E+02 -0.93943332162E+02  0.10267012756E+03  0.00000000000E+00 0. -1.
        3    1    4    4  501    0 -0.12031329772E+02  0.29038854815E+02  0.19883452954E+02  0.37193543612E+02  0.00000000000E+00 0. -1.
       -4    1    4    4    0  501 -0.24401738428E+02  0.54739421902E+02 -0.63281646587E+02  0.87157420471E+02  0.00000000000E+00 0.  1.
</event>
<event>
 9   1  0.7570500E-01  0.2499950E+03  0.7546771E-02  0.1113308E+00
       21   -1    0    0  503  502  0.00000000000E+00  0.00000000000E+00  0.13455985756E+02  0.13455985756E+02  0.00000000000E+00 0.  1.
       21   -1    0    0  502  503 -0.00000000000E+00 -0.00000000000E+00 -0.11611470481E+04  0.11611470481E+04  0.00000000000E+00 0.  1.
       25    2    1    2    0    0  0.00000000000E+00  0.35527136788E-14 -0.11476910623E+04  0.11746030338E+04  0.24999502506E+03 0.  0.
       24    2    3    3    0    0 -0.72314802917E+02 -0.56072270420E+01 -0.28015037263E+03  0.30037927787E+03  0.80514641956E+02 0.  0.
      -24    2    3    3    0    0  0.72314802917E+02  0.56072270420E+01 -0.86754068966E+03  0.87422375594E+03  0.79871493759E+02 0.  0.
      -13    1    4    4    0    0 -0.57205219161E+02 -0.31097132393E+02 -0.24905855687E+03  0.25742889017E+03  0.00000000000E+00 0.  1.
       14    1    4    4    0    0 -0.15109583755E+02  0.25489905351E+02 -0.31091815762E+02  0.42950387698E+02  0.00000000000E+00 0. -1.
        1    1    5    5  501    0  0.42332916512E+02 -0.34604625879E+02 -0.34823395209E+03  0.35250027140E+03  0.00000000000E+00 0. -1.
       -2    1    5    5    0  501  0.29981886405E+02  0.40211852921E+02 -0.51930673758E+03  0.52172348454E+03  0.00000000000E+00 0.  1.
</event>
<event>
 9   1  0.7570500E-01  0.2499974E+03  0.7546771E-02  0.1113306E+00
       21   -1    0    0  503  502  0.00000000000E+00  0.00000000000E+00  0.49514967654E+02  0.49514967654E+02  0.00000000000E+00 0. -1.
       21   -1    0    0  502  503 -0.00000000000E+00 -0.00000000000E+00 -0.31555456973E+03  0.31555456973E+03  0.00000000000E+00 0. -1.
       25    2    1    2    0    0  0.14210854715E-13 -0.14210854715E-13 -0.26603960207E+03  0.36506953738E+03  0.24999739449E+03 0.  0.
       24    2    3    3    0    0  0.73203819819E+02 -0.49064404264E+02 -0.75963912183E+02  0.14106195368E+03  0.79761167361E+02 0.  0.
      -24    2    3    3    0    0 -0.73203819819E+02  0.49064404264E+02 -0.19007568989E+03  0.22400758371E+03  0.79274930896E+02 0.  0.
      -13    1    4    4    0    0  0.61613294613E+02 -0.22789895729E+02 -0.88090919815E+02  0.10988897840E+03  0.00000000000E+00 0.  1.
       14    1    4    4    0    0  0.11590525205E+02 -0.26274508534E+02  0.12127007633E+02  0.31172975273E+02  0.00000000000E+00 0. -1.
        3    1    5    5  501    0  0.50876690477E+01  0.95208459331E+01 -0.91192318547E+02  0.91829025071E+02  0.00000000000E+00 0. -1.
       -4    1    5    5    0  501 -0.78291488866E+02  0.39543558331E+02 -0.98883371344E+02  0.13217855863E+03  0.00000000000E+00 0.  1.
</event>
<event>
 9   1  0.7570500E-01  0.2500261E+03  0.7546771E-02  0.1113288E+00
       21   -1    0    0  503  502  0.00000000000E+00  0.00000000000E+00  0.30541105782E+02  0.30541105782E+02  0.00000000000E+00 0. -1.
       21   -1    0    0  502  503 -0.00000000000E+00 -0.00000000000E+00 -0.51171232771E+03  0.51171232771E+03  0.00000000000E+00 0. -1.
       25    2    1    2    0    0  0.00000000000E+00  0.35527136788E-14 -0.48117122193E+03  0.54225343349E+03  0.25002608128E+03 0.  0.
       24    2    3    3    0    0  0.46083878869E+02 -0.12165554521E+01 -0.47356478022E+02  0.98428548378E+02  0.72940655510E+02 0.  0.
      -24    2    3    3    0    0 -0.46083878869E+02  0.12165554521E+01 -0.43381474391E+03  0.44382488512E+03  0.81609391108E+02 0.  0.
      -13    1    4    4    0    0  0.38869544196E+02 -0.19185556266E+02 -0.60934404454E+02  0.74779199524E+02  0.00000000000E+00 0.  1.
       14    1    4    4    0    0  0.72143346731E+01  0.17969000814E+02  0.13577926432E+02  0.23649348854E+02  0.00000000000E+00 0. -1.
        3    1    5    5  501    0 -0.22198511831E+02 -0.28485148382E+02 -0.77769441198E+02  0.85745341507E+02  0.00000000000E+00 0. -1.
       -4    1    5    5    0  501 -0.23885367039E+02  0.29701703834E+02 -0.35604530271E+03  0.35807954361E+03  0.00000000000E+00 0.  1.
</event>
<event>
 9   1  0.7570500E-01  0.2499964E+03  0.7546771E-02  0.1113307E+00
       21   -1    0    0  503  502  0.00000000000E+00  0.00000000000E+00  0.70248549474E+03  0.70248549474E+03  0.00000000000E+00 0. -1.
       21   -1    0    0  502  503 -0.00000000000E+00 -0.00000000000E+00 -0.22241816141E+02  0.22241816141E+02  0.00000000000E+00 0. -1.
       25    2    1    2    0    0 -0.71054273576E-14  0.14210854715E-13  0.68024367860E+03  0.72472731088E+03  0.24999642570E+03 0.  0.
       24    2    3    3    0    0  0.43609247189E+02 -0.47894816866E+02  0.12835620212E+03  0.16335574218E+03  0.77550654135E+02 0.  0.
      -24    2    3    3    0    0 -0.43609247189E+02  0.47894816866E+02  0.55188747647E+03  0.56137156870E+03  0.79765729058E+02 0.  0.
      -13    1    4    4    0    0  0.57071055852E+02 -0.57668055611E+02  0.11969263100E+03  0.14459957112E+03  0.00000000000E+00 0.  1.
       14    1    4    4    0    0 -0.13461808662E+02  0.97732387456E+01  0.86635711247E+01  0.18756171056E+02  0.00000000000E+00 0. -1.
        3    1    5    5  501    0  0.20287919396E+02  0.60953495436E+00  0.17629243176E+03  0.17745701649E+03  0.00000000000E+00 0. -1.
       -4    1    5    5    0  501 -0.63897166586E+02  0.47285281911E+02  0.37559504471E+03  0.38391455220E+03  0.00000000000E+00 0.  1.
</event>
<event>
 9   1  0.7570500E-01  0.2499975E+03  0.7546771E-02  0.1113306E+00
       21   -1    0    0  503  502  0.00000000000E+00  0.00000000000E+00  0.49237823143E+03  0.49237823143E+03  0.00000000000E+00 0. -1.
       21   -1    0    0  502  503 -0.00000000000E+00 -0.00000000000E+00 -0.31733090038E+02  0.31733090038E+02  0.00000000000E+00 0. -1.
       25    2    1    2    0    0 -0.14210854715E-13 -0.35527136788E-14  0.46064514139E+03  0.52411132147E+03  0.24999746199E+03 0.  0.
       24    2    3    3    0    0  0.85958937773E+02  0.31641468015E+02  0.18116719804E+03  0.21843656949E+03  0.80640311056E+02 0.  0.
      -24    2    3    3    0    0 -0.85958937773E+02 -0.31641468015E+02  0.27947794336E+03  0.30567475198E+03  0.83300730433E+02 0.  0.
      -13    1    4    4    0    0  0.78109580881E+02  0.37131962564E+02  0.83222176676E+02  0.12002424738E+03  0.00000000000E+00 0.  1.
       14    1    4    4    0    0  0.78493568912E+01 -0.54904945489E+01  0.97945021360E+02  0.98412322111E+02  0.00000000000E+00 0. -1.
        3    1    5    5  501    0 -0.89983410892E+02 -0.15111821942E+02  0.15363556494E+03  0.17868762748E+03  0.00000000000E+00 0. -1.
       -4    1    5    5    0  501  0.40244731190E+01 -0.16529646073E+02  0.12584237842E+03  0.12698712450E+03  0.00000000000E+00 0.  1.
</event>
<event>
 9   1  0.7570500E-01  0.2499904E+03  0.7546771E-02  0.1113311E+00
       21   -1    0    0  503  502  0.00000000000E+00  0.00000000000E+00  0.18466010469E+03  0.18466010469E+03  0.00000000000E+00 0. -1.
       21   -1    0    0  502  503 -0.00000000000E+00 -0.00000000000E+00 -0.84608409770E+02  0.84608409770E+02  0.00000000000E+00 0. -1.
       25    2    1    2    0    0  0.00000000000E+00  0.00000000000E+00  0.10005169492E+03  0.26926851446E+03  0.24999038226E+03 0.  0.
       24    2    3    3    0    0  0.77109857292E+02  0.17838693306E+02 -0.98889107547E+01  0.11216757431E+03  0.78864599788E+02 0.  0.
      -24    2    3    3    0    0 -0.77109857292E+02 -0.17838693306E+02  0.10994060567E+03  0.15710094015E+03  0.79558906165E+02 0.  0.
      -13    1    4    4    0    0  0.73626825523E+02 -0.14501467415E+02 -0.20780256696E+02  0.77865403499E+02  0.00000000000E+00 0.  1.
       14    1    4    4    0    0  0.34830317689E+01  0.32340160721E+02  0.10891345941E+02  0.34302170808E+02  0.00000000000E+00 0. -1.
        3    1    5    5  501    0 -0.35608392633E+02 -0.29519327591E+02  0.10368727914E+03  0.11353589822E+03  0.00000000000E+00 0. -1.
       -4    1    5    5    0  501 -0.41501464659E+02  0.11680634285E+02  0.62533265290E+01  0.43565041935E+02  0.00000000000E+00 0.  1.
</event>
<event>
 9   1  0.7570500E-01  0.2499996E+03  0.7546771E-02  0.1113305E+00
       21   -1    0    0  503  502  0.00000000000E+00  0.00000000000E+00  0.12184196398E+02  0.12184196398E+02  0.00000000000E+00 0. -1.
       21   -1    0    0  502  503 -0.00000000000E+00 -0.00000000000E+00 -0.12823943388E+04  0.12823943388E+04  0.00000000000E+00 0. -1.
       25    2    1    2    0    0  0.00000000000E+00  0.17763568394E-14 -0.12702101424E+04  0.12945785351E+04  0.24999955587E+03 0.  0.
       24    2    3    3    0    0  0.74474339817E+02 -0.83192668570E+01 -0.94152815992E+03  0.94793820842E+03  0.80597354534E+02 0.  0.
      -24    2    3    3    0    0 -0.74474339817E+02  0.83192668570E+01 -0.32868198243E+03  0.34664032673E+03  0.80697168789E+02 0.  0.
      -13    1    4    4    0    0  0.82779051076E+02  0.15676566973E+02 -0.68706518968E+03  0.69221145680E+03  0.00000000000E+00 0.  1.
       14    1    4    4    0    0 -0.83047112590E+01 -0.23995833830E+02 -0.25446297024E+03  0.25572675162E+03  0.00000000000E+00 0. -1.
        1    1    5    5  501    0  0.24112930876E+01  0.10771333220E+02 -0.22472827319E+01  0.11264378961E+02  0.00000000000E+00 0. -1.
       -2    1    5    5    0  501 -0.76885632904E+02 -0.24520663630E+01 -0.32643469969E+03  0.33537594777E+03  0.00000000000E+00 0.  1.
</event>
<event>
 9   1  0.7570500E-01  0.2499999E+03  0.7546771E-02  0.1113305E+00
       21   -1    0    0  503  502  0.00000000000E+00  0.00000000000E+00  0.48472082391E+02  0.48472082391E+02  0.00000000000E+00 0. -1.
       21   -1    0    0  502  503 -0.00000000000E+00 -0.00000000000E+00 -0.32235020015E+03  0.32235020015E+03  0.00000000000E+00 0. -1.
       25    2    1    2    0    0  0.71054273576E-14  0.00000000000E+00 -0.27387811776E+03  0.37082228254E+03  0.24999988368E+03 0.  0.
       24    2    3    3    0    0 -0.61184164803E+02 -0.53437711960E+02 -0.63019223140E+02  0.13113107557E+03  0.81393153346E+02 0.  0.
      -24    2    3    3    0    0  0.61184164803E+02  0.53437711960E+02 -0.21085889462E+03  0.23969120698E+03  0.79945670175E+02 0.  0.
      -13    1    4    4    0    0 -0.36564534730E+01  0.11886121654E+02  0.11203739908E+02  0.16738378891E+02  0.00000000000E+00 0.  1.
       14    1    4    4    0    0 -0.57527711330E+02 -0.65323833614E+02 -0.74222963048E+02  0.11439269667E+03  0.00000000000E+00 0. -1.
        3    1    5    5  501    0  0.34224413826E+02  0.50052671061E+02 -0.20231838547E+03  0.21120916051E+03  0.00000000000E+00 0. -1.
       -4    1    5    5    0  501  0.26959750977E+02  0.33850408987E+01 -0.85405091477E+01  0.28482046470E+02  0.00000000000E+00 0.  1.
</event>
<event>
 9   1  0.7570500E-01  0.2500001E+03  0.7546771E-02  0.1113305E+00
       21   -1    0    0  503  502  0.00000000000E+00  0.00000000000E+00  0.75805503941E+02  0.75805503941E+02  0.00000000000E+00 0. -1.
       21   -1    0    0  502  503 -0.00000000000E+00 -0.00000000000E+00 -0.20611978055E+03  0.20611978055E+03  0.00000000000E+00 0. -1.
       25    2    1    2    0    0  0.00000000000E+00 -0.35527136788E-14 -0.13031427661E+03  0.28192528449E+03  0.25000011070E+03 0.  0.
       24    2    3    3    0    0  0.89011698264E+02  0.21599994727E+02 -0.10039650640E+03  0.15671588784E+03  0.78043377699E+02 0.  0.
      -24    2    3    3    0    0 -0.89011698264E+02 -0.21599994727E+02 -0.29917770211E+02  0.12520939666E+03  0.79954223384E+02 0.  0.
      -13    1    4    4    0    0  0.37023995488E+02  0.18097903149E+02  0.25967931933E+01  0.41292295591E+02  0.00000000000E+00 0.  1.
       14    1    4    4    0    0  0.51987702776E+02  0.35020915783E+01 -0.10299329960E+03  0.11542359225E+03  0.00000000000E+00 0. -1.
        1    1    5    5  501    0  0.11601841217E+02  0.10201161715E+02 -0.81541127326E+01  0.17468714161E+02  0.00000000000E+00 0. -1.
       -2    1    5    5    0  501 -0.10061353948E+03 -0.31801156442E+02 -0.21763657478E+02  0.10774068250E+03  0.00000000000E+00 0.  1.
</event>
<event>
 9   1  0.7570500E-01  0.2499428E+03  0.7546771E-02  0.1113341E+00
       21   -1    0    0  503  502  0.00000000000E+00  0.00000000000E+00  0.54485924077E+03  0.54485924077E+03  0.00000000000E+00 0.  1.
       21   -1    0    0  502  503 -0.00000000000E+00 -0.00000000000E+00 -0.28664005699E+02  0.28664005699E+02  0.00000000000E+00 0.  1.
       25    2    1    2    0    0  0.00000000000E+00  0.00000000000E+00  0.51619523507E+03  0.57352324647E+03  0.24994278051E+03 0.  0.
       24    2    3    3    0    0  0.60852010576E+02 -0.27353797641E+02  0.42013918480E+03  0.43283097533E+03  0.79840598443E+02 0.  0.
      -24    2    3    3    0    0 -0.60852010576E+02  0.27353797641E+02  0.96056050274E+02  0.14069227115E+03  0.78207115597E+02 0.  0.
      -13    1    4    4    0    0  0.32653721488E+02 -0.91537675569E+01  0.45790977815E+02  0.56981318314E+02  0.00000000000E+00 0.  1.
       14    1    4    4    0    0  0.28198289088E+02 -0.18200030084E+02  0.37434820699E+03  0.37584965701E+03  0.00000000000E+00 0. -1.
        1    1    5    5  501    0  0.57161584220E+00  0.21987799804E+02  0.70668881911E+02  0.74012708067E+02  0.00000000000E+00 0. -1.
       -2    1    5    5    0  501 -0.61423626418E+02  0.53659978370E+01  0.25387168363E+02  0.66679563081E+02  0.00000000000E+00 0.  1.
</event>
<event>
 9   1  0.7570500E-01  0.2499939E+03  0.7546771E-02  0.1113309E+00
       21   -1    0    0  503  502  0.00000000000E+00  0.00000000000E+00  0.64773101811E+02  0.64773101811E+02  0.00000000000E+00 0.  1.
       21   -1    0    0  502  503 -0.00000000000E+00 -0.00000000000E+00 -0.24121487278E+03  0.24121487278E+03  0.00000000000E+00 0.  1.
       25    2    1    2    0    0 -0.14210854715E-13  0.00000000000E+00 -0.17644177097E+03  0.30598797459E+03  0.24999388403E+03 0.  0.
       24    2    3    3    0    0  0.36802295924E+02 -0.74782343008E+02 -0.15038402892E+03  0.18724885148E+03  0.74161771916E+02 0.  0.
      -24    2    3    3    0    0 -0.36802295924E+02  0.74782343008E+02 -0.26057742048E+02  0.11873912311E+03  0.80455985646E+02 0.  0.
      -13    1    4    4    0    0  0.21424454121E+01 -0.71018052454E+02 -0.70516563385E+02  0.10010364408E+03  0.00000000000E+00 0.  1.
       14    1    4    4    0    0  0.34659850512E+02 -0.37642905546E+01 -0.79867465535E+02  0.87145207395E+02  0.00000000000E+00 0. -1.
        3    1    5    5  501    0 -0.19378895351E+02  0.11586943528E+02  0.26430380490E+02  0.34761528421E+02  0.00000000000E+00 0. -1.
       -4    1    5    5    0  501 -0.17423400573E+02  0.63195399480E+02 -0.52488122538E+02  0.83977594694E+02  0.00000000000E+00 0.  1.
</event>
<event>
 9   1  0.7570500E-01  0.2500057E+03  0.7546771E-02  0.1113301E+00
       21   -1    0    0  503  502  0.00000000000E+00  0.00000000000E+00  0.16523998627E+04  0.16523998627E+04  0.00000000000E+00 0.  1.
       21   -1    0    0  502  503 -0.00000000000E+00 -0.00000000000E+00 -0.94563733089E+01  0.94563733089E+01  0.00000000000E+00 0.  1.
       25    2    1    2    0    0  0.71054273576E-14  0.14210854715E-13  0.16429434894E+04  0.16618562361E+04  0.25000567960E+03 0.  0.
       24    2    3    3    0    0  0.43456226841E+02  0.83847772940E+02  0.77940681783E+03  0.78921555345E+03  0.80419583664E+02 0.  0.
      -24    2    3    3    0    0 -0.43456226841E+02 -0.83847772940E+02  0.86353667160E+03  0.87264068261E+03  0.82989668410E+02 0.  0.
      -13    1    4    4    0    0  0.83368510851E+01  0.22319727840E+02  0.41017119171E+02  0.47434980784E+02  0.00000000000E+00 0.  1.
       14    1    4    4    0    0  0.35119375756E+02  0.61528045099E+02  0.73838969866E+03  0.74178057266E+03  0.00000000000E+00 0. -1.
        3    1    5    5  501    0 -0.52531523441E+02 -0.23227222857E+02  0.56263600566E+03  0.56556019989E+03  0.00000000000E+00 0. -1.
       -4    1    5    5    0  501  0.90752966007E+01 -0.60620550083E+02  0.30090066594E+03  0.30708048272E+03  0.00000000000E+00 0.  1.
</event>
<event>
 9   1  0.7570500E-01  0.2499983E+03  0.7546771E-02  0.1113306E+00
       21   -1    0    0  503  502  0.00000000000E+00  0.00000000000E+00  0.78985980714E+02  0.78985980714E+02  0.00000000000E+00 0. -1.
       21   -1    0    0  502  503 -0.00000000000E+00 -0.00000000000E+00 -0.19781719144E+03  0.19781719144E+03  0.00000000000E+00 0. -1.
       25    2    1    2    0    0  0.35527136788E-14 -0.14210854715E-13 -0.11883121072E+03  0.27680317215E+03  0.24999827893E+03 0.  0.
       24    2    3    3    0    0 -0.16140917229E+02  0.88424691782E+02 -0.22878997440E+02  0.12286206676E+03  0.80574087641E+02 0.  0.
      -24    2    3    3    0    0  0.16140917229E+02 -0.88424691782E+02 -0.95952213282E+02  0.15394110539E+03  0.80072350839E+02 0.  0.
      -13    1    4    4    0    0 -0.38806019051E+02  0.62504861005E+02  0.11197546202E+02  0.74418746326E+02  0.00000000000E+00 0.  1.
       14    1    4    4    0    0  0.22665101823E+02  0.25919830777E+02 -0.34076543642E+02  0.48443320434E+02  0.00000000000E+00 0. -1.
        1    1    5    5  501    0 -0.16534757446E+01  0.13083359466E+02 -0.82510371299E-01  0.13187686867E+02  0.00000000000E+00 0. -1.
       -2    1    5    5    0  501  0.17794392973E+02 -0.10150805125E+03 -0.95869702910E+02  0.14075341852E+03  0.00000000000E+00 0.  1.
</event>
<event>
 9   1  0.7570500E-01  0.2499991E+03  0.7546771E-02  0.1113305E+00
       21   -1    0    0  503  502  0.00000000000E+00  0.00000000000E+00  0.36174810575E+02  0.36174810575E+02  0.00000000000E+00 0.  1.
       21   -1    0    0  502  503 -0.00000000000E+00 -0.00000000000E+00 -0.43192721608E+03  0.43192721608E+03  0.00000000000E+00 0.  1.
       25    2    1    2    0    0 -0.35527136788E-14 -0.28421709430E-13 -0.39575240550E+03  0.46810202665E+03  0.24999908179E+03 0.  0.
       24    2    3    3    0    0 -0.10215946390E+02 -0.95431539131E+02 -0.17918599910E+03  0.21796600064E+03  0.78676622573E+02 0.  0.
      -24    2    3    3    0    0  0.10215946390E+02  0.95431539131E+02 -0.21656640640E+03  0.25013602601E+03  0.80345994957E+02 0.  0.
      -13    1    4    4    0    0 -0.32880296327E+02 -0.95759117002E+02 -0.14157622661E+03  0.17405387188E+03  0.00000000000E+00 0.  1.
       14    1    4    4    0    0  0.22664349937E+02  0.32757787097E+00 -0.37609772490E+02  0.43912128758E+02  0.00000000000E+00 0. -1.
        3    1    5    5  501    0 -0.11239707320E+02  0.49050757922E+02 -0.18102400766E+03  0.18788826260E+03  0.00000000000E+00 0. -1.
       -4    1    5    5    0  501  0.21455653710E+02  0.46380781209E+02 -0.35542398745E+02  0.62247763415E+02  0.00000000000E+00 0.  1.
</event>
<event>
 9   1  0.7570500E-01  0.2499835E+03  0.7546771E-02  0.1113315E+00
       21   -1    0    0  503  502  0.00000000000E+00  0.00000000000E+00  0.71832052141E+02  0.71832052141E+02  0.00000000000E+00 0. -1.
       21   -1    0    0  502  503 -0.00000000000E+00 -0.00000000000E+00 -0.21749257116E+03  0.21749257116E+03  0.00000000000E+00 0. -1.
       25    2    1    2    0    0  0.00000000000E+00  0.14210854715E-13 -0.14566051902E+03  0.28932462331E+03  0.24998350115E+03 0.  0.
       24    2    3    3    0    0 -0.35756467532E+02  0.72065061819E+02 -0.12999527993E+03  0.17291659087E+03  0.80805176115E+02 0.  0.
      -24    2    3    3    0    0  0.35756467532E+02 -0.72065061819E+02 -0.15665239093E+02  0.11640803244E+03  0.82665181275E+02 0.  0.
      -13    1    4    4    0    0 -0.77369767640E+01  0.83329396638E+02 -0.99190839356E+02  0.12977854894E+03  0.00000000000E+00 0.  1.
       14    1    4    4    0    0 -0.28019490768E+02 -0.11264334819E+02 -0.30804440575E+02  0.43138041923E+02  0.00000000000E+00 0. -1.
        1    1    5    5  501    0  0.23642215361E+02  0.11384654944E+02 -0.18384292035E+02  0.32039770739E+02  0.00000000000E+00 0. -1.
       -2    1    5    5    0  501  0.12114252171E+02 -0.83449716763E+02  0.27190529416E+01  0.84368261701E+02  0.00000000000E+00 0.  1.
</event>
<event>
 9   1  0.7570500E-01  0.2499958E+03  0.7546771E-02  0.1113307E+00
       21   -1    0    0  503  502  0.00000000000E+00  0.00000000000E+00  0.22275288698E+03  0.22275288698E+03  0.00000000000E+00 0. -1.
       21   -1    0    0  502  503 -0.00000000000E+00 -0.00000000000E+00 -0.70142648764E+02  0.70142648764E+02  0.00000000000E+00 0. -1.
       25    2    1    2    0    0 -0.28421709430E-13  0.00000000000E+00  0.15261023822E+03  0.29289553575E+03  0.24999582007E+03 0.  0.
       24    2    3    3    0    0  0.76461132333E+02  0.42878186238E+02  0.12432495270E+03  0.17190166522E+03  0.80054013195E+02 0.  0.
      -24    2    3    3    0    0 -0.76461132333E+02 -0.42878186238E+02  0.28285285517E+02  0.12099387053E+03  0.78451358913E+02 0.  0.
      -13    1    4    4    0    0  0.51219730988E+02  0.64036357216E+02  0.67445510845E+02  0.10617444524E+03  0.00000000000E+00 0.  1.
       14    1    4    4    0    0  0.25241401345E+02 -0.21158170978E+02  0.56879441857E+02  0.65727219985E+02  0.00000000000E+00 0. -1.
        1    1    5    5  501    0 -0.18799493291E+02  0.15097525521E+02  0.30887640626E+02  0.39184213253E+02  0.00000000000E+00 0. -1.
       -2    1    5    5    0  501 -0.57661639042E+02 -0.57975711758E+02 -0.26023551084E+01  0.81809657272E+02  0.00000000000E+00 0.  1.
</event>
<event>
 9   1  0.7570500E-01  0.2500013E+03  0.7546771E-02  0.1113304E+00
       21   -1    0    0  503  502  0.00000000000E+00  0.00000000000E+00  0.53754403236E+03  0.53754403236E+03  0.00000000000E+00 0. -1.
       21   -1    0    0  502  503 -0.00000000000E+00 -0.00000000000E+00 -0.29067679471E+02  0.29067679471E+02  0.00000000000E+00 0. -1.
       25    2    1    2    0    0  0.00000000000E+00  0.00000000000E+00  0.50847635289E+03  0.56661171183E+03  0.25000126107E+03 0.  0.
       24    2    3    3    0    0 -0.80967349568E+02  0.36910497654E+02  0.17160840327E+03  0.20905291055E+03  0.79596349202E+02 0.  0.
      -24    2    3    3    0    0  0.80967349568E+02 -0.36910497654E+02  0.33686794962E+03  0.35755880128E+03  0.80313039754E+02 0.  0.
      -13    1    4    4    0    0 -0.76480720616E+02  0.57509092592E+02  0.15524200344E+03  0.18236413021E+03  0.00000000000E+00 0.  1.
       14    1    4    4    0    0 -0.44866289517E+01 -0.20598594938E+02  0.16366399829E+02  0.26688780342E+02  0.00000000000E+00 0. -1.
        3    1    5    5  501    0 -0.10542059483E+02 -0.20320321032E+02  0.11021768393E+03  0.11256992633E+03  0.00000000000E+00 0. -1.
       -4    1    5    5    0  501  0.91509409051E+02 -0.16590176621E+02  0.22665026570E+03  0.24498887494E+03  0.00000000000E+00 0.  1.
</event>
<event>
 9   1  0.7570500E-01  0.2499831E+03  0.7546771E-02  0.1113315E+00
       21   -1    0    0  503  502  0.00000000000E+00  0.00000000000E+00  0.34478262182E+03  0.34478262182E+03  0.00000000000E+00 0. -1.
       21   -1    0    0  502  503 -0.00000000000E+00 -0.00000000000E+00 -0.45312287743E+02  0.45312287743E+02  0.00000000000E+00 0. -1.
       25    2    1    2    0    0  0.00000000000E+00  0.14210854715E-13  0.29947033408E+03  0.39009490957E+03  0.24998311438E+03 0.  0.
       24    2    3    3    0    0 -0.39324358216E+02 -0.92746340160E+02  0.15773439763E+03  0.19977432880E+03  0.69866683692E+02 0.  0.
      -24    2    3    3    0    0  0.39324358216E+02  0.92746340160E+02  0.14173593645E+03  0.19032058076E+03  0.77359931613E+02 0.  0.
      -13    1    4    4    0    0 -0.57312133457E+02 -0.76474150136E+02  0.10652123975E+03  0.14310747988E+03  0.00000000000E+00 0.  1.
       14    1    4    4    0    0  0.17987775241E+02 -0.16272190024E+02  0.51213157884E+02  0.56666848922E+02  0.00000000000E+00 0. -1.
        3    1    5    5  501    0  0.45926063212E+02  0.41108764037E+02  0.11795445373E+03  0.13308789171E+03  0.00000000000E+00 0. -1.
       -4    1    5    5    0  501 -0.66017049960E+01  0.51637576123E+02  0.23781482712E+02  0.57232689057E+02  0.00000000000E+00 0.  1.
</event>
<event>
 9   1  0.7570500E-01  0.2500013E+03  0.7546771E-02  0.1113304E+00
       21   -1    0    0  503  502  0.00000000000E+00  0.00000000000E+00  0.19205767688E+03  0.19205767688E+03  0.00000000000E+00 0.  1.
       21   -1    0    0  502  503 -0.00000000000E+00 -0.00000000000E+00 -0.81356637226E+02  0.81356637226E+02  0.00000000000E+00 0.  1.
       25    2    1    2    0    0 -0.14210854715E-13  0.00000000000E+00  0.11070103965E+03  0.27341431410E+03  0.25000133395E+03 0.  0.
       24    2    3    3    0    0 -0.83851091882E+02 -0.22204469868E+02  0.10026511328E+03  0.15497998204E+03  0.80259938957E+02 0.  0.
      -24    2    3    3    0    0  0.83851091882E+02  0.22204469868E+02  0.10435926370E+02  0.11843433206E+03  0.79960855167E+02 0.  0.
      -13    1    4    4    0    0 -0.73402930783E+02 -0.94667910970E+01  0.11235804850E+03  0.13454345560E+03  0.00000000000E+00 0.  1.
       14    1    4    4    0    0 -0.10448161098E+02 -0.12737678771E+02 -0.12092935223E+02  0.20436526444E+02  0.00000000000E+00 0. -1.
        1    1    5    5  501    0  0.37432063176E+02 -0.17556118925E+02  0.33392555102E+02  0.53145455135E+02  0.00000000000E+00 0. -1.
       -2    1    5    5    0  501  0.46419028706E+02  0.39760588793E+02 -0.22956628732E+02  0.65288876923E+02  0.00000000000E+00 0.  1.
</event>
<event>
 8   1  0.7570500E-01  0.2503812E+03  0.7546771E-02  0.1113064E+00
       21   -1    0    0  503  502  0.00000000000E+00  0.00000000000E+00  0.12457013268E+03  0.12457013268E+03  0.00000000000E+00 0.  1.
       21   -1    0    0  502  503 -0.00000000000E+00 -0.00000000000E+00 -0.12581414640E+03  0.12581414640E+03  0.00000000000E+00 0.  1.
       24    2    1    2    0    0  0.75251098510E+02  0.57706425949E+02 -0.13554500113E+02  0.12545561699E+03  0.81010048373E+02 0.  0.
      -24    2    1    2    0    0 -0.75251098510E+02 -0.57706425949E+02  0.12310486396E+02  0.12492866209E+03  0.80391934387E+02 0.  0.
      -13    1    3    3    0    0  0.89496722830E+02  0.31492705359E+02 -0.96084137722E+01  0.95361289334E+02  0.00000000000E+00 0.  1.
       14    1    3    3    0    0 -0.14245624321E+02  0.26213720590E+02 -0.39460863408E+01  0.30094327653E+02  0.00000000000E+00 0. -1.
        1    1    4    4  501    0 -0.69284909107E+02 -0.23094737529E+02  0.37122963926E+02  0.81926064120E+02  0.00000000000E+00 0. -1.
       -2    1    4    4    0  501 -0.59661894028E+01 -0.34611688420E+02 -0.24812477531E+02  0.43002597974E+02  0.00000000000E+00 0.  1.
</event>
<event>
 9   1  0.7570500E-01  0.2500197E+03  0.7546771E-02  0.1113292E+00
       21   -1    0    0  503  502  0.00000000000E+00  0.00000000000E+00  0.15162173489E+03  0.15162173489E+03  0.00000000000E+00 0.  1.
       21   -1    0    0  502  503 -0.00000000000E+00 -0.00000000000E+00 -0.10306872169E+03  0.10306872169E+03  0.00000000000E+00 0.  1.
       25    2    1    2    0    0 -0.14210854715E-13  0.00000000000E+00  0.48553013203E+02  0.25469045657E+03  0.25001966638E+03 0.  0.
       24    2    3    3    0    0 -0.65112763157E+02  0.67063167448E+02  0.48673171000E+02  0.13224959263E+03  0.79898290475E+02 0.  0.
      -24    2    3    3    0    0  0.65112763157E+02 -0.67063167448E+02 -0.12015779736E+00  0.12244086395E+03  0.79086094680E+02 0.  0.
      -13    1    4    4    0    0  0.22447244370E+01  0.49332506017E+01 -0.18081926363E+02  0.18876753172E+02  0.00000000000E+00 0.  1.
       14    1    4    4    0    0 -0.67357487594E+02  0.62129916846E+02  0.66755097363E+02  0.11337283946E+03  0.00000000000E+00 0. -1.
        1    1    5    5  501    0  0.22034524547E+02 -0.63757541929E+02 -0.25750690942E+02  0.72205557326E+02  0.00000000000E+00 0. -1.
       -2    1    5    5    0  501  0.43078238611E+02 -0.33056255192E+01  0.25630533145E+02  0.50235306619E+02  0.00000000000E+00 0.  1.
</event>
<event>
 9   1  0.7570500E-01  0.2500004E+03  0.7546771E-02  0.1113305E+00
       21   -1    0    0  503  502  0.00000000000E+00  0.00000000000E+00  0.45835164970E+03  0.45835164970E+03  0.00000000000E+00 0. -1.
       21   -1    0    0  502  503 -0.00000000000E+00 -0.00000000000E+00 -0.34089643827E+02  0.34089643827E+02  0.00000000000E+00 0. -1.
       25    2    1    2    0    0  0.00000000000E+00  0.00000000000E+00  0.42426200587E+03  0.49244129353E+03  0.25000035589E+03 0.  0.
       24    2    3    3    0    0  0.79083224627E+02 -0.51746807635E+02  0.19901497099E+03  0.23508831799E+03  0.82022375360E+02 0.  0.
      -24    2    3    3    0    0 -0.79083224627E+02  0.51746807635E+02  0.22524703488E+03  0.25735297553E+03  0.81008880848E+02 0.  0.
      -13    1    4    4    0    0  0.44921708180E+02 -0.19097458758E+02  0.17577780095E+03  0.18242946062E+03  0.00000000000E+00 0.  1.
       14    1    4    4    0    0  0.34161516447E+02 -0.32649348877E+02  0.23237170048E+02  0.52658857374E+02  0.00000000000E+00 0. -1.
        3    1    5    5  501    0 -0.24827871342E+02  0.84237342447E+01  0.15980804267E+03  0.16194441329E+03  0.00000000000E+00 0. -1.
       -4    1    5    5    0  501 -0.54255353285E+02  0.43323073391E+02  0.65438992212E+02  0.95408562246E+02  0.00000000000E+00 0.  1.
</event>
<event>
 9   1  0.7570500E-01  0.2500068E+03  0.7546771E-02  0.1113301E+00
       21   -1    0    0  503  502  0.00000000000E+00  0.00000000000E+00  0.10054116253E+04  0.10054116253E+04  0.00000000000E+00 0. -1.
       21   -1    0    0  502  503 -0.00000000000E+00 -0.00000000000E+00 -0.15541741806E+02  0.15541741806E+02  0.00000000000E+00 0. -1.
       25    2    1    2    0    0 -0.35527136788E-14  0.00000000000E+00  0.98986988348E+03  0.10209533671E+04  0.25000678302E+03 0.  0.
       24    2    3    3    0    0  0.31184212538E+02 -0.22481601464E+02  0.14073475498E+03  0.16710395416E+03  0.81483634671E+02 0.  0.
      -24    2    3    3    0    0 -0.31184212538E+02  0.22481601464E+02  0.84913512850E+03  0.85384941294E+03  0.80935010992E+02 0.  0.
      -13    1    4    4    0    0  0.33257025158E+02 -0.25053506345E+02  0.15083539080E+03  0.15647690890E+03  0.00000000000E+00 0.  1.
       14    1    4    4    0    0 -0.20728126209E+01  0.25719048804E+01 -0.10100635818E+02  0.10627045253E+02  0.00000000000E+00 0. -1.
        1    1    5    5  501    0  0.21742020659E+02 -0.13502237861E+02  0.24756200153E+03  0.24888143862E+03  0.00000000000E+00 0. -1.
       -2    1    5    5    0  501 -0.52926233197E+02  0.35983839325E+02  0.60157312697E+03  0.60496797431E+03  0.00000000000E+00 0.  1.
</event>
<event>
 9   1  0.7570500E-01  0.2500012E+03  0.7546771E-02  0.1113304E+00
       21   -1    0    0  503  502  0.00000000000E+00  0.00000000000E+00  0.19937197487E+02  0.19937197487E+02  0.00000000000E+00 0. -1.
       21   -1    0    0  502  503 -0.00000000000E+00 -0.00000000000E+00 -0.78371859452E+03  0.78371859452E+03  0.00000000000E+00 0. -1.
       25    2    1    2    0    0  0.00000000000E+00 -0.35527136788E-14 -0.76378139704E+03  0.80365579201E+03  0.25000121914E+03 0.  0.
       24    2    3    3    0    0  0.91308551680E+02  0.24096903176E+02 -0.42339054605E+03  0.44143210249E+03  0.81760835809E+02 0.  0.
      -24    2    3    3    0    0 -0.91308551680E+02 -0.24096903176E+02 -0.34039085099E+03  0.36222368952E+03  0.80138364481E+02 0.  0.
      -13    1    4    4    0    0  0.89458023949E+01  0.39957501192E+02 -0.14678377973E+03  0.15238801552E+03  0.00000000000E+00 0.  1.
       14    1    4    4    0    0  0.82362749285E+02 -0.15860598016E+02 -0.27660676632E+03  0.28904408698E+03  0.00000000000E+00 0. -1.
        3    1    5    5  501    0 -0.50341539059E+02 -0.37985594868E+02 -0.10186183053E+03  0.11980404205E+03  0.00000000000E+00 0. -1.
       -4    1    5    5    0  501 -0.40967012621E+02  0.13888691692E+02 -0.23852902046E+03  0.24241964747E+03  0.00000000000E+00 0.  1.
</event>
<event>
 9   1  0.7570500E-01  0.2499631E+03  0.7546771E-02  0.1113328E+00
       21   -1    0    0  503  502  0.00000000000E+00  0.00000000000E+00  0.69644707593E+02  0.69644707593E+02  0.00000000000E+00 0.  1.
       21   -1    0    0  502  503 -0.00000000000E+00 -0.00000000000E+00 -0.22428670862E+03  0.22428670862E+03  0.00000000000E+00 0.  1.
       25    2    1    2    0    0  0.35527136788E-14 -0.14210854715E-13 -0.15464200103E+03  0.29393141621E+03  0.24996305518E+03 0.  0.
       24    2    3    3    0    0 -0.13677499450E+02  0.92305659014E+02 -0.64105155960E+02  0.13864981541E+03  0.80043061010E+02 0.  0.
      -24    2    3    3    0    0  0.13677499450E+02 -0.92305659014E+02 -0.90536845069E+02  0.15528160080E+03  0.84900215286E+02 0.  0.
      -13    1    4    4    0    0 -0.43805540403E+02  0.60653872275E+02 -0.22045707377E+02  0.77998915414E+02  0.00000000000E+00 0.  1.
       14    1    4    4    0    0  0.30128040953E+02  0.31651786738E+02 -0.42059448583E+02  0.60650899997E+02  0.00000000000E+00 0. -1.
        3    1    5    5  501    0  0.22183059931E+02 -0.83891715006E+02 -0.27366232386E+02  0.90988013879E+02  0.00000000000E+00 0. -1.
       -4    1    5    5    0  501 -0.85055604808E+01 -0.84139440073E+01 -0.63170612682E+02  0.64293586924E+02  0.00000000000E+00 0.  1.
</event>
<event>
 9   1  0.7570500E-01  0.2499977E+03  0.7546771E-02  0.1113306E+00
       21   -1    0    0  503  502  0.00000000000E+00  0.00000000000E+00  0.17828481035E+04  0.17828481035E+04  0.00000000000E+00 0. -1.
       21   -1    0    0  502  503 -0.00000000000E+00 -0.00000000000E+00 -0.87639070472E+01  0.87639070472E+01  0.00000000000E+00 0. -1.
       25    2    1    2    0    0  0.00000000000E+00  0.00000000000E+00  0.17740841965E+04  0.17916120106E+04  0.24999772046E+03 0.  0.
       24    2    3    3    0    0  0.49466788691E+01  0.77229083317E+02  0.48624483763E+03  0.49904824251E+03  0.81402120911E+02 0.  0.
      -24    2    3    3    0    0 -0.49466788691E+01 -0.77229083317E+02  0.12878393589E+04  0.12925637681E+04  0.78753281634E+02 0.  0.
      -13    1    4    4    0    0  0.30230013603E+02  0.90951639462E+00  0.97763888367E+02  0.10233503218E+03  0.00000000000E+00 0.  1.
       14    1    4    4    0    0 -0.25283334734E+02  0.76319566922E+02  0.38848094927E+03  0.39671321033E+03  0.00000000000E+00 0. -1.
        3    1    5    5  501    0 -0.75892882498E+01 -0.51589434986E+02  0.30781304073E+03  0.31219855083E+03  0.00000000000E+00 0. -1.
       -4    1    5    5    0  501  0.26426093807E+01 -0.25639648331E+02  0.98002631813E+03  0.98036521724E+03  0.00000000000E+00 0.  1.
</event>
<event>
 9   1  0.7570500E-01  0.2499977E+03  0.7546771E-02  0.1113306E+00
       21   -1    0    0  503  502  0.00000000000E+00  0.00000000000E+00  0.36465225731E+02  0.36465225731E+02  0.00000000000E+00 0. -1.
       21   -1    0    0  502  503 -0.00000000000E+00 -0.00000000000E+00 -0.42848243860E+03  0.42848243860E+03  0.00000000000E+00 0. -1.
       25    2    1    2    0    0  0.00000000000E+00  0.14210854715E-13 -0.39201721287E+03  0.46494766433E+03  0.24999767075E+03 0.  0.
       24    2    3    3    0    0 -0.21550099675E+02 -0.93107528063E+02 -0.19301534218E+03  0.22982752748E+03  0.80201941967E+02 0.  0.
      -24    2    3    3    0    0  0.21550099675E+02  0.93107528063E+02 -0.19900187069E+03  0.23512013685E+03  0.80909304990E+02 0.  0.
      -13    1    4    4    0    0  0.16372792416E+02 -0.13344872402E+02 -0.97400346088E+02  0.99664343518E+02  0.00000000000E+00 0.  1.
       14    1    4    4    0    0 -0.37922892092E+02 -0.79762655661E+02 -0.95614996088E+02  0.13016318396E+03  0.00000000000E+00 0. -1.
        3    1    5    5  501    0  0.50589802747E+00  0.85402479916E+01 -0.11079366347E+03  0.11112347922E+03  0.00000000000E+00 0. -1.
       -4    1    5    5    0  501  0.21044201648E+02  0.84567280071E+02 -0.88208207221E+02  0.12399665763E+03  0.00000000000E+00 0.  1.
</event>
<event>
 9   1  0.7570500E-01  0.2499871E+03  0.7546771E-02  0.1113313E+00
       21   -1    0    0  503  502  0.00000000000E+00  0.00000000000E+00  0.44808176484E+03  0.44808176484E+03  0.00000000000E+00 0. -1.
       21   -1    0    0  502  503 -0.00000000000E+00 -0.00000000000E+00 -0.34867260554E+02  0.34867260554E+02  0.00000000000E+00 0. -1.
       25    2    1    2    0    0  0.00000000000E+00  0.00000000000E+00  0.41321450429E+03  0.48294902539E+03  0.24998706882E+03 0.  0.
       24    2    3    3    0    0 -0.72441303844E+02 -0.23647388729E+02  0.91867578478E+02  0.14297882462E+03  0.78716903007E+02 0.  0.
      -24    2    3    3    0    0  0.72441303844E+02  0.23647388729E+02  0.32134692581E+03  0.33997020077E+03  0.80678058911E+02 0.  0.
      -13    1    4    4    0    0 -0.47245754115E+02 -0.50122823581E+02  0.77558717799E+02  0.10372952054E+03  0.00000000000E+00 0.  1.
       14    1    4    4    0    0 -0.25195549729E+02  0.26475434853E+02  0.14308860678E+02  0.39249304079E+02  0.00000000000E+00 0. -1.
        3    1    5    5  501    0  0.34356860877E+02 -0.25447844125E+02  0.79484163981E+02  0.90253636955E+02  0.00000000000E+00 0. -1.
       -4    1    5    5    0  501  0.38084442967E+02  0.49095232854E+02  0.24186276183E+03  0.24971656382E+03  0.00000000000E+00 0.  1.
</event>
<event>
 9   1  0.7570500E-01  0.2499870E+03  0.7546771E-02  0.1113313E+00
       21   -1    0    0  503  502  0.00000000000E+00  0.00000000000E+00  0.93424100495E+02  0.93424100495E+02  0.00000000000E+00 0. -1.
       21   -1    0    0  502  503 -0.00000000000E+00 -0.00000000000E+00 -0.16723065375E+03  0.16723065375E+03  0.00000000000E+00 0. -1.
       25    2    1    2    0    0  0.71054273576E-14  0.00000000000E+00 -0.73806553255E+02  0.26065475424E+03  0.24998698687E+03 0.  0.
       24    2    3    3    0    0  0.60343560203E+02  0.71263522464E+02 -0.31040545138E+02  0.13101940143E+03  0.86502793113E+02 0.  0.
      -24    2    3    3    0    0 -0.60343560203E+02 -0.71263522464E+02 -0.42766008117E+02  0.12963535281E+03  0.79098409322E+02 0.  0.
      -13    1    4    4    0    0  0.52341796436E+02  0.56938585314E+02  0.17913522144E+02  0.79388666870E+02  0.00000000000E+00 0.  1.
       14    1    4    4    0    0  0.80017637667E+01  0.14324937150E+02 -0.48954067282E+02  0.51630734559E+02  0.00000000000E+00 0. -1.
        1    1    5    5  501    0  0.98524985789E+01 -0.37804133304E+02 -0.33234337123E+02  0.51290792421E+02  0.00000000000E+00 0. -1.
       -2    1    5    5    0  501 -0.70196058781E+02 -0.33459389160E+02 -0.95316709934E+01  0.78344560394E+02  0.00000000000E+00 0.  1.
</event>
<event>
 9   1  0.7570500E-01  0.2500040E+03  0.7546771E-02  0.1113302E+00
       21   -1    0    0  503  502  0.00000000000E+00  0.00000000000E+00  0.30735920064E+02  0.30735920064E+02  0.00000000000E+00 0. -1.
       21   -1    0    0  502  503 -0.00000000000E+00 -0.00000000000E+00 -0.50837892673E+03  0.50837892673E+03  0.00000000000E+00 0. -1.
       25    2    1    2    0    0  0.00000000000E+00  0.35527136788E-14 -0.47764300666E+03  0.53911484679E+03  0.25000395240E+03 0.  0.
       24    2    3    3    0    0 -0.76919585666E+02  0.31078497931E+02 -0.13324888379E+03  0.17594264163E+03  0.79486177534E+02 0.  0.
      -24    2    3    3    0    0  0.76919585666E+02 -0.31078497931E+02 -0.34439412287E+03  0.36317220516E+03  0.80026514620E+02 0.  0.
      -13    1    4    4    0    0 -0.75106125177E+02 -0.82165404500E+01 -0.88181605872E+02  0.11612250940E+03  0.00000000000E+00 0.  1.
       14    1    4    4    0    0 -0.18134604885E+01  0.39295038381E+02 -0.45067277923E+02  0.59820132227E+02  0.00000000000E+00 0. -1.
        1    1    5    5  501    0  0.14652284676E+02 -0.17800273722E+01 -0.31940444592E+01  0.15101651025E+02  0.00000000000E+00 0. -1.
       -2    1    5    5    0  501  0.62267300989E+02 -0.29298470559E+02 -0.34120007841E+03  0.34807055413E+03  0.00000000000E+00 0.  1.
</event>
<event>
 9   1  0.7570500E-01  0.2499926E+03  0.7546771E-02  0.1113309E+00
       21   -1    0    0  503  502  0.00000000000E+00  0.00000000000E+00  0.21222370517E+04  0.21222370517E+04  0.00000000000E+00 0.  1.
       21   -1    0    0  502  503 -0.00000000000E+00 -0.00000000000E+00 -0.73620790118E+01  0.73620790118E+01  0.00000000000E+00 0.  1.
       25    2    1    2    0    0  0.00000000000E+00  0.00000000000E+00  0.21148749727E+04  0.21295991307E+04  0.24999261474E+03 0.  0.
       24    2    3    3    0    0 -0.11542061704E+02 -0.83702216045E+02  0.14398701238E+04  0.14446278962E+04  0.81144962380E+02 0.  0.
      -24    2    3    3    0    0  0.11542061704E+02  0.83702216045E+02  0.67500484887E+03  0.68497123449E+03  0.80092233837E+02 0.  0.
      -13    1    4    4    0    0  0.39764498619E+01 -0.21372830189E+02  0.98553884304E+03  0.98577858628E+03  0.00000000000E+00 0.  1.
       14    1    4    4    0    0 -0.15518511566E+02 -0.62329385856E+02  0.45433128074E+03  0.45884930991E+03  0.00000000000E+00 0. -1.
        1    1    5    5  501    0  0.22255822793E+02  0.47391393810E+02  0.58486591082E+03  0.58720473388E+03  0.00000000000E+00 0. -1.
       -2    1    5    5    0  501 -0.10713761088E+02  0.36310822235E+02  0.90138938047E+02  0.97766500604E+02  0.00000000000E+00 0.  1.
</event>
<event>
 9   1  0.7570500E-01  0.2500003E+03  0.7546771E-02  0.1113305E+00
       21   -1    0    0  503  502  0.00000000000E+00  0.00000000000E+00  0.45164913179E+03  0.45164913179E+03  0.00000000000E+00 0. -1.
       21   -1    0    0  502  503 -0.00000000000E+00 -0.00000000000E+00 -0.34595513117E+02  0.34595513117E+02  0.00000000000E+00 0. -1.
       25    2    1    2    0    0 -0.35527136788E-14  0.00000000000E+00  0.41705361867E+03  0.48624464491E+03  0.25000026771E+03 0.  0.
       24    2    3    3    0    0 -0.18426695675E+02 -0.69635180147E+02  0.33063388475E+03  0.34757443500E+03  0.79376449264E+02 0.  0.
      -24    2    3    3    0    0  0.18426695675E+02  0.69635180147E+02  0.86419733925E+02  0.13867020990E+03  0.81070680737E+02 0.  0.
      -13    1    4    4    0    0 -0.49685314167E+02 -0.45203344742E+02  0.19416973394E+03  0.20546011389E+03  0.00000000000E+00 0.  1.
       14    1    4    4    0    0  0.31258618492E+02 -0.24431835405E+02  0.13646415081E+03  0.14211432112E+03  0.00000000000E+00 0. -1.
        3    1    5    5  501    0 -0.85648661585E+01  0.67588207716E+02  0.88309618606E+02  0.11153524776E+03  0.00000000000E+00 0. -1.
       -4    1    5    5    0  501  0.26991561834E+02  0.20469724309E+01 -0.18898846810E+01  0.27134962143E+02  0.00000000000E+00 0.  1.
</event>
<event>
 9   1  0.7570500E-01  0.2500001E+03  0.7546771E-02  0.1113305E+00
       21   -1    0    0  503  502  0.00000000000E+00  0.00000000000E+00  0.71472299766E+02  0.71472299766E+02  0.00000000000E+00 0.  1.
       21   -1    0    0  502  503 -0.00000000000E+00 -0.00000000000E+00 -0.21861637822E+03  0.21861637822E+03  0.00000000000E+00 0.  1.
       25    2    1    2    0    0  0.00000000000E+00  0.00000000000E+00 -0.14714407846E+03  0.29008867799E+03  0.25000012254E+03 0.  0.
       24    2    3    3    0    0  0.85775529638E+02  0.45059245008E+02 -0.53597572951E+02  0.13656052516E+03  0.79926842558E+02 0.  0.
      -24    2    3    3    0    0 -0.85775529638E+02 -0.45059245008E+02 -0.93546505506E+02  0.15352815283E+03  0.73703242616E+02 0.  0.
      -13    1    4    4    0    0  0.65042236348E+02 -0.10749366263E+02 -0.31412179397E+02  0.73025792695E+02  0.00000000000E+00 0.  1.
       14    1    4    4    0    0  0.20733293289E+02  0.55808611271E+02 -0.22185393554E+02  0.63534732468E+02  0.00000000000E+00 0. -1.
        1    1    5    5  501    0 -0.46156231152E+02 -0.17881671118E+02 -0.93146228015E+02  0.10548161750E+03  0.00000000000E+00 0. -1.
       -2    1    5    5    0  501 -0.39619298486E+02 -0.27177573891E+02 -0.40027749154E+00  0.48046535330E+02  0.00000000000E+00 0.  1.
</event>
<event>
 9   1  0.7570500E-01  0.2500676E+03  0.7546771E-02  0.1113262E+00
       21   -1    0    0  503  502  0.00000000000E+00  0.00000000000E+00  0.91140214921E+02  0.91140214921E+02  0.00000000000E+00 0. -1.
       21   -1    0    0  502  503 -0.00000000000E+00 -0.00000000000E+00 -0.17153187864E+03  0.17153187864E+03  0.00000000000E+00 0. -1.
       25    2    1    2    0    0  0.00000000000E+00  0.00000000000E+00 -0.80391663719E+02  0.26267209356E+03  0.25006760914E+03 0.  0.
       24    2    3    3    0    0 -0.43274000969E+02 -0.75603318349E+00 -0.12961541355E+03  0.15816087185E+03  0.79633505566E+02 0.  0.
      -24    2    3    3    0    0  0.43274000969E+02  0.75603318349E+00  0.49223749827E+02  0.10451122171E+03  0.81402746706E+02 0.  0.
      -13    1    4    4    0    0 -0.42116394565E+02  0.29670462232E+02 -0.45608010337E+02  0.68805651128E+02  0.00000000000E+00 0.  1.
       14    1    4    4    0    0 -0.11576064037E+01 -0.30426495416E+02 -0.84007403209E+02  0.89355220719E+02  0.00000000000E+00 0. -1.
        3    1    5    5  501    0  0.14186549258E+02 -0.21433570637E+02  0.60905098829E+02  0.66106635019E+02  0.00000000000E+00 0. -1.
       -4    1    5    5    0  501  0.29087451711E+02  0.22189603821E+02 -0.11681349003E+02  0.38404586696E+02  0.00000000000E+00 0.  1.
</event>
<event>
 9   1  0.7570500E-01  0.2499970E+03  0.7546771E-02  0.1113307E+00
       21   -1    0    0  503  502  0.00000000000E+00  0.00000000000E+00  0.15345118921E+02  0.15345118921E+02  0.00000000000E+00 0. -1.
       21   -1    0    0  502  503 -0.00000000000E+00 -0.00000000000E+00 -0.10182145978E+04  0.10182145978E+04  0.00000000000E+00 0. -1.
       25    2    1    2    0    0  0.00000000000E+00 -0.35527136788E-14 -0.10028694789E+04  0.10335597168E+04  0.24999699271E+03 0.  0.
       24    2    3    3    0    0  0.60016957116E+02  0.11246774964E+02 -0.80786952597E+03  0.81418403341E+03  0.80709009319E+02 0.  0.
      -24    2    3    3    0    0 -0.60016957116E+02 -0.11246774964E+02 -0.19499995295E+03  0.21937568335E+03  0.79825958846E+02 0.  0.
      -13    1    4    4    0    0  0.37349246934E+02  0.36659193835E+02 -0.25762929213E+03  0.26289107041E+03  0.00000000000E+00 0.  1.
       14    1    4    4    0    0  0.22667710182E+02 -0.25412418871E+02 -0.55024023384E+03  0.55129296300E+03  0.00000000000E+00 0. -1.
        1    1    5    5  501    0 -0.42046422878E+02  0.32386262256E+02 -0.11076140630E+03  0.12282044123E+03  0.00000000000E+00 0. -1.
       -2    1    5    5    0  501 -0.17970534238E+02 -0.43633037220E+02 -0.84238546654E+02  0.96555242117E+02  0.00000000000E+00 0.  1.
</event>
<event>
 9   1  0.7570500E-01  0.2499870E+03  0.7546771E-02  0.1113313E+00
       21   -1    0    0  503  502  0.00000000000E+00  0.00000000000E+00  0.54697149317E+03  0.54697149317E+03  0.00000000000E+00 0. -1.
       21   -1    0    0  502  503 -0.00000000000E+00 -0.00000000000E+00 -0.28563412696E+02  0.28563412696E+02  0.00000000000E+00 0. -1.
       25    2    1    2    0    0  0.71054273576E-14  0.00000000000E+00  0.51840808047E+03  0.57553490586E+03  0.24998697960E+03 0.  0.
       24    2    3    3    0    0 -0.38142018271E+02 -0.34083882545E+01  0.66988644350E+02  0.11498366397E+03  0.85248658867E+02 0.  0.
      -24    2    3    3    0    0  0.38142018271E+02  0.34083882545E+01  0.45141943612E+03  0.46055124190E+03  0.82834222627E+02 0.  0.
      -13    1    4    4    0    0 -0.59510433692E+02 -0.21304828227E+02  0.57754502488E+02  0.85621083745E+02  0.00000000000E+00 0.  1.
       14    1    4    4    0    0  0.21368415420E+02  0.17896439973E+02  0.92341418621E+01  0.29362580220E+02  0.00000000000E+00 0. -1.
        1    1    5    5  501    0 -0.79171723699E+01  0.25697248900E+02  0.28933571774E+03  0.29058249738E+03  0.00000000000E+00 0. -1.
       -2    1    5    5    0  501  0.46059190641E+02 -0.22288860645E+02  0.16208371838E+03  0.16996874452E+03  0.00000000000E+00 0.  1.
</event>
<event>
 9   1  0.7570500E-01  0.2499969E+03  0.7546771E-02  0.1113307E+00
       21   -1    0    0  503  502  0.00000000000E+00  0.00000000000E+00  0.86996337269E+02  0.86996337269E+02  0.00000000000E+00 0. -1.
       21   -1    0    0  502  503 -0.00000000000E+00 -0.00000000000E+00 -0.17960085603E+03  0.17960085603E+03  0.00000000000E+00 0. -1.
       25    2    1    2    0    0  0.35527136788E-14  0.00000000000E+00 -0.92604518762E+02  0.26659719330E+03  0.24999693314E+03 0.  0.
       24    2    3    3    0    0 -0.21552100612E+02  0.67508705736E+02 -0.12033025675E+03  0.15629437981E+03  0.70190056859E+02 0.  0.
      -24    2    3    3    0    0  0.21552100612E+02 -0.67508705736E+02  0.27725737983E+02  0.11030281349E+03  0.79850333282E+02 0.  0.
      -13    1    4    4    0    0  0.41650295747E+01  0.20910340043E+02 -0.94976458346E+02  0.97340214875E+02  0.00000000000E+00 0.  1.
       14    1    4    4    0    0 -0.25717130187E+02  0.46598365692E+02 -0.25353798400E+02  0.58954164938E+02  0.00000000000E+00 0. -1.
        3    1    5    5  501    0  0.51117642473E+02 -0.47879842043E+02  0.10386450154E+02  0.70805162191E+02  0.00000000000E+00 0. -1.
       -4    1    5    5    0  501 -0.29565541861E+02 -0.19628863693E+02  0.17339287829E+02  0.39497651295E+02  0.00000000000E+00 0.  1.
</event>
<event>
 9   1  0.7570500E-01  0.2499999E+03  0.7546771E-02  0.1113305E+00
       21   -1    0    0  503  502  0.00000000000E+00  0.00000000000E+00  0.95492805340E+03  0.95492805340E+03  0.00000000000E+00 0. -1.
       21   -1    0    0  502  503 -0.00000000000E+00 -0.00000000000E+00 -0.16362469841E+02  0.16362469841E+02  0.00000000000E+00 0. -1.
       25    2    1    2    0    0 -0.35527136788E-14  0.00000000000E+00  0.93856558355E+03  0.97129052324E+03  0.24999985179E+03 0.  0.
       24    2    3    3    0    0  0.14540920088E+02  0.92187447288E+02  0.52297518030E+03  0.53775945457E+03  0.83499868149E+02 0.  0.
      -24    2    3    3    0    0 -0.14540920088E+02 -0.92187447288E+02  0.41559040326E+03  0.43353106867E+03  0.80770294189E+02 0.  0.
      -13    1    4    4    0    0  0.37431311236E+02  0.44184205597E+02  0.14621991428E+03  0.15726922909E+03  0.00000000000E+00 0.  1.
       14    1    4    4    0    0 -0.22890391148E+02  0.48003241691E+02  0.37675526601E+03  0.38049022548E+03  0.00000000000E+00 0. -1.
        1    1    5    5  501    0  0.13422415632E+02 -0.93026108217E+02  0.34570650634E+03  0.35825550460E+03  0.00000000000E+00 0. -1.
       -2    1    5    5    0  501 -0.27963335719E+02  0.83866092867E+00  0.69883896921E+02  0.75275564067E+02  0.00000000000E+00 0.  1.
</event>
<event>
 9   1  0.7570500E-01  0.2499983E+03  0.7546771E-02  0.1113306E+00
       21   -1    0    0  503  502  0.00000000000E+00  0.00000000000E+00  0.19058542001E+03  0.19058542001E+03  0.00000000000E+00 0.  1.
       21   -1    0    0  502  503 -0.00000000000E+00 -0.00000000000E+00 -0.81983109722E+02  0.81983109722E+02  0.00000000000E+00 0.  1.
       25    2    1    2    0    0  0.00000000000E+00 -0.35527136788E-14  0.10860231029E+03  0.27256852973E+03  0.24999828319E+03 0.  0.
       24    2    3    3    0    0  0.64707850548E+02 -0.13133522902E+02 -0.29045989399E+02  0.10048313600E+03  0.69954240565E+02 0.  0.
      -24    2    3    3    0    0 -0.64707850548E+02  0.13133522902E+02  0.13764829969E+03  0.17208539374E+03  0.79414941820E+02 0.  0.
      -13    1    4    4    0    0  0.73717737410E+02 -0.27933340375E+02 -0.22774477907E+02  0.82056402294E+02  0.00000000000E+00 0.  1.
       14    1    4    4    0    0 -0.90098868624E+01  0.14799817474E+02 -0.62715114913E+01  0.18426733702E+02  0.00000000000E+00 0. -1.
        3    1    5    5  501    0  0.18583349176E+01 -0.25928645223E+02  0.31431263827E+02  0.40788140403E+02  0.00000000000E+00 0. -1.
       -4    1    5    5    0  501 -0.66566185466E+02  0.39062168124E+02  0.10621703586E+03  0.13129725333E+03  0.00000000000E+00 0.  1.
</event>
<event>
 9   1  0.7570500E-01  0.2499903E+03  0.7546771E-02  0.1113311E+00
       21   -1    0    0  503  502  0.00000000000E+00  0.00000000000E+00  0.20343092867E+03  0.20343092867E+03  0.00000000000E+00 0.  1.
       21   -1    0    0  502  503 -0.00000000000E+00 -0.00000000000E+00 -0.76801460430E+02  0.76801460430E+02  0.00000000000E+00 0.  1.
       25    2    1    2    0    0  0.00000000000E+00  0.00000000000E+00  0.12662946824E+03  0.28023238910E+03  0.24999033916E+03 0.  0.
       24    2    3    3    0    0  0.46719280110E+01  0.28154106861E+02  0.16477326277E+03  0.18658872418E+03  0.82768612558E+02 0.  0.
      -24    2    3    3    0    0 -0.46719280110E+01 -0.28154106861E+02 -0.38143794526E+02  0.93643664919E+02  0.80620755852E+02 0.  0.
      -13    1    4    4    0    0  0.15328171847E+02 -0.24170243983E+02  0.29242529815E+02  0.40917955672E+02  0.00000000000E+00 0.  1.
       14    1    4    4    0    0 -0.10656243836E+02  0.52324350845E+02  0.13553073295E+03  0.14567076851E+03  0.00000000000E+00 0. -1.
        1    1    5    5  501    0 -0.24244359440E+02 -0.49004886395E+02 -0.34897497453E+02  0.64862186085E+02  0.00000000000E+00 0. -1.
       -2    1    5    5    0  501  0.19572431429E+02  0.20850779533E+02 -0.32462970724E+01  0.28781478834E+02  0.00000000000E+00 0.  1.
</event>
<event>
 9   1  0.7570500E-01  0.2500001E+03  0.7546771E-02  0.1113305E+00
       21   -1    0    0  503  502  0.00000000000E+00  0.00000000000E+00  0.52177034396E+02  0.52177034396E+02  0.00000000000E+00 0. -1.
       21   -1    0    0  502  503 -0.00000000000E+00 -0.00000000000E+00 -0.29946159157E+03  0.29946159157E+03  0.00000000000E+00 0. -1.
       25    2    1    2    0    0  0.00000000000E+00  0.00000000000E+00 -0.24728455718E+03  0.35163862597E+03  0.25000014211E+03 0.  0.
       24    2    3    3    0    0 -0.25423042243E+01  0.71570695941E+02 -0.21282967645E+03  0.23853459635E+03  0.80457781771E+02 0.  0.
      -24    2    3    3    0    0  0.25423042243E+01 -0.71570695941E+02 -0.34454880724E+02  0.11310402962E+03  0.80477045688E+02 0.  0.
      -13    1    4    4    0    0  0.23819645130E+02  0.57410412433E+02 -0.74587866871E+02  0.97091095545E+02  0.00000000000E+00 0.  1.
       14    1    4    4    0    0 -0.26361949354E+02  0.14160283509E+02 -0.13824180958E+03  0.14144350080E+03  0.00000000000E+00 0. -1.
        3    1    5    5  501    0  0.29995735049E+02 -0.41287101793E+02  0.10756616350E+02  0.52154325716E+02  0.00000000000E+00 0. -1.
       -4    1    5    5    0  501 -0.27453430824E+02 -0.30283594148E+02 -0.45211497074E+02  0.60949703906E+02  0.00000000000E+00 0.  1.
</event>
<event>
 9   1  0.7570500E-01  0.2499995E+03  0.7546771E-02  0.1113305E+00
       21   -1    0    0  503  502  0.00000000000E+00  0.00000000000E+00  0.67575078976E+02  0.67575078976E+02  0.00000000000E+00 0. -1.
       21   -1    0    0  502  503 -0.00000000000E+00 -0.00000000000E+00 -0.23122328650E+03  0.23122328650E+03  0.00000000000E+00 0. -1.
       25    2    1    2    0    0 -0.35527136788E-14 -0.14210854715E-13 -0.16364820753E+03  0.29879836548E+03  0.24999945477E+03 0.  0.
       24    2    3    3    0    0  0.28297069973E+02  0.81169677577E+02 -0.13161725976E+03  0.17644217052E+03  0.80121755748E+02 0.  0.
      -24    2    3    3    0    0 -0.28297069973E+02 -0.81169677577E+02 -0.32030947764E+02  0.12235619496E+03  0.80967994311E+02 0.  0.
      -13    1    4    4    0    0  0.51170688564E+02  0.77694595418E+02 -0.93813847648E+02  0.13212088229E+03  0.00000000000E+00 0.  1.
       14    1    4    4    0    0 -0.22873618591E+02  0.34750821590E+01 -0.37803412117E+02  0.44321288239E+02  0.00000000000E+00 0. -1.
        3    1    5    5  501    0  0.27513136768E+02 -0.14981782729E+02 -0.55150388870E+01  0.31809466555E+02  0.00000000000E+00 0. -1.
       -4    1    5    5    0  501 -0.55810206741E+02 -0.66187894848E+02 -0.26515908877E+02  0.90546728403E+02  0.00000000000E+00 0.  1.
</event>
<event>
 9   1  0.7570500E-01  0.2499986E+03  0.7546771E-02  0.1113306E+00
       21   -1    0    0  503  502  0.00000000000E+00  0.00000000000E+00  0.17887025287E+03  0.17887025287E+03  0.00000000000E+00 0.  1.
       21   -1    0    0  502  503 -0.00000000000E+00 -0.00000000000E+00 -0.87352842586E+02  0.87352842586E+02  0.00000000000E+00 0.  1.
       25    2    1    2    0    0  0.00000000000E+00  0.00000000000E+00  0.91517410287E+02  0.26622309546E+03  0.24999860034E+03 0.  0.
       24    2    3    3    0    0 -0.15915327799E+02 -0.80620960050E+02  0.75213433470E+02  0.15041173141E+03  0.10106231500E+03 0.  0.
      -24    2    3    3    0    0  0.15915327799E+02  0.80620960050E+02  0.16303976817E+02  0.11581136405E+03  0.79958836438E+02 0.  0.
      -13    1    4    4    0    0 -0.20484423141E+02  0.20521001504E+02  0.17720358017E+02  0.33981379936E+02  0.00000000000E+00 0.  1.
       14    1    4    4    0    0  0.45690953424E+01 -0.10114196155E+03  0.57493075453E+02  0.11643035147E+03  0.00000000000E+00 0. -1.
        1    1    5    5  501    0  0.14492108086E+02  0.44607310255E+02 -0.31089138346E+02  0.56270488252E+02  0.00000000000E+00 0. -1.
       -2    1    5    5    0  501  0.14232197125E+01  0.36013649795E+02  0.47393115163E+02  0.59540875797E+02  0.00000000000E+00 0.  1.
</event>
<event>
 9   1  0.7570500E-01  0.2500013E+03  0.7546771E-02  0.1113304E+00
       21   -1    0    0  503  502  0.00000000000E+00  0.00000000000E+00  0.55924964800E+02  0.55924964800E+02  0.00000000000E+00 0.  1.
       21   -1    0    0  502  503 -0.00000000000E+00 -0.00000000000E+00 -0.27939507139E+03  0.27939507139E+03  0.00000000000E+00 0.  1.
       25    2    1    2    0    0  0.00000000000E+00 -0.28421709430E-13 -0.22347010659E+03  0.33532003619E+03  0.25000127626E+03 0.  0.
       24    2    3    3    0    0 -0.92288588486E+01  0.86938356146E+02 -0.16214256637E+03  0.20149020937E+03  0.81637264996E+02 0.  0.
      -24    2    3    3    0    0  0.92288588486E+01 -0.86938356146E+02 -0.61327540218E+02  0.13382982682E+03  0.80659195096E+02 0.  0.
      -13    1    4    4    0    0 -0.30348045393E+02  0.12809939054E+02 -0.16807687279E+02  0.36981032292E+02  0.00000000000E+00 0.  1.
       14    1    4    4    0    0  0.21119186544E+02  0.74128417091E+02 -0.14533487909E+03  0.16450917707E+03  0.00000000000E+00 0. -1.
        3    1    5    5  501    0 -0.35289024195E+02 -0.30165729229E+02 -0.18833249439E+02  0.50099677973E+02  0.00000000000E+00 0. -1.
       -4    1    5    5    0  501  0.44517883044E+02 -0.56772626917E+02 -0.42494290780E+02  0.83730148851E+02  0.00000000000E+00 0.  1.
</event>
<event>
 9   1  0.7570500E-01  0.2500002E+03  0.7546771E-02  0.1113305E+00
       21   -1    0    0  503  502  0.00000000000E+00  0.00000000000E+00  0.15267063348E+02  0.15267063348E+02  0.00000000000E+00 0. -1.
       21   -1    0    0  502  503 -0.00000000000E+00 -0.00000000000E+00 -0.10234465990E+04  0.10234465990E+04  0.00000000000E+00 0. -1.
       25    2    1    2    0    0  0.00000000000E+00  0.00000000000E+00 -0.10081795357E+04  0.10387136624E+04  0.25000019249E+03 0.  0.
       24    2    3    3    0    0  0.68521873252E+00  0.40017393523E+02 -0.14539447371E+03  0.17144757818E+03  0.81565052375E+02 0.  0.
      -24    2    3    3    0    0 -0.68521873252E+00 -0.40017393523E+02 -0.86278506198E+03  0.86726608421E+03  0.78425355162E+02 0.  0.
      -13    1    4    4    0    0 -0.39794462832E+02  0.23489496340E+02 -0.86841334714E+02  0.98370590754E+02  0.00000000000E+00 0.  1.
       14    1    4    4    0    0  0.40479681564E+02  0.16527897183E+02 -0.58553138997E+02  0.73076987426E+02  0.00000000000E+00 0. -1.
        1    1    5    5  501    0 -0.34049275364E+02 -0.41763138229E+02 -0.47578285061E+03  0.47882442899E+03  0.00000000000E+00 0. -1.
       -2    1    5    5    0  501  0.33364056631E+02  0.17457447061E+01 -0.38700221137E+03  0.38844165521E+03  0.00000000000E+00 0.  1.
</event>
<event>
 9   1  0.7570500E-01  0.2500027E+03  0.7546771E-02  0.1113303E+00
       21   -1    0    0  503  502  0.00000000000E+00  0.00000000000E+00  0.82962045041E+03  0.82962045041E+03  0.00000000000E+00 0.  1.
       21   -1    0    0  502  503 -0.00000000000E+00 -0.00000000000E+00 -0.18834317378E+02  0.18834317378E+02  0.00000000000E+00 0.  1.
       25    2    1    2    0    0  0.17763568394E-14  0.00000000000E+00  0.81078613304E+03  0.84845476779E+03  0.25000267891E+03 0.  0.
       24    2    3    3    0    0  0.36239793774E+01 -0.62102587317E+02  0.15749324410E+03  0.18711139960E+03  0.79603324948E+02 0.  0.
      -24    2    3    3    0    0 -0.36239793774E+01  0.62102587317E+02  0.65329288893E+03  0.66134336819E+03  0.81936483617E+02 0.  0.
      -13    1    4    4    0    0 -0.63902821226E+01 -0.90415616110E+01 -0.75884969291E+01  0.13422772725E+02  0.00000000000E+00 0.  1.
       14    1    4    4    0    0  0.10014261500E+02 -0.53061025706E+02  0.16508174103E+03  0.17368862687E+03  0.00000000000E+00 0. -1.
        1    1    5    5  501    0 -0.60992759018E+00  0.40580333241E+02  0.62155143916E+03  0.62287504925E+03  0.00000000000E+00 0. -1.
       -2    1    5    5    0  501 -0.30140517872E+01  0.21522254075E+02  0.31741449770E+02  0.38468318941E+02  0.00000000000E+00 0.  1.
</event>
<event>
 9   1  0.7570500E-01  0.2499991E+03  0.7546771E-02  0.1113305E+00
       21   -1    0    0  503  502  0.00000000000E+00  0.00000000000E+00  0.11074325990E+04  0.11074325990E+04  0.00000000000E+00 0.  1.
       21   -1    0    0  502  503 -0.00000000000E+00 -0.00000000000E+00 -0.14109111257E+02  0.14109111257E+02  0.00000000000E+00 0.  1.
       25    2    1    2    0    0 -0.71054273576E-14  0.00000000000E+00  0.10933234878E+04  0.11215417103E+04  0.24999911799E+03 0.  0.
       24    2    3    3    0    0  0.33124228213E+02  0.89311941870E+02  0.57459337506E+03  0.58814432859E+03  0.81745746886E+02 0.  0.
      -24    2    3    3    0    0 -0.33124228213E+02 -0.89311941870E+02  0.51873011271E+03  0.53339738170E+03  0.79737064852E+02 0.  0.
      -13    1    4    4    0    0  0.52425797660E+02  0.75671402516E+02  0.33599030502E+03  0.34837352150E+03  0.00000000000E+00 0.  1.
       14    1    4    4    0    0 -0.19301569447E+02  0.13640539354E+02  0.23860307004E+03  0.23977080709E+03  0.00000000000E+00 0. -1.
        3    1    5    5  501    0  0.65349824936E+00 -0.70785918312E+02  0.44098708750E+03  0.44663260588E+03  0.00000000000E+00 0. -1.
       -4    1    5    5    0  501 -0.33777726462E+02 -0.18526023558E+02  0.77743025213E+02  0.86764775820E+02  0.00000000000E+00 0.  1.
</event>
<event>
 9   1  0.7570500E-01  0.2499903E+03  0.7546771E-02  0.1113311E+00
       21   -1    0    0  503  502  0.00000000000E+00  0.00000000000E+00  0.11300610808E+03  0.11300610808E+03  0.00000000000E+00 0. -1.
       21   -1    0    0  502  503 -0.00000000000E+00 -0.00000000000E+00 -0.13825611076E+03  0.13825611076E+03  0.00000000000E+00 0. -1.
       25    2    1    2    0    0  0.00000000000E+00  0.00000000000E+00 -0.25250002683E+02  0.25126221884E+03  0.24999027977E+03 0.  0.
       24    2    3    3    0    0 -0.80539254689E+02  0.95215394222E+01 -0.59679171230E+02  0.12960060242E+03  0.81593390722E+02 0.  0.
      -24    2    3    3    0    0  0.80539254689E+02 -0.95215394222E+01  0.34429168548E+02  0.12166161642E+03  0.83898450544E+02 0.  0.
      -13    1    4    4    0    0 -0.43392699478E+02 -0.29653472325E+02 -0.50546704538E+01  0.52799663657E+02  0.00000000000E+00 0.  1.
       14    1    4    4    0    0 -0.37146555211E+02  0.39175011747E+02 -0.54624500777E+02  0.76800938761E+02  0.00000000000E+00 0. -1.
        3    1    5    5  501    0  0.10423250166E+02 -0.19738803588E+02  0.44797252264E+02  0.50050557654E+02  0.00000000000E+00 0. -1.
       -4    1    5    5    0  501  0.70116004523E+02  0.10217264166E+02 -0.10368083716E+02  0.71611058764E+02  0.00000000000E+00 0.  1.
</event>
<event>
 9   1  0.7570500E-01  0.2500027E+03  0.7546771E-02  0.1113303E+00
       21   -1    0    0  503  502  0.00000000000E+00  0.00000000000E+00  0.12894772820E+03  0.12894772820E+03  0.00000000000E+00 0.  1.
       21   -1    0    0  502  503 -0.00000000000E+00 -0.00000000000E+00 -0.12117576759E+03  0.12117576759E+03  0.00000000000E+00 0.  1.
       25    2    1    2    0    0  0.71054273576E-14  0.14210854715E-13  0.77719606035E+01  0.25012349579E+03  0.25000271953E+03 0.  0.
       24    2    3    3    0    0 -0.46327254562E+02 -0.84320418548E+02  0.35141666919E+01  0.12532900858E+03  0.80242529398E+02 0.  0.
      -24    2    3    3    0    0  0.46327254562E+02  0.84320418548E+02  0.42577939116E+01  0.12479448721E+03  0.79368682301E+02 0.  0.
      -13    1    4    4    0    0 -0.54207196238E+02 -0.18531596020E+02  0.11994251531E+02  0.58529498929E+02  0.00000000000E+00 0.  1.
       14    1    4    4    0    0  0.78799416765E+01 -0.65788822528E+02 -0.84800848394E+01  0.66799509649E+02  0.00000000000E+00 0. -1.
        3    1    5    5  501    0  0.34397993228E+02  0.24605030862E+02  0.36522658508E+02  0.55879639103E+02  0.00000000000E+00 0. -1.
       -4    1    5    5    0  501  0.11929261334E+02  0.59715387686E+02 -0.32264864596E+02  0.68914848109E+02  0.00000000000E+00 0.  1.
</event>
<event>
 9   1  0.7570500E-01  0.2500007E+03  0.7546771E-02  0.1113304E+00
       21   -1    0    0  503  502  0.00000000000E+00  0.00000000000E+00  0.56402395511E+02  0.56402395511E+02  0.00000000000E+00 0. -1.
       21   -1    0    0  502  503 -0.00000000000E+00 -0.00000000000E+00 -0.27702870425E+03  0.27702870425E+03  0.00000000000E+00 0. -1.
       25    2    1    2    0    0  0.00000000000E+00 -0.14210854715E-13 -0.22062630874E+03  0.33343109976E+03  0.25000066036E+03 0.  0.
       24    2    3    3    0    0 -0.18118714852E+02 -0.87192282445E+02 -0.65446727185E+02  0.13719198045E+03  0.81287043590E+02 0.  0.
      -24    2    3    3    0    0  0.18118714852E+02  0.87192282445E+02 -0.15517958155E+03  0.19623911931E+03  0.80612080173E+02 0.  0.
      -13    1    4    4    0    0  0.24056450106E+02 -0.17028478119E+02  0.41223788107E+01  0.29760306884E+02  0.00000000000E+00 0.  1.
       14    1    4    4    0    0 -0.42175164959E+02 -0.70163804326E+02 -0.69569105996E+02  0.10743167357E+03  0.00000000000E+00 0. -1.
        1    1    5    5  501    0  0.20340033742E+02  0.54120737267E+02 -0.26939831721E+02  0.63784995948E+02  0.00000000000E+00 0. -1.
       -2    1    5    5    0  501 -0.22213188891E+01  0.33071545178E+02 -0.12823974983E+03  0.13245412336E+03  0.00000000000E+00 0.  1.
</event>
<event>
 9   1  0.7570500E-01  0.2499962E+03  0.7546771E-02  0.1113307E+00
       21   -1    0    0  503  502  0.00000000000E+00  0.00000000000E+00  0.79276938688E+02  0.79276938688E+02  0.00000000000E+00 0.  1.
       21   -1    0    0  502  503 -0.00000000000E+00 -0.00000000000E+00 -0.19708789485E+03  0.19708789485E+03  0.00000000000E+00 0.  1.
       25    2    1    2    0    0  0.00000000000E+00  0.00000000000E+00 -0.11781095616E+03  0.27636483354E+03  0.24999619962E+03 0.  0.
       24    2    3    3    0    0 -0.56242288570E+02  0.64380516653E+02 -0.11960812887E+03  0.16687981689E+03  0.78960261177E+02 0.  0.
      -24    2    3    3    0    0  0.56242288570E+02 -0.64380516653E+02  0.17971727072E+01  0.10948501665E+03  0.68379039865E+02 0.  0.
      -13    1    4    4    0    0 -0.51177746117E+02  0.61087757603E+02 -0.44002978587E+02  0.91033718759E+02  0.00000000000E+00 0.  1.
       14    1    4    4    0    0 -0.50645424533E+01  0.32927590503E+01 -0.75605150280E+02  0.75846098128E+02  0.00000000000E+00 0. -1.
        1    1    5    5  501    0  0.38065716293E+02 -0.62714068699E+02 -0.24612888322E+02  0.77381182734E+02  0.00000000000E+00 0. -1.
       -2    1    5    5    0  501  0.18176572277E+02 -0.16664479542E+01  0.26410061029E+02  0.32103833916E+02  0.00000000000E+00 0.  1.
</event>
<event>
 9   1  0.7570500E-01  0.2499947E+03  0.7546771E-02  0.1113308E+00
       21   -1    0    0  503  502  0.00000000000E+00  0.00000000000E+00  0.20789073893E+03  0.20789073893E+03  0.00000000000E+00 0.  1.
       21   -1    0    0  502  503 -0.00000000000E+00 -0.00000000000E+00 -0.75156511013E+02  0.75156511013E+02  0.00000000000E+00 0.  1.
       25    2    1    2    0    0  0.00000000000E+00  0.00000000000E+00  0.13273422792E+03  0.28304724994E+03  0.24999474082E+03 0.  0.
       24    2    3    3    0    0  0.14618361164E+02 -0.39513291317E+02 -0.32415310462E+02  0.94773110167E+02  0.78461413348E+02 0.  0.
      -24    2    3    3    0    0 -0.14618361164E+02  0.39513291317E+02  0.16514953838E+03  0.18827413977E+03  0.79986155100E+02 0.  0.
      -13    1    4    4    0    0  0.39580431046E+01 -0.58531942193E+02 -0.37866795583E+01  0.58787696877E+02  0.00000000000E+00 0.  1.
       14    1    4    4    0    0  0.10660318059E+02  0.19018650875E+02 -0.28628630904E+02  0.35985413290E+02  0.00000000000E+00 0. -1.
        1    1    5    5  501    0 -0.40643572891E+02  0.16007858291E+02  0.43408787735E+02  0.61583069078E+02  0.00000000000E+00 0. -1.
       -2    1    5    5    0  501  0.26025211728E+02  0.23505433026E+02  0.12174075064E+03  0.12669107070E+03  0.00000000000E+00 0.  1.
</event>
<event>
 9   1  0.7570500E-01  0.2499953E+03  0.7546771E-02  0.1113308E+00
       21   -1    0    0  503  502  0.00000000000E+00  0.00000000000E+00  0.36792383498E+03  0.36792383498E+03  0.00000000000E+00 0.  1.
       21   -1    0    0  502  503 -0.00000000000E+00 -0.00000000000E+00 -0.42466431627E+02  0.42466431627E+02  0.00000000000E+00 0.  1.
       25    2    1    2    0    0  0.14210854715E-13  0.00000000000E+00  0.32545740336E+03  0.41039026661E+03  0.24999529901E+03 0.  0.
       24    2    3    3    0    0 -0.82097063150E+02 -0.12277991893E+02  0.84012455730E+02  0.14278666392E+03  0.80245011141E+02 0.  0.
      -24    2    3    3    0    0  0.82097063150E+02  0.12277991893E+02  0.24144494763E+03  0.26760360269E+03  0.80158272034E+02 0.  0.
      -13    1    4    4    0    0 -0.94542636656E+02 -0.15194992188E+02  0.87310526231E+02  0.12958520720E+03  0.00000000000E+00 0.  1.
       14    1    4    4    0    0  0.12445573506E+02  0.29170002952E+01 -0.32980705010E+01  0.13201456724E+02  0.00000000000E+00 0. -1.
        3    1    5    5  501    0 -0.78881690412E+01  0.13799189128E+02  0.90339993860E+02  0.91727614828E+02  0.00000000000E+00 0. -1.
       -4    1    5    5    0  501  0.89985232192E+02 -0.15211972348E+01  0.15110495377E+03  0.17587598786E+03  0.00000000000E+00 0.  1.
</event>
<event>
 9   1  0.7570500E-01  0.2500051E+03  0.7546771E-02  0.1113302E+00
       21   -1    0    0  503  502  0.00000000000E+00  0.00000000000E+00  0.15318996782E+03  0.15318996782E+03  0.00000000000E+00 0. -1.
       21   -1    0    0  502  503 -0.00000000000E+00 -0.00000000000E+00 -0.10200168466E+03  0.10200168466E+03  0.00000000000E+00 0. -1.
       25    2    1    2    0    0  0.00000000000E+00  0.00000000000E+00  0.51188283161E+02  0.25519165248E+03  0.25000507827E+03 0.  0.
       24    2    3    3    0    0  0.23640309375E+02  0.66517644173E+02 -0.40050037839E+02  0.11463603044E+03  0.80956486643E+02 0.  0.
      -24    2    3    3    0    0 -0.23640309375E+02 -0.66517644173E+02  0.91238321000E+02  0.14055562204E+03  0.80299380164E+02 0.  0.
      -13    1    4    4    0    0  0.73274992416E+01  0.11782183544E+02 -0.54073325209E+02  0.55825053455E+02  0.00000000000E+00 0.  1.
       14    1    4    4    0    0  0.16312810133E+02  0.54735460629E+02  0.14023287370E+02  0.58810976980E+02  0.00000000000E+00 0. -1.
        3    1    5    5  501    0  0.27577124111E+02 -0.27996182563E+02  0.52822037569E+02  0.65836552653E+02  0.00000000000E+00 0. -1.
       -4    1    5    5    0  501 -0.51217433486E+02 -0.38521461611E+02  0.38416283431E+02  0.74719069387E+02  0.00000000000E+00 0.  1.
</event>
<event>
 9   1  0.7570500E-01  0.2500004E+03  0.7546771E-02  0.1113305E+00
       21   -1    0    0  503  502  0.00000000000E+00  0.00000000000E+00  0.15638376151E+03  0.15638376151E+03  0.00000000000E+00 0. -1.
       21   -1    0    0  502  503 -0.00000000000E+00 -0.00000000000E+00 -0.99914789733E+02  0.99914789733E+02  0.00000000000E+00 0. -1.
       25    2    1    2    0    0  0.14210854715E-13  0.71054273576E-14  0.56468971779E+02  0.25629855124E+03  0.25000040519E+03 0.  0.
       24    2    3    3    0    0 -0.69926449788E+02 -0.42275260581E+02 -0.22935190247E+02  0.11706205778E+03  0.80626276014E+02 0.  0.
      -24    2    3    3    0    0  0.69926449788E+02  0.42275260581E+02  0.79404162025E+02  0.13923649346E+03  0.80030457495E+02 0.  0.
      -13    1    4    4    0    0 -0.19217349408E+02 -0.37570678008E+02  0.23362910622E+02  0.48235753927E+02  0.00000000000E+00 0.  1.
       14    1    4    4    0    0 -0.50709100380E+02 -0.47045825731E+01 -0.46298100868E+02  0.68826303857E+02  0.00000000000E+00 0. -1.
        1    1    5    5  501    0  0.77083028154E+02  0.35989674016E+02  0.90772451294E+02  0.12440533662E+03  0.00000000000E+00 0. -1.
       -2    1    5    5    0  501 -0.71565783664E+01  0.62855865643E+01 -0.11368289268E+02  0.14831156841E+02  0.00000000000E+00 0.  1.
</event>
<event>
 9   1  0.7570500E-01  0.2499988E+03  0.7546771E-02  0.1113306E+00
       21   -1    0    0  503  502  0.00000000000E+00  0.00000000000E+00  0.62328252319E+02  0.62328252319E+02  0.00000000000E+00 0.  1.
       21   -1    0    0  502  503 -0.00000000000E+00 -0.00000000000E+00 -0.25068644309E+03  0.25068644309E+03  0.00000000000E+00 0.  1.
       25    2    1    2    0    0  0.14210854715E-13  0.00000000000E+00 -0.18835819077E+03  0.31301469541E+03  0.24999878302E+03 0.  0.
       24    2    3    3    0    0  0.42206223844E+02 -0.86611405236E+02 -0.78870875518E+02  0.14740559833E+03  0.78898001025E+02 0.  0.
      -24    2    3    3    0    0 -0.42206223844E+02  0.86611405236E+02 -0.10948731525E+03  0.16560909708E+03  0.78460180899E+02 0.  0.
      -13    1    4    4    0    0  0.20475796341E+02 -0.87719279488E+02 -0.85969969242E+02  0.12451813459E+03  0.00000000000E+00 0.  1.
       14    1    4    4    0    0  0.21730427503E+02  0.11078742523E+01  0.70990937242E+01  0.22887463741E+02  0.00000000000E+00 0. -1.
        3    1    5    5  501    0  0.94826913689E+01  0.48524421231E+02 -0.82031376112E+02  0.95779369168E+02  0.00000000000E+00 0. -1.
       -4    1    5    5    0  501 -0.51688915213E+02  0.38086984005E+02 -0.27455939143E+02  0.69829727915E+02  0.00000000000E+00 0.  1.
</event>
<event>
 9   1  0.7570500E-01  0.2499934E+03  0.7546771E-02  0.1113309E+00
       21   -1    0    0  503  502  0.00000000000E+00  0.00000000000E+00  0.23845282068E+03  0.23845282068E+03  0.00000000000E+00 0.  1.
       21   -1    0    0  502  503 -0.00000000000E+00 -0.00000000000E+00 -0.65523155208E+02  0.65523155208E+02  0.00000000000E+00 0.  1.
       25    2    1    2    0    0  0.00000000000E+00  0.00000000000E+00  0.17292966547E+03  0.30397597589E+03  0.24999344935E+03 0.  0.
       24    2    3    3    0    0  0.21352502286E+02  0.47411981053E+02 -0.62169798220E+01  0.95583047238E+02  0.79960257502E+02 0.  0.
      -24    2    3    3    0    0 -0.21352502286E+02 -0.47411981053E+02  0.17914664529E+03  0.20839292865E+03  0.92899229760E+02 0.  0.
      -13    1    4    4    0    0 -0.22884804750E+02 -0.70745218348E+00 -0.18052251603E+02  0.29156449801E+02  0.00000000000E+00 0.  1.
       14    1    4    4    0    0  0.44237307037E+02  0.48119433237E+02  0.11835271781E+02  0.66426597437E+02  0.00000000000E+00 0. -1.
        1    1    5    5  501    0 -0.23917953952E+02 -0.66972655525E+02  0.78883857837E+02  0.10620766515E+03  0.00000000000E+00 0. -1.
       -2    1    5    5    0  501  0.25654516657E+01  0.19560674471E+02  0.10026278746E+03  0.10218526350E+03  0.00000000000E+00 0.  1.
</event>
<event>
 9   1  0.7570500E-01  0.2499764E+03  0.7546771E-02  0.1113320E+00
       21   -1    0    0  503  502  0.00000000000E+00  0.00000000000E+00  0.25041559797E+02  0.25041559797E+02  0.00000000000E+00 0.  1.
       21   -1    0    0  502  503 -0.00000000000E+00 -0.00000000000E+00 -0.62384470204E+03  0.62384470204E+03  0.00000000000E+00 0.  1.
       25    2    1    2    0    0  0.00000000000E+00 -0.35527136788E-14 -0.59880314225E+03  0.64888626184E+03  0.24997635416E+03 0.  0.
       24    2    3    3    0    0  0.25320829032E+02  0.23238013266E+02 -0.53282851293E+03  0.53980631538E+03  0.79394485288E+02 0.  0.
      -24    2    3    3    0    0 -0.25320829032E+02 -0.23238013266E+02 -0.65974629323E+02  0.10907994646E+03  0.79778652297E+02 0.  0.
      -13    1    4    4    0    0  0.37411809216E+02  0.14954359705E+02 -0.11743201932E+03  0.12415134113E+03  0.00000000000E+00 0.  1.
       14    1    4    4    0    0 -0.12090980184E+02  0.82836535607E+01 -0.41539649361E+03  0.41565497425E+03  0.00000000000E+00 0. -1.
        1    1    5    5  501    0 -0.12885250189E+02 -0.50430876447E+02 -0.23436495644E+02  0.57083905786E+02  0.00000000000E+00 0. -1.
       -2    1    5    5    0  501 -0.12435578843E+02  0.27192863181E+02 -0.42538133678E+02  0.51996040676E+02  0.00000000000E+00 0.  1.
</event>
<event>
 9   1  0.7570500E-01  0.2499995E+03  0.7546771E-02  0.1113305E+00
       21   -1    0    0  503  502  0.00000000000E+00  0.00000000000E+00  0.62410143655E+02  0.62410143655E+02  0.00000000000E+00 0.  1.
       21   -1    0    0  502  503 -0.00000000000E+00 -0.00000000000E+00 -0.25035888773E+03  0.25035888773E+03  0.00000000000E+00 0.  1.
       25    2    1    2    0    0  0.35527136788E-14  0.14210854715E-13 -0.18794874407E+03  0.31276903138E+03  0.24999947319E+03 0.  0.
       24    2    3    3    0    0 -0.18070454716E+01 -0.60176910453E+02 -0.33095292645E+01  0.10260874262E+03  0.83024545247E+02 0.  0.
      -24    2    3    3    0    0  0.18070454716E+01  0.60176910453E+02 -0.18463921481E+03  0.21016028876E+03  0.80319246521E+02 0.  0.
      -13    1    4    4    0    0  0.20019217637E+02  0.14143681535E+02 -0.54901134274E+01  0.25118800680E+02  0.00000000000E+00 0.  1.
       14    1    4    4    0    0 -0.21826263109E+02 -0.74320591989E+02  0.21805841629E+01  0.77489941942E+02  0.00000000000E+00 0. -1.
        3    1    5    5  501    0 -0.18749694241E+02 -0.10970260559E+02 -0.73216829083E+02  0.76371471845E+02  0.00000000000E+00 0. -1.
       -4    1    5    5    0  501  0.20556739713E+02  0.71147171013E+02 -0.11142238573E+03  0.13378881692E+03  0.00000000000E+00 0.  1.
</event>
<event>
 9   1  0.7570500E-01  0.2500040E+03  0.7546771E-02  0.1113302E+00
       21   -1    0    0  503  502  0.00000000000E+00  0.00000000000E+00  0.77711627298E+03  0.77711627298E+03  0.00000000000E+00 0.  1.
       21   -1    0    0  502  503 -0.00000000000E+00 -0.00000000000E+00 -0.20107027835E+02  0.20107027835E+02  0.00000000000E+00 0.  1.
       25    2    1    2    0    0 -0.71054273576E-14 -0.14210854715E-13  0.75700924515E+03  0.79722330082E+03  0.25000398823E+03 0.  0.
       24    2    3    3    0    0  0.35941927176E+02  0.83548531513E+02  0.46754208535E+03  0.48299493422E+03  0.80101970391E+02 0.  0.
      -24    2    3    3    0    0 -0.35941927176E+02 -0.83548531513E+02  0.28946715980E+03  0.31422836660E+03  0.81707102062E+02 0.  0.
      -13    1    4    4    0    0 -0.61370961633E+01  0.38441736023E+02  0.32956423853E+03  0.33185541782E+03  0.00000000000E+00 0.  1.
       14    1    4    4    0    0  0.42079023340E+02  0.45106795490E+02  0.13797784682E+03  0.15113951640E+03  0.00000000000E+00 0. -1.
        1    1    5    5  501    0 -0.36179638587E+02 -0.40402286280E+02  0.60578415268E+02  0.81308396746E+02  0.00000000000E+00 0. -1.
       -2    1    5    5    0  501  0.23771141082E+00 -0.43146245233E+02  0.22888874453E+03  0.23291996986E+03  0.00000000000E+00 0.  1.
</event>
<event>
 9   1  0.7570500E-01  0.2500015E+03  0.7546771E-02  0.1113304E+00
       21   -1    0    0  503  502  0.00000000000E+00  0.00000000000E+00  0.39937630795E+02  0.39937630795E+02  0.00000000000E+00 0. -1.
       21   -1    0    0  502  503 -0.00000000000E+00 -0.00000000000E+00 -0.39123983600E+03  0.39123983600E+03  0.00000000000E+00 0. -1.
       25    2    1    2    0    0  0.22204460493E-14  0.00000000000E+00 -0.35130220520E+03  0.43117746679E+03  0.25000153697E+03 0.  0.
       24    2    3    3    0    0 -0.38078941759E+01 -0.25084863272E+02 -0.35055451250E+03  0.35924153136E+03  0.74311918285E+02 0.  0.
      -24    2    3    3    0    0  0.38078941759E+01  0.25084863272E+02 -0.74769270371E+00  0.71935935430E+02  0.67308761230E+02 0.  0.
      -13    1    4    4    0    0  0.48169936875E+00 -0.24198443309E+00 -0.31831432077E+03  0.31831477722E+03  0.00000000000E+00 0.  1.
       14    1    4    4    0    0 -0.42895935446E+01 -0.24842878838E+02 -0.32240191728E+02  0.40926754140E+02  0.00000000000E+00 0. -1.
        1    1    5    5  501    0 -0.21325846873E+02  0.17009986048E+02 -0.24318950676E+02  0.36545078084E+02  0.00000000000E+00 0. -1.
       -2    1    5    5    0  501  0.25133741049E+02  0.80748772235E+01  0.23571257972E+02  0.35390857346E+02  0.00000000000E+00 0.  1.
</event>
<event>
 9   1  0.7570500E-01  0.2500008E+03  0.7546771E-02  0.1113304E+00
       21   -1    0    0  503  502  0.00000000000E+00  0.00000000000E+00  0.15683146538E+03  0.15683146538E+03  0.00000000000E+00 0. -1.
       21   -1    0    0  502  503 -0.00000000000E+00 -0.00000000000E+00 -0.99629884761E+02  0.99629884761E+02  0.00000000000E+00 0. -1.
       25    2    1    2    0    0 -0.35527136788E-14  0.00000000000E+00  0.57201580615E+02  0.25646135014E+03  0.25000080658E+03 0.  0.
       24    2    3    3    0    0  0.22036839158E+02 -0.38233453993E+02  0.11522136814E+03  0.14754855157E+03  0.80914721219E+02 0.  0.
      -24    2    3    3    0    0 -0.22036839158E+02  0.38233453993E+02 -0.58019787530E+02  0.10891279856E+03  0.80921459834E+02 0.  0.
      -13    1    4    4    0    0 -0.10398867118E+02 -0.54737773631E+02  0.67163412221E+02  0.87265595974E+02  0.00000000000E+00 0.  1.
       14    1    4    4    0    0  0.32435706276E+02  0.16504319638E+02  0.48057955923E+02  0.60282955600E+02  0.00000000000E+00 0. -1.
        1    1    5    5  501    0 -0.30865751241E+02 -0.12922386827E+01 -0.60924211586E+02  0.68309033355E+02  0.00000000000E+00 0. -1.
       -2    1    5    5    0  501  0.88289120828E+01  0.39525692676E+02  0.29044240557E+01  0.40603765210E+02  0.00000000000E+00 0.  1.
</event>
<event>
 9   1  0.7570500E-01  0.2499993E+03  0.7546771E-02  0.1113305E+00
       21   -1    0    0  503  502  0.00000000000E+00  0.00000000000E+00  0.77878693202E+03  0.77878693202E+03  0.00000000000E+00 0. -1.
       21   -1    0    0  502  503 -0.00000000000E+00 -0.00000000000E+00 -0.20063149552E+02  0.20063149552E+02  0.00000000000E+00 0. -1.
       25    2    1    2    0    0  0.14210854715E-13  0.00000000000E+00  0.75872378246E+03  0.79885008157E+03  0.24999934949E+03 0.  0.
       24    2    3    3    0    0  0.90578447978E+02  0.23034319130E+02  0.31079858755E+03  0.33429534299E+03  0.80140995889E+02 0.  0.
      -24    2    3    3    0    0 -0.90578447978E+02 -0.23034319130E+02  0.44792519491E+03  0.46455473858E+03  0.80243939369E+02 0.  0.
      -13    1    4    4    0    0  0.22227373869E+02  0.21915644583E+02  0.21119764990E+03  0.21349191776E+03  0.00000000000E+00 0.  1.
       14    1    4    4    0    0  0.68351074109E+02  0.11186745470E+01  0.99600937653E+02  0.12080342522E+03  0.00000000000E+00 0. -1.
        3    1    5    5  501    0  0.39186147864E+01 -0.81388202929E+01  0.17710214390E+03  0.17733235833E+03  0.00000000000E+00 0. -1.
       -4    1    5    5    0  501 -0.94497062764E+02 -0.14895498838E+02  0.27082305101E+03  0.28722238025E+03  0.00000000000E+00 0.  1.
</event>
<event>
 9   1  0.7570500E-01  0.2500128E+03  0.7546771E-02  0.1113297E+00
       21   -1    0    0  503  502  0.00000000000E+00  0.00000000000E+00  0.31681489932E+02  0.31681489932E+02  0.00000000000E+00 0. -1.
       21   -1    0    0  502  503 -0.00000000000E+00 -0.00000000000E+00 -0.49324071071E+03  0.49324071071E+03  0.00000000000E+00 0. -1.
       25    2    1    2    0    0  0.35527136788E-14  0.71054273576E-14 -0.46155922078E+03  0.52492220064E+03  0.25001280455E+03 0.  0.
       24    2    3    3    0    0  0.16382362248E+02 -0.61118152960E+02 -0.67833099333E+02  0.11820312643E+03  0.73258714969E+02 0.  0.
      -24    2    3    3    0    0 -0.16382362248E+02  0.61118152960E+02 -0.39372612144E+03  0.40671907421E+03  0.79977097999E+02 0.  0.
      -13    1    4    4    0    0  0.39825107028E+02 -0.19753577936E+02 -0.14514159161E+02  0.46764343331E+02  0.00000000000E+00 0.  1.
       14    1    4    4    0    0 -0.23442744780E+02 -0.41364575024E+02 -0.53318940172E+02  0.71438783100E+02  0.00000000000E+00 0. -1.
        3    1    5    5  501    0 -0.93502209632E+01  0.22483519340E+02 -0.21670223891E+02  0.32596531678E+02  0.00000000000E+00 0. -1.
       -4    1    5    5    0  501 -0.70321412850E+01  0.38634633620E+02 -0.37205589755E+03  0.37412254253E+03  0.00000000000E+00 0.  1.
</event>
<event>
 9   1  0.7570500E-01  0.2499991E+03  0.7546771E-02  0.1113305E+00
       21   -1    0    0  503  502  0.00000000000E+00  0.00000000000E+00  0.23766089561E+03  0.23766089561E+03  0.00000000000E+00 0. -1.
       21   -1    0    0  502  503 -0.00000000000E+00 -0.00000000000E+00 -0.65744435891E+02  0.65744435891E+02  0.00000000000E+00 0. -1.
       25    2    1    2    0    0  0.00000000000E+00 -0.35527136788E-14  0.17191645971E+03  0.30340533150E+03  0.24999905212E+03 0.  0.
       24    2    3    3    0    0  0.79335357092E+02 -0.26177312910E+02  0.14432485248E+03  0.18476318199E+03  0.79551365662E+02 0.  0.
      -24    2    3    3    0    0 -0.79335357092E+02  0.26177312910E+02  0.27591607231E+02  0.11864214951E+03  0.79594674782E+02 0.  0.
      -13    1    4    4    0    0  0.40019758396E+02  0.27180064118E+02  0.50961545146E+02  0.70266749115E+02  0.00000000000E+00 0.  1.
       14    1    4    4    0    0  0.39315598696E+02 -0.53357377028E+02  0.93363307337E+02  0.11449643287E+03  0.00000000000E+00 0. -1.
        3    1    5    5  501    0 -0.74099907259E+02  0.16757661555E+02  0.51930645265E+02  0.92023950112E+02  0.00000000000E+00 0. -1.
       -4    1    5    5    0  501 -0.52354498332E+01  0.94196513549E+01 -0.24339038033E+02  0.26618199394E+02  0.00000000000E+00 0.  1.
</event>
<event>
 9   1  0.7570500E-01  0.2500174E+03  0.7546771E-02  0.1113294E+00
       21   -1    0    0  503  502  0.00000000000E+00  0.00000000000E+00  0.34357867458E+02  0.34357867458E+02  0.00000000000E+00 0.  1.
       21   -1    0    0  502  503 -0.00000000000E+00 -0.00000000000E+00 -0.45483544930E+03  0.45483544930E+03  0.00000000000E+00 0.  1.
       25    2    1    2    0    0 -0.14210854715E-13  0.00000000000E+00 -0.42047758184E+03  0.48919331676E+03  0.25001740805E+03 0.  0.
       24    2    3    3    0    0 -0.85545349978E+02 -0.28074085851E+02 -0.14539802923E+03  0.18865052046E+03  0.79638374959E+02 0.  0.
      -24    2    3    3    0    0  0.85545349978E+02  0.28074085851E+02 -0.27507955261E+03  0.30054279630E+03  0.80938562767E+02 0.  0.
      -13    1    4    4    0    0 -0.16151656650E+02 -0.21941052947E+01 -0.10098515735E+03  0.10229218990E+03  0.00000000000E+00 0.  1.
       14    1    4    4    0    0 -0.69393693327E+02 -0.25879980556E+02 -0.44412871878E+02  0.86358330551E+02  0.00000000000E+00 0. -1.
        1    1    5    5  501    0  0.90808059099E+02  0.46299377559E+02 -0.23740452037E+03  0.25836145659E+03  0.00000000000E+00 0. -1.
       -2    1    5    5    0  501 -0.52627091213E+01 -0.18225291708E+02 -0.37675032249E+02  0.42181339715E+02  0.00000000000E+00 0.  1.
</event>
<event>
 9   1  0.7570500E-01  0.2499941E+03  0.7546771E-02  0.1113309E+00
       21   -1    0    0  503  502  0.00000000000E+00  0.00000000000E+00  0.10685548277E+03  0.10685548277E+03  0.00000000000E+00 0. -1.
       21   -1    0    0  502  503 -0.00000000000E+00 -0.00000000000E+00 -0.14621860898E+03  0.14621860898E+03  0.00000000000E+00 0. -1.
       25    2    1    2    0    0  0.00000000000E+00 -0.35527136788E-14 -0.39363126209E+02  0.25307409176E+03  0.24999408036E+03 0.  0.
       24    2    3    3    0    0  0.46081599395E+02  0.17220256512E+02  0.62683355206E+02  0.11481190609E+03  0.82659057107E+02 0.  0.
      -24    2    3    3    0    0 -0.46081599395E+02 -0.17220256512E+02 -0.10204648142E+03  0.13826218567E+03  0.79264724687E+02 0.  0.
      -13    1    4    4    0    0 -0.11336099642E+02 -0.14124521848E+02  0.42746678388E+02  0.46425077121E+02  0.00000000000E+00 0.  1.
       14    1    4    4    0    0  0.57417699037E+02  0.31344778360E+02  0.19936676819E+02  0.68386828964E+02  0.00000000000E+00 0. -1.
        1    1    5    5  501    0 -0.32902497182E+02 -0.44621682103E+02 -0.89689061481E+02  0.10544096255E+03  0.00000000000E+00 0. -1.
       -2    1    5    5    0  501 -0.13179102213E+02  0.27401425590E+02 -0.12357419934E+02  0.32821223118E+02  0.00000000000E+00 0.  1.
</event>
<event>
 9   1  0.7570500E-01  0.2499890E+03  0.7546771E-02  0.1113312E+00
       21   -1    0    0  503  502  0.00000000000E+00  0.00000000000E+00  0.52190423877E+02  0.52190423877E+02  0.00000000000E+00 0. -1.
       21   -1    0    0  502  503 -0.00000000000E+00 -0.00000000000E+00 -0.29935799951E+03  0.29935799951E+03  0.00000000000E+00 0. -1.
       25    2    1    2    0    0  0.00000000000E+00 -0.88817841970E-15 -0.24716757563E+03  0.35154842338E+03  0.24998896684E+03 0.  0.
       24    2    3    3    0    0  0.75544437987E+02  0.13263906996E+01 -0.20833194398E+03  0.23484828381E+03  0.77735423727E+02 0.  0.
      -24    2    3    3    0    0 -0.75544437987E+02 -0.13263906996E+01 -0.38835631650E+02  0.11670013958E+03  0.80012466957E+02 0.  0.
      -13    1    4    4    0    0 -0.11392040084E+02 -0.75769917186E+01 -0.69255253477E+02  0.70593763994E+02  0.00000000000E+00 0.  1.
       14    1    4    4    0    0  0.86936478071E+02  0.89033824182E+01 -0.13907669050E+03  0.16425451981E+03  0.00000000000E+00 0. -1.
        3    1    5    5  501    0 -0.40150007032E+02 -0.40122250536E+02 -0.27056234664E+02  0.62879709660E+02  0.00000000000E+00 0. -1.
       -4    1    5    5    0  501 -0.35394430955E+02  0.38795859836E+02 -0.11779396986E+02  0.53820429917E+02  0.00000000000E+00 0.  1.
</event>
<event>
 9   1  0.7570500E-01  0.2499910E+03  0.7546771E-02  0.1113311E+00
       21   -1    0    0  503  502  0.00000000000E+00  0.00000000000E+00  0.24793884007E+04  0.24793884007E+04  0.00000000000E+00 0.  1.
       21   -1    0    0  502  503 -0.00000000000E+00 -0.00000000000E+00 -0.63015042686E+01  0.63015042686E+01  0.00000000000E+00 0.  1.
       25    2    1    2    0    0  0.00000000000E+00  0.00000000000E+00  0.24730868964E+04  0.24856899049E+04  0.24999101256E+03 0.  0.
       24    2    3    3    0    0 -0.90867347680E+02 -0.19223303283E+02  0.14118054429E+04  0.14172436935E+04  0.82211117030E+02 0.  0.
      -24    2    3    3    0    0  0.90867347680E+02  0.19223303283E+02  0.10612814535E+04  0.10684462114E+04  0.81440610452E+02 0.  0.
      -13    1    4    4    0    0 -0.94357181368E+02  0.97302285107E+01  0.10893681823E+04  0.10934902796E+04  0.00000000000E+00 0.  1.
       14    1    4    4    0    0  0.34898336886E+01 -0.28953531794E+02  0.32243726066E+03  0.32375341389E+03  0.00000000000E+00 0. -1.
        1    1    5    5  501    0 -0.12249018984E+02  0.17008186073E+00  0.41021141893E+02  0.42811230725E+02  0.00000000000E+00 0. -1.
       -2    1    5    5    0  501  0.10311636666E+03  0.19053221422E+02  0.10202603116E+04  0.10256349807E+04  0.00000000000E+00 0.  1.
</event>
<event>
 9   1  0.7570500E-01  0.2499986E+03  0.7546771E-02  0.1113306E+00
       21   -1    0    0  503  502  0.00000000000E+00  0.00000000000E+00  0.17656824626E+02  0.17656824626E+02  0.00000000000E+00 0.  1.
       21   -1    0    0  502  503 -0.00000000000E+00 -0.00000000000E+00 -0.88491713299E+03  0.88491713299E+03  0.00000000000E+00 0.  1.
       25    2    1    2    0    0  0.71054273576E-14  0.71054273576E-14 -0.86726030836E+03  0.90257395761E+03  0.24999861301E+03 0.  0.
       24    2    3    3    0    0  0.51641808283E+02  0.54261539008E+02 -0.63940431494E+03  0.64876145141E+03  0.80264262876E+02 0.  0.
      -24    2    3    3    0    0 -0.51641808283E+02 -0.54261539008E+02 -0.22785599342E+03  0.25381250620E+03  0.83013514494E+02 0.  0.
      -13    1    4    4    0    0  0.37211374263E+01 -0.29677247790E+01 -0.34530095667E+03  0.34533375875E+03  0.00000000000E+00 0.  1.
       14    1    4    4    0    0  0.47920670857E+02  0.57229263787E+02 -0.29410335827E+03  0.30342769267E+03  0.00000000000E+00 0. -1.
        1    1    5    5  501    0  0.11839337194E+02 -0.41187865562E+02 -0.58817085236E+02  0.72774031704E+02  0.00000000000E+00 0. -1.
       -2    1    5    5    0  501 -0.63481145478E+02 -0.13073673447E+02 -0.16903890818E+03  0.18103847450E+03  0.00000000000E+00 0.  1.
</event>
<event>
 9   1  0.7570500E-01  0.2500000E+03  0.7546771E-02  0.1113305E+00
       21   -1    0    0  503  502  0.00000000000E+00  0.00000000000E+00  0.31700361641E+03  0.31700361641E+03  0.00000000000E+00 0. -1.
       21   -1    0    0  502  503 -0.00000000000E+00 -0.00000000000E+00 -0.49289639926E+02  0.49289639926E+02  0.00000000000E+00 0. -1.
       25    2    1    2    0    0  0.17763568394E-14  0.14210854715E-13  0.26771397648E+03  0.36629325634E+03  0.24999995287E+03 0.  0.
       24    2    3    3    0    0  0.79553930775E+01  0.62725519322E+02  0.28037738780E+02  0.10590830164E+03  0.80203955686E+02 0.  0.
      -24    2    3    3    0    0 -0.79553930775E+01 -0.62725519322E+02  0.23967623770E+03  0.26038495469E+03  0.79736106360E+02 0.  0.
      -13    1    4    4    0    0  0.18050927845E+01  0.76274376179E+02  0.24815526677E+01  0.76336078791E+02  0.00000000000E+00 0.  1.
       14    1    4    4    0    0  0.61503002930E+01 -0.13548856857E+02  0.25556186112E+02  0.29572222852E+02  0.00000000000E+00 0. -1.
        1    1    5    5  501    0  0.14397223122E+01  0.19052006359E+02  0.53994505304E+02  0.57275285679E+02  0.00000000000E+00 0. -1.
       -2    1    5    5    0  501 -0.93951153897E+01 -0.81777525682E+02  0.18568173240E+03  0.20310966901E+03  0.00000000000E+00 0.  1.
</event>
<event>
 9   1  0.7570500E-01  0.2499997E+03  0.7546771E-02  0.1113305E+00
       21   -1    0    0  503  502  0.00000000000E+00  0.00000000000E+00  0.21581585845E+03  0.21581585845E+03  0.00000000000E+00 0. -1.
       21   -1    0    0  502  503 -0.00000000000E+00 -0.00000000000E+00 -0.72399531814E+02  0.72399531814E+02  0.00000000000E+00 0. -1.
       25    2    1    2    0    0  0.00000000000E+00  0.00000000000E+00  0.14341632663E+03  0.28821539026E+03  0.24999973688E+03 0.  0.
       24    2    3    3    0    0 -0.44915765735E+02  0.85541006554E+02  0.80401323209E+02  0.14924075555E+03  0.80459558342E+02 0.  0.
      -24    2    3    3    0    0  0.44915765735E+02 -0.85541006554E+02  0.63015003424E+02  0.13897463471E+03  0.77513667336E+02 0.  0.
      -13    1    4    4    0    0  0.28832724431E+01  0.74057925444E+02  0.33631405873E+02  0.81387720463E+02  0.00000000000E+00 0.  1.
       14    1    4    4    0    0 -0.47799038178E+02  0.11483081110E+02  0.46769917336E+02  0.67853035084E+02  0.00000000000E+00 0. -1.
        3    1    5    5  501    0  0.61253127484E+01 -0.31583523258E+01 -0.16628924512E+02  0.18000438220E+02  0.00000000000E+00 0. -1.
       -4    1    5    5    0  501  0.38790452987E+02 -0.82382654228E+02  0.79643927936E+02  0.12097419650E+03  0.00000000000E+00 0.  1.
</event>
<event>
 9   1  0.7570500E-01  0.2499980E+03  0.7546771E-02  0.1113306E+00
       21   -1    0    0  503  502  0.00000000000E+00  0.00000000000E+00  0.12779290712E+02  0.12779290712E+02  0.00000000000E+00 0.  1.
       21   -1    0    0  502  503 -0.00000000000E+00 -0.00000000000E+00 -0.12226614441E+04  0.12226614441E+04  0.00000000000E+00 0.  1.
       25    2    1    2    0    0  0.00000000000E+00  0.71054273576E-14 -0.12098821534E+04  0.12354407348E+04  0.24999796829E+03 0.  0.
       24    2    3    3    0    0 -0.27381411268E+02 -0.30136904516E+02 -0.10181539052E+04  0.10223500916E+04  0.83092481999E+02 0.  0.
      -24    2    3    3    0    0  0.27381411268E+02  0.30136904516E+02 -0.19172824825E+03  0.21309064320E+03  0.83605779392E+02 0.  0.
      -13    1    4    4    0    0  0.22972868121E+02 -0.16458054475E+02 -0.15060530328E+03  0.15323373520E+03  0.00000000000E+00 0.  1.
       14    1    4    4    0    0 -0.50354279389E+02 -0.13678850040E+02 -0.86754860189E+03  0.86911635644E+03  0.00000000000E+00 0. -1.
        1    1    5    5  501    0  0.37313889837E+02  0.27203501947E+01 -0.17605264451E+03  0.17998405573E+03  0.00000000000E+00 0. -1.
       -2    1    5    5    0  501 -0.99324785697E+01  0.27416554321E+02 -0.15675603743E+02  0.33106587473E+02  0.00000000000E+00 0.  1.
</event>
<event>
 9   1  0.7570500E-01  0.2500130E+03  0.7546771E-02  0.1113297E+00
       21   -1    0    0  503  502  0.00000000000E+00  0.00000000000E+00  0.45708136434E+03  0.45708136434E+03  0.00000000000E+00 0.  1.
       21   -1    0    0  502  503 -0.00000000000E+00 -0.00000000000E+00 -0.34187854548E+02  0.34187854548E+02  0.00000000000E+00 0.  1.
       25    2    1    2    0    0 -0.14210854715E-13  0.00000000000E+00  0.42289350979E+03  0.49126921889E+03  0.25001304926E+03 0.  0.
       24    2    3    3    0    0  0.72920100752E+02  0.48021152445E+01  0.91063511718E+02  0.14245849808E+03  0.81617762179E+02 0.  0.
      -24    2    3    3    0    0 -0.72920100752E+02 -0.48021152445E+01  0.33182999808E+03  0.34881072081E+03  0.78850300737E+02 0.  0.
      -13    1    4    4    0    0  0.21436764049E+02  0.31154232024E+02  0.41270565578E+01  0.38041472392E+02  0.00000000000E+00 0.  1.
       14    1    4    4    0    0  0.51483336704E+02 -0.26352116780E+02  0.86936455160E+02  0.10441702568E+03  0.00000000000E+00 0. -1.
        1    1    5    5  501    0 -0.24421355899E+02  0.50034101719E+01  0.26224504157E+03  0.26342721682E+03  0.00000000000E+00 0. -1.
       -2    1    5    5    0  501 -0.48498744854E+02 -0.98055254164E+01  0.69584956511E+02  0.85383503990E+02  0.00000000000E+00 0.  1.
</event>
<event>
 9   1  0.7570500E-01  0.2500024E+03  0.7546771E-02  0.1113303E+00
       21   -1    0    0  503  502  0.00000000000E+00  0.00000000000E+00  0.14682999839E+03  0.14682999839E+03  0.00000000000E+00 0.  1.
       21   -1    0    0  502  503 -0.00000000000E+00 -0.00000000000E+00 -0.10641761557E+03  0.10641761557E+03  0.00000000000E+00 0.  1.
       25    2    1    2    0    0  0.00000000000E+00 -0.71054273576E-14  0.40412382822E+02  0.25324761397E+03  0.25000238658E+03 0.  0.
       24    2    3    3    0    0 -0.73128569921E+02 -0.46273240266E+02  0.68995814405E+02  0.13613435748E+03  0.79266262548E+02 0.  0.
      -24    2    3    3    0    0  0.73128569921E+02  0.46273240266E+02 -0.28583431582E+02  0.11711325648E+03  0.73549315290E+02 0.  0.
      -13    1    4    4    0    0 -0.56986661358E+02  0.93668967504E+01  0.23005778029E+02  0.62164975269E+02  0.00000000000E+00 0.  1.
       14    1    4    4    0    0 -0.16141908564E+02 -0.55640137016E+02  0.45990036376E+02  0.73969382214E+02  0.00000000000E+00 0. -1.
        3    1    5    5  501    0  0.55844941565E+02  0.65206755285E+02 -0.12263787596E+02  0.86723577644E+02  0.00000000000E+00 0. -1.
       -4    1    5    5    0  501  0.17283628357E+02 -0.18933515019E+02 -0.16319643987E+02  0.30389678840E+02  0.00000000000E+00 0.  1.
</event>
<event>
 9   1  0.7570500E-01  0.2499919E+03  0.7546771E-02  0.1113310E+00
       21   -1    0    0  503  502  0.00000000000E+00  0.00000000000E+00  0.13287318395E+03  0.13287318395E+03  0.00000000000E+00 0.  1.
       21   -1    0    0  502  503 -0.00000000000E+00 -0.00000000000E+00 -0.11758570336E+03  0.11758570336E+03  0.00000000000E+00 0.  1.
       25    2    1    2    0    0  0.00000000000E+00  0.53290705182E-14  0.15287480587E+02  0.25045888731E+03  0.24999189421E+03 0.  0.
       24    2    3    3    0    0  0.35078729903E+02 -0.11576567636E+02  0.96601822904E+02  0.13123743132E+03  0.80788718157E+02 0.  0.
      -24    2    3    3    0    0 -0.35078729903E+02  0.11576567636E+02 -0.81314342316E+02  0.11922145599E+03  0.78975939960E+02 0.  0.
      -13    1    4    4    0    0  0.46079775987E+02  0.18844686005E+02  0.81579441246E+02  0.95570252588E+02  0.00000000000E+00 0.  1.
       14    1    4    4    0    0 -0.11001046084E+02 -0.30421253641E+02  0.15022381657E+02  0.35667178732E+02  0.00000000000E+00 0. -1.
        1    1    5    5  501    0 -0.28425025895E+02  0.26842426153E+02 -0.30608314992E+01  0.39215642649E+02  0.00000000000E+00 0. -1.
       -2    1    5    5    0  501 -0.66537040081E+01 -0.15265858517E+02 -0.78253510817E+02  0.80005813342E+02  0.00000000000E+00 0.  1.
</event>
<event>
 9   1  0.7570500E-01  0.2500001E+03  0.7546771E-02  0.1113305E+00
       21   -1    0    0  503  502  0.00000000000E+00  0.00000000000E+00  0.75039104907E+02  0.75039104907E+02  0.00000000000E+00 0.  1.
       21   -1    0    0  502  503 -0.00000000000E+00 -0.00000000000E+00 -0.20822498390E+03  0.20822498390E+03  0.00000000000E+00 0.  1.
       25    2    1    2    0    0  0.35527136788E-14  0.00000000000E+00 -0.13318587899E+03  0.28326408880E+03  0.25000013129E+03 0.  0.
       24    2    3    3    0    0 -0.24542930757E+02  0.78650704441E+02 -0.13140469708E+02  0.11715034795E+03  0.82238940416E+02 0.  0.
      -24    2    3    3    0    0  0.24542930757E+02 -0.78650704441E+02 -0.12004540928E+03  0.16611374086E+03  0.79966154418E+02 0.  0.
      -13    1    4    4    0    0  0.26530086927E+02  0.47089039535E+02  0.53926306236E+01  0.54316697448E+02  0.00000000000E+00 0.  1.
       14    1    4    4    0    0 -0.51073017684E+02  0.31561664906E+02 -0.18533100332E+02  0.62833650498E+02  0.00000000000E+00 0. -1.
        3    1    5    5  501    0  0.53021267836E+02 -0.40815020754E+02 -0.62197163968E+02  0.91354299120E+02  0.00000000000E+00 0. -1.
       -4    1    5    5    0  501 -0.28478337079E+02 -0.37835683686E+02 -0.57848245313E+02  0.74759441736E+02  0.00000000000E+00 0.  1.
</event>
<event>
 9   1  0.7570500E-01  0.2500051E+03  0.7546771E-02  0.1113302E+00
       21   -1    0    0  503  502  0.00000000000E+00  0.00000000000E+00  0.23287762126E+03  0.23287762126E+03  0.00000000000E+00 0. -1.
       21   -1    0    0  502  503 -0.00000000000E+00 -0.00000000000E+00 -0.67098089205E+02  0.67098089205E+02  0.00000000000E+00 0. -1.
       25    2    1    2    0    0  0.00000000000E+00  0.00000000000E+00  0.16577953206E+03  0.29997571047E+03  0.25000514719E+03 0.  0.
       24    2    3    3    0    0  0.88623143183E+02 -0.20123336016E+01  0.13500483959E+03  0.17566259689E+03  0.69086396920E+02 0.  0.
      -24    2    3    3    0    0 -0.88623143183E+02  0.20123336016E+01  0.30774692464E+02  0.12431311357E+03  0.81538687236E+02 0.  0.
      -13    1    4    4    0    0  0.30214296231E+02 -0.34202667405E+02  0.57660578273E+02  0.73535491030E+02  0.00000000000E+00 0.  1.
       14    1    4    4    0    0  0.58408846952E+02  0.32190333803E+02  0.77344261319E+02  0.10212710586E+03  0.00000000000E+00 0. -1.
        1    1    5    5  501    0 -0.55170988319E+02 -0.38966618830E+02  0.17355739140E+02  0.69738490207E+02  0.00000000000E+00 0. -1.
       -2    1    5    5    0  501 -0.33452154864E+02  0.40978952432E+02  0.13418953325E+02  0.54574623368E+02  0.00000000000E+00 0.  1.
</event>
<event>
 9   1  0.7570500E-01  0.2499981E+03  0.7546771E-02  0.1113306E+00
       21   -1    0    0  503  502  0.00000000000E+00  0.00000000000E+00  0.18147380808E+03  0.18147380808E+03  0.00000000000E+00 0. -1.
       21   -1    0    0  502  503 -0.00000000000E+00 -0.00000000000E+00 -0.86099264606E+02  0.86099264606E+02  0.00000000000E+00 0. -1.
       25    2    1    2    0    0  0.00000000000E+00  0.71054273576E-14  0.95374543473E+02  0.26757307268E+03  0.24999809136E+03 0.  0.
       24    2    3    3    0    0 -0.42404292275E+01 -0.58084856970E+02  0.12776411735E+03  0.16186126859E+03  0.80520610638E+02 0.  0.
      -24    2    3    3    0    0  0.42404292275E+01  0.58084856970E+02 -0.32389573874E+02  0.10571180410E+03  0.82061374475E+02 0.  0.
      -13    1    4    4    0    0  0.30211576419E+02 -0.25810763430E+02  0.20595992084E+02  0.44756337523E+02  0.00000000000E+00 0.  1.
       14    1    4    4    0    0 -0.34452005646E+02 -0.32274093540E+02  0.10716812526E+03  0.11710493106E+03  0.00000000000E+00 0. -1.
        1    1    5    5  501    0  0.39253913913E+02  0.89342047140E+01 -0.11855394698E+02  0.41967131839E+02  0.00000000000E+00 0. -1.
       -2    1    5    5    0  501 -0.35013484686E+02  0.49150652256E+02 -0.20534179177E+02  0.63744672259E+02  0.00000000000E+00 0.  1.
</event>
<event>
 9   1  0.7570500E-01  0.2499598E+03  0.7546771E-02  0.1113330E+00
       21   -1    0    0  503  502  0.00000000000E+00  0.00000000000E+00  0.74113550726E+02  0.74113550726E+02  0.00000000000E+00 0. -1.
       21   -1    0    0  502  503 -0.00000000000E+00 -0.00000000000E+00 -0.21075735254E+03  0.21075735254E+03  0.00000000000E+00 0. -1.
       25    2    1    2    0    0  0.35527136788E-14  0.00000000000E+00 -0.13664380181E+03  0.28487090326E+03  0.24995980267E+03 0.  0.
       24    2    3    3    0    0 -0.16473349472E+02  0.96252932771E+02 -0.35109731996E+02  0.13105075006E+03  0.80035039210E+02 0.  0.
      -24    2    3    3    0    0  0.16473349472E+02 -0.96252932771E+02 -0.10153406981E+03  0.15382015320E+03  0.61769522319E+02 0.  0.
      -13    1    4    4    0    0 -0.32366596996E+02  0.20107199459E+02  0.12197236521E+02  0.40008357251E+02  0.00000000000E+00 0.  1.
       14    1    4    4    0    0  0.15893247524E+02  0.76145733312E+02 -0.47306968517E+02  0.91042392811E+02  0.00000000000E+00 0. -1.
        3    1    5    5  501    0 -0.35059244500E+01 -0.32607700491E+02 -0.75313887576E+02  0.82144599941E+02  0.00000000000E+00 0. -1.
       -4    1    5    5    0  501  0.19979273922E+02 -0.63645232280E+02 -0.26220182238E+02  0.71675553260E+02  0.00000000000E+00 0.  1.
</event>
<event>
 9   1  0.7570500E-01  0.2499914E+03  0.7546771E-02  0.1113310E+00
       21   -1    0    0  503  502  0.00000000000E+00  0.00000000000E+00  0.37880504255E+02  0.37880504255E+02  0.00000000000E+00 0. -1.
       21   -1    0    0  502  503 -0.00000000000E+00 -0.00000000000E+00 -0.41245283472E+03  0.41245283472E+03  0.00000000000E+00 0. -1.
       25    2    1    2    0    0 -0.17763568394E-14  0.00000000000E+00 -0.37457233047E+03  0.45033333898E+03  0.24999137074E+03 0.  0.
       24    2    3    3    0    0 -0.90436323136E+01 -0.97022513443E+02 -0.17279908859E+03  0.21215381993E+03  0.75196827672E+02 0.  0.
      -24    2    3    3    0    0  0.90436323136E+01  0.97022513443E+02 -0.20177324188E+03  0.23817951905E+03  0.80758199321E+02 0.  0.
      -13    1    4    4    0    0  0.83397056601E+01 -0.32400728685E+02 -0.81645115886E+01  0.34438599845E+02  0.00000000000E+00 0.  1.
       14    1    4    4    0    0 -0.17383337974E+02 -0.64621784758E+02 -0.16463457700E+03  0.17771522008E+03  0.00000000000E+00 0. -1.
        1    1    5    5  501    0  0.43960078861E+02  0.65608426623E+02 -0.11492268048E+03  0.13944237758E+03  0.00000000000E+00 0. -1.
       -2    1    5    5    0  501 -0.34916446547E+02  0.31414086820E+02 -0.86850561395E+02  0.98737141466E+02  0.00000000000E+00 0.  1.
</event>
<event>
 9   1  0.7570500E-01  0.2500013E+03  0.7546771E-02  0.1113304E+00
       21   -1    0    0  503  502  0.00000000000E+00  0.00000000000E+00  0.38394011466E+03  0.38394011466E+03  0.00000000000E+00 0.  1.
       21   -1    0    0  502  503 -0.00000000000E+00 -0.00000000000E+00 -0.40696870301E+02  0.40696870301E+02  0.00000000000E+00 0.  1.
       25    2    1    2    0    0  0.00000000000E+00  0.00000000000E+00  0.34324324436E+03  0.42463698496E+03  0.25000128839E+03 0.  0.
       24    2    3    3    0    0  0.10126696311E+02 -0.55503107792E+02  0.57554609861E+02  0.12253305490E+03  0.92296649309E+02 0.  0.
      -24    2    3    3    0    0 -0.10126696311E+02  0.55503107792E+02  0.28568863450E+03  0.30210393006E+03  0.80409226619E+02 0.  0.
      -13    1    4    4    0    0 -0.40923790880E+02 -0.19486453504E+02  0.29241365178E+02  0.53940114642E+02  0.00000000000E+00 0.  1.
       14    1    4    4    0    0  0.51050487191E+02 -0.36016654289E+02  0.28313244683E+02  0.68592940257E+02  0.00000000000E+00 0. -1.
        1    1    5    5  501    0 -0.42906960174E+02  0.46671313132E+02  0.16601841303E+03  0.17771137320E+03  0.00000000000E+00 0. -1.
       -2    1    5    5    0  501  0.32780263864E+02  0.88317946602E+01  0.11967022147E+03  0.12439255686E+03  0.00000000000E+00 0.  1.
</event>
<event>
 9   1  0.7570500E-01  0.2499997E+03  0.7546771E-02  0.1113305E+00
       21   -1    0    0  503  502  0.00000000000E+00  0.00000000000E+00  0.95670880863E+03  0.95670880863E+03  0.00000000000E+00 0.  1.
       21   -1    0    0  502  503 -0.00000000000E+00 -0.00000000000E+00 -0.16331997740E+02  0.16331997740E+02  0.00000000000E+00 0.  1.
       25    2    1    2    0    0  0.35527136788E-14 -0.71054273576E-14  0.94037681089E+03  0.97304080637E+03  0.24999972881E+03 0.  0.
       24    2    3    3    0    0  0.72476901487E+01  0.36462078791E+02  0.12845687697E+03  0.15618288065E+03  0.80684018030E+02 0.  0.
      -24    2    3    3    0    0 -0.72476901487E+01 -0.36462078791E+02  0.81191993392E+03  0.81685792572E+03  0.81614211453E+02 0.  0.
      -13    1    4    4    0    0 -0.28428254272E+02  0.42114597046E+02  0.90481978571E+02  0.10377279688E+03  0.00000000000E+00 0.  1.
       14    1    4    4    0    0  0.35675944421E+02 -0.56525182550E+01  0.37974898399E+02  0.52410083776E+02  0.00000000000E+00 0. -1.
        1    1    5    5  501    0 -0.90339311228E+01 -0.18379351543E+01  0.69111197373E+03  0.69117345880E+03  0.00000000000E+00 0. -1.
       -2    1    5    5    0  501  0.17862409741E+01 -0.34624143637E+02  0.12080796020E+03  0.12568446693E+03  0.00000000000E+00 0.  1.
</event>
<event>
 8   1  0.7570500E-01  0.2501476E+03  0.7546771E-02  0.1113212E+00
       21   -1    0    0  503  502  0.00000000000E+00  0.00000000000E+00  0.62101015344E+02  0.62101015344E+02  0.00000000000E+00 0. -1.
       21   -1    0    0  502  503 -0.00000000000E+00 -0.00000000000E+00 -0.25190338198E+03  0.25190338198E+03  0.00000000000E+00 0. -1.
       24    2    1    2    0    0 -0.95556923277E+02  0.12084104747E+01 -0.96327627863E+02  0.15838394516E+03  0.81693796298E+02 0.  0.
      -24    2    1    2    0    0  0.95556923277E+02 -0.12084104747E+01 -0.93474738769E+02  0.15562045216E+03  0.79671905334E+02 0.  0.
      -13    1    3    3    0    0 -0.79481569608E+02 -0.13650083810E+02 -0.10703474784E+03  0.13401523026E+03  0.00000000000E+00 0.  1.
       14    1    3    3    0    0 -0.16075353668E+02  0.14858494284E+02  0.10707119978E+02  0.24368714906E+02  0.00000000000E+00 0. -1.
        3    1    4    4  501    0  0.19400386951E+02  0.24039437173E+02 -0.62311099901E+02  0.69548132429E+02  0.00000000000E+00 0. -1.
       -4    1    4    4    0  501  0.76156536325E+02 -0.25247847648E+02 -0.31163638868E+02  0.86072319728E+02  0.00000000000E+00 0.  1.
</event>
<event>
 9   1  0.7570500E-01  0.2500064E+03  0.7546771E-02  0.1113301E+00
       21   -1    0    0  503  502  0.00000000000E+00  0.00000000000E+00  0.70629209534E+02  0.70629209534E+02  0.00000000000E+00 0. -1.
       21   -1    0    0  502  503 -0.00000000000E+00 -0.00000000000E+00 -0.22123713931E+03  0.22123713931E+03  0.00000000000E+00 0. -1.
       25    2    1    2    0    0  0.00000000000E+00  0.00000000000E+00 -0.15060792978E+03  0.29186634884E+03  0.25000643407E+03 0.  0.
       24    2    3    3    0    0  0.59303933390E+02  0.74374997322E+02 -0.85954711342E+02  0.15205494057E+03  0.81755096523E+02 0.  0.
      -24    2    3    3    0    0 -0.59303933390E+02 -0.74374997322E+02 -0.64653218435E+02  0.13981140828E+03  0.79489587292E+02 0.  0.
      -13    1    4    4    0    0 -0.63109048996E+01  0.25774029952E+02 -0.61241462517E+02  0.66743126027E+02  0.00000000000E+00 0.  1.
       14    1    4    4    0    0  0.65614838290E+02  0.48600967370E+02 -0.24713248825E+02  0.85311814542E+02  0.00000000000E+00 0. -1.
        1    1    5    5  501    0  0.14565186288E+02 -0.18948572715E+02 -0.35824997757E+02  0.43065340168E+02  0.00000000000E+00 0. -1.
       -2    1    5    5    0  501 -0.73869119678E+02 -0.55426424607E+02 -0.28828220678E+02  0.96746068107E+02  0.00000000000E+00 0.  1.
</event>
<event>
 9   1  0.7570500E-01  0.2499957E+03  0.7546771E-02  0.1113308E+00
       21   -1    0    0  503  502  0.00000000000E+00  0.00000000000E+00  0.58715226773E+02  0.58715226773E+02  0.00000000000E+00 0.  1.
       21   -1    0    0  502  503 -0.00000000000E+00 -0.00000000000E+00 -0.26610583461E+03  0.26610583461E+03  0.00000000000E+00 0.  1.
       25    2    1    2    0    0 -0.35527136788E-14  0.00000000000E+00 -0.20739060783E+03  0.32482106138E+03  0.24999571536E+03 0.  0.
       24    2    3    3    0    0 -0.27172171050E+02 -0.83658329533E+02 -0.52386701670E+02  0.12838495410E+03  0.77467973692E+02 0.  0.
      -24    2    3    3    0    0  0.27172171050E+02  0.83658329533E+02 -0.15500390616E+03  0.19643610728E+03  0.82606841947E+02 0.  0.
      -13    1    4    4    0    0 -0.54452334332E+02 -0.59151615801E+02 -0.33038533856E+02  0.86922465942E+02  0.00000000000E+00 0.  1.
       14    1    4    4    0    0  0.27280163282E+02 -0.24506713733E+02 -0.19348167814E+02  0.41462488160E+02  0.00000000000E+00 0. -1.
        1    1    5    5  501    0 -0.17650895484E+02  0.58355254102E+02 -0.11872583062E+03  0.13346427481E+03  0.00000000000E+00 0. -1.
       -2    1    5    5    0  501  0.44823066534E+02  0.25303075431E+02 -0.36278075542E+02  0.62971832471E+02  0.00000000000E+00 0.  1.
</event>
<event>
 9   1  0.7570500E-01  0.2499945E+03  0.7546771E-02  0.1113308E+00
       21   -1    0    0  503  502  0.00000000000E+00  0.00000000000E+00  0.44736745981E+02  0.44736745981E+02  0.00000000000E+00 0. -1.
       21   -1    0    0  502  503 -0.00000000000E+00 -0.00000000000E+00 -0.34925021520E+03  0.34925021520E+03  0.00000000000E+00 0. -1.
       25    2    1    2    0    0 -0.71054273576E-14  0.14210854715E-13 -0.30451346922E+03  0.39398696118E+03  0.24999454523E+03 0.  0.
       24    2    3    3    0    0  0.47841158781E+02 -0.66200120261E+02 -0.75586134169E+02  0.13762973991E+03  0.80978078714E+02 0.  0.
      -24    2    3    3    0    0 -0.47841158781E+02  0.66200120261E+02 -0.22892733505E+03  0.25635722127E+03  0.81486610986E+02 0.  0.
      -13    1    4    4    0    0 -0.21927177671E+02 -0.16972419739E+02 -0.83809251907E+01  0.28967292926E+02  0.00000000000E+00 0.  1.
       14    1    4    4    0    0  0.69768336452E+02 -0.49227700522E+02 -0.67205208978E+02  0.10866244698E+03  0.00000000000E+00 0. -1.
        1    1    5    5  501    0 -0.52989384694E+02  0.73432468232E+02 -0.13838177790E+03  0.16537750372E+03  0.00000000000E+00 0. -1.
       -2    1    5    5    0  501  0.51482259126E+01 -0.72323479709E+01 -0.90545557147E+02  0.90979717555E+02  0.00000000000E+00 0.  1.
</event>
<event>
 9   1  0.7570500E-01  0.2500014E+03  0.7546771E-02  0.1113304E+00
       21   -1    0    0  503  502  0.00000000000E+00  0.00000000000E+00  0.16220272218E+03  0.16220272218E+03  0.00000000000E+00 0.  1.
       21   -1    0    0  502  503 -0.00000000000E+00 -0.00000000000E+00 -0.96331172971E+02  0.96331172971E+02  0.00000000000E+00 0.  1.
       25    2    1    2    0    0  0.14210854715E-13  0.00000000000E+00  0.65871549209E+02  0.25853389515E+03  0.25000142789E+03 0.  0.
       24    2    3    3    0    0  0.60906008778E+02  0.73008266401E+02  0.26953223883E+02  0.12737527258E+03  0.80363144026E+02 0.  0.
      -24    2    3    3    0    0 -0.60906008778E+02 -0.73008266401E+02  0.38918325326E+02  0.13115862258E+03  0.81536490980E+02 0.  0.
      -13    1    4    4    0    0  0.65035476971E+02  0.19463155000E+02  0.13952962657E+01  0.67899738726E+02  0.00000000000E+00 0.  1.
       14    1    4    4    0    0 -0.41294681931E+01  0.53545111401E+02  0.25557927617E+02  0.59475533849E+02  0.00000000000E+00 0. -1.
        3    1    5    5  501    0 -0.67437211611E+02 -0.65710153752E+02  0.32965470567E+01  0.94215014931E+02  0.00000000000E+00 0. -1.
       -4    1    5    5    0  501  0.65312028325E+01 -0.72981126493E+01  0.35621778270E+02  0.36943607644E+02  0.00000000000E+00 0.  1.
</event>
<event>
 9   1  0.7570500E-01  0.2499822E+03  0.7546771E-02  0.1113316E+00
       21   -1    0    0  503  502  0.00000000000E+00  0.00000000000E+00  0.16663116157E+03  0.16663116157E+03  0.00000000000E+00 0.  1.
       21   -1    0    0  502  503 -0.00000000000E+00 -0.00000000000E+00 -0.93756639883E+02  0.93756639883E+02  0.00000000000E+00 0.  1.
       25    2    1    2    0    0  0.35527136788E-14 -0.14210854715E-13  0.72874521690E+02  0.26038780145E+03  0.24998222184E+03 0.  0.
       24    2    3    3    0    0 -0.17222423596E+02  0.66624904852E+02  0.97947354568E+02  0.15200316906E+03  0.93679182936E+02 0.  0.
      -24    2    3    3    0    0  0.17222423596E+02 -0.66624904852E+02 -0.25072832879E+02  0.10838463240E+03  0.79894253676E+02 0.  0.
      -13    1    4    4    0    0 -0.40144020171E+02  0.43975535700E+02  0.12719108214E+02  0.60886499402E+02  0.00000000000E+00 0.  1.
       14    1    4    4    0    0  0.22921596575E+02  0.22649369151E+02  0.85228246354E+02  0.91116669655E+02  0.00000000000E+00 0. -1.
        1    1    5    5  501    0  0.26225302427E+02 -0.16437343007E+01 -0.33134764552E+02  0.42289253620E+02  0.00000000000E+00 0. -1.
       -2    1    5    5    0  501 -0.90028788313E+01 -0.64981170551E+02  0.80619316730E+01  0.66095378777E+02  0.00000000000E+00 0.  1.
</event>
<event>
 9   1  0.7570500E-01  0.2500005E+03  0.7546771E-02  0.1113304E+00
       21   -1    0    0  503  502  0.00000000000E+00  0.00000000000E+00  0.29950708894E+03  0.29950708894E+03  0.00000000000E+00 0. -1.
       21   -1    0    0  502  503 -0.00000000000E+00 -0.00000000000E+00 -0.52169265658E+02  0.52169265658E+02  0.00000000000E+00 0. -1.
       25    2    1    2    0    0 -0.71054273576E-14 -0.71054273576E-14  0.24733782328E+03  0.35167635459E+03  0.25000051911E+03 0.  0.
       24    2    3    3    0    0  0.56981501687E+02  0.46767186604E+02  0.39080257272E+02  0.11628916514E+03  0.81005198243E+02 0.  0.
      -24    2    3    3    0    0 -0.56981501687E+02 -0.46767186604E+02  0.20825756601E+03  0.23538718946E+03  0.81251793115E+02 0.  0.
      -13    1    4    4    0    0 -0.36553833109E+01  0.19889287669E+02 -0.19281414610E+02  0.27941341065E+02  0.00000000000E+00 0.  1.
       14    1    4    4    0    0  0.60636884998E+02  0.26877898934E+02  0.58361671882E+02  0.88347824072E+02  0.00000000000E+00 0. -1.
        1    1    5    5  501    0 -0.54527816457E+02  0.77584698771E+01  0.10102979707E+03  0.11506735644E+03  0.00000000000E+00 0. -1.
       -2    1    5    5    0  501 -0.24536852295E+01 -0.54525656481E+02  0.10722776894E+03  0.12031983302E+03  0.00000000000E+00 0.  1.
</event>
<event>
 9   1  0.7570500E-01  0.2500007E+03  0.7546771E-02  0.1113304E+00
       21   -1    0    0  503  502  0.00000000000E+00  0.00000000000E+00  0.35553299759E+03  0.35553299759E+03  0.00000000000E+00 0. -1.
       21   -1    0    0  502  503 -0.00000000000E+00 -0.00000000000E+00 -0.43948332225E+02  0.43948332225E+02  0.00000000000E+00 0. -1.
       25    2    1    2    0    0 -0.35527136788E-14 -0.14210854715E-13  0.31158466537E+03  0.39948132982E+03  0.25000065836E+03 0.  0.
       24    2    3    3    0    0 -0.18407692685E+02 -0.83801428636E+02  0.22141548996E+03  0.25119161511E+03  0.81919995827E+02 0.  0.
      -24    2    3    3    0    0  0.18407692685E+02  0.83801428636E+02  0.90169175413E+02  0.14828971471E+03  0.80609160170E+02 0.  0.
      -13    1    4    4    0    0 -0.70100465834E+01 -0.66290333188E+02  0.22041452981E+03  0.23027399761E+03  0.00000000000E+00 0.  1.
       14    1    4    4    0    0 -0.11397646102E+02 -0.17511095447E+02  0.10009601510E+01  0.20917617495E+02  0.00000000000E+00 0. -1.
        3    1    5    5  501    0  0.33050881883E+02  0.35963722986E+02  0.44592390679E+01  0.49047272884E+02  0.00000000000E+00 0. -1.
       -4    1    5    5    0  501 -0.14643189198E+02  0.47837705650E+02  0.85709936345E+02  0.99242441828E+02  0.00000000000E+00 0.  1.
</event>
<event>
 9   1  0.7570500E-01  0.2500041E+03  0.7546771E-02  0.1113302E+00
       21   -1    0    0  503  502  0.00000000000E+00  0.00000000000E+00  0.62907327197E+02  0.62907327197E+02  0.00000000000E+00 0.  1.
       21   -1    0    0  502  503 -0.00000000000E+00 -0.00000000000E+00 -0.24838943954E+03  0.24838943954E+03  0.00000000000E+00 0.  1.
       25    2    1    2    0    0  0.00000000000E+00 -0.14210854715E-13 -0.18548211234E+03  0.31129676673E+03  0.25000412593E+03 0.  0.
       24    2    3    3    0    0 -0.62463629700E+02 -0.55410283160E+02 -0.34963536184E+02  0.12138375784E+03  0.80867566362E+02 0.  0.
      -24    2    3    3    0    0  0.62463629700E+02  0.55410283160E+02 -0.15051857616E+03  0.18991300889E+03  0.80244031953E+02 0.  0.
      -13    1    4    4    0    0 -0.26518824507E+02 -0.68302774131E+02 -0.38966790912E+02  0.82987515936E+02  0.00000000000E+00 0.  1.
       14    1    4    4    0    0 -0.35944805193E+02  0.12892490971E+02  0.40032547283E+01  0.38396241902E+02  0.00000000000E+00 0. -1.
        1    1    5    5  501    0  0.58004316538E+02  0.10629011517E+02 -0.12491942895E+03  0.13813884447E+03  0.00000000000E+00 0. -1.
       -2    1    5    5    0  501  0.44593131620E+01  0.44781271643E+02 -0.25599147204E+02  0.51774164420E+02  0.00000000000E+00 0.  1.
</event>
<event>
 9   1  0.7570500E-01  0.2499957E+03  0.7546771E-02  0.1113308E+00
       21   -1    0    0  503  502  0.00000000000E+00  0.00000000000E+00  0.17046811405E+03  0.17046811405E+03  0.00000000000E+00 0.  1.
       21   -1    0    0  502  503 -0.00000000000E+00 -0.00000000000E+00 -0.91656204496E+02  0.91656204496E+02  0.00000000000E+00 0.  1.
       25    2    1    2    0    0  0.00000000000E+00  0.00000000000E+00  0.78811909549E+02  0.26212431854E+03  0.24999568253E+03 0.  0.
       24    2    3    3    0    0  0.10098728132E+03 -0.51272804308E+01  0.31606956032E+02  0.12427920092E+03  0.64973841812E+02 0.  0.
      -24    2    3    3    0    0 -0.10098728132E+03  0.51272804308E+01  0.47204953517E+02  0.13784511762E+03  0.80921250741E+02 0.  0.
      -13    1    4    4    0    0  0.14511295725E+02 -0.27204884917E+02  0.58073260387E+01  0.31375284902E+02  0.00000000000E+00 0.  1.
       14    1    4    4    0    0  0.86475985594E+02  0.22077604486E+02  0.25799629993E+02  0.92903916022E+02  0.00000000000E+00 0. -1.
        3    1    5    5  501    0 -0.80369444943E+02 -0.18074097783E+02  0.12451624131E+01  0.82386109997E+02  0.00000000000E+00 0. -1.
       -4    1    5    5    0  501 -0.20617836377E+02  0.23201378214E+02  0.45959791104E+02  0.55459007620E+02  0.00000000000E+00 0.  1.
</event>
<event>
 9   1  0.7570500E-01  0.2500093E+03  0.7546771E-02  0.1113299E+00
       21   -1    0    0  503  502  0.00000000000E+00  0.00000000000E+00  0.13977922749E+04  0.13977922749E+04  0.00000000000E+00 0. -1.
       21   -1    0    0  502  503 -0.00000000000E+00 -0.00000000000E+00 -0.11179169492E+02  0.11179169492E+02  0.00000000000E+00 0. -1.
       25    2    1    2    0    0 -0.35527136788E-14  0.00000000000E+00  0.13866131054E+04  0.14089714444E+04  0.25000925387E+03 0.  0.
       24    2    3    3    0    0 -0.27038436845E+02  0.14498993065E+02  0.11984441011E+04  0.12016208058E+04  0.81749615244E+02 0.  0.
      -24    2    3    3    0    0  0.27038436845E+02 -0.14498993065E+02  0.18816900424E+03  0.20735063853E+03  0.81519416549E+02 0.  0.
      -13    1    4    4    0    0 -0.13351306145E+02 -0.30470142509E+02  0.74601706183E+03  0.74675842379E+03  0.00000000000E+00 0.  1.
       14    1    4    4    0    0 -0.13687130699E+02  0.44969135573E+02  0.45242703930E+03  0.45486238204E+03  0.00000000000E+00 0. -1.
        1    1    5    5  501    0 -0.22740964112E+02 -0.25868714024E+02  0.57063865165E+02  0.66653030850E+02  0.00000000000E+00 0. -1.
       -2    1    5    5    0  501  0.49779400957E+02  0.11369720959E+02  0.13110513908E+03  0.14069760768E+03  0.00000000000E+00 0.  1.
</event>
<event>
 9   1  0.7570500E-01  0.2499930E+03  0.7546771E-02  0.1113309E+00
       21   -1    0    0  503  502  0.00000000000E+00  0.00000000000E+00  0.40145176051E+02  0.40145176051E+02  0.00000000000E+00 0. -1.
       21   -1    0    0  502  503 -0.00000000000E+00 -0.00000000000E+00 -0.38919057636E+03  0.38919057636E+03  0.00000000000E+00 0. -1.
       25    2    1    2    0    0  0.00000000000E+00  0.14210854715E-13 -0.34904540031E+03  0.42933575241E+03  0.24999299355E+03 0.  0.
       24    2    3    3    0    0  0.60320840418E+02 -0.66751480903E+02 -0.23493204449E+03  0.26425945686E+03  0.80905074143E+02 0.  0.
      -24    2    3    3    0    0 -0.60320840418E+02  0.66751480903E+02 -0.11411335582E+03  0.16507629555E+03  0.78319610470E+02 0.  0.
      -13    1    4    4    0    0  0.60393949268E+02 -0.63015982610E+02 -0.24145244537E+03  0.25674447715E+03  0.00000000000E+00 0.  1.
       14    1    4    4    0    0 -0.73108850371E-01 -0.37354982928E+01  0.65204008815E+01  0.75149797109E+01  0.00000000000E+00 0. -1.
        3    1    5    5  501    0 -0.47707379919E+02  0.74222708264E+01 -0.18209290296E+02  0.51600992782E+02  0.00000000000E+00 0. -1.
       -4    1    5    5    0  501 -0.12613460498E+02  0.59329210076E+02 -0.95904065525E+02  0.11347530277E+03  0.00000000000E+00 0.  1.
</event>
<event>
 9   1  0.7570500E-01  0.2499995E+03  0.7546771E-02  0.1113305E+00
       21   -1    0    0  503  502  0.00000000000E+00  0.00000000000E+00  0.23712426795E+02  0.23712426795E+02  0.00000000000E+00 0. -1.
       21   -1    0    0  502  503 -0.00000000000E+00 -0.00000000000E+00 -0.65893477674E+03  0.65893477674E+03  0.00000000000E+00 0. -1.
       25    2    1    2    0    0 -0.71054273576E-14  0.00000000000E+00 -0.63522234995E+03  0.68264720354E+03  0.24999954125E+03 0.  0.
       24    2    3    3    0    0  0.56020814252E+02  0.62819891525E+02 -0.44158178551E+03  0.45678593395E+03  0.81081722722E+02 0.  0.
      -24    2    3    3    0    0 -0.56020814252E+02 -0.62819891525E+02 -0.19364056443E+03  0.22586126958E+03  0.80199591666E+02 0.  0.
      -13    1    4    4    0    0  0.11768362714E+02  0.44942452337E+02 -0.83641037820E+02  0.95677278340E+02  0.00000000000E+00 0.  1.
       14    1    4    4    0    0  0.44252451538E+02  0.17877439188E+02 -0.35794074769E+03  0.36110865561E+03  0.00000000000E+00 0. -1.
        3    1    5    5  501    0 -0.93590214272E+01 -0.42454271181E+02 -0.25989052550E+02  0.50649652280E+02  0.00000000000E+00 0. -1.
       -4    1    5    5    0  501 -0.46661792825E+02 -0.20365620344E+02 -0.16765151188E+03  0.17521161730E+03  0.00000000000E+00 0.  1.
</event>
<event>
 9   1  0.7570500E-01  0.2499997E+03  0.7546771E-02  0.1113305E+00
       21   -1    0    0  503  502  0.00000000000E+00  0.00000000000E+00  0.37120028927E+02  0.37120028927E+02  0.00000000000E+00 0.  1.
       21   -1    0    0  502  503 -0.00000000000E+00 -0.00000000000E+00 -0.42093092071E+03  0.42093092071E+03  0.00000000000E+00 0.  1.
       25    2    1    2    0    0  0.00000000000E+00  0.14210854715E-13 -0.38381089179E+03  0.45805094964E+03  0.24999974362E+03 0.  0.
       24    2    3    3    0    0  0.63405499873E+02  0.67243171473E+02 -0.22254830606E+03  0.25394244971E+03  0.80106914241E+02 0.  0.
      -24    2    3    3    0    0 -0.63405499873E+02 -0.67243171473E+02 -0.16126258572E+03  0.20410849993E+03  0.84337160645E+02 0.  0.
      -13    1    4    4    0    0  0.31703479598E+02  0.52100800408E+02 -0.20649971857E+03  0.21531776005E+03  0.00000000000E+00 0.  1.
       14    1    4    4    0    0  0.31702020276E+02  0.15142371065E+02 -0.16048587491E+02  0.38624689662E+02  0.00000000000E+00 0. -1.
        3    1    5    5  501    0 -0.25808346287E+02 -0.80810315722E+02 -0.11624526801E+03  0.14390740148E+03  0.00000000000E+00 0. -1.
       -4    1    5    5    0  501 -0.37597153586E+02  0.13567144249E+02 -0.45017317710E+02  0.60201098451E+02  0.00000000000E+00 0.  1.
</event>
<event>
 9   1  0.7570500E-01  0.2499406E+03  0.7546771E-02  0.1113342E+00
       21   -1    0    0  503  502  0.00000000000E+00  0.00000000000E+00  0.57341867995E+02  0.57341867995E+02  0.00000000000E+00 0. -1.
       21   -1    0    0  502  503 -0.00000000000E+00 -0.00000000000E+00 -0.27235898806E+03  0.27235898806E+03  0.00000000000E+00 0. -1.
       25    2    1    2    0    0  0.00000000000E+00  0.71054273576E-14 -0.21501712007E+03  0.32970085606E+03  0.24994057806E+03 0.  0.
       24    2    3    3    0    0  0.75073075465E+02 -0.49398957022E+02 -0.15015602507E+03  0.19251544348E+03  0.80244255242E+02 0.  0.
      -24    2    3    3    0    0 -0.75073075465E+02  0.49398957022E+02 -0.64861094991E+02  0.13718541257E+03  0.80849565021E+02 0.  0.
      -13    1    4    4    0    0  0.79330376625E+02 -0.17425084935E+02 -0.74271743664E+02  0.11006013878E+03  0.00000000000E+00 0.  1.
       14    1    4    4    0    0 -0.42573011606E+01 -0.31973872087E+02 -0.75884281411E+02  0.82455304709E+02  0.00000000000E+00 0. -1.
        3    1    5    5  501    0  0.18138152741E+01  0.49094190834E+01 -0.46098595971E+02  0.46394750480E+02  0.00000000000E+00 0. -1.
       -4    1    5    5    0  501 -0.76886890739E+02  0.44489537938E+02 -0.18762499021E+02  0.90790662091E+02  0.00000000000E+00 0.  1.
</event>
<event>
 9   1  0.7570500E-01  0.2500002E+03  0.7546771E-02  0.1113305E+00
       21   -1    0    0  503  502  0.00000000000E+00  0.00000000000E+00  0.63082807713E+03  0.63082807713E+03  0.00000000000E+00 0. -1.
       21   -1    0    0  502  503 -0.00000000000E+00 -0.00000000000E+00 -0.24769068180E+02  0.24769068180E+02  0.00000000000E+00 0. -1.
       25    2    1    2    0    0 -0.14210854715E-13 -0.17763568394E-14  0.60605900895E+03  0.65559714531E+03  0.25000018922E+03 0.  0.
       24    2    3    3    0    0  0.96563386039E+02 -0.30914792870E+00  0.25923703980E+03  0.28682579278E+03  0.75766810032E+02 0.  0.
      -24    2    3    3    0    0 -0.96563386039E+02  0.30914792870E+00  0.34682196915E+03  0.36877135253E+03  0.79888979635E+02 0.  0.
      -13    1    4    4    0    0  0.67876631173E+02 -0.16194025992E+02  0.87162712502E+02  0.11165492371E+03  0.00000000000E+00 0.  1.
       14    1    4    4    0    0  0.28686754866E+02  0.15884878064E+02  0.17207432730E+03  0.17517086907E+03  0.00000000000E+00 0. -1.
        1    1    5    5  501    0  0.38342226888E+01 -0.21456824475E+02  0.46256997911E+02  0.51135178066E+02  0.00000000000E+00 0. -1.
       -2    1    5    5    0  501 -0.10039760873E+03  0.21765972403E+02  0.30056497124E+03  0.31763617446E+03  0.00000000000E+00 0.  1.
</event>
<event>
 9   1  0.7570500E-01  0.2500066E+03  0.7546771E-02  0.1113301E+00
       21   -1    0    0  503  502  0.00000000000E+00  0.00000000000E+00  0.55780895587E+03  0.55780895587E+03  0.00000000000E+00 0.  1.
       21   -1    0    0  502  503 -0.00000000000E+00 -0.00000000000E+00 -0.28012871262E+02  0.28012871262E+02  0.00000000000E+00 0.  1.
       25    2    1    2    0    0  0.71054273576E-14  0.00000000000E+00  0.52979608461E+03  0.58582182714E+03  0.25000664367E+03 0.  0.
       24    2    3    3    0    0  0.33019516423E+02  0.63930935646E+02  0.41231113704E+03  0.42628293212E+03  0.80865391178E+02 0.  0.
      -24    2    3    3    0    0 -0.33019516423E+02 -0.63930935646E+02  0.11748494757E+03  0.15953889501E+03  0.80451806195E+02 0.  0.
      -13    1    4    4    0    0  0.52487051369E+02  0.62702065142E+02  0.25557149756E+03  0.26833417580E+03  0.00000000000E+00 0.  1.
       14    1    4    4    0    0 -0.19467534946E+02  0.12288705031E+01  0.15673963948E+03  0.15794875633E+03  0.00000000000E+00 0. -1.
        1    1    5    5  501    0 -0.29817411582E+02 -0.87771515655E+01  0.15589443327E+01  0.31121483423E+02  0.00000000000E+00 0. -1.
       -2    1    5    5    0  501 -0.32021048414E+01 -0.55153784080E+02  0.11592600323E+03  0.12841741159E+03  0.00000000000E+00 0.  1.
</event>
<event>
 9   1  0.7570500E-01  0.2500006E+03  0.7546771E-02  0.1113304E+00
       21   -1    0    0  503  502  0.00000000000E+00  0.00000000000E+00  0.12343317536E+04  0.12343317536E+04  0.00000000000E+00 0. -1.
       21   -1    0    0  502  503 -0.00000000000E+00 -0.00000000000E+00 -0.12658736010E+02  0.12658736010E+02  0.00000000000E+00 0. -1.
       25    2    1    2    0    0 -0.14210854715E-13  0.00000000000E+00  0.12216730176E+04  0.12469904896E+04  0.25000063854E+03 0.  0.
       24    2    3    3    0    0 -0.94846545131E+02 -0.13162150952E+02  0.70880754181E+03  0.71976044701E+03  0.80485156469E+02 0.  0.
      -24    2    3    3    0    0  0.94846545131E+02  0.13162150952E+02  0.51286547577E+03  0.52723004259E+03  0.75969811317E+02 0.  0.
      -13    1    4    4    0    0 -0.81095576308E+02 -0.68192613057E-01  0.30780724434E+03  0.31831084935E+03  0.00000000000E+00 0.  1.
       14    1    4    4    0    0 -0.13750968822E+02 -0.13093958339E+02  0.40100029747E+03  0.40144959765E+03  0.00000000000E+00 0. -1.
        1    1    5    5  501    0  0.55103546827E+02  0.16436030210E+02  0.12822906769E+03  0.14053198128E+03  0.00000000000E+00 0. -1.
       -2    1    5    5    0  501  0.39742998304E+02 -0.32738792578E+01  0.38463640808E+03  0.38669806131E+03  0.00000000000E+00 0.  1.
</event>
<event>
 9   1  0.7570500E-01  0.2500002E+03  0.7546771E-02  0.1113305E+00
       21   -1    0    0  503  502  0.00000000000E+00  0.00000000000E+00  0.13595978161E+03  0.13595978161E+03  0.00000000000E+00 0.  1.
       21   -1    0    0  502  503 -0.00000000000E+00 -0.00000000000E+00 -0.11492386468E+03  0.11492386468E+03  0.00000000000E+00 0.  1.
       25    2    1    2    0    0  0.00000000000E+00  0.00000000000E+00  0.21035916922E+02  0.25088364629E+03  0.25000018835E+03 0.  0.
       24    2    3    3    0    0  0.71935141524E+02 -0.30365297722E+02 -0.48530841609E+02  0.12155621683E+03  0.79523300808E+02 0.  0.
      -24    2    3    3    0    0 -0.71935141524E+02  0.30365297722E+02  0.69566758531E+02  0.12932742946E+03  0.76087674599E+02 0.  0.
      -13    1    4    4    0    0  0.34654912384E+02 -0.44717944624E+02  0.26434714291E+01  0.56636079181E+02  0.00000000000E+00 0.  1.
       14    1    4    4    0    0  0.37280229139E+02  0.14352646902E+02 -0.51174313038E+02  0.64920137651E+02  0.00000000000E+00 0. -1.
        1    1    5    5  501    0 -0.15305969014E+02  0.39859240423E+02  0.55834201993E+02  0.70288618188E+02  0.00000000000E+00 0. -1.
       -2    1    5    5    0  501 -0.56629172509E+02 -0.94939427011E+01  0.13732556538E+02  0.59038811270E+02  0.00000000000E+00 0.  1.
</event>
<event>
 9   1  0.7570500E-01  0.2500025E+03  0.7546771E-02  0.1113303E+00
       21   -1    0    0  503  502  0.00000000000E+00  0.00000000000E+00  0.10880508874E+03  0.10880508874E+03  0.00000000000E+00 0. -1.
       21   -1    0    0  502  503 -0.00000000000E+00 -0.00000000000E+00 -0.14360824447E+03  0.14360824447E+03  0.00000000000E+00 0. -1.
       25    2    1    2    0    0  0.00000000000E+00  0.00000000000E+00 -0.34803155729E+02  0.25241333321E+03  0.25000246225E+03 0.  0.
       24    2    3    3    0    0 -0.14360916603E+02  0.67447518841E+02  0.47899184432E+02  0.11613144842E+03  0.80229531472E+02 0.  0.
      -24    2    3    3    0    0  0.14360916603E+02 -0.67447518841E+02 -0.82702340162E+02  0.13628188478E+03  0.83532456735E+02 0.  0.
      -13    1    4    4    0    0 -0.22372516019E+02 -0.11069567341E+02  0.21393760860E+02  0.32874880956E+02  0.00000000000E+00 0.  1.
       14    1    4    4    0    0  0.80115994157E+01  0.78517086182E+02  0.26505423572E+02  0.83256567468E+02  0.00000000000E+00 0. -1.
        1    1    5    5  501    0  0.47449715018E+02 -0.35108666631E+02 -0.30204121825E+02  0.66305225308E+02  0.00000000000E+00 0. -1.
       -2    1    5    5    0  501 -0.33088798414E+02 -0.32338852210E+02 -0.52498218337E+02  0.69976659475E+02  0.00000000000E+00 0.  1.
</event>
<event>
 9   1  0.7570500E-01  0.2500079E+03  0.7546771E-02  0.1113300E+00
       21   -1    0    0  503  502  0.00000000000E+00  0.00000000000E+00  0.16817338477E+02  0.16817338477E+02  0.00000000000E+00 0. -1.
       21   -1    0    0  502  503 -0.00000000000E+00 -0.00000000000E+00 -0.92915961909E+03  0.92915961909E+03  0.00000000000E+00 0. -1.
       25    2    1    2    0    0  0.00000000000E+00  0.00000000000E+00 -0.91234228062E+03  0.94597695757E+03  0.25000793438E+03 0.  0.
       24    2    3    3    0    0  0.81429499951E+02 -0.34943063627E+00 -0.26002123858E+03  0.28362922733E+03  0.78762989521E+02 0.  0.
      -24    2    3    3    0    0 -0.81429499951E+02  0.34943063627E+00 -0.65232104203E+03  0.66234773024E+03  0.80937558081E+02 0.  0.
      -13    1    4    4    0    0  0.80300643303E+02  0.24368892581E+02 -0.16092883924E+03  0.18149415291E+03  0.00000000000E+00 0.  1.
       14    1    4    4    0    0  0.11288566485E+01 -0.24718323217E+02 -0.99092399345E+02  0.10213507443E+03  0.00000000000E+00 0. -1.
        1    1    5    5  501    0 -0.69452838348E+02 -0.96892988546E+01 -0.24797432321E+03  0.25769913511E+03  0.00000000000E+00 0. -1.
       -2    1    5    5    0  501 -0.11976661603E+02  0.10038729491E+02 -0.40434671883E+03  0.40464859513E+03  0.00000000000E+00 0.  1.
</event>
<event>
 9   1  0.7570500E-01  0.2500019E+03  0.7546771E-02  0.1113304E+00
       21   -1    0    0  503  502  0.00000000000E+00  0.00000000000E+00  0.12940979104E+02  0.12940979104E+02  0.00000000000E+00 0.  1.
       21   -1    0    0  502  503 -0.00000000000E+00 -0.00000000000E+00 -0.12074231972E+04  0.12074231972E+04  0.00000000000E+00 0.  1.
       25    2    1    2    0    0  0.00000000000E+00  0.00000000000E+00 -0.11944822181E+04  0.12203641763E+04  0.25000190691E+03 0.  0.
       24    2    3    3    0    0  0.37484808048E+02  0.12836828319E+02 -0.17215073053E+03  0.19398629034E+03  0.80155547654E+02 0.  0.
      -24    2    3    3    0    0 -0.37484808048E+02 -0.12836828319E+02 -0.10223314876E+04  0.10263778860E+04  0.81975602142E+02 0.  0.
      -13    1    4    4    0    0  0.56596888004E+02  0.21686376331E+02 -0.15625930086E+03  0.16760213529E+03  0.00000000000E+00 0.  1.
       14    1    4    4    0    0 -0.19112079955E+02 -0.88495480119E+01 -0.15891429674E+02  0.26384155043E+02  0.00000000000E+00 0. -1.
        1    1    5    5  501    0 -0.11648521294E+02 -0.39644266384E+02 -0.27173805398E+03  0.27486164862E+03  0.00000000000E+00 0. -1.
       -2    1    5    5    0  501 -0.25836286755E+02  0.26807438065E+02 -0.75059343360E+03  0.75151623735E+03  0.00000000000E+00 0.  1.
</event>
<event>
 9   1  0.7570500E-01  0.2500256E+03  0.7546771E-02  0.1113289E+00
       21   -1    0    0  503  502  0.00000000000E+00  0.00000000000E+00  0.42946046579E+03  0.42946046579E+03  0.00000000000E+00 0. -1.
       21   -1    0    0  502  503 -0.00000000000E+00 -0.00000000000E+00 -0.36390309472E+02  0.36390309472E+02  0.00000000000E+00 0. -1.
       25    2    1    2    0    0  0.00000000000E+00 -0.14210854715E-13  0.39307015632E+03  0.46585077527E+03  0.25002559274E+03 0.  0.
       24    2    3    3    0    0 -0.86091466903E+02 -0.37473052341E+02  0.21294361427E+03  0.24698631736E+03  0.82712077593E+02 0.  0.
      -24    2    3    3    0    0  0.86091466903E+02  0.37473052341E+02  0.18012654206E+03  0.21886445791E+03  0.81486866777E+02 0.  0.
      -13    1    4    4    0    0 -0.64104511982E+02 -0.58205359304E+00  0.18489185242E+03  0.19569037875E+03  0.00000000000E+00 0.  1.
       14    1    4    4    0    0 -0.21986954921E+02 -0.36890998748E+02  0.28051761848E+02  0.51295938612E+02  0.00000000000E+00 0. -1.
        3    1    5    5  501    0  0.64285865455E+02  0.12559518289E+02  0.17301767696E+03  0.18500143388E+03  0.00000000000E+00 0. -1.
       -4    1    5    5    0  501  0.21805601448E+02  0.24913534051E+02  0.71088650971E+01  0.33863024030E+02  0.00000000000E+00 0.  1.
</event>
<event>
 9   1  0.7570500E-01  0.2500005E+03  0.7546771E-02  0.1113305E+00
       21   -1    0    0  503  502  0.00000000000E+00  0.00000000000E+00  0.21239087041E+04  0.21239087041E+04  0.00000000000E+00 0. -1.
       21   -1    0    0  502  503 -0.00000000000E+00 -0.00000000000E+00 -0.73567486216E+01  0.73567486216E+01  0.00000000000E+00 0. -1.
       25    2    1    2    0    0  0.00000000000E+00 -0.14210854715E-13  0.21165519555E+04  0.21312654527E+04  0.25000049945E+03 0.  0.
       24    2    3    3    0    0 -0.46821321553E+02 -0.85235361317E+02  0.12726311501E+04  0.12778674823E+04  0.62433607469E+02 0.  0.
      -24    2    3    3    0    0  0.46821321553E+02  0.85235361317E+02  0.84392080543E+03  0.85339797039E+03  0.81415398219E+02 0.  0.
      -13    1    4    4    0    0 -0.38763066183E+02 -0.89469540201E+02  0.12441950590E+04  0.12480099033E+04  0.00000000000E+00 0.  1.
       14    1    4    4    0    0 -0.80582553701E+01  0.42341788847E+01  0.28436091032E+02  0.29857578998E+02  0.00000000000E+00 0. -1.
        1    1    5    5  501    0  0.35687565255E+02  0.48632797365E+01  0.13054221342E+03  0.13541980390E+03  0.00000000000E+00 0. -1.
       -2    1    5    5    0  501  0.11133756298E+02  0.80372081580E+02  0.71337859201E+03  0.71797816649E+03  0.00000000000E+00 0.  1.
</event>
<event>
 9   1  0.7570500E-01  0.2499986E+03  0.7546771E-02  0.1113306E+00
       21   -1    0    0  503  502  0.00000000000E+00  0.00000000000E+00  0.15921967603E+03  0.15921967603E+03  0.00000000000E+00 0.  1.
       21   -1    0    0  502  503 -0.00000000000E+00 -0.00000000000E+00 -0.98133788890E+02  0.98133788890E+02  0.00000000000E+00 0.  1.
       25    2    1    2    0    0  0.14210854715E-13  0.00000000000E+00  0.61085887140E+02  0.25735346492E+03  0.24999864059E+03 0.  0.
       24    2    3    3    0    0  0.73586290028E+02 -0.64280144159E+02  0.36163897722E+02  0.13139939246E+03  0.80069306395E+02 0.  0.
      -24    2    3    3    0    0 -0.73586290028E+02  0.64280144159E+02  0.24921989418E+02  0.12595407246E+03  0.75474789169E+02 0.  0.
      -13    1    4    4    0    0  0.33128262723E+02 -0.36585921896E+02 -0.23091138208E+02  0.54490477478E+02  0.00000000000E+00 0.  1.
       14    1    4    4    0    0  0.40458027305E+02 -0.27694222263E+02  0.59255035931E+02  0.76908914980E+02  0.00000000000E+00 0. -1.
        1    1    5    5  501    0 -0.68850470273E+02  0.11009402009E+02  0.10064166379E+02  0.70447722704E+02  0.00000000000E+00 0. -1.
       -2    1    5    5    0  501 -0.47358197558E+01  0.53270742150E+02  0.14857823039E+02  0.55506349758E+02  0.00000000000E+00 0.  1.
</event>
<event>
 9   1  0.7570500E-01  0.2500006E+03  0.7546771E-02  0.1113304E+00
       21   -1    0    0  503  502  0.00000000000E+00  0.00000000000E+00  0.25348083257E+02  0.25348083257E+02  0.00000000000E+00 0. -1.
       21   -1    0    0  502  503 -0.00000000000E+00 -0.00000000000E+00 -0.61642053372E+03  0.61642053372E+03  0.00000000000E+00 0. -1.
       25    2    1    2    0    0  0.00000000000E+00  0.14210854715E-13 -0.59107245046E+03  0.64176861698E+03  0.25000063208E+03 0.  0.
       24    2    3    3    0    0  0.22173352079E+00 -0.92142329018E+02 -0.23630704301E+03  0.26629703510E+03  0.81134668066E+02 0.  0.
      -24    2    3    3    0    0 -0.22173352079E+00  0.92142329018E+02 -0.35476540745E+03  0.37547158188E+03  0.81425773018E+02 0.  0.
      -13    1    4    4    0    0 -0.21686197874E+02 -0.12829765292E+02 -0.12703361983E+03  0.12950843456E+03  0.00000000000E+00 0.  1.
       14    1    4    4    0    0  0.21907931395E+02 -0.79312563726E+02 -0.10927342319E+03  0.13678860054E+03  0.00000000000E+00 0. -1.
        1    1    5    5  501    0 -0.23244252742E+02  0.31707990965E+02 -0.24449734756E+03  0.24763813305E+03  0.00000000000E+00 0. -1.
       -2    1    5    5    0  501  0.23022519221E+02  0.60434338053E+02 -0.11026805989E+03  0.12783344883E+03  0.00000000000E+00 0.  1.
</event>
<event>
 9   1  0.7570500E-01  0.2499995E+03  0.7546771E-02  0.1113305E+00
       21   -1    0    0  503  502  0.00000000000E+00  0.00000000000E+00  0.54057277963E+02  0.54057277963E+02  0.00000000000E+00 0. -1.
       21   -1    0    0  502  503 -0.00000000000E+00 -0.00000000000E+00 -0.28904408368E+03  0.28904408368E+03  0.00000000000E+00 0. -1.
       25    2    1    2    0    0  0.13322676296E-14  0.00000000000E+00 -0.23498680572E+03  0.34310136164E+03  0.24999949100E+03 0.  0.
       24    2    3    3    0    0 -0.23882657510E+01 -0.60944270934E+02 -0.16475680465E+02  0.10295298129E+03  0.81289361771E+02 0.  0.
      -24    2    3    3    0    0  0.23882657510E+01  0.60944270934E+02 -0.21851112525E+03  0.24014838035E+03  0.78766901384E+02 0.  0.
      -13    1    4    4    0    0 -0.61410552942E+01 -0.30741382139E+02 -0.49152155556E+02  0.58298194927E+02  0.00000000000E+00 0.  1.
       14    1    4    4    0    0  0.37527895432E+01 -0.30202888795E+02  0.32676475091E+02  0.44654786365E+02  0.00000000000E+00 0. -1.
        3    1    5    5  501    0 -0.25141794214E+02  0.50902774367E+01 -0.12631439916E+03  0.12889277782E+03  0.00000000000E+00 0. -1.
       -4    1    5    5    0  501  0.27530059965E+02  0.55853993497E+02 -0.92196726095E+02  0.11125560253E+03  0.00000000000E+00 0.  1.
</event>
<event>
 8   1  0.7570500E-01  0.2507959E+03  0.7546771E-02  0.1112803E+00
       21   -1    0    0  503  502  0.00000000000E+00  0.00000000000E+00  0.83529207675E+02  0.83529207675E+02  0.00000000000E+00 0.  1.
       21   -1    0    0  502  503 -0.00000000000E+00 -0.00000000000E+00 -0.18825331155E+03  0.18825331155E+03  0.00000000000E+00 0.  1.
       24    2    1    2    0    0 -0.92485652207E+02  0.20824646949E+02 -0.76655957963E+02  0.14465962418E+03  0.77865327278E+02 0.  0.
      -24    2    1    2    0    0  0.92485652207E+02 -0.20824646949E+02 -0.28068145908E+02  0.12712289504E+03  0.79907120108E+02 0.  0.
      -13    1    3    3    0    0 -0.72784163907E+02  0.10701900461E+02 -0.97836676403E+01  0.74214455072E+02  0.00000000000E+00 0.  1.
       14    1    3    3    0    0 -0.19701488300E+02  0.10122746488E+02 -0.66872290323E+02  0.70445169108E+02  0.00000000000E+00 0. -1.
        3    1    4    4  501    0  0.79111007270E+01 -0.30834699954E+02  0.10653173862E+02  0.33568651288E+02  0.00000000000E+00 0. -1.
       -4    1    4    4    0  501  0.84574551480E+02  0.10010053005E+02 -0.38721319770E+02  0.93554243752E+02  0.00000000000E+00 0.  1.
</event>
<event>
 9   1  0.7570500E-01  0.2500031E+03  0.7546771E-02  0.1113303E+00
       21   -1    0    0  503  502  0.00000000000E+00  0.00000000000E+00  0.18219526406E+03  0.18219526406E+03  0.00000000000E+00 0. -1.
       21   -1    0    0  502  503 -0.00000000000E+00 -0.00000000000E+00 -0.85761784096E+02  0.85761784096E+02  0.00000000000E+00 0. -1.
       25    2    1    2    0    0  0.71054273576E-14  0.00000000000E+00  0.96433479961E+02  0.26795704815E+03  0.25000312717E+03 0.  0.
       24    2    3    3    0    0  0.35889101645E+02  0.62730943387E+02  0.11720201905E+03  0.15926956516E+03  0.80045501078E+02 0.  0.
      -24    2    3    3    0    0 -0.35889101645E+02 -0.62730943387E+02 -0.20768539087E+02  0.10868748299E+03  0.78475715146E+02 0.  0.
      -13    1    4    4    0    0 -0.10615499260E+02  0.51233943667E+02  0.90205810610E+02  0.10428180127E+03  0.00000000000E+00 0.  1.
       14    1    4    4    0    0  0.46504600905E+02  0.11496999720E+02  0.26996208438E+02  0.54987763893E+02  0.00000000000E+00 0. -1.
        3    1    5    5  501    0 -0.36290493870E+01  0.17063048465E+02 -0.13973376955E+02  0.22351127173E+02  0.00000000000E+00 0. -1.
       -4    1    5    5    0  501 -0.32260052258E+02 -0.79793991852E+02 -0.67951621323E+01  0.86336355817E+02  0.00000000000E+00 0.  1.
</event>
<event>
 9   1  0.7570500E-01  0.2500051E+03  0.7546771E-02  0.1113302E+00
       21   -1    0    0  503  502  0.00000000000E+00  0.00000000000E+00  0.44979296027E+03  0.44979296027E+03  0.00000000000E+00 0.  1.
       21   -1    0    0  502  503 -0.00000000000E+00 -0.00000000000E+00 -0.34739629247E+02  0.34739629247E+02  0.00000000000E+00 0.  1.
       25    2    1    2    0    0  0.00000000000E+00 -0.71054273576E-14  0.41505333102E+03  0.48453258952E+03  0.25000512537E+03 0.  0.
       24    2    3    3    0    0 -0.51138655434E+02 -0.55823387686E+02  0.94355390197E+02  0.14529983400E+03  0.80484094139E+02 0.  0.
      -24    2    3    3    0    0  0.51138655434E+02  0.55823387686E+02  0.32069794083E+03  0.33923275552E+03  0.80624316883E+02 0.  0.
      -13    1    4    4    0    0  0.11588960353E+02 -0.41510928068E+02  0.55012922010E+02  0.69884781886E+02  0.00000000000E+00 0.  1.
       14    1    4    4    0    0 -0.62727615787E+02 -0.14312459618E+02  0.39342468187E+02  0.75415052116E+02  0.00000000000E+00 0. -1.
        1    1    5    5  501    0  0.45674500400E+01 -0.20105822384E+02  0.78920654215E+02  0.81569451116E+02  0.00000000000E+00 0. -1.
       -2    1    5    5    0  501  0.46571205394E+02  0.75929210070E+02  0.24177728661E+03  0.25766330440E+03  0.00000000000E+00 0.  1.
</event>
<event>
 9   1  0.7570500E-01  0.2500020E+03  0.7546771E-02  0.1113304E+00
       21   -1    0    0  503  502  0.00000000000E+00  0.00000000000E+00  0.57067284504E+03  0.57067284504E+03  0.00000000000E+00 0.  1.
       21   -1    0    0  502  503 -0.00000000000E+00 -0.00000000000E+00 -0.27380389285E+02  0.27380389285E+02  0.00000000000E+00 0.  1.
       25    2    1    2    0    0  0.00000000000E+00  0.35527136788E-14  0.54329245576E+03  0.59805323433E+03  0.25000195721E+03 0.  0.
       24    2    3    3    0    0 -0.51821946584E+02  0.13997257803E+02  0.93997896232E+02  0.13472938735E+03  0.80218239481E+02 0.  0.
      -24    2    3    3    0    0  0.51821946584E+02 -0.13997257803E+02  0.44929455953E+03  0.46332384698E+03  0.99608978445E+02 0.  0.
      -13    1    4    4    0    0 -0.40444848458E+02 -0.18541237352E+02  0.89523425197E+02  0.99970030051E+02  0.00000000000E+00 0.  1.
       14    1    4    4    0    0 -0.11377098125E+02  0.32538495155E+02  0.44744710348E+01  0.34759357297E+02  0.00000000000E+00 0. -1.
        3    1    5    5  501    0  0.42836909196E+02  0.26575244250E+02  0.37348616445E+03  0.37687286906E+03  0.00000000000E+00 0. -1.
       -4    1    5    5    0  501  0.89850373877E+01 -0.40572502053E+02  0.75808395078E+02  0.86450977924E+02  0.00000000000E+00 0.  1.
</event>
<event>
 9   1  0.7570500E-01  0.2499971E+03  0.7546771E-02  0.1113307E+00
       21   -1    0    0  503  502  0.00000000000E+00  0.00000000000E+00  0.33956335456E+03  0.33956335456E+03  0.00000000000E+00 0.  1.
       21   -1    0    0  502  503 -0.00000000000E+00 -0.00000000000E+00 -0.46013904175E+02  0.46013904175E+02  0.00000000000E+00 0.  1.
       25    2    1    2    0    0  0.14210854715E-13  0.00000000000E+00  0.29354945038E+03  0.38557725873E+03  0.24999708525E+03 0.  0.
       24    2    3    3    0    0  0.49120230404E+02 -0.22411775677E+02  0.27049865483E+03  0.28899730145E+03  0.86225479152E+02 0.  0.
      -24    2    3    3    0    0 -0.49120230404E+02  0.22411775677E+02  0.23050795553E+02  0.96579957285E+02  0.76689401155E+02 0.  0.
      -13    1    4    4    0    0  0.60244113399E+02  0.13899237198E+02  0.13911461249E+03  0.15223474440E+03  0.00000000000E+00 0.  1.
       14    1    4    4    0    0 -0.11123882995E+02 -0.36311012875E+02  0.13138404234E+03  0.13676255705E+03  0.00000000000E+00 0. -1.
        3    1    5    5  501    0  0.34013397477E+01  0.37827050409E+02  0.16653248905E+02  0.41470297248E+02  0.00000000000E+00 0. -1.
       -4    1    5    5    0  501 -0.52521570152E+02 -0.15415274732E+02  0.63975466477E+01  0.55109660037E+02  0.00000000000E+00 0.  1.
</event>
<event>
 9   1  0.7570500E-01  0.2500007E+03  0.7546771E-02  0.1113304E+00
       21   -1    0    0  503  502  0.00000000000E+00  0.00000000000E+00  0.47613820817E+03  0.47613820817E+03  0.00000000000E+00 0. -1.
       21   -1    0    0  502  503 -0.00000000000E+00 -0.00000000000E+00 -0.32816289916E+02  0.32816289916E+02  0.00000000000E+00 0. -1.
       25    2    1    2    0    0 -0.71054273576E-14  0.00000000000E+00  0.44332191825E+03  0.50895449808E+03  0.25000071583E+03 0.  0.
       24    2    3    3    0    0 -0.53021995404E+02  0.66370520305E+02  0.30063051346E+03  0.32385115053E+03  0.85349189304E+02 0.  0.
      -24    2    3    3    0    0  0.53021995404E+02 -0.66370520305E+02  0.14269140479E+03  0.18510334755E+03  0.81768174197E+02 0.  0.
      -13    1    4    4    0    0 -0.65141702190E+02  0.41317875790E+02  0.13157955553E+03  0.15252471163E+03  0.00000000000E+00 0.  1.
       14    1    4    4    0    0  0.12119706786E+02  0.25052644515E+02  0.16905095793E+03  0.17132643890E+03  0.00000000000E+00 0. -1.
        3    1    5    5  501    0  0.28456400719E+02 -0.24425169964E+02  0.12937829784E+03  0.13470374761E+03  0.00000000000E+00 0. -1.
       -4    1    5    5    0  501  0.24565594685E+02 -0.41945350341E+02  0.13313106958E+02  0.50399599942E+02  0.00000000000E+00 0.  1.
</event>
<event>
 9   1  0.7570500E-01  0.2499993E+03  0.7546771E-02  0.1113305E+00
       21   -1    0    0  503  502  0.00000000000E+00  0.00000000000E+00  0.12810690225E+04  0.12810690225E+04  0.00000000000E+00 0.  1.
       21   -1    0    0  502  503 -0.00000000000E+00 -0.00000000000E+00 -0.12196775719E+02  0.12196775719E+02  0.00000000000E+00 0.  1.
       25    2    1    2    0    0  0.71054273576E-14  0.00000000000E+00  0.12688722468E+04  0.12932657982E+04  0.24999929239E+03 0.  0.
       24    2    3    3    0    0  0.62063534036E+02 -0.33841509466E+02  0.96340289986E+03  0.96945916225E+03  0.81907202341E+02 0.  0.
      -24    2    3    3    0    0 -0.62063534036E+02  0.33841509466E+02  0.30546934691E+03  0.32380663595E+03  0.80883159978E+02 0.  0.
      -13    1    4    4    0    0  0.14171603555E+02 -0.34650265614E+02  0.14837162374E+03  0.15302161281E+03  0.00000000000E+00 0.  1.
       14    1    4    4    0    0  0.47891930482E+02  0.80875614782E+00  0.81503127612E+03  0.81643754944E+03  0.00000000000E+00 0. -1.
        1    1    5    5  501    0 -0.60847974076E+02 -0.59316874093E+01  0.23557700475E+03  0.24338074293E+03  0.00000000000E+00 0. -1.
       -2    1    5    5    0  501 -0.12155599601E+01  0.39773196875E+02  0.69892342158E+02  0.80425893020E+02  0.00000000000E+00 0.  1.
</event>
<event>
 9   1  0.7570500E-01  0.2499976E+03  0.7546771E-02  0.1113306E+00
       21   -1    0    0  503  502  0.00000000000E+00  0.00000000000E+00  0.12597579572E+04  0.12597579572E+04  0.00000000000E+00 0.  1.
       21   -1    0    0  502  503 -0.00000000000E+00 -0.00000000000E+00 -0.12402936429E+02  0.12402936429E+02  0.00000000000E+00 0.  1.
       25    2    1    2    0    0 -0.35527136788E-14  0.17763568394E-14  0.12473550208E+04  0.12721608937E+04  0.24999758287E+03 0.  0.
       24    2    3    3    0    0  0.17590747775E+02 -0.10459686287E+02  0.11012611618E+04  0.11043601336E+04  0.80101927106E+02 0.  0.
      -24    2    3    3    0    0 -0.17590747775E+02  0.10459686287E+02  0.14609385903E+03  0.16780076010E+03  0.79967743493E+02 0.  0.
      -13    1    4    4    0    0  0.32561315418E+02 -0.71920812138E+01  0.18566622423E+03  0.18863698501E+03  0.00000000000E+00 0.  1.
       14    1    4    4    0    0 -0.14970567643E+02 -0.32676050729E+01  0.91559493755E+03  0.91572314856E+03  0.00000000000E+00 0. -1.
        3    1    5    5  501    0  0.11273635993E+02 -0.23857255922E+02  0.17627630572E+02  0.31733214275E+02  0.00000000000E+00 0. -1.
       -4    1    5    5    0  501 -0.28864383768E+02  0.34316942208E+02  0.12846622846E+03  0.13606754583E+03  0.00000000000E+00 0.  1.
</event>
<event>
 9   1  0.7570500E-01  0.2500073E+03  0.7546771E-02  0.1113300E+00
       21   -1    0    0  503  502  0.00000000000E+00  0.00000000000E+00  0.24250255899E+03  0.24250255899E+03  0.00000000000E+00 0.  1.
       21   -1    0    0  502  503 -0.00000000000E+00 -0.00000000000E+00 -0.64436076032E+02  0.64436076032E+02  0.00000000000E+00 0.  1.
       25    2    1    2    0    0  0.00000000000E+00  0.00000000000E+00  0.17806648296E+03  0.30693863502E+03  0.25000730653E+03 0.  0.
       24    2    3    3    0    0  0.27348002897E+02  0.85866963954E+02  0.12739860150E+03  0.17553479770E+03  0.80380425351E+02 0.  0.
      -24    2    3    3    0    0 -0.27348002897E+02 -0.85866963954E+02  0.50667881461E+02  0.13140383732E+03  0.81109096220E+02 0.  0.
      -13    1    4    4    0    0 -0.48174358594E+01  0.64718563766E+02  0.11987010336E+03  0.13631046131E+03  0.00000000000E+00 0.  1.
       14    1    4    4    0    0  0.32165438756E+02  0.21148400189E+02  0.75284981384E+01  0.39224336389E+02  0.00000000000E+00 0. -1.
        1    1    5    5  501    0 -0.39613010533E+02 -0.47898511693E+02  0.64115174014E+02  0.89298452196E+02  0.00000000000E+00 0. -1.
       -2    1    5    5    0  501  0.12265007636E+02 -0.37968452261E+02 -0.13447292553E+02  0.42105385124E+02  0.00000000000E+00 0.  1.
</event>
<event>
 9   1  0.7570500E-01  0.2500019E+03  0.7546771E-02  0.1113304E+00
       21   -1    0    0  503  502  0.00000000000E+00  0.00000000000E+00  0.51050469212E+02  0.51050469212E+02  0.00000000000E+00 0.  1.
       21   -1    0    0  502  503 -0.00000000000E+00 -0.00000000000E+00 -0.30607426458E+03  0.30607426458E+03  0.00000000000E+00 0.  1.
       25    2    1    2    0    0  0.00000000000E+00  0.14210854715E-13 -0.25502379537E+03  0.35712473379E+03  0.25000187856E+03 0.  0.
       24    2    3    3    0    0 -0.34906489787E+02  0.87144928261E+02 -0.13140519956E+03  0.18188836864E+03  0.83686024079E+02 0.  0.
      -24    2    3    3    0    0  0.34906489787E+02 -0.87144928261E+02 -0.12361859581E+03  0.17523636515E+03  0.81323581385E+02 0.  0.
      -13    1    4    4    0    0 -0.44515798396E+02  0.30285927612E+02 -0.21894248955E+02  0.58122730971E+02  0.00000000000E+00 0.  1.
       14    1    4    4    0    0  0.96093086089E+01  0.56859000649E+02 -0.10951095060E+03  0.12376563767E+03  0.00000000000E+00 0. -1.
        1    1    5    5  501    0  0.26550474706E+02 -0.87441227982E+02 -0.56157986596E+02  0.10725957075E+03  0.00000000000E+00 0. -1.
       -2    1    5    5    0  501  0.83560150814E+01  0.29629972063E+00 -0.67460609216E+02  0.67976794403E+02  0.00000000000E+00 0.  1.
</event>
<event>
 9   1  0.7570500E-01  0.2499819E+03  0.7546771E-02  0.1113316E+00
       21   -1    0    0  503  502  0.00000000000E+00  0.00000000000E+00  0.11175294698E+03  0.11175294698E+03  0.00000000000E+00 0.  1.
       21   -1    0    0  502  503 -0.00000000000E+00 -0.00000000000E+00 -0.13979706371E+03  0.13979706371E+03  0.00000000000E+00 0.  1.
       25    2    1    2    0    0  0.35527136788E-14  0.35527136788E-14 -0.28044116726E+02  0.25155001070E+03  0.24998187014E+03 0.  0.
       24    2    3    3    0    0 -0.31554116797E+02  0.13578612542E+02 -0.10455734089E+03  0.13542408209E+03  0.78913899098E+02 0.  0.
      -24    2    3    3    0    0  0.31554116797E+02 -0.13578612542E+02  0.76513224162E+02  0.11612592861E+03  0.80317599675E+02 0.  0.
      -13    1    4    4    0    0  0.12316393387E+02 -0.19870264793E+02 -0.60381465597E+02  0.64749072245E+02  0.00000000000E+00 0.  1.
       14    1    4    4    0    0 -0.43870510184E+02  0.33448877335E+02 -0.44175875291E+02  0.70675009844E+02  0.00000000000E+00 0. -1.
        1    1    5    5  501    0  0.55578372764E+02 -0.12607648961E+02  0.31557541997E+02  0.65144353464E+02  0.00000000000E+00 0. -1.
       -2    1    5    5    0  501 -0.24024255967E+02 -0.97096358078E+00  0.44955682165E+02  0.50981575141E+02  0.00000000000E+00 0.  1.
</event>
<event>
 9   1  0.7570500E-01  0.2499843E+03  0.7546771E-02  0.1113315E+00
       21   -1    0    0  503  502  0.00000000000E+00  0.00000000000E+00  0.60038008767E+03  0.60038008767E+03  0.00000000000E+00 0. -1.
       21   -1    0    0  502  503 -0.00000000000E+00 -0.00000000000E+00 -0.26021916915E+02  0.26021916915E+02  0.00000000000E+00 0. -1.
       25    2    1    2    0    0  0.00000000000E+00  0.00000000000E+00  0.57435817076E+03  0.62640200458E+03  0.24998432558E+03 0.  0.
       24    2    3    3    0    0 -0.37612440089E+02  0.73851585035E+02  0.16817116625E+03  0.20430979594E+03  0.81192359848E+02 0.  0.
      -24    2    3    3    0    0  0.37612440089E+02 -0.73851585035E+02  0.40618700450E+03  0.42209220864E+03  0.79405275063E+02 0.  0.
      -13    1    4    4    0    0 -0.51964417828E+02  0.41367433865E+02  0.15079219158E+03  0.16477211641E+03  0.00000000000E+00 0.  1.
       14    1    4    4    0    0  0.14351977739E+02  0.32484151170E+02  0.17378974676E+02  0.39537679535E+02  0.00000000000E+00 0. -1.
        3    1    5    5  501    0  0.21569562074E+02 -0.64935435559E+02  0.14578151969E+03  0.16104070381E+03  0.00000000000E+00 0. -1.
       -4    1    5    5    0  501  0.16042878015E+02 -0.89161494758E+01  0.26040548481E+03  0.26105150483E+03  0.00000000000E+00 0.  1.
</event>
<event>
 9   1  0.7570500E-01  0.2499993E+03  0.7546771E-02  0.1113305E+00
       21   -1    0    0  503  502  0.00000000000E+00  0.00000000000E+00  0.18063735238E+03  0.18063735238E+03  0.00000000000E+00 0. -1.
       21   -1    0    0  502  503 -0.00000000000E+00 -0.00000000000E+00 -0.86498810443E+02  0.86498810443E+02  0.00000000000E+00 0. -1.
       25    2    1    2    0    0 -0.71054273576E-14 -0.71054273576E-14  0.94138541936E+02  0.26713616282E+03  0.24999932882E+03 0.  0.
       24    2    3    3    0    0 -0.57887379163E+02  0.38658010661E+02 -0.21703279625E+02  0.10812503879E+03  0.79841099765E+02 0.  0.
      -24    2    3    3    0    0  0.57887379163E+02 -0.38658010661E+02  0.11584182156E+03  0.15901112404E+03  0.83784363040E+02 0.  0.
      -13    1    4    4    0    0 -0.17303097351E+02  0.50423089579E+02 -0.35064711987E+02  0.63807673264E+02  0.00000000000E+00 0.  1.
       14    1    4    4    0    0 -0.40584281812E+02 -0.11765078918E+02  0.13361432363E+02  0.44317365523E+02  0.00000000000E+00 0. -1.
        3    1    5    5  501    0  0.61503594562E+02  0.35760992301E+01  0.90958060761E+02  0.10985831533E+03  0.00000000000E+00 0. -1.
       -4    1    5    5    0  501 -0.36162153991E+01 -0.42234109891E+02  0.24883760800E+02  0.49152808706E+02  0.00000000000E+00 0.  1.
</event>
<event>
 9   1  0.7570500E-01  0.2500114E+03  0.7546771E-02  0.1113298E+00
       21   -1    0    0  503  502  0.00000000000E+00  0.00000000000E+00  0.12565999330E+02  0.12565999330E+02  0.00000000000E+00 0. -1.
       21   -1    0    0  502  503 -0.00000000000E+00 -0.00000000000E+00 -0.12435482510E+04  0.12435482510E+04  0.00000000000E+00 0. -1.
       25    2    1    2    0    0  0.00000000000E+00  0.00000000000E+00 -0.12309822516E+04  0.12561142503E+04  0.25001141165E+03 0.  0.
       24    2    3    3    0    0 -0.57466481347E+02  0.12002497048E+02 -0.22909065022E+03  0.24954751685E+03  0.79655387358E+02 0.  0.
      -24    2    3    3    0    0  0.57466481347E+02 -0.12002497048E+02 -0.10018916014E+04  0.10065667334E+04  0.77093135071E+02 0.  0.
      -13    1    4    4    0    0 -0.81002645668E+01 -0.28763474568E+02 -0.40116910769E+02  0.50023177477E+02  0.00000000000E+00 0.  1.
       14    1    4    4    0    0 -0.49366216780E+02  0.40765971616E+02 -0.18897373945E+03  0.19952433938E+03  0.00000000000E+00 0. -1.
        3    1    5    5  501    0  0.16298481508E+02  0.26043613131E+02 -0.59981701406E+03  0.60060333053E+03  0.00000000000E+00 0. -1.
       -4    1    5    5    0  501  0.41167999839E+02 -0.38046110180E+02 -0.40207458734E+03  0.40596340290E+03  0.00000000000E+00 0.  1.
</event>
<event>
 9   1  0.7570500E-01  0.2500007E+03  0.7546771E-02  0.1113304E+00
       21   -1    0    0  503  502  0.00000000000E+00  0.00000000000E+00  0.57959886979E+03  0.57959886979E+03  0.00000000000E+00 0. -1.
       21   -1    0    0  502  503 -0.00000000000E+00 -0.00000000000E+00 -0.26958440744E+02  0.26958440744E+02  0.00000000000E+00 0. -1.
       25    2    1    2    0    0  0.00000000000E+00  0.00000000000E+00  0.55264042905E+03  0.60655731054E+03  0.25000065429E+03 0.  0.
       24    2    3    3    0    0  0.69398627633E+02  0.60463118611E+02  0.34312592452E+03  0.36426601592E+03  0.80513179307E+02 0.  0.
      -24    2    3    3    0    0 -0.69398627633E+02 -0.60463118611E+02  0.20951450453E+03  0.24229129462E+03  0.79603929630E+02 0.  0.
      -13    1    4    4    0    0 -0.12474013999E+02  0.26641027428E+02  0.49628438401E+02  0.57691656812E+02  0.00000000000E+00 0.  1.
       14    1    4    4    0    0  0.81872641632E+02  0.33822091184E+02  0.29349748612E+03  0.30657435911E+03  0.00000000000E+00 0. -1.
        1    1    5    5  501    0 -0.72301954959E+02 -0.28674923535E+02  0.91775477692E+02  0.12030196273E+03  0.00000000000E+00 0. -1.
       -2    1    5    5    0  501  0.29033273255E+01 -0.31788195076E+02  0.11773902683E+03  0.12198933189E+03  0.00000000000E+00 0.  1.
</event>
<event>
 9   1  0.7570500E-01  0.2499976E+03  0.7546771E-02  0.1113306E+00
       21   -1    0    0  503  502  0.00000000000E+00  0.00000000000E+00  0.86519218047E+03  0.86519218047E+03  0.00000000000E+00 0.  1.
       21   -1    0    0  502  503 -0.00000000000E+00 -0.00000000000E+00 -0.18059222390E+02  0.18059222390E+02  0.00000000000E+00 0.  1.
       25    2    1    2    0    0 -0.35527136788E-14  0.00000000000E+00  0.84713295808E+03  0.88325140286E+03  0.24999758397E+03 0.  0.
       24    2    3    3    0    0  0.22712398279E+02 -0.32367250530E+02  0.73431168289E+03  0.73983445104E+03  0.81104102081E+02 0.  0.
      -24    2    3    3    0    0 -0.22712398279E+02  0.32367250530E+02  0.11282127519E+03  0.14341695182E+03  0.79223039524E+02 0.  0.
      -13    1    4    4    0    0 -0.27874900170E+02 -0.17910515501E+02  0.40427857867E+03  0.40563402939E+03  0.00000000000E+00 0.  1.
       14    1    4    4    0    0  0.50587298449E+02 -0.14456735029E+02  0.33003310422E+03  0.33420042165E+03  0.00000000000E+00 0. -1.
        3    1    5    5  501    0 -0.28407015634E+02 -0.15139801693E+02  0.17209349666E+02  0.36501148591E+02  0.00000000000E+00 0. -1.
       -4    1    5    5    0  501  0.56946173551E+01  0.47507052223E+02  0.95611925526E+02  0.10691580323E+03  0.00000000000E+00 0.  1.
</event>
<event>
 9   1  0.7570500E-01  0.2500000E+03  0.7546771E-02  0.1113305E+00
       21   -1    0    0  503  502  0.00000000000E+00  0.00000000000E+00  0.64227783991E+03  0.64227783991E+03  0.00000000000E+00 0.  1.
       21   -1    0    0  502  503 -0.00000000000E+00 -0.00000000000E+00 -0.24327476197E+02  0.24327476197E+02  0.00000000000E+00 0.  1.
       25    2    1    2    0    0  0.00000000000E+00  0.00000000000E+00  0.61795036371E+03  0.66660531610E+03  0.24999999090E+03 0.  0.
       24    2    3    3    0    0 -0.92118880080E+02 -0.92948706558E+01  0.38574212790E+03  0.40447158917E+03  0.78917643919E+02 0.  0.
      -24    2    3    3    0    0  0.92118880080E+02  0.92948706558E+01  0.23220823581E+03  0.26213372693E+03  0.78874224754E+02 0.  0.
      -13    1    4    4    0    0 -0.80015811795E+02  0.23656528320E+02  0.22582563319E+03  0.24074754012E+03  0.00000000000E+00 0.  1.
       14    1    4    4    0    0 -0.12103068285E+02 -0.32951398976E+02  0.15991649471E+03  0.16372404905E+03  0.00000000000E+00 0. -1.
        3    1    5    5  501    0  0.61902877910E+02 -0.19519970650E+02  0.19732627982E+03  0.20772736039E+03  0.00000000000E+00 0. -1.
       -4    1    5    5    0  501  0.30216002170E+02  0.28814841305E+02  0.34881955989E+02  0.54406366541E+02  0.00000000000E+00 0.  1.
</event>
<event>
 9   1  0.7570500E-01  0.2500156E+03  0.7546771E-02  0.1113295E+00
       21   -1    0    0  503  502  0.00000000000E+00  0.00000000000E+00  0.33720064604E+02  0.33720064604E+02  0.00000000000E+00 0. -1.
       21   -1    0    0  502  503 -0.00000000000E+00 -0.00000000000E+00 -0.46343170402E+03  0.46343170402E+03  0.00000000000E+00 0. -1.
       25    2    1    2    0    0 -0.71054273576E-14  0.00000000000E+00 -0.42971163942E+03  0.49715176863E+03  0.25001557551E+03 0.  0.
       24    2    3    3    0    0  0.44114225530E+02 -0.39877067959E+02 -0.36029232545E+03  0.37491241862E+03  0.84926535409E+02 0.  0.
      -24    2    3    3    0    0 -0.44114225530E+02  0.39877067959E+02 -0.69419313972E+02  0.12223935001E+03  0.81161395347E+02 0.  0.
      -13    1    4    4    0    0  0.33212333926E+02  0.75236933705E+01 -0.27188041989E+03  0.27400479522E+03  0.00000000000E+00 0.  1.
       14    1    4    4    0    0  0.10901891604E+02 -0.47400761329E+02 -0.88411905560E+02  0.10090762340E+03  0.00000000000E+00 0. -1.
        3    1    5    5  501    0 -0.43156074120E+02 -0.13980346132E+02 -0.41887956987E+02  0.61745426973E+02  0.00000000000E+00 0. -1.
       -4    1    5    5    0  501 -0.95815140957E+00  0.53857414091E+02 -0.27531356984E+02  0.60493923034E+02  0.00000000000E+00 0.  1.
</event>
<event>
 8   1  0.7570500E-01  0.2502095E+03  0.7546771E-02  0.1113172E+00
       21   -1    0    0  503  502  0.00000000000E+00  0.00000000000E+00  0.32261037464E+03  0.32261037464E+03  0.00000000000E+00 0.  1.
       21   -1    0    0  502  503 -0.00000000000E+00 -0.00000000000E+00 -0.48514258386E+02  0.48514258386E+02  0.00000000000E+00 0.  1.
       24    2    1    2    0    0 -0.20339789870E+02  0.39995778912E+02  0.10395069456E+02  0.91415876472E+02  0.78964774548E+02 0.  0.
      -24    2    1    2    0    0  0.20339789870E+02 -0.39995778912E+02  0.26370104680E+03  0.27970875656E+03  0.81764154913E+02 0.  0.
      -13    1    3    3    0    0 -0.52312548406E+01  0.52141829787E+02  0.32773934379E+02  0.61808310246E+02  0.00000000000E+00 0.  1.
       14    1    3    3    0    0 -0.15108535029E+02 -0.12146050875E+02 -0.22378864923E+02  0.29607566226E+02  0.00000000000E+00 0. -1.
        3    1    4    4  501    0 -0.98862594580E+01 -0.22147447782E+02  0.22923465144E+03  0.23051414922E+03  0.00000000000E+00 0. -1.
       -4    1    4    4    0  501  0.30226049328E+02 -0.17848331130E+02  0.34466395361E+02  0.49194607339E+02  0.00000000000E+00 0.  1.
</event>
<event>
 9   1  0.7570500E-01  0.2500078E+03  0.7546771E-02  0.1113300E+00
       21   -1    0    0  503  502  0.00000000000E+00  0.00000000000E+00  0.27489547251E+03  0.27489547251E+03  0.00000000000E+00 0.  1.
       21   -1    0    0  502  503 -0.00000000000E+00 -0.00000000000E+00 -0.56843327677E+02  0.56843327677E+02  0.00000000000E+00 0.  1.
       25    2    1    2    0    0 -0.71054273576E-14  0.71054273576E-14  0.21805214484E+03  0.33173880019E+03  0.25000778725E+03 0.  0.
       24    2    3    3    0    0  0.36459952887E+02  0.46046712361E+02  0.80013308943E+01  0.99303331478E+02  0.79671214769E+02 0.  0.
      -24    2    3    3    0    0 -0.36459952887E+02 -0.46046712361E+02  0.21005081394E+03  0.23243546871E+03  0.80344724743E+02 0.  0.
      -13    1    4    4    0    0 -0.22800590540E+02 -0.13468071947E+01  0.48925733491E+01  0.23358469396E+02  0.00000000000E+00 0.  1.
       14    1    4    4    0    0  0.59260543427E+02  0.47393519555E+02  0.31087575452E+01  0.75944862081E+02  0.00000000000E+00 0. -1.
        3    1    5    5  501    0 -0.24385608050E+02 -0.42030699377E+02  0.42957038937E+02  0.64857881281E+02  0.00000000000E+00 0. -1.
       -4    1    5    5    0  501 -0.12074344837E+02 -0.40160129836E+01  0.16709377501E+03  0.16757758743E+03  0.00000000000E+00 0.  1.
</event>
<event>
 9   1  0.7570500E-01  0.2500139E+03  0.7546771E-02  0.1113296E+00
       21   -1    0    0  503  502  0.00000000000E+00  0.00000000000E+00  0.26454150770E+02  0.26454150770E+02  0.00000000000E+00 0.  1.
       21   -1    0    0  502  503 -0.00000000000E+00 -0.00000000000E+00 -0.59071038405E+03  0.59071038405E+03  0.00000000000E+00 0.  1.
       25    2    1    2    0    0  0.35527136788E-14  0.88817841970E-15 -0.56425623328E+03  0.61716453482E+03  0.25001393210E+03 0.  0.
       24    2    3    3    0    0  0.11939373995E+01  0.12485946638E+01 -0.27520371808E+02  0.74324016622E+02  0.69019592199E+02 0.  0.
      -24    2    3    3    0    0 -0.11939373995E+01 -0.12485946638E+01 -0.53673586147E+03  0.54284051820E+03  0.81163161171E+02 0.  0.
      -13    1    4    4    0    0 -0.31712974234E+02 -0.97494345630E+01 -0.66596174373E+01  0.33839543636E+02  0.00000000000E+00 0.  1.
       14    1    4    4    0    0  0.32906911633E+02  0.10998029227E+02 -0.20860754370E+02  0.40484472987E+02  0.00000000000E+00 0. -1.
        3    1    5    5  501    0  0.26749826732E+02  0.54230313324E+01 -0.46149456362E+03  0.46230097853E+03  0.00000000000E+00 0. -1.
       -4    1    5    5    0  501 -0.27943764132E+02 -0.66716259962E+01 -0.75241297847E+02  0.80539539662E+02  0.00000000000E+00 0.  1.
</event>
<event>
 9   1  0.7570500E-01  0.2499995E+03  0.7546771E-02  0.1113305E+00
       21   -1    0    0  503  502  0.00000000000E+00  0.00000000000E+00  0.14382601406E+03  0.14382601406E+03  0.00000000000E+00 0. -1.
       21   -1    0    0  502  503 -0.00000000000E+00 -0.00000000000E+00 -0.10863780734E+03  0.10863780734E+03  0.00000000000E+00 0. -1.
       25    2    1    2    0    0  0.00000000000E+00  0.00000000000E+00  0.35188206719E+02  0.25246382141E+03  0.24999954245E+03 0.  0.
       24    2    3    3    0    0 -0.86366675586E+02  0.38754790480E+02  0.21377575001E+02  0.12628387408E+03  0.80805196020E+02 0.  0.
      -24    2    3    3    0    0  0.86366675586E+02 -0.38754790480E+02  0.13810631718E+02  0.12617994732E+03  0.82277026690E+02 0.  0.
      -13    1    4    4    0    0 -0.11510147372E+02 -0.24088691240E+02  0.56386714997E+01  0.27286318082E+02  0.00000000000E+00 0.  1.
       14    1    4    4    0    0 -0.74856528214E+02  0.62843481720E+02  0.15738903501E+02  0.98997556002E+02  0.00000000000E+00 0. -1.
        3    1    5    5  501    0  0.56372705924E+02 -0.28365313247E+02 -0.31756534517E+02  0.70646659180E+02  0.00000000000E+00 0. -1.
       -4    1    5    5    0  501  0.29993969662E+02 -0.10389477232E+02  0.45567166235E+02  0.55533288143E+02  0.00000000000E+00 0.  1.
</event>
<event>
 9   1  0.7570500E-01  0.2499970E+03  0.7546771E-02  0.1113307E+00
       21   -1    0    0  503  502  0.00000000000E+00  0.00000000000E+00  0.46640599377E+03  0.46640599377E+03  0.00000000000E+00 0. -1.
       21   -1    0    0  502  503 -0.00000000000E+00 -0.00000000000E+00 -0.33500062539E+02  0.33500062539E+02  0.00000000000E+00 0. -1.
       25    2    1    2    0    0  0.00000000000E+00  0.14210854715E-13  0.43290593123E+03  0.49990605631E+03  0.24999703966E+03 0.  0.
       24    2    3    3    0    0 -0.17272050840E+02  0.66840870897E+02  0.82753883494E+02  0.13385018659E+03  0.79382878855E+02 0.  0.
      -24    2    3    3    0    0  0.17272050840E+02 -0.66840870897E+02  0.35015204774E+03  0.36605586972E+03  0.81390524365E+02 0.  0.
      -13    1    4    4    0    0 -0.22087666894E+02  0.18414829286E+02 -0.88787622891E+01  0.30096567682E+02  0.00000000000E+00 0.  1.
       14    1    4    4    0    0  0.48156160543E+01  0.48426041611E+02  0.91632645783E+02  0.10375361891E+03  0.00000000000E+00 0. -1.
        1    1    5    5  501    0 -0.19248679135E+02 -0.65329344562E+02  0.19158261701E+03  0.20332814378E+03  0.00000000000E+00 0. -1.
       -2    1    5    5    0  501  0.36520729975E+02 -0.15115263351E+01  0.15856943073E+03  0.16272772594E+03  0.00000000000E+00 0.  1.
</event>
<event>
 9   1  0.7570500E-01  0.2500046E+03  0.7546771E-02  0.1113302E+00
       21   -1    0    0  503  502  0.00000000000E+00  0.00000000000E+00  0.70165451192E+03  0.70165451192E+03  0.00000000000E+00 0.  1.
       21   -1    0    0  502  503 -0.00000000000E+00 -0.00000000000E+00 -0.22269618687E+02  0.22269618687E+02  0.00000000000E+00 0.  1.
       25    2    1    2    0    0 -0.28421709430E-13 -0.71054273576E-14  0.67938489323E+03  0.72392413061E+03  0.25000462740E+03 0.  0.
       24    2    3    3    0    0  0.80053385969E+02  0.49049432372E+02  0.27709787639E+03  0.30328293045E+03  0.79893124743E+02 0.  0.
      -24    2    3    3    0    0 -0.80053385969E+02 -0.49049432372E+02  0.40228701684E+03  0.42064120015E+03  0.79308158015E+02 0.  0.
      -13    1    4    4    0    0  0.28734003850E+02  0.36867811175E+02  0.43664054140E+02  0.63964272074E+02  0.00000000000E+00 0.  1.
       14    1    4    4    0    0  0.51319382119E+02  0.12181621197E+02  0.23343382226E+03  0.23931865838E+03  0.00000000000E+00 0. -1.
        1    1    5    5  501    0 -0.54121995066E+02 -0.19816052361E+02  0.96756734323E+02  0.11262207562E+03  0.00000000000E+00 0. -1.
       -2    1    5    5    0  501 -0.25931390903E+02 -0.29233380012E+02  0.30553028252E+03  0.30801912453E+03  0.00000000000E+00 0.  1.
</event>
<event>
 9   1  0.7570500E-01  0.2499980E+03  0.7546771E-02  0.1113306E+00
       21   -1    0    0  503  502  0.00000000000E+00  0.00000000000E+00  0.11796176172E+03  0.11796176172E+03  0.00000000000E+00 0.  1.
       21   -1    0    0  502  503 -0.00000000000E+00 -0.00000000000E+00 -0.13245606021E+03  0.13245606021E+03  0.00000000000E+00 0.  1.
       25    2    1    2    0    0 -0.28421709430E-13  0.00000000000E+00 -0.14494298488E+02  0.25041782193E+03  0.24999800169E+03 0.  0.
       24    2    3    3    0    0  0.91120906106E+02  0.31732470936E+02 -0.20167476254E+02  0.12357818332E+03  0.74531007318E+02 0.  0.
      -24    2    3    3    0    0 -0.91120906106E+02 -0.31732470936E+02  0.56731777666E+01  0.12683963861E+03  0.82134887450E+02 0.  0.
      -13    1    4    4    0    0  0.86147183326E+02  0.15264564023E+02  0.10800226720E+02  0.88153213254E+02  0.00000000000E+00 0.  1.
       14    1    4    4    0    0  0.49737227804E+01  0.16467906913E+02 -0.30967702975E+02  0.35424970062E+02  0.00000000000E+00 0. -1.
        1    1    5    5  501    0 -0.13563123939E+02  0.18032905439E+02  0.23937594477E+02  0.32896085465E+02  0.00000000000E+00 0. -1.
       -2    1    5    5    0  501 -0.77557782167E+02 -0.49765376375E+02 -0.18264416711E+02  0.93943553149E+02  0.00000000000E+00 0.  1.
</event>
<event>
 9   1  0.7570500E-01  0.2500009E+03  0.7546771E-02  0.1113304E+00
       21   -1    0    0  503  502  0.00000000000E+00  0.00000000000E+00  0.14370341968E+03  0.14370341968E+03  0.00000000000E+00 0. -1.
       21   -1    0    0  502  503 -0.00000000000E+00 -0.00000000000E+00 -0.10873165846E+03  0.10873165846E+03  0.00000000000E+00 0. -1.
       25    2    1    2    0    0  0.00000000000E+00  0.00000000000E+00  0.34971761219E+02  0.25243507815E+03  0.25000088919E+03 0.  0.
       24    2    3    3    0    0 -0.91515056536E+01  0.45905197894E+02 -0.68287300728E+02  0.11392292287E+03  0.78257521458E+02 0.  0.
      -24    2    3    3    0    0  0.91515056536E+01 -0.45905197894E+02  0.10325906195E+03  0.13851215528E+03  0.79574782668E+02 0.  0.
      -13    1    4    4    0    0  0.40894467516E+01 -0.12990164932E+02 -0.48532818007E+02  0.50407364377E+02  0.00000000000E+00 0.  1.
       14    1    4    4    0    0 -0.13240952405E+02  0.58895362825E+02 -0.19754482720E+02  0.63515558491E+02  0.00000000000E+00 0. -1.
        3    1    5    5  501    0  0.18515035924E+02 -0.32978054781E+02  0.40603395696E+01  0.38037415919E+02  0.00000000000E+00 0. -1.
       -4    1    5    5    0  501 -0.93635302703E+01 -0.12927143113E+02  0.99198722377E+02  0.10047473936E+03  0.00000000000E+00 0.  1.
</event>
<event>
 9   1  0.7570500E-01  0.2499912E+03  0.7546771E-02  0.1113310E+00
       21   -1    0    0  503  502  0.00000000000E+00  0.00000000000E+00  0.35629052392E+03  0.35629052392E+03  0.00000000000E+00 0.  1.
       21   -1    0    0  502  503 -0.00000000000E+00 -0.00000000000E+00 -0.43851574430E+02  0.43851574430E+02  0.00000000000E+00 0.  1.
       25    2    1    2    0    0  0.00000000000E+00  0.00000000000E+00  0.31243894949E+03  0.40014209835E+03  0.24999120327E+03 0.  0.
       24    2    3    3    0    0 -0.49413641998E+02 -0.59694394907E+02  0.24831988268E+03  0.27133407852E+03  0.77164041048E+02 0.  0.
      -24    2    3    3    0    0  0.49413641998E+02  0.59694394907E+02  0.64119066809E+02  0.12880801983E+03  0.80468145537E+02 0.  0.
      -13    1    4    4    0    0 -0.64322668128E+02 -0.20638127288E+02  0.15407866752E+03  0.16823665985E+03  0.00000000000E+00 0.  1.
       14    1    4    4    0    0  0.14909026130E+02 -0.39056267619E+02  0.94241215158E+02  0.10309741866E+03  0.00000000000E+00 0. -1.
        1    1    5    5  501    0  0.94715505977E+01  0.66730767571E+02  0.55583003760E+02  0.87362325509E+02  0.00000000000E+00 0. -1.
       -2    1    5    5    0  501  0.39942091400E+02 -0.70363726638E+01  0.85360630486E+01  0.41445694324E+02  0.00000000000E+00 0.  1.
</event>
<event>
 9   1  0.7570500E-01  0.2499962E+03  0.7546771E-02  0.1113307E+00
       21   -1    0    0  503  502  0.00000000000E+00  0.00000000000E+00  0.29198433180E+02  0.29198433180E+02  0.00000000000E+00 0.  1.
       21   -1    0    0  502  503 -0.00000000000E+00 -0.00000000000E+00 -0.53511512401E+03  0.53511512401E+03  0.00000000000E+00 0.  1.
       25    2    1    2    0    0  0.71054273576E-14  0.14210854715E-13 -0.50591669083E+03  0.56431355719E+03  0.24999618551E+03 0.  0.
       24    2    3    3    0    0 -0.36435436884E+02  0.69026985240E+02 -0.12638465116E+03  0.16911411324E+03  0.80834630536E+02 0.  0.
      -24    2    3    3    0    0  0.36435436884E+02 -0.69026985240E+02 -0.37953203967E+03  0.39519944395E+03  0.77754521506E+02 0.  0.
      -13    1    4    4    0    0  0.43681053081E+01  0.17301455917E+02  0.79182191426E+01  0.19522267164E+02  0.00000000000E+00 0.  1.
       14    1    4    4    0    0 -0.40803542192E+02  0.51725529323E+02 -0.13430287030E+03  0.14959184607E+03  0.00000000000E+00 0. -1.
        3    1    5    5  501    0  0.33112975226E+02 -0.25180681735E+01 -0.21744498402E+03  0.21996620393E+03  0.00000000000E+00 0. -1.
       -4    1    5    5    0  501  0.33224616585E+01 -0.66508917066E+02 -0.16208705565E+03  0.17523324002E+03  0.00000000000E+00 0.  1.
</event>
<event>
 9   1  0.7570500E-01  0.2500054E+03  0.7546771E-02  0.1113301E+00
       21   -1    0    0  503  502  0.00000000000E+00  0.00000000000E+00  0.32543947147E+03  0.32543947147E+03  0.00000000000E+00 0.  1.
       21   -1    0    0  502  503 -0.00000000000E+00 -0.00000000000E+00 -0.48014090521E+02  0.48014090521E+02  0.00000000000E+00 0.  1.
       25    2    1    2    0    0  0.71054273576E-14 -0.71054273576E-14  0.27742538095E+03  0.37345356199E+03  0.25000544188E+03 0.  0.
       24    2    3    3    0    0 -0.55094173197E+02  0.26186206373E+02  0.25196940942E+03  0.27166975081E+03  0.81208280958E+02 0.  0.
      -24    2    3    3    0    0  0.55094173197E+02 -0.26186206373E+02  0.25455971526E+02  0.10178381118E+03  0.77400596946E+02 0.  0.
      -13    1    4    4    0    0 -0.20636751944E+02  0.37685644626E+02  0.21712036869E+03  0.22133083347E+03  0.00000000000E+00 0.  1.
       14    1    4    4    0    0 -0.34457421253E+02 -0.11499438253E+02  0.34849040730E+02  0.50338917344E+02  0.00000000000E+00 0. -1.
        1    1    5    5  501    0  0.10893069101E+02  0.27085197016E+02  0.51381423074E+01  0.29642323765E+02  0.00000000000E+00 0. -1.
       -2    1    5    5    0  501  0.44201104096E+02 -0.53271403389E+02  0.20317829219E+02  0.72141487416E+02  0.00000000000E+00 0.  1.
</event>
<event>
 9   1  0.7570500E-01  0.2499613E+03  0.7546771E-02  0.1113329E+00
       21   -1    0    0  503  502  0.00000000000E+00  0.00000000000E+00  0.79043981771E+03  0.79043981771E+03  0.00000000000E+00 0. -1.
       21   -1    0    0  502  503 -0.00000000000E+00 -0.00000000000E+00 -0.19761360291E+02  0.19761360291E+02  0.00000000000E+00 0. -1.
       25    2    1    2    0    0 -0.71054273576E-14  0.00000000000E+00  0.77067845742E+03  0.81020117800E+03  0.24996132521E+03 0.  0.
       24    2    3    3    0    0  0.62819219006E+02  0.16599270245E+02  0.60115605548E+03  0.61138232297E+03  0.90432028333E+02 0.  0.
      -24    2    3    3    0    0 -0.62819219006E+02 -0.16599270245E+02  0.16952240193E+03  0.19881885503E+03  0.81051232609E+02 0.  0.
      -13    1    4    4    0    0  0.30555423796E+02 -0.37436539226E+02  0.27374501374E+03  0.27797744682E+03  0.00000000000E+00 0.  1.
       14    1    4    4    0    0  0.32263795210E+02  0.54035809471E+02  0.32741104174E+03  0.33340487615E+03  0.00000000000E+00 0. -1.
        1    1    5    5  501    0 -0.15261219306E+02 -0.15727322207E+02  0.14237380501E+03  0.14405052528E+03  0.00000000000E+00 0. -1.
       -2    1    5    5    0  501 -0.47557999701E+02 -0.87194803812E+00  0.27148596921E+02  0.54768329751E+02  0.00000000000E+00 0.  1.
</event>
<event>
 9   1  0.7570500E-01  0.2500006E+03  0.7546771E-02  0.1113304E+00
       21   -1    0    0  503  502  0.00000000000E+00  0.00000000000E+00  0.55875235924E+02  0.55875235924E+02  0.00000000000E+00 0. -1.
       21   -1    0    0  502  503 -0.00000000000E+00 -0.00000000000E+00 -0.27964216231E+03  0.27964216231E+03  0.00000000000E+00 0. -1.
       25    2    1    2    0    0  0.00000000000E+00 -0.71054273576E-14 -0.22376692639E+03  0.33551739823E+03  0.25000057435E+03 0.  0.
       24    2    3    3    0    0 -0.69031589999E+02 -0.49269044917E+02 -0.53725228796E+02  0.12908487552E+03  0.81140037424E+02 0.  0.
      -24    2    3    3    0    0  0.69031589999E+02  0.49269044917E+02 -0.17004169759E+03  0.20643252272E+03  0.80668508797E+02 0.  0.
      -13    1    4    4    0    0 -0.23270046941E+02  0.12228337383E+02  0.11253271160E+02  0.28594814768E+02  0.00000000000E+00 0.  1.
       14    1    4    4    0    0 -0.45761543058E+02 -0.61497382300E+02 -0.64978499956E+02  0.10049006075E+03  0.00000000000E+00 0. -1.
        3    1    5    5  501    0  0.24280776079E+02  0.57051569311E+02 -0.55505774294E+02  0.83218559395E+02  0.00000000000E+00 0. -1.
       -4    1    5    5    0  501  0.44750813919E+02 -0.77825243939E+01 -0.11453592330E+03  0.12321396332E+03  0.00000000000E+00 0.  1.
</event>
<event>
 9   1  0.7570500E-01  0.2500012E+03  0.7546771E-02  0.1113304E+00
       21   -1    0    0  503  502  0.00000000000E+00  0.00000000000E+00  0.33639470692E+03  0.33639470692E+03  0.00000000000E+00 0.  1.
       21   -1    0    0  502  503 -0.00000000000E+00 -0.00000000000E+00 -0.46448867923E+02  0.46448867923E+02  0.00000000000E+00 0.  1.
       25    2    1    2    0    0 -0.71054273576E-14  0.00000000000E+00  0.28994583900E+03  0.38284357484E+03  0.25000122649E+03 0.  0.
       24    2    3    3    0    0  0.37798520521E+02  0.83041840526E+02  0.10489041914E+03  0.16198864985E+03  0.83148344664E+02 0.  0.
      -24    2    3    3    0    0 -0.37798520521E+02 -0.83041840526E+02  0.18505541985E+03  0.22085492499E+03  0.78782701434E+02 0.  0.
      -13    1    4    4    0    0  0.61477265083E+02  0.47308750223E+02  0.49788249252E+02  0.92176145143E+02  0.00000000000E+00 0.  1.
       14    1    4    4    0    0 -0.23678744562E+02  0.35733090303E+02  0.55102169892E+02  0.69812504707E+02  0.00000000000E+00 0. -1.
        1    1    5    5  501    0  0.51850663458E+01  0.64493525108E+01  0.62909078757E+02  0.63451014577E+02  0.00000000000E+00 0. -1.
       -2    1    5    5    0  501 -0.42983586867E+02 -0.89491193037E+02  0.12214634109E+03  0.15740391042E+03  0.00000000000E+00 0.  1.
</event>
<event>
 9   1  0.7570500E-01  0.2500052E+03  0.7546771E-02  0.1113302E+00
       21   -1    0    0  503  502  0.00000000000E+00  0.00000000000E+00  0.19189925905E+03  0.19189925905E+03  0.00000000000E+00 0. -1.
       21   -1    0    0  502  503 -0.00000000000E+00 -0.00000000000E+00 -0.81426295139E+02  0.81426295139E+02  0.00000000000E+00 0. -1.
       25    2    1    2    0    0 -0.71054273576E-14 -0.14210854715E-13  0.11047296391E+03  0.27332555419E+03  0.25000516558E+03 0.  0.
       24    2    3    3    0    0 -0.32732472915E+02  0.63640510755E+02 -0.10469457438E+02  0.11172615537E+03  0.85156296673E+02 0.  0.
      -24    2    3    3    0    0  0.32732472915E+02 -0.63640510755E+02  0.12094242135E+03  0.16159939882E+03  0.79785757024E+02 0.  0.
      -13    1    4    4    0    0 -0.47390070718E+02  0.33950844790E+01  0.51395459913E+01  0.47788705091E+02  0.00000000000E+00 0.  1.
       14    1    4    4    0    0  0.14657597803E+02  0.60245426276E+02 -0.15609003430E+02  0.63937450282E+02  0.00000000000E+00 0. -1.
        3    1    5    5  501    0 -0.56399604327E+01 -0.66275097572E+02  0.60249047702E+02  0.89744891001E+02  0.00000000000E+00 0. -1.
       -4    1    5    5    0  501  0.38372433347E+02  0.26345868167E+01  0.60693373649E+02  0.71854507817E+02  0.00000000000E+00 0.  1.
</event>
<event>
 9   1  0.7570500E-01  0.2500036E+03  0.7546771E-02  0.1113303E+00
       21   -1    0    0  503  502  0.00000000000E+00  0.00000000000E+00  0.34121976802E+02  0.34121976802E+02  0.00000000000E+00 0. -1.
       21   -1    0    0  502  503 -0.00000000000E+00 -0.00000000000E+00 -0.45792917216E+03  0.45792917216E+03  0.00000000000E+00 0. -1.
       25    2    1    2    0    0  0.00000000000E+00  0.00000000000E+00 -0.42380719536E+03  0.49205114897E+03  0.25000358869E+03 0.  0.
       24    2    3    3    0    0 -0.71922080638E+02 -0.99753200095E+01 -0.33196245272E+03  0.34990190716E+03  0.83426506139E+02 0.  0.
      -24    2    3    3    0    0  0.71922080638E+02  0.99753200095E+01 -0.91844742643E+02  0.14214924181E+03  0.80614251236E+02 0.  0.
      -13    1    4    4    0    0 -0.57293149346E+02  0.32363747003E+01 -0.87453518197E+02  0.10459969851E+03  0.00000000000E+00 0.  1.
       14    1    4    4    0    0 -0.14628931291E+02 -0.13211694710E+02 -0.24450893452E+03  0.24530220865E+03  0.00000000000E+00 0. -1.
        3    1    5    5  501    0  0.14611562488E+02 -0.41579696930E+01  0.14192460552E+02  0.20789718777E+02  0.00000000000E+00 0. -1.
       -4    1    5    5    0  501  0.57310518150E+02  0.14133289703E+02 -0.10603720320E+03  0.12135952303E+03  0.00000000000E+00 0.  1.
</event>
<event>
 9   1  0.7570500E-01  0.2500002E+03  0.7546771E-02  0.1113305E+00
       21   -1    0    0  503  502  0.00000000000E+00  0.00000000000E+00  0.47829967587E+03  0.47829967587E+03  0.00000000000E+00 0.  1.
       21   -1    0    0  502  503 -0.00000000000E+00 -0.00000000000E+00 -0.32667854406E+02  0.32667854406E+02  0.00000000000E+00 0.  1.
       25    2    1    2    0    0  0.00000000000E+00  0.00000000000E+00  0.44563182146E+03  0.51096753027E+03  0.25000019339E+03 0.  0.
       24    2    3    3    0    0  0.67918337266E+02  0.37979005261E+02  0.14974267823E+03  0.19473452276E+03  0.97176948365E+02 0.  0.
      -24    2    3    3    0    0 -0.67918337266E+02 -0.37979005261E+02  0.29588914323E+03  0.31623300752E+03  0.79985152254E+02 0.  0.
      -13    1    4    4    0    0  0.79372925556E+02  0.59822543004E+02  0.12617296410E+03  0.16061884955E+03  0.00000000000E+00 0.  1.
       14    1    4    4    0    0 -0.11454588290E+02 -0.21843537743E+02  0.23569714129E+02  0.34115673204E+02  0.00000000000E+00 0. -1.
        3    1    5    5  501    0 -0.46268081846E+02  0.19278956714E+02  0.12265978932E+03  0.13250599038E+03  0.00000000000E+00 0. -1.
       -4    1    5    5    0  501 -0.21650255420E+02 -0.57257961975E+02  0.17322935391E+03  0.18372701714E+03  0.00000000000E+00 0.  1.
</event>
<event>
 9   1  0.7570500E-01  0.2499946E+03  0.7546771E-02  0.1113308E+00
       21   -1    0    0  503  502  0.00000000000E+00  0.00000000000E+00  0.14148632910E+03  0.14148632910E+03  0.00000000000E+00 0.  1.
       21   -1    0    0  502  503 -0.00000000000E+00 -0.00000000000E+00 -0.11042994455E+03  0.11042994455E+03  0.00000000000E+00 0.  1.
       25    2    1    2    0    0  0.35527136788E-14  0.00000000000E+00  0.31056384551E+02  0.25191627365E+03  0.24999461976E+03 0.  0.
       24    2    3    3    0    0 -0.55992507462E+01 -0.73753490339E+02  0.75688058422E+02  0.13425178895E+03  0.82607092323E+02 0.  0.
      -24    2    3    3    0    0  0.55992507462E+01  0.73753490339E+02 -0.44631673871E+02  0.11766448470E+03  0.79887519060E+02 0.  0.
      -13    1    4    4    0    0 -0.31337484449E+02 -0.76695791887E+02  0.45683727476E+02  0.94611232847E+02  0.00000000000E+00 0.  1.
       14    1    4    4    0    0  0.25738233702E+02  0.29423015480E+01  0.30004330946E+02  0.39640556101E+02  0.00000000000E+00 0. -1.
        1    1    5    5  501    0 -0.88576963932E+01  0.36690283018E+02  0.19279248186E+02  0.42383075206E+02  0.00000000000E+00 0. -1.
       -2    1    5    5    0  501  0.14456947139E+02  0.37063207322E+02 -0.63910922057E+02  0.75281409496E+02  0.00000000000E+00 0.  1.
</event>
<event>
 9   1  0.7570500E-01  0.2500056E+03  0.7546771E-02  0.1113301E+00
       21   -1    0    0  503  502  0.00000000000E+00  0.00000000000E+00  0.16726201503E+03  0.16726201503E+03  0.00000000000E+00 0.  1.
       21   -1    0    0  502  503 -0.00000000000E+00 -0.00000000000E+00 -0.93420492746E+02  0.93420492746E+02  0.00000000000E+00 0.  1.
       25    2    1    2    0    0  0.00000000000E+00  0.00000000000E+00  0.73841522287E+02  0.26068250778E+03  0.25000559883E+03 0.  0.
       24    2    3    3    0    0 -0.44120591092E+02  0.83473240660E+02  0.28271755934E+02  0.12741237405E+03  0.80747832251E+02 0.  0.
      -24    2    3    3    0    0  0.44120591092E+02 -0.83473240660E+02  0.45569766353E+02  0.13327013373E+03  0.82279502147E+02 0.  0.
      -13    1    4    4    0    0  0.16461531744E+02  0.45887319068E+02 -0.44776997946E+01  0.48955876808E+02  0.00000000000E+00 0.  1.
       14    1    4    4    0    0 -0.60582122836E+02  0.37585921592E+02  0.32749455729E+02  0.78456497244E+02  0.00000000000E+00 0. -1.
        1    1    5    5  501    0  0.82473456794E+01 -0.51947448193E+02  0.63323984494E+02  0.82319396844E+02  0.00000000000E+00 0. -1.
       -2    1    5    5    0  501  0.35873245413E+02 -0.31525792467E+02 -0.17754218141E+02  0.50950736883E+02  0.00000000000E+00 0.  1.
</event>
<event>
 9   1  0.7570500E-01  0.2499968E+03  0.7546771E-02  0.1113307E+00
       21   -1    0    0  503  502  0.00000000000E+00  0.00000000000E+00  0.22472117577E+03  0.22472117577E+03  0.00000000000E+00 0. -1.
       21   -1    0    0  502  503 -0.00000000000E+00 -0.00000000000E+00 -0.69528822148E+02  0.69528822148E+02  0.00000000000E+00 0. -1.
       25    2    1    2    0    0 -0.71054273576E-14  0.14210854715E-13  0.15519235362E+03  0.29424999792E+03  0.24999678928E+03 0.  0.
       24    2    3    3    0    0  0.36227904290E+02  0.77877339713E+02  0.28586152522E+02  0.12126784944E+03  0.80693135410E+02 0.  0.
      -24    2    3    3    0    0 -0.36227904290E+02 -0.77877339713E+02  0.12660620110E+03  0.17298214848E+03  0.80723927336E+02 0.  0.
      -13    1    4    4    0    0 -0.10361792706E+01  0.68127486695E+00 -0.21800783990E+02  0.21836024947E+02  0.00000000000E+00 0.  1.
       14    1    4    4    0    0  0.37264083561E+02  0.77196064846E+02  0.50386936512E+02  0.99431824495E+02  0.00000000000E+00 0. -1.
        1    1    5    5  501    0 -0.62128704835E+02 -0.55981312126E+02  0.95758116112E+02  0.12713575450E+03  0.00000000000E+00 0. -1.
       -2    1    5    5    0  501  0.25900800544E+02 -0.21896027586E+02  0.30848084990E+02  0.45846393974E+02  0.00000000000E+00 0.  1.
</event>
<event>
 9   1  0.7570500E-01  0.2500060E+03  0.7546771E-02  0.1113301E+00
       21   -1    0    0  503  502  0.00000000000E+00  0.00000000000E+00  0.49869682083E+02  0.49869682083E+02  0.00000000000E+00 0. -1.
       21   -1    0    0  502  503 -0.00000000000E+00 -0.00000000000E+00 -0.31333163418E+03  0.31333163418E+03  0.00000000000E+00 0. -1.
       25    2    1    2    0    0  0.00000000000E+00  0.71054273576E-14 -0.26346195210E+03  0.36320131627E+03  0.25000599179E+03 0.  0.
       24    2    3    3    0    0  0.94654640648E+02  0.64142271769E-01 -0.14105089765E+03  0.18881056398E+03  0.82429171007E+02 0.  0.
      -24    2    3    3    0    0 -0.94654640648E+02 -0.64142271769E-01 -0.12241105445E+03  0.17439075228E+03  0.80424891170E+02 0.  0.
      -13    1    4    4    0    0  0.39431492444E+02 -0.38909290589E+02 -0.82573671417E+02  0.99434333617E+02  0.00000000000E+00 0.  1.
       14    1    4    4    0    0  0.55223148204E+02  0.38973432861E+02 -0.58477226235E+02  0.89376230367E+02  0.00000000000E+00 0. -1.
        1    1    5    5  501    0 -0.71602585399E+02  0.13953545716E+02 -0.12753927255E+03  0.14692820599E+03  0.00000000000E+00 0. -1.
       -2    1    5    5    0  501 -0.23052055250E+02 -0.14017687988E+02  0.51282181019E+01  0.27462546288E+02  0.00000000000E+00 0.  1.
</event>
<event>
 9   1  0.7570500E-01  0.2500000E+03  0.7546771E-02  0.1113305E+00
       21   -1    0    0  503  502  0.00000000000E+00  0.00000000000E+00  0.17102529151E+03  0.17102529151E+03  0.00000000000E+00 0.  1.
       21   -1    0    0  502  503 -0.00000000000E+00 -0.00000000000E+00 -0.91360778445E+02  0.91360778445E+02  0.00000000000E+00 0.  1.
       25    2    1    2    0    0 -0.28421709430E-13  0.00000000000E+00  0.79664513063E+02  0.26238606995E+03  0.25000003013E+03 0.  0.
       24    2    3    3    0    0 -0.71475803572E+02  0.34227996403E+02 -0.15513228801E+02  0.11458324942E+03  0.81291540425E+02 0.  0.
      -24    2    3    3    0    0  0.71475803572E+02 -0.34227996403E+02  0.95177741864E+02  0.14780282054E+03  0.80663033533E+02 0.  0.
      -13    1    4    4    0    0  0.12999321972E+02  0.22792924491E+02  0.54468791840E+01  0.26798661747E+02  0.00000000000E+00 0.  1.
       14    1    4    4    0    0 -0.84475125544E+02  0.11435071912E+02 -0.20960107985E+02  0.87784587668E+02  0.00000000000E+00 0. -1.
        1    1    5    5  501    0  0.53318938882E+02  0.15137938701E+02  0.70564759769E+02  0.89729882162E+02  0.00000000000E+00 0. -1.
       -2    1    5    5    0  501  0.18156864690E+02 -0.49365935104E+02  0.24612982096E+02  0.58072938377E+02  0.00000000000E+00 0.  1.
</event>
<event>
 9   1  0.7570500E-01  0.2499950E+03  0.7546771E-02  0.1113308E+00
       21   -1    0    0  503  502  0.00000000000E+00  0.00000000000E+00  0.16877968933E+03  0.16877968933E+03  0.00000000000E+00 0. -1.
       21   -1    0    0  502  503 -0.00000000000E+00 -0.00000000000E+00 -0.92572574592E+02  0.92572574592E+02  0.00000000000E+00 0. -1.
       25    2    1    2    0    0 -0.17763568394E-14  0.00000000000E+00  0.76207114739E+02  0.26135226392E+03  0.24999496299E+03 0.  0.
       24    2    3    3    0    0 -0.99168345658E+01  0.96005348056E+02  0.46365949058E+02  0.13355451457E+03  0.79822532330E+02 0.  0.
      -24    2    3    3    0    0  0.99168345658E+01 -0.96005348056E+02  0.29841165681E+02  0.12779774935E+03  0.78271317266E+02 0.  0.
      -13    1    4    4    0    0 -0.13776040707E+02  0.49794825445E+02 -0.17571469791E+02  0.54571608821E+02  0.00000000000E+00 0.  1.
       14    1    4    4    0    0  0.38592061408E+01  0.46210522610E+02  0.63937418849E+02  0.78982905752E+02  0.00000000000E+00 0. -1.
        3    1    5    5  501    0  0.33255989048E+02 -0.39533234898E+02 -0.12876841616E+02  0.53241436110E+02  0.00000000000E+00 0. -1.
       -4    1    5    5    0  501 -0.23339154482E+02 -0.56472113158E+02  0.42718007298E+02  0.74556313240E+02  0.00000000000E+00 0.  1.
</event>
<event>
 9   1  0.7570500E-01  0.2499915E+03  0.7546771E-02  0.1113310E+00
       21   -1    0    0  503  502  0.00000000000E+00  0.00000000000E+00  0.12810966891E+03  0.12810966891E+03  0.00000000000E+00 0.  1.
       21   -1    0    0  502  503 -0.00000000000E+00 -0.00000000000E+00 -0.12195748526E+03  0.12195748526E+03  0.00000000000E+00 0.  1.
       25    2    1    2    0    0 -0.35527136788E-14  0.00000000000E+00  0.61521836459E+01  0.25006715417E+03  0.24999146431E+03 0.  0.
       24    2    3    3    0    0 -0.25508215089E+02  0.83590913121E+02 -0.35776726467E+02  0.12453832353E+03  0.81189347067E+02 0.  0.
      -24    2    3    3    0    0  0.25508215089E+02 -0.83590913121E+02  0.41928910113E+02  0.12552883064E+03  0.79758034234E+02 0.  0.
      -13    1    4    4    0    0 -0.14278069158E+02  0.91412949289E+02 -0.49691497154E+02  0.10502111905E+03  0.00000000000E+00 0.  1.
       14    1    4    4    0    0 -0.11230145932E+02 -0.78220361679E+01  0.13914770688E+02  0.19517204481E+02  0.00000000000E+00 0. -1.
        1    1    5    5  501    0  0.39880852571E+02 -0.67064556348E+02 -0.22256212607E+00  0.78026832909E+02  0.00000000000E+00 0. -1.
       -2    1    5    5    0  501 -0.14372637482E+02 -0.16526356773E+02  0.42151472239E+02  0.47501997729E+02  0.00000000000E+00 0.  1.
</event>
<event>
 9   1  0.7570500E-01  0.2499993E+03  0.7546771E-02  0.1113305E+00
       21   -1    0    0  503  502  0.00000000000E+00  0.00000000000E+00  0.54353484172E+02  0.54353484172E+02  0.00000000000E+00 0. -1.
       21   -1    0    0  502  503 -0.00000000000E+00 -0.00000000000E+00 -0.28746850927E+03  0.28746850927E+03  0.00000000000E+00 0. -1.
       25    2    1    2    0    0  0.14210854715E-13  0.17763568394E-14 -0.23311502509E+03  0.34182199344E+03  0.24999932055E+03 0.  0.
       24    2    3    3    0    0  0.94412725326E+02  0.45180193575E+01 -0.10724178130E+03  0.16461988840E+03  0.81637814765E+02 0.  0.
      -24    2    3    3    0    0 -0.94412725326E+02 -0.45180193575E+01 -0.12587324380E+03  0.17720210504E+03  0.81377744641E+02 0.  0.
      -13    1    4    4    0    0  0.12444113585E+02  0.90099882373E+01 -0.74781912294E+02  0.76343763709E+02  0.00000000000E+00 0.  1.
       14    1    4    4    0    0  0.81968611741E+02 -0.44919688798E+01 -0.32459869002E+02  0.88276124693E+02  0.00000000000E+00 0. -1.
        3    1    5    5  501    0 -0.39224118329E+02 -0.39319612147E+02 -0.36162232970E+02  0.66274206532E+02  0.00000000000E+00 0. -1.
       -4    1    5    5    0  501 -0.55188606996E+02  0.34801592789E+02 -0.89711010828E+02  0.11092789850E+03  0.00000000000E+00 0.  1.
</event>
<event>
 9   1  0.7570500E-01  0.2499990E+03  0.7546771E-02  0.1113305E+00
       21   -1    0    0  503  502  0.00000000000E+00  0.00000000000E+00  0.67970816145E+03  0.67970816145E+03  0.00000000000E+00 0.  1.
       21   -1    0    0  502  503 -0.00000000000E+00 -0.00000000000E+00 -0.22987629883E+02  0.22987629883E+02  0.00000000000E+00 0.  1.
       25    2    1    2    0    0 -0.35527136788E-14 -0.35527136788E-14  0.65672053157E+03  0.70269579134E+03  0.24999903715E+03 0.  0.
       24    2    3    3    0    0  0.87259747090E+01  0.15852067123E+02  0.53981054776E+02  0.94152446937E+02  0.74988654627E+02 0.  0.
      -24    2    3    3    0    0 -0.87259747090E+01 -0.15852067123E+02  0.60273947679E+03  0.60854334440E+03  0.81869985092E+02 0.  0.
      -13    1    4    4    0    0 -0.30417157333E+02  0.41361408394E+01  0.41125719917E+02  0.51318962967E+02  0.00000000000E+00 0.  1.
       14    1    4    4    0    0  0.39143132042E+02  0.11715926283E+02  0.12855334859E+02  0.42833483971E+02  0.00000000000E+00 0. -1.
        3    1    5    5  501    0  0.10739333244E+02  0.31140680663E+02  0.24623251008E+03  0.24842609423E+03  0.00000000000E+00 0. -1.
       -4    1    5    5    0  501 -0.19465307953E+02 -0.46992747785E+02  0.35650696671E+03  0.36011725017E+03  0.00000000000E+00 0.  1.
</event>
<event>
 9   1  0.7570500E-01  0.2499889E+03  0.7546771E-02  0.1113312E+00
       21   -1    0    0  503  502  0.00000000000E+00  0.00000000000E+00  0.88870837836E+02  0.88870837836E+02  0.00000000000E+00 0. -1.
       21   -1    0    0  502  503 -0.00000000000E+00 -0.00000000000E+00 -0.17580128272E+03  0.17580128272E+03  0.00000000000E+00 0. -1.
       25    2    1    2    0    0  0.35527136788E-14  0.00000000000E+00 -0.86930444880E+02  0.26467212055E+03  0.24998885805E+03 0.  0.
       24    2    3    3    0    0  0.30518061815E+02  0.13344958514E+02  0.51656042301E+02  0.10128602364E+03  0.80505104582E+02 0.  0.
      -24    2    3    3    0    0 -0.30518061815E+02 -0.13344958514E+02 -0.13858648718E+03  0.16338609691E+03  0.79870909728E+02 0.  0.
      -13    1    4    4    0    0  0.41975857768E+02  0.29298969814E+02  0.59454941712E+01  0.51533980717E+02  0.00000000000E+00 0.  1.
       14    1    4    4    0    0 -0.11457795953E+02 -0.15954011300E+02  0.45710548130E+02  0.49752042923E+02  0.00000000000E+00 0. -1.
        3    1    5    5  501    0 -0.44479945179E+02  0.20090431339E+02 -0.94159538188E+02  0.10605710531E+03  0.00000000000E+00 0. -1.
       -4    1    5    5    0  501  0.13961883364E+02 -0.33435389853E+02 -0.44426948993E+02  0.57328991605E+02  0.00000000000E+00 0.  1.
</event>
<event>
 9   1  0.7570500E-01  0.2500135E+03  0.7546771E-02  0.1113296E+00
       21   -1    0    0  503  502  0.00000000000E+00  0.00000000000E+00  0.11383555667E+04  0.11383555667E+04  0.00000000000E+00 0. -1.
       21   -1    0    0  502  503 -0.00000000000E+00 -0.00000000000E+00 -0.13727426345E+02  0.13727426345E+02  0.00000000000E+00 0. -1.
       25    2    1    2    0    0  0.35527136788E-14  0.00000000000E+00  0.11246281403E+04  0.11520829930E+04  0.25001353720E+03 0.  0.
       24    2    3    3    0    0  0.16425421613E+02  0.30055458302E+02  0.97326988966E+03  0.97703846457E+03  0.78592353916E+02 0.  0.
      -24    2    3    3    0    0 -0.16425421613E+02 -0.30055458302E+02  0.15135825065E+03  0.17504452843E+03  0.80982355130E+02 0.  0.
      -13    1    4    4    0    0  0.39809717751E+02  0.12983048861E+02  0.27510590748E+03  0.27827438531E+03  0.00000000000E+00 0.  1.
       14    1    4    4    0    0 -0.23384296138E+02  0.17072409441E+02  0.69816398217E+03  0.69876407927E+03  0.00000000000E+00 0. -1.
        1    1    5    5  501    0  0.32157521350E+01  0.18215264548E+02  0.42508997803E+01  0.18979122037E+02  0.00000000000E+00 0. -1.
       -2    1    5    5    0  501 -0.19641173748E+02 -0.48270722851E+02  0.14710735087E+03  0.15606540639E+03  0.00000000000E+00 0.  1.
</event>
<event>
 9   1  0.7570500E-01  0.2499930E+03  0.7546771E-02  0.1113309E+00
       21   -1    0    0  503  502  0.00000000000E+00  0.00000000000E+00  0.41563262751E+03  0.41563262751E+03  0.00000000000E+00 0. -1.
       21   -1    0    0  502  503 -0.00000000000E+00 -0.00000000000E+00 -0.37591188589E+02  0.37591188589E+02  0.00000000000E+00 0. -1.
       25    2    1    2    0    0 -0.14210854715E-13  0.00000000000E+00  0.37804143892E+03  0.45322381610E+03  0.24999299578E+03 0.  0.
       24    2    3    3    0    0  0.65721341336E+02 -0.74453955775E+01  0.68993510559E+02  0.12648623505E+03  0.82848865625E+02 0.  0.
      -24    2    3    3    0    0 -0.65721341336E+02  0.74453955775E+01  0.30904792836E+03  0.32673758105E+03  0.82898107474E+02 0.  0.
      -13    1    4    4    0    0  0.16334137170E+02  0.13367232903E+02  0.69764305505E+02  0.72887209270E+02  0.00000000000E+00 0.  1.
       14    1    4    4    0    0  0.49387204166E+02 -0.20812628480E+02 -0.77079494580E+00  0.53599025779E+02  0.00000000000E+00 0. -1.
        3    1    5    5  501    0 -0.63764686058E+02  0.31242851652E+02  0.15059874013E+03  0.16649934383E+03  0.00000000000E+00 0. -1.
       -4    1    5    5    0  501 -0.19566552780E+01 -0.23797456074E+02  0.15844918823E+03  0.16023823722E+03  0.00000000000E+00 0.  1.
</event>
<event>
 9   1  0.7570500E-01  0.2500042E+03  0.7546771E-02  0.1113302E+00
       21   -1    0    0  503  502  0.00000000000E+00  0.00000000000E+00  0.21609467254E+03  0.21609467254E+03  0.00000000000E+00 0.  1.
       21   -1    0    0  502  503 -0.00000000000E+00 -0.00000000000E+00 -0.72308697749E+02  0.72308697749E+02  0.00000000000E+00 0.  1.
       25    2    1    2    0    0  0.00000000000E+00  0.14210854715E-13  0.14378597479E+03  0.28840337029E+03  0.25000419486E+03 0.  0.
       24    2    3    3    0    0  0.52320263548E+02  0.76845291576E+02  0.33282696269E+02  0.12321390952E+03  0.73697495298E+02 0.  0.
      -24    2    3    3    0    0 -0.52320263548E+02 -0.76845291576E+02  0.11050327852E+03  0.16518946076E+03  0.80212059999E+02 0.  0.
      -13    1    4    4    0    0  0.46000625651E+02  0.73085060606E+02 -0.27875340174E+01  0.86401701314E+02  0.00000000000E+00 0.  1.
       14    1    4    4    0    0  0.63196378968E+01  0.37602309706E+01  0.36070230287E+02  0.36812208206E+02  0.00000000000E+00 0. -1.
        1    1    5    5  501    0 -0.64165748241E+02 -0.77324685179E+02  0.68658528873E+02  0.12169775582E+03  0.00000000000E+00 0. -1.
       -2    1    5    5    0  501  0.11845484694E+02  0.47939360258E+00  0.41844749645E+02  0.43491704942E+02  0.00000000000E+00 0.  1.
</event>
<event>
 9   1  0.7570500E-01  0.2499212E+03  0.7546771E-02  0.1113355E+00
       21   -1    0    0  503  502  0.00000000000E+00  0.00000000000E+00  0.51398034241E+03  0.51398034241E+03  0.00000000000E+00 0. -1.
       21   -1    0    0  502  503 -0.00000000000E+00 -0.00000000000E+00 -0.30380830572E+02  0.30380830572E+02  0.00000000000E+00 0. -1.
       25    2    1    2    0    0 -0.14210854715E-13  0.00000000000E+00  0.48359951184E+03  0.54436117298E+03  0.24992118518E+03 0.  0.
       24    2    3    3    0    0  0.91141490055E+02 -0.23087345346E+02  0.26265879138E+03  0.29117542133E+03  0.83388779643E+02 0.  0.
      -24    2    3    3    0    0 -0.91141490055E+02  0.23087345346E+02  0.22094072045E+03  0.25318575165E+03  0.80302093124E+02 0.  0.
      -13    1    4    4    0    0  0.50886269979E+01  0.20188521007E+02  0.15636424777E+02  0.26037824121E+02  0.00000000000E+00 0.  1.
       14    1    4    4    0    0  0.86052863057E+02 -0.43275866353E+02  0.24702236661E+03  0.26513759721E+03  0.00000000000E+00 0. -1.
        1    1    5    5  501    0 -0.72751168956E+02  0.15727262025E+02  0.74145698605E+02  0.10506028734E+03  0.00000000000E+00 0. -1.
       -2    1    5    5    0  501 -0.18390321099E+02  0.73600833217E+01  0.14679502185E+03  0.14812546431E+03  0.00000000000E+00 0.  1.
</event>
<event>
 9   1  0.7570500E-01  0.2500026E+03  0.7546771E-02  0.1113303E+00
       21   -1    0    0  503  502  0.00000000000E+00  0.00000000000E+00  0.30242327725E+03  0.30242327725E+03  0.00000000000E+00 0. -1.
       21   -1    0    0  502  503 -0.00000000000E+00 -0.00000000000E+00 -0.51667083570E+02  0.51667083570E+02  0.00000000000E+00 0. -1.
       25    2    1    2    0    0 -0.14210854715E-13  0.00000000000E+00  0.25075619368E+03  0.35409036082E+03  0.25000262990E+03 0.  0.
       24    2    3    3    0    0  0.75470136797E+02  0.14986468477E+02  0.57729633893E+02  0.12943860108E+03  0.86610074676E+02 0.  0.
      -24    2    3    3    0    0 -0.75470136797E+02 -0.14986468477E+02  0.19302655979E+03  0.22465175974E+03  0.85374613230E+02 0.  0.
      -13    1    4    4    0    0  0.30229812913E+01  0.29227373229E+02 -0.81434247691E+01  0.30490869596E+02  0.00000000000E+00 0.  1.
       14    1    4    4    0    0  0.72447155506E+02 -0.14240904752E+02  0.65873058662E+02  0.98947731487E+02  0.00000000000E+00 0. -1.
        1    1    5    5  501    0 -0.86683329949E+02  0.94561139896E+01  0.15833472872E+03  0.18075758380E+03  0.00000000000E+00 0. -1.
       -2    1    5    5    0  501  0.11213193152E+02 -0.24442582467E+02  0.34691831069E+02  0.43894175937E+02  0.00000000000E+00 0.  1.
</event>
<event>
 9   1  0.7570500E-01  0.2500021E+03  0.7546771E-02  0.1113304E+00
       21   -1    0    0  503  502  0.00000000000E+00  0.00000000000E+00  0.36849609169E+02  0.36849609169E+02  0.00000000000E+00 0.  1.
       21   -1    0    0  502  503 -0.00000000000E+00 -0.00000000000E+00 -0.42402782471E+03  0.42402782471E+03  0.00000000000E+00 0.  1.
       25    2    1    2    0    0  0.00000000000E+00  0.00000000000E+00 -0.38717821554E+03  0.46087743388E+03  0.25000207693E+03 0.  0.
       24    2    3    3    0    0  0.78488099222E+02  0.48122646061E+02 -0.24691691486E+03  0.27538412520E+03  0.79951752868E+02 0.  0.
      -24    2    3    3    0    0 -0.78488099222E+02 -0.48122646061E+02 -0.14026130068E+03  0.18549330868E+03  0.79109824365E+02 0.  0.
      -13    1    4    4    0    0  0.41091314019E+02  0.64260716372E+02 -0.19506759911E+03  0.20945000353E+03  0.00000000000E+00 0.  1.
       14    1    4    4    0    0  0.37396785204E+02 -0.16138070311E+02 -0.51849315745E+02  0.65934121668E+02  0.00000000000E+00 0. -1.
        1    1    5    5  501    0 -0.48739472267E+02  0.12433924414E+02 -0.82751118672E+02  0.96839487167E+02  0.00000000000E+00 0. -1.
       -2    1    5    5    0  501 -0.29748626956E+02 -0.60556570475E+02 -0.57510182011E+02  0.88653821511E+02  0.00000000000E+00 0.  1.
</event>
<event>
 9   1  0.7570500E-01  0.2500389E+03  0.7546771E-02  0.1113280E+00
       21   -1    0    0  503  502  0.00000000000E+00  0.00000000000E+00  0.13056498587E+03  0.13056498587E+03  0.00000000000E+00 0.  1.
       21   -1    0    0  502  503 -0.00000000000E+00 -0.00000000000E+00 -0.11970949253E+03  0.11970949253E+03  0.00000000000E+00 0.  1.
       25    2    1    2    0    0  0.35527136788E-14  0.00000000000E+00  0.10855493341E+02  0.25027447839E+03  0.25003894256E+03 0.  0.
       24    2    3    3    0    0 -0.31937143261E+02 -0.10450920522E+02  0.95001328730E+02  0.12928801569E+03  0.80999602962E+02 0.  0.
      -24    2    3    3    0    0  0.31937143261E+02  0.10450920522E+02 -0.84145835389E+02  0.12098646271E+03  0.80174807049E+02 0.  0.
      -13    1    4    4    0    0  0.15321696380E+02  0.22192444236E+02  0.48060647969E+02  0.55109752715E+02  0.00000000000E+00 0.  1.
       14    1    4    4    0    0 -0.47258839641E+02 -0.32643364758E+02  0.46940680762E+02  0.74178262970E+02  0.00000000000E+00 0. -1.
        1    1    5    5  501    0  0.40767940585E+02 -0.19291581686E+02 -0.19216302508E+02  0.49025058752E+02  0.00000000000E+00 0. -1.
       -2    1    5    5    0  501 -0.88307973246E+01  0.29742502207E+02 -0.64929532881E+02  0.71961403954E+02  0.00000000000E+00 0.  1.
</event>
<event>
 9   1  0.7570500E-01  0.2499996E+03  0.7546771E-02  0.1113305E+00
       21   -1    0    0  503  502  0.00000000000E+00  0.00000000000E+00  0.11031226691E+03  0.11031226691E+03  0.00000000000E+00 0.  1.
       21   -1    0    0  502  503 -0.00000000000E+00 -0.00000000000E+00 -0.14164292186E+03  0.14164292186E+03  0.00000000000E+00 0.  1.
       25    2    1    2    0    0  0.00000000000E+00  0.00000000000E+00 -0.31330654954E+02  0.25195518877E+03  0.24999961442E+03 0.  0.
       24    2    3    3    0    0  0.83982411528E+02  0.36815527027E+02 -0.31452439177E+02  0.12592902747E+03  0.80376834678E+02 0.  0.
      -24    2    3    3    0    0 -0.83982411528E+02 -0.36815527027E+02  0.12178422268E+00  0.12602616130E+03  0.86453166653E+02 0.  0.
      -13    1    4    4    0    0  0.22448082525E+01 -0.23839315227E+01 -0.35053749338E+02  0.35206357895E+02  0.00000000000E+00 0.  1.
       14    1    4    4    0    0  0.81737603276E+02  0.39199458550E+02  0.36013101612E+01  0.90722669575E+02  0.00000000000E+00 0. -1.
        1    1    5    5  501    0 -0.73061519615E+02 -0.39022111279E+02 -0.34446604460E+02  0.89706629498E+02  0.00000000000E+00 0. -1.
       -2    1    5    5    0  501 -0.10920891913E+02  0.22065842520E+01  0.34568388682E+02  0.36319531802E+02  0.00000000000E+00 0.  1.
</event>
<event>
 9   1  0.7570500E-01  0.2499951E+03  0.7546771E-02  0.1113308E+00
       21   -1    0    0  503  502  0.00000000000E+00  0.00000000000E+00  0.41784889498E+03  0.41784889498E+03  0.00000000000E+00 0. -1.
       21   -1    0    0  502  503 -0.00000000000E+00 -0.00000000000E+00 -0.37392430181E+02  0.37392430181E+02  0.00000000000E+00 0. -1.
       25    2    1    2    0    0  0.35527136788E-14 -0.14210854715E-13  0.38045646480E+03  0.45524132516E+03  0.24999508501E+03 0.  0.
       24    2    3    3    0    0 -0.13372034261E+02 -0.83236355140E+02  0.12486514606E+03  0.17024805672E+03  0.79284260711E+02 0.  0.
      -24    2    3    3    0    0  0.13372034261E+02  0.83236355140E+02  0.25559131874E+03  0.28499326845E+03  0.93739739327E+02 0.  0.
      -13    1    4    4    0    0  0.28046303393E+02 -0.64161076204E+02  0.72042895847E+02  0.10046600259E+03  0.00000000000E+00 0.  1.
       14    1    4    4    0    0 -0.41418337654E+02 -0.19075278937E+02  0.52822250217E+02  0.69782054130E+02  0.00000000000E+00 0. -1.
        3    1    5    5  501    0 -0.40609112968E+01  0.51971122356E+02  0.38081948232E+02  0.64557906880E+02  0.00000000000E+00 0. -1.
       -4    1    5    5    0  501  0.17432945557E+02  0.31265232784E+02  0.21750937051E+03  0.22043536157E+03  0.00000000000E+00 0.  1.
</event>
<event>
 9   1  0.7570500E-01  0.2499965E+03  0.7546771E-02  0.1113307E+00
       21   -1    0    0  503  502  0.00000000000E+00  0.00000000000E+00  0.42676575643E+02  0.42676575643E+02  0.00000000000E+00 0.  1.
       21   -1    0    0  502  503 -0.00000000000E+00 -0.00000000000E+00 -0.36611567381E+03  0.36611567381E+03  0.00000000000E+00 0.  1.
       25    2    1    2    0    0 -0.71054273576E-14  0.00000000000E+00 -0.32343909817E+03  0.40879224945E+03  0.24999650596E+03 0.  0.
       24    2    3    3    0    0  0.48066621910E+02 -0.26714014379E+02 -0.30205127426E+03  0.31713303940E+03  0.79462907629E+02 0.  0.
      -24    2    3    3    0    0 -0.48066621910E+02  0.26714014379E+02 -0.21387823903E+02  0.91659210053E+02  0.70142234567E+02 0.  0.
      -13    1    4    4    0    0  0.16137094904E+02 -0.52871660938E+02 -0.17926697577E+03  0.18759655371E+03  0.00000000000E+00 0.  1.
       14    1    4    4    0    0  0.31929527007E+02  0.26157646559E+02 -0.12278429850E+03  0.12953648569E+03  0.00000000000E+00 0. -1.
        1    1    5    5  501    0 -0.59455024862E+01 -0.17890594517E+02  0.11466973495E+02  0.22066124560E+02  0.00000000000E+00 0. -1.
       -2    1    5    5    0  501 -0.42121119424E+02  0.44604608896E+02 -0.32854797397E+02  0.69593085492E+02  0.00000000000E+00 0.  1.
</event>
<event>
 9   1  0.7570500E-01  0.2499974E+03  0.7546771E-02  0.1113306E+00
       21   -1    0    0  503  502  0.00000000000E+00  0.00000000000E+00  0.91191742180E+03  0.91191742180E+03  0.00000000000E+00 0. -1.
       21   -1    0    0  502  503 -0.00000000000E+00 -0.00000000000E+00 -0.17133865581E+02  0.17133865581E+02  0.00000000000E+00 0. -1.
       25    2    1    2    0    0  0.00000000000E+00  0.00000000000E+00  0.89478355622E+03  0.92905128738E+03  0.24999736420E+03 0.  0.
       24    2    3    3    0    0  0.42148867823E+02 -0.42067430085E+02  0.72816507211E+03  0.73513648525E+03  0.81578698051E+02 0.  0.
      -24    2    3    3    0    0 -0.42148867823E+02  0.42067430085E+02  0.16661848411E+03  0.19391480213E+03  0.79341259792E+02 0.  0.
      -13    1    4    4    0    0  0.63203690850E+02 -0.23870280706E+02  0.38827712027E+03  0.39411117589E+03  0.00000000000E+00 0.  1.
       14    1    4    4    0    0 -0.21054823027E+02 -0.18197149379E+02  0.33988795184E+03  0.34102530936E+03  0.00000000000E+00 0. -1.
        1    1    5    5  501    0 -0.15473575326E+02  0.12892407925E+02 -0.24472990594E+01  0.20288789717E+02  0.00000000000E+00 0. -1.
       -2    1    5    5    0  501 -0.26675292496E+02  0.29175022160E+02  0.16906578317E+03  0.17362601242E+03  0.00000000000E+00 0.  1.
</event>
<event>
 9   1  0.7570500E-01  0.2500024E+03  0.7546771E-02  0.1113303E+00
       21   -1    0    0  503  502  0.00000000000E+00  0.00000000000E+00  0.65682966602E+03  0.65682966602E+03  0.00000000000E+00 0.  1.
       21   -1    0    0  502  503 -0.00000000000E+00 -0.00000000000E+00 -0.23788961139E+02  0.23788961139E+02  0.00000000000E+00 0.  1.
       25    2    1    2    0    0  0.00000000000E+00  0.13322676296E-14  0.63304070488E+03  0.68061862716E+03  0.25000236319E+03 0.  0.
       24    2    3    3    0    0  0.98029348318E+02  0.23655356203E+01  0.31698250883E+03  0.34025965729E+03  0.75388159425E+02 0.  0.
      -24    2    3    3    0    0 -0.98029348318E+02 -0.23655356203E+01  0.31605819605E+03  0.34035896987E+03  0.79599599197E+02 0.  0.
      -13    1    4    4    0    0  0.87422662476E+02  0.22564829171E+01  0.31780775071E+03  0.32962035745E+03  0.00000000000E+00 0.  1.
       14    1    4    4    0    0  0.10606685841E+02  0.10905270314E+00 -0.82524187745E+00  0.10639299844E+02  0.00000000000E+00 0. -1.
        3    1    5    5  501    0 -0.81823056231E+02  0.20630604875E+02  0.28994427854E+03  0.30197403704E+03  0.00000000000E+00 0. -1.
       -4    1    5    5    0  501 -0.16206292087E+02 -0.22996140496E+02  0.26113917512E+02  0.38384932835E+02  0.00000000000E+00 0.  1.
</event>
<event>
 9   1  0.7570500E-01  0.2500026E+03  0.7546771E-02  0.1113303E+00
       21   -1    0    0  503  502  0.00000000000E+00  0.00000000000E+00  0.46786630354E+02  0.46786630354E+02  0.00000000000E+00 0. -1.
       21   -1    0    0  502  503 -0.00000000000E+00 -0.00000000000E+00 -0.33396974140E+03  0.33396974140E+03  0.00000000000E+00 0. -1.
       25    2    1    2    0    0  0.00000000000E+00  0.71054273576E-14 -0.28718311105E+03  0.38075637176E+03  0.25000255071E+03 0.  0.
       24    2    3    3    0    0 -0.65316444891E+02  0.37873375297E+02 -0.42845633692E+02  0.11152380017E+03  0.70008421977E+02 0.  0.
      -24    2    3    3    0    0  0.65316444891E+02 -0.37873375297E+02 -0.24433747736E+03  0.26923257159E+03  0.84170922733E+02 0.  0.
      -13    1    4    4    0    0  0.63623329063E+01  0.26952541712E+02 -0.23907626934E+02  0.36585426202E+02  0.00000000000E+00 0.  1.
       14    1    4    4    0    0 -0.71678777797E+02  0.10920833585E+02 -0.18938006758E+02  0.74938373966E+02  0.00000000000E+00 0. -1.
        1    1    5    5  501    0 -0.31727263022E+01 -0.94790422679E+01 -0.14465791856E+03  0.14500286838E+03  0.00000000000E+00 0. -1.
       -2    1    5    5    0  501  0.68489171193E+02 -0.28394333030E+02 -0.99679558795E+02  0.12422970321E+03  0.00000000000E+00 0.  1.
</event>
<event>
 9   1  0.7570500E-01  0.2499972E+03  0.7546771E-02  0.1113307E+00
       21   -1    0    0  503  502  0.00000000000E+00  0.00000000000E+00  0.90535002047E+02  0.90535002047E+02  0.00000000000E+00 0. -1.
       21   -1    0    0  502  503 -0.00000000000E+00 -0.00000000000E+00 -0.17258127808E+03  0.17258127808E+03  0.00000000000E+00 0. -1.
       25    2    1    2    0    0 -0.71054273576E-14 -0.14210854715E-13 -0.82046276028E+02  0.26311628012E+03  0.24999717090E+03 0.  0.
       24    2    3    3    0    0 -0.62586911822E+02 -0.65682216978E+02 -0.79092285618E+02  0.14313912433E+03  0.77472215090E+02 0.  0.
      -24    2    3    3    0    0  0.62586911822E+02  0.65682216978E+02 -0.29539904092E+01  0.11997715579E+03  0.78450727812E+02 0.  0.
      -13    1    4    4    0    0 -0.34103428112E+02 -0.13651170451E+02 -0.75202120014E+02  0.83694427044E+02  0.00000000000E+00 0.  1.
       14    1    4    4    0    0 -0.28483483710E+02 -0.52031046527E+02 -0.38901656043E+01  0.59444697286E+02  0.00000000000E+00 0. -1.
        1    1    5    5  501    0  0.43400013676E+00  0.34195084413E+02  0.27553774863E+02  0.43916997431E+02  0.00000000000E+00 0. -1.
       -2    1    5    5    0  501  0.62152911685E+02  0.31487132565E+02 -0.30507765272E+02  0.76060158362E+02  0.00000000000E+00 0.  1.
</event>
<event>
 9   1  0.7570500E-01  0.2499974E+03  0.7546771E-02  0.1113306E+00
       21   -1    0    0  503  502  0.00000000000E+00  0.00000000000E+00  0.46100513756E+02  0.46100513756E+02  0.00000000000E+00 0. -1.
       21   -1    0    0  502  503 -0.00000000000E+00 -0.00000000000E+00 -0.33892627693E+03  0.33892627693E+03  0.00000000000E+00 0. -1.
       25    2    1    2    0    0 -0.17763568394E-14  0.00000000000E+00 -0.29282576318E+03  0.38502679069E+03  0.24999740392E+03 0.  0.
       24    2    3    3    0    0  0.14175627471E+02 -0.72352849049E+02 -0.23295603960E+03  0.25690984325E+03  0.79361627964E+02 0.  0.
      -24    2    3    3    0    0 -0.14175627471E+02  0.72352849049E+02 -0.59869723579E+02  0.12811694744E+03  0.85986541043E+02 0.  0.
      -13    1    4    4    0    0  0.23454354905E+02 -0.21715373589E+02 -0.18088224722E+03  0.18368465253E+03  0.00000000000E+00 0.  1.
       14    1    4    4    0    0 -0.92787274344E+01 -0.50637475460E+02 -0.52073792378E+02  0.73225190722E+02  0.00000000000E+00 0. -1.
        1    1    5    5  501    0  0.10001981834E+02  0.52552630921E+02 -0.76007080872E+02  0.92945656165E+02  0.00000000000E+00 0. -1.
       -2    1    5    5    0  501 -0.24177609305E+02  0.19800218127E+02  0.16137357293E+02  0.35171291276E+02  0.00000000000E+00 0.  1.
</event>
<event>
 9   1  0.7570500E-01  0.2499849E+03  0.7546771E-02  0.1113314E+00
       21   -1    0    0  503  502  0.00000000000E+00  0.00000000000E+00  0.10064889431E+03  0.10064889431E+03  0.00000000000E+00 0. -1.
       21   -1    0    0  502  503 -0.00000000000E+00 -0.00000000000E+00 -0.15522389826E+03  0.15522389826E+03  0.00000000000E+00 0. -1.
       25    2    1    2    0    0  0.35527136788E-14  0.00000000000E+00 -0.54575003950E+02  0.25587279257E+03  0.24998490939E+03 0.  0.
       24    2    3    3    0    0 -0.23119763519E+02 -0.88532154102E+02 -0.47951765693E+02  0.13243873879E+03  0.82874495010E+02 0.  0.
      -24    2    3    3    0    0  0.23119763519E+02  0.88532154102E+02 -0.66232382577E+01  0.12343405379E+03  0.82581066679E+02 0.  0.
      -13    1    4    4    0    0 -0.52464989351E+01 -0.10043903408E+03 -0.31526294863E+02  0.10540129309E+03  0.00000000000E+00 0.  1.
       14    1    4    4    0    0 -0.17873264584E+02  0.11906879977E+02 -0.16425470829E+02  0.27037445694E+02  0.00000000000E+00 0. -1.
        1    1    5    5  501    0  0.49258354275E+02  0.29604941165E+02 -0.12124920388E+02  0.58735438210E+02  0.00000000000E+00 0. -1.
       -2    1    5    5    0  501 -0.26138590756E+02  0.58927212937E+02  0.55016821305E+01  0.64698615576E+02  0.00000000000E+00 0.  1.
</event>
<event>
 9   1  0.7570500E-01  0.2500003E+03  0.7546771E-02  0.1113305E+00
       21   -1    0    0  503  502  0.00000000000E+00  0.00000000000E+00  0.55099758258E+02  0.55099758258E+02  0.00000000000E+00 0.  1.
       21   -1    0    0  502  503 -0.00000000000E+00 -0.00000000000E+00 -0.28357726800E+03  0.28357726800E+03  0.00000000000E+00 0.  1.
       25    2    1    2    0    0  0.00000000000E+00  0.71054273576E-14 -0.22847750974E+03  0.33867702625E+03  0.25000031131E+03 0.  0.
       24    2    3    3    0    0 -0.84218674032E+02  0.44397319742E+02 -0.13270583201E+03  0.18194077466E+03  0.80172941690E+02 0.  0.
      -24    2    3    3    0    0  0.84218674032E+02 -0.44397319742E+02 -0.95771677731E+02  0.15673625159E+03  0.79562121970E+02 0.  0.
      -13    1    4    4    0    0 -0.81290786908E+01 -0.20561602853E+02 -0.39173229461E+02  0.44982255820E+02  0.00000000000E+00 0.  1.
       14    1    4    4    0    0 -0.76089595341E+02  0.64958922595E+02 -0.93532602547E+02  0.13695851884E+03  0.00000000000E+00 0. -1.
        3    1    5    5  501    0  0.83744887087E+02 -0.63361627135E+02 -0.83204846786E+02  0.13398114955E+03  0.00000000000E+00 0. -1.
       -4    1    5    5    0  501  0.47378694469E+00  0.18964307393E+02 -0.12566830945E+02  0.22755102042E+02  0.00000000000E+00 0.  1.
</event>
<event>
 9   1  0.7570500E-01  0.2500031E+03  0.7546771E-02  0.1113303E+00
       21   -1    0    0  503  502  0.00000000000E+00  0.00000000000E+00  0.13140973405E+04  0.13140973405E+04  0.00000000000E+00 0.  1.
       21   -1    0    0  502  503 -0.00000000000E+00 -0.00000000000E+00 -0.11890587459E+02  0.11890587459E+02  0.00000000000E+00 0.  1.
       25    2    1    2    0    0  0.00000000000E+00  0.00000000000E+00  0.13022067530E+04  0.13259879279E+04  0.25000311483E+03 0.  0.
       24    2    3    3    0    0  0.77418781018E+02  0.43659808646E+02  0.83339818286E+03  0.84205432751E+03  0.81259539361E+02 0.  0.
      -24    2    3    3    0    0 -0.77418781018E+02 -0.43659808646E+02  0.46880857013E+03  0.48393360040E+03  0.80687097006E+02 0.  0.
      -13    1    4    4    0    0  0.90499775747E+02  0.24635661839E+02  0.57202571786E+03  0.57966416755E+03  0.00000000000E+00 0.  1.
       14    1    4    4    0    0 -0.13080994729E+02  0.19024146807E+02  0.26137246500E+03  0.26239015996E+03  0.00000000000E+00 0. -1.
        3    1    5    5  501    0 -0.92243278838E+02 -0.32157521542E+02  0.42816918592E+03  0.43917169815E+03  0.00000000000E+00 0. -1.
       -4    1    5    5    0  501  0.14824497820E+02 -0.11502287104E+02  0.40639384207E+02  0.44761902249E+02  0.00000000000E+00 0.  1.
</event>
<event>
 9   1  0.7570500E-01  0.2499974E+03  0.7546771E-02  0.1113306E+00
       21   -1    0    0  503  502  0.00000000000E+00  0.00000000000E+00  0.20591761553E+02  0.20591761553E+02  0.00000000000E+00 0.  1.
       21   -1    0    0  502  503 -0.00000000000E+00 -0.00000000000E+00 -0.75878253417E+03  0.75878253417E+03  0.00000000000E+00 0.  1.
       25    2    1    2    0    0 -0.14210854715E-13  0.14210854715E-13 -0.73819077262E+03  0.77937429573E+03  0.24999735210E+03 0.  0.
       24    2    3    3    0    0  0.49095260795E+02 -0.64087504363E+02 -0.52943676121E+03  0.54158771146E+03  0.80600324076E+02 0.  0.
      -24    2    3    3    0    0 -0.49095260795E+02  0.64087504363E+02 -0.20875401142E+03  0.23778658427E+03  0.80291154728E+02 0.  0.
      -13    1    4    4    0    0  0.50348986207E+02 -0.14305839284E+02 -0.39058146370E+03  0.39407303541E+03  0.00000000000E+00 0.  1.
       14    1    4    4    0    0 -0.12537254114E+01 -0.49781665079E+02 -0.13885529750E+03  0.14751467605E+03  0.00000000000E+00 0. -1.
        3    1    5    5  501    0 -0.52697673115E+02  0.79649350866E+02 -0.15844237495E+03  0.18500013520E+03  0.00000000000E+00 0. -1.
       -4    1    5    5    0  501  0.36024123199E+01 -0.15561846503E+02 -0.50311636463E+02  0.52786449063E+02  0.00000000000E+00 0.  1.
</event>
<event>
 9   1  0.7570500E-01  0.2500021E+03  0.7546771E-02  0.1113303E+00
       21   -1    0    0  503  502  0.00000000000E+00  0.00000000000E+00  0.20327739389E+02  0.20327739389E+02  0.00000000000E+00 0.  1.
       21   -1    0    0  502  503 -0.00000000000E+00 -0.00000000000E+00 -0.76866711010E+03  0.76866711010E+03  0.00000000000E+00 0.  1.
       25    2    1    2    0    0  0.00000000000E+00  0.00000000000E+00 -0.74833937071E+03  0.78899484949E+03  0.25000211752E+03 0.  0.
       24    2    3    3    0    0 -0.73280888565E+02 -0.36918028777E+02 -0.22089192243E+03  0.24912456936E+03  0.80850356771E+02 0.  0.
      -24    2    3    3    0    0  0.73280888565E+02  0.36918028777E+02 -0.52744744829E+03  0.53987028013E+03  0.80784151799E+02 0.  0.
      -13    1    4    4    0    0 -0.17773562238E+02  0.39682964971E+01 -0.51759394509E+00  0.18218528898E+02  0.00000000000E+00 0.  1.
       14    1    4    4    0    0 -0.55507326328E+02 -0.40886325274E+02 -0.22037432848E+03  0.23090604047E+03  0.00000000000E+00 0. -1.
        3    1    5    5  501    0  0.68092798769E+02  0.44876067963E+02 -0.26530650649E+03  0.27755726095E+03  0.00000000000E+00 0. -1.
       -4    1    5    5    0  501  0.51880897964E+01 -0.79580391858E+01 -0.26214094180E+03  0.26231301918E+03  0.00000000000E+00 0.  1.
</event>
<event>
 9   1  0.7570500E-01  0.2499990E+03  0.7546771E-02  0.1113305E+00
       21   -1    0    0  503  502  0.00000000000E+00  0.00000000000E+00  0.15432227172E+03  0.15432227172E+03  0.00000000000E+00 0.  1.
       21   -1    0    0  502  503 -0.00000000000E+00 -0.00000000000E+00 -0.10124836746E+03  0.10124836746E+03  0.00000000000E+00 0.  1.
       25    2    1    2    0    0  0.00000000000E+00  0.00000000000E+00  0.53073904256E+02  0.25557063918E+03  0.24999902459E+03 0.  0.
       24    2    3    3    0    0 -0.26120443632E+02 -0.89334621566E+02 -0.65372555003E+01  0.11886022231E+03  0.73634669500E+02 0.  0.
      -24    2    3    3    0    0  0.26120443632E+02  0.89334621566E+02  0.59611159756E+02  0.13671041687E+03  0.80456792915E+02 0.  0.
      -13    1    4    4    0    0 -0.40435423799E+01  0.26679435498E+00  0.21919648003E+02  0.22291083033E+02  0.00000000000E+00 0.  1.
       14    1    4    4    0    0 -0.22076901252E+02 -0.89601415921E+02 -0.28456903503E+02  0.96569139278E+02  0.00000000000E+00 0. -1.
        1    1    5    5  501    0  0.33393759948E+02  0.64442401322E+02  0.76743503295E+02  0.10562921750E+03  0.00000000000E+00 0. -1.
       -2    1    5    5    0  501 -0.72733163164E+01  0.24892220244E+02 -0.17132343538E+02  0.31081199366E+02  0.00000000000E+00 0.  1.
</event>
<event>
 9   1  0.7570500E-01  0.2500038E+03  0.7546771E-02  0.1113302E+00
       21   -1    0    0  503  502  0.00000000000E+00  0.00000000000E+00  0.14904513255E+04  0.14904513255E+04  0.00000000000E+00 0.  1.
       21   -1    0    0  502  503 -0.00000000000E+00 -0.00000000000E+00 -0.10483720743E+02  0.10483720743E+02  0.00000000000E+00 0.  1.
       25    2    1    2    0    0  0.00000000000E+00  0.00000000000E+00  0.14799676048E+04  0.15009350463E+04  0.25000380380E+03 0.  0.
       24    2    3    3    0    0  0.78007672706E+02 -0.16738451984E+02  0.10651790932E+04  0.10711541090E+04  0.79995324710E+02 0.  0.
      -24    2    3    3    0    0 -0.78007672706E+02  0.16738451984E+02  0.41478851160E+03  0.42978093723E+03  0.79352201471E+02 0.  0.
      -13    1    4    4    0    0  0.21403573478E+02  0.30719366114E+02  0.45035880791E+03  0.45191243430E+03  0.00000000000E+00 0.  1.
       14    1    4    4    0    0  0.56604099228E+02 -0.47457818098E+02  0.61482028528E+03  0.61924167474E+03  0.00000000000E+00 0. -1.
        1    1    5    5  501    0 -0.49811993484E+02  0.48615954110E+02  0.24031427072E+03  0.25019131560E+03  0.00000000000E+00 0. -1.
       -2    1    5    5    0  501 -0.28195679221E+02 -0.31877502126E+02  0.17447424088E+03  0.17958962164E+03  0.00000000000E+00 0.  1.
</event>
<event>
 9   1  0.7570500E-01  0.2499494E+03  0.7546771E-02  0.1113337E+00
       21   -1    0    0  503  502  0.00000000000E+00  0.00000000000E+00  0.17555836052E+02  0.17555836052E+02  0.00000000000E+00 0. -1.
       21   -1    0    0  502  503 -0.00000000000E+00 -0.00000000000E+00 -0.88965721443E+03  0.88965721443E+03  0.00000000000E+00 0. -1.
       25    2    1    2    0    0  0.00000000000E+00  0.00000000000E+00 -0.87210137838E+03  0.90721305049E+03  0.24994940447E+03 0.  0.
       24    2    3    3    0    0 -0.90099807788E+02  0.16352196899E+02 -0.51738846565E+03  0.53154593491E+03  0.80404519889E+02 0.  0.
      -24    2    3    3    0    0  0.90099807788E+02 -0.16352196899E+02 -0.35471291273E+03  0.37566711558E+03  0.83181497722E+02 0.  0.
      -13    1    4    4    0    0 -0.48432532622E+02  0.48673717855E+02 -0.31533767667E+03  0.32272696099E+03  0.00000000000E+00 0.  1.
       14    1    4    4    0    0 -0.41667275166E+02 -0.32321520956E+02 -0.20205078899E+03  0.20881897391E+03  0.00000000000E+00 0. -1.
        3    1    5    5  501    0  0.63705038968E+02 -0.36700917182E+02 -0.31665963316E+03  0.32508247043E+03  0.00000000000E+00 0. -1.
       -4    1    5    5    0  501  0.26394768820E+02  0.20348720284E+02 -0.38053279572E+02  0.50584645145E+02  0.00000000000E+00 0.  1.
</event>
<event>
 9   1  0.7570500E-01  0.2499950E+03  0.7546771E-02  0.1113308E+00
       21   -1    0    0  503  502  0.00000000000E+00  0.00000000000E+00  0.85132574477E+03  0.85132574477E+03  0.00000000000E+00 0. -1.
       21   -1    0    0  502  503 -0.00000000000E+00 -0.00000000000E+00 -0.18352992387E+02  0.18352992387E+02  0.00000000000E+00 0. -1.
       25    2    1    2    0    0  0.00000000000E+00  0.14210854715E-13  0.83297275239E+03  0.86967873716E+03  0.24999499925E+03 0.  0.
       24    2    3    3    0    0  0.52253516167E+02 -0.77988967136E+02  0.46749006668E+03  0.48351890693E+03  0.80192655268E+02 0.  0.
      -24    2    3    3    0    0 -0.52253516167E+02  0.77988967136E+02  0.36548268570E+03  0.38615983024E+03  0.82031164762E+02 0.  0.
      -13    1    4    4    0    0  0.70620895696E+02 -0.47969595808E+02  0.37410912226E+03  0.38372650207E+03  0.00000000000E+00 0.  1.
       14    1    4    4    0    0 -0.18367379529E+02 -0.30019371329E+02  0.93380944423E+02  0.99792404857E+02  0.00000000000E+00 0. -1.
        1    1    5    5  501    0 -0.58964441641E+01  0.22998471151E+02  0.14361396316E+02  0.27747926647E+02  0.00000000000E+00 0. -1.
       -2    1    5    5    0  501 -0.46357072003E+02  0.54990495986E+02  0.35112128939E+03  0.35841190359E+03  0.00000000000E+00 0.  1.
</event>
<event>
 9   1  0.7570500E-01  0.2500000E+03  0.7546771E-02  0.1113305E+00
       21   -1    0    0  503  502  0.00000000000E+00  0.00000000000E+00  0.40740612601E+02  0.40740612601E+02  0.00000000000E+00 0. -1.
       21   -1    0    0  502  503 -0.00000000000E+00 -0.00000000000E+00 -0.38352388161E+03  0.38352388161E+03  0.00000000000E+00 0. -1.
       25    2    1    2    0    0  0.00000000000E+00  0.14210854715E-13 -0.34278326900E+03  0.42426449421E+03  0.24999998307E+03 0.  0.
       24    2    3    3    0    0  0.62210686542E+01 -0.73117442390E+02 -0.66109385026E+02  0.12693271535E+03  0.79728297122E+02 0.  0.
      -24    2    3    3    0    0 -0.62210686542E+01  0.73117442390E+02 -0.27667388398E+03  0.29733177885E+03  0.80454251366E+02 0.  0.
      -13    1    4    4    0    0  0.10010605606E+02 -0.88375091283E+02 -0.42512353572E+02  0.98578238928E+02  0.00000000000E+00 0.  1.
       14    1    4    4    0    0 -0.37895369518E+01  0.15257648892E+02 -0.23597031454E+02  0.28354476427E+02  0.00000000000E+00 0. -1.
        1    1    5    5  501    0  0.16955244660E+02  0.50206261753E+02 -0.24900402714E+03  0.25458034994E+03  0.00000000000E+00 0. -1.
       -2    1    5    5    0  501 -0.23176313314E+02  0.22911180637E+02 -0.27669856836E+02  0.42751428916E+02  0.00000000000E+00 0.  1.
</event>
<event>
 9   1  0.7570500E-01  0.2500034E+03  0.7546771E-02  0.1113303E+00
       21   -1    0    0  503  502  0.00000000000E+00  0.00000000000E+00  0.68177918180E+03  0.68177918180E+03  0.00000000000E+00 0. -1.
       21   -1    0    0  502  503 -0.00000000000E+00 -0.00000000000E+00 -0.22918601377E+02  0.22918601377E+02  0.00000000000E+00 0. -1.
       25    2    1    2    0    0  0.00000000000E+00 -0.17763568394E-14  0.65886058043E+03  0.70469778318E+03  0.25000340233E+03 0.  0.
       24    2    3    3    0    0 -0.95980001363E+02 -0.64082182313E+01  0.34859835583E+03  0.37054341739E+03  0.80798419317E+02 0.  0.
      -24    2    3    3    0    0  0.95980001363E+02  0.64082182313E+01  0.31026222460E+03  0.33415436579E+03  0.78378991060E+02 0.  0.
      -13    1    4    4    0    0 -0.90655686780E+02 -0.14903762286E+02  0.34861462113E+03  0.36051730852E+03  0.00000000000E+00 0.  1.
       14    1    4    4    0    0 -0.53243145830E+01  0.84955440546E+01 -0.16265303209E-01  0.10026108872E+02  0.00000000000E+00 0. -1.
        1    1    5    5  501    0  0.71310728360E+02  0.34261717697E+02  0.14950381476E+03  0.16914631508E+03  0.00000000000E+00 0. -1.
       -2    1    5    5    0  501  0.24669273003E+02 -0.27853499466E+02  0.16075840984E+03  0.16500805071E+03  0.00000000000E+00 0.  1.
</event>
<event>
 9   1  0.7570500E-01  0.2500067E+03  0.7546771E-02  0.1113301E+00
       21   -1    0    0  503  502  0.00000000000E+00  0.00000000000E+00  0.17558872676E+03  0.17558872676E+03  0.00000000000E+00 0.  1.
       21   -1    0    0  502  503 -0.00000000000E+00 -0.00000000000E+00 -0.88991145616E+02  0.88991145616E+02  0.00000000000E+00 0.  1.
       25    2    1    2    0    0  0.71054273576E-14  0.00000000000E+00  0.86597581144E+02  0.26457987238E+03  0.25000673552E+03 0.  0.
       24    2    3    3    0    0 -0.31440686556E+02 -0.47297469009E+02 -0.39468919345E+02  0.10581283254E+03  0.80081162518E+02 0.  0.
      -24    2    3    3    0    0  0.31440686556E+02  0.47297469009E+02  0.12606650049E+03  0.15876703983E+03  0.78029757443E+02 0.  0.
      -13    1    4    4    0    0 -0.56568194937E+02 -0.43962221930E+02 -0.21698224931E+02  0.74856199480E+02  0.00000000000E+00 0.  1.
       14    1    4    4    0    0  0.25127508381E+02 -0.33352470792E+01 -0.17770694414E+02  0.30956633061E+02  0.00000000000E+00 0. -1.
        3    1    5    5  501    0 -0.19680130782E+02 -0.48780196472E+01  0.46652224463E+02  0.50867796007E+02  0.00000000000E+00 0. -1.
       -4    1    5    5    0  501  0.51120817339E+02  0.52175488656E+02  0.79414276026E+02  0.10789924383E+03  0.00000000000E+00 0.  1.
</event>
<event>
 9   1  0.7570500E-01  0.2500014E+03  0.7546771E-02  0.1113304E+00
       21   -1    0    0  503  502  0.00000000000E+00  0.00000000000E+00  0.10877935588E+03  0.10877935588E+03  0.00000000000E+00 0.  1.
       21   -1    0    0  502  503 -0.00000000000E+00 -0.00000000000E+00 -0.14364102345E+03  0.14364102345E+03  0.00000000000E+00 0.  1.
       25    2    1    2    0    0  0.35527136788E-14  0.88817841970E-15 -0.34861667574E+02  0.25242037933E+03  0.25000142406E+03 0.  0.
       24    2    3    3    0    0 -0.22943491874E+02  0.67005922952E+01  0.76120415169E+02  0.11194069424E+03  0.78518148635E+02 0.  0.
      -24    2    3    3    0    0  0.22943491874E+02 -0.67005922952E+01 -0.11098208274E+03  0.14047968509E+03  0.82741872567E+02 0.  0.
      -13    1    4    4    0    0 -0.25732106531E+02  0.86102123302E+01 -0.75790487772E+01  0.28173019775E+02  0.00000000000E+00 0.  1.
       14    1    4    4    0    0  0.27886146574E+01 -0.19096200350E+01  0.83699463946E+02  0.83767674465E+02  0.00000000000E+00 0. -1.
        1    1    5    5  501    0  0.26158166821E+01  0.15733460615E+02  0.79033734722E+01  0.17800213259E+02  0.00000000000E+00 0. -1.
       -2    1    5    5    0  501  0.20327675191E+02 -0.22434052910E+02 -0.11888545622E+03  0.12267947183E+03  0.00000000000E+00 0.  1.
</event>
<event>
 9   1  0.7570500E-01  0.2500008E+03  0.7546771E-02  0.1113304E+00
       21   -1    0    0  503  502  0.00000000000E+00  0.00000000000E+00  0.74102449902E+02  0.74102449902E+02  0.00000000000E+00 0.  1.
       21   -1    0    0  502  503 -0.00000000000E+00 -0.00000000000E+00 -0.21085809657E+03  0.21085809657E+03  0.00000000000E+00 0.  1.
       25    2    1    2    0    0  0.00000000000E+00  0.00000000000E+00 -0.13675564667E+03  0.28496054647E+03  0.25000081230E+03 0.  0.
       24    2    3    3    0    0 -0.84764655812E+02  0.22729565340E+02 -0.25873086041E+02  0.12213311955E+03  0.80903660572E+02 0.  0.
      -24    2    3    3    0    0  0.84764655812E+02 -0.22729565340E+02 -0.11088256063E+03  0.16282742692E+03  0.80722665293E+02 0.  0.
      -13    1    4    4    0    0 -0.60904749605E+02  0.52771944584E+02 -0.22224655820E+02  0.83595466300E+02  0.00000000000E+00 0.  1.
       14    1    4    4    0    0 -0.23859906206E+02 -0.30042379244E+02 -0.36484302212E+01  0.38537653248E+02  0.00000000000E+00 0. -1.
        1    1    5    5  501    0  0.98896036050E+01  0.94473541494E+01 -0.70612253046E+02  0.71924592735E+02  0.00000000000E+00 0. -1.
       -2    1    5    5    0  501  0.74875052207E+02 -0.32176919489E+02 -0.40270307580E+02  0.90902834188E+02  0.00000000000E+00 0.  1.
</event>
<event>
 9   1  0.7570500E-01  0.2499917E+03  0.7546771E-02  0.1113310E+00
       21   -1    0    0  503  502  0.00000000000E+00  0.00000000000E+00  0.15190597975E+03  0.15190597975E+03  0.00000000000E+00 0.  1.
       21   -1    0    0  502  503 -0.00000000000E+00 -0.00000000000E+00 -0.10285287988E+03  0.10285287988E+03  0.00000000000E+00 0.  1.
       25    2    1    2    0    0  0.35527136788E-14  0.71054273576E-14  0.49053099877E+02  0.25475885963E+03  0.24999173977E+03 0.  0.
       24    2    3    3    0    0 -0.60557491650E+01 -0.40274128933E+02 -0.63108050556E+02  0.11143056818E+03  0.82313230538E+02 0.  0.
      -24    2    3    3    0    0  0.60557491650E+01  0.40274128933E+02  0.11216115043E+03  0.14332829145E+03  0.79398979231E+02 0.  0.
      -13    1    4    4    0    0 -0.14073022183E+02  0.22192413614E+02 -0.72770458448E+01  0.27267353586E+02  0.00000000000E+00 0.  1.
       14    1    4    4    0    0  0.80172730179E+01 -0.62466542547E+02 -0.55831004711E+02  0.84163214598E+02  0.00000000000E+00 0. -1.
        1    1    5    5  501    0  0.26977702622E+02  0.26027179429E+02  0.11026559879E+02  0.39074231029E+02  0.00000000000E+00 0. -1.
       -2    1    5    5    0  501 -0.20921953457E+02  0.14246949505E+02  0.10113459055E+03  0.10425406042E+03  0.00000000000E+00 0.  1.
</event>
<event>
 9   1  0.7570500E-01  0.2499994E+03  0.7546771E-02  0.1113305E+00
       21   -1    0    0  503  502  0.00000000000E+00  0.00000000000E+00  0.41888091563E+03  0.41888091563E+03  0.00000000000E+00 0. -1.
       21   -1    0    0  502  503 -0.00000000000E+00 -0.00000000000E+00 -0.37301603240E+02  0.37301603240E+02  0.00000000000E+00 0. -1.
       25    2    1    2    0    0  0.00000000000E+00  0.17763568394E-14  0.38157931239E+03  0.45618251887E+03  0.24999943776E+03 0.  0.
       24    2    3    3    0    0  0.70185873319E+01 -0.11784205302E+02  0.36153757766E+03  0.37107623840E+03  0.82462273686E+02 0.  0.
      -24    2    3    3    0    0 -0.70185873319E+01  0.11784205302E+02  0.20041734738E+02  0.85106280478E+02  0.81567639311E+02 0.  0.
      -13    1    4    4    0    0 -0.20105618077E+02  0.28458627707E+02  0.16453202267E+03  0.16818119947E+03  0.00000000000E+00 0.  1.
       14    1    4    4    0    0  0.27124205409E+02 -0.40242833009E+02  0.19700555498E+03  0.20289503893E+03  0.00000000000E+00 0. -1.
        3    1    5    5  501    0 -0.25171338625E+02  0.13025338450E+02  0.45625792965E+02  0.53711904766E+02  0.00000000000E+00 0. -1.
       -4    1    5    5    0  501  0.18152751293E+02 -0.12411331475E+01 -0.25584058227E+02  0.31394375712E+02  0.00000000000E+00 0.  1.
</event>
<event>
 9   1  0.7570500E-01  0.2499974E+03  0.7546771E-02  0.1113306E+00
       21   -1    0    0  503  502  0.00000000000E+00  0.00000000000E+00  0.10480227381E+03  0.10480227381E+03  0.00000000000E+00 0. -1.
       21   -1    0    0  502  503 -0.00000000000E+00 -0.00000000000E+00 -0.14908719464E+03  0.14908719464E+03  0.00000000000E+00 0. -1.
       25    2    1    2    0    0  0.71054273576E-14  0.00000000000E+00 -0.44284920832E+02  0.25388946845E+03  0.24999741594E+03 0.  0.
       24    2    3    3    0    0  0.49017159333E+02 -0.40827959651E+02  0.50497188048E+02  0.11414679372E+03  0.80061977978E+02 0.  0.
      -24    2    3    3    0    0 -0.49017159333E+02  0.40827959651E+02 -0.94782108881E+02  0.13974267473E+03  0.80465910667E+02 0.  0.
      -13    1    4    4    0    0  0.38904804654E+02 -0.57892761187E+02  0.11910645664E+02  0.70760293266E+02  0.00000000000E+00 0.  1.
       14    1    4    4    0    0  0.10112354679E+02  0.17064801535E+02  0.38586542384E+02  0.43386500455E+02  0.00000000000E+00 0. -1.
        3    1    5    5  501    0 -0.44904595184E+02 -0.59531569402E+01 -0.77374446728E+02  0.89658617838E+02  0.00000000000E+00 0. -1.
       -4    1    5    5    0  501 -0.41125641487E+01  0.46781116592E+02 -0.17407662152E+02  0.50084056895E+02  0.00000000000E+00 0.  1.
</event>
<event>
 9   1  0.7570500E-01  0.2499969E+03  0.7546771E-02  0.1113307E+00
       21   -1    0    0  503  502  0.00000000000E+00  0.00000000000E+00  0.19156055323E+02  0.19156055323E+02  0.00000000000E+00 0. -1.
       21   -1    0    0  502  503 -0.00000000000E+00 -0.00000000000E+00 -0.81564901053E+03  0.81564901053E+03  0.00000000000E+00 0. -1.
       25    2    1    2    0    0 -0.71054273576E-14  0.00000000000E+00 -0.79649295521E+03  0.83480506586E+03  0.24999694054E+03 0.  0.
       24    2    3    3    0    0 -0.27901811848E+02 -0.90026262928E+02 -0.46406408937E+03  0.47997813285E+03  0.78360001645E+02 0.  0.
      -24    2    3    3    0    0  0.27901811848E+02  0.90026262928E+02 -0.33242886585E+03  0.35482693300E+03  0.80684338106E+02 0.  0.
      -13    1    4    4    0    0 -0.49811106992E+02 -0.54178128450E+02 -0.21139202569E+03  0.22383700433E+03  0.00000000000E+00 0.  1.
       14    1    4    4    0    0  0.21909295144E+02 -0.35848134478E+02 -0.25267206368E+03  0.25614112852E+03  0.00000000000E+00 0. -1.
        1    1    5    5  501    0  0.11837470998E+01  0.10450825751E+01  0.47902503156E+01  0.50438034132E+01  0.00000000000E+00 0. -1.
       -2    1    5    5    0  501  0.26718064748E+02  0.88981180353E+02 -0.33721911616E+03  0.34978312959E+03  0.00000000000E+00 0.  1.
</event>
<event>
 9   1  0.7570500E-01  0.2500276E+03  0.7546771E-02  0.1113287E+00
       21   -1    0    0  503  502  0.00000000000E+00  0.00000000000E+00  0.12039667575E+03  0.12039667575E+03  0.00000000000E+00 0.  1.
       21   -1    0    0  502  503 -0.00000000000E+00 -0.00000000000E+00 -0.12980799743E+03  0.12980799743E+03  0.00000000000E+00 0.  1.
       25    2    1    2    0    0 -0.17763568394E-14  0.00000000000E+00 -0.94113216803E+01  0.25020467317E+03  0.25002760948E+03 0.  0.
       24    2    3    3    0    0 -0.15430021577E+02 -0.70773521317E+02 -0.68084993838E+02  0.12742104786E+03  0.79709348049E+02 0.  0.
      -24    2    3    3    0    0  0.15430021577E+02  0.70773521317E+02  0.58673672158E+02  0.12278362531E+03  0.79913965958E+02 0.  0.
      -13    1    4    4    0    0  0.17873388485E+02 -0.24238230063E+02 -0.63175364731E+02  0.69986259519E+02  0.00000000000E+00 0.  1.
       14    1    4    4    0    0 -0.33303410061E+02 -0.46535291255E+02 -0.49096291067E+01  0.57434788341E+02  0.00000000000E+00 0. -1.
        3    1    5    5  501    0  0.29967970583E+02  0.69074431023E+02  0.15069421945E+02  0.76788304837E+02  0.00000000000E+00 0. -1.
       -4    1    5    5    0  501 -0.14537949006E+02  0.16990902945E+01  0.43604250213E+02  0.45995320477E+02  0.00000000000E+00 0.  1.
</event>
<event>
 9   1  0.7570500E-01  0.2500015E+03  0.7546771E-02  0.1113304E+00
       21   -1    0    0  503  502  0.00000000000E+00  0.00000000000E+00  0.37655487135E+03  0.37655487135E+03  0.00000000000E+00 0. -1.
       21   -1    0    0  502  503 -0.00000000000E+00 -0.00000000000E+00 -0.41495127418E+02  0.41495127418E+02  0.00000000000E+00 0. -1.
       25    2    1    2    0    0  0.00000000000E+00 -0.14210854715E-13  0.33505974393E+03  0.41804999877E+03  0.25000153893E+03 0.  0.
       24    2    3    3    0    0  0.48420930958E+02  0.77781869329E+02  0.12227030349E+03  0.17246093773E+03  0.79988387748E+02 0.  0.
      -24    2    3    3    0    0 -0.48420930958E+02 -0.77781869329E+02  0.21278944044E+03  0.24558906104E+03  0.81486411070E+02 0.  0.
      -13    1    4    4    0    0  0.32832584628E+02  0.68305668473E+02  0.13168200459E+03  0.15193351603E+03  0.00000000000E+00 0.  1.
       14    1    4    4    0    0  0.15588346330E+02  0.94762008558E+01 -0.94117011017E+01  0.20527421699E+02  0.00000000000E+00 0. -1.
        3    1    5    5  501    0 -0.22524108279E+02 -0.55403939092E+02  0.46345651276E+02  0.75662747194E+02  0.00000000000E+00 0. -1.
       -4    1    5    5    0  501 -0.25896822680E+02 -0.22377930237E+02  0.16644378916E+03  0.16992631384E+03  0.00000000000E+00 0.  1.
</event>
<event>
 9   1  0.7570500E-01  0.2500093E+03  0.7546771E-02  0.1113299E+00
       21   -1    0    0  503  502  0.00000000000E+00  0.00000000000E+00  0.22558317540E+02  0.22558317540E+02  0.00000000000E+00 0.  1.
       21   -1    0    0  502  503 -0.00000000000E+00 -0.00000000000E+00 -0.69270076599E+03  0.69270076599E+03  0.00000000000E+00 0.  1.
       25    2    1    2    0    0  0.00000000000E+00  0.00000000000E+00 -0.67014244845E+03  0.71525908353E+03  0.25000931054E+03 0.  0.
       24    2    3    3    0    0 -0.22163357078E+02  0.35102839196E+02 -0.88086846624E+02  0.12630062854E+03  0.80430917594E+02 0.  0.
      -24    2    3    3    0    0  0.22163357078E+02 -0.35102839196E+02 -0.58205560183E+03  0.58895845499E+03  0.79749071286E+02 0.  0.
      -13    1    4    4    0    0 -0.42704974440E+02  0.32563769609E+02 -0.90731959275E+02  0.10543435098E+03  0.00000000000E+00 0.  1.
       14    1    4    4    0    0  0.20541617362E+02  0.25390695873E+01  0.26451126508E+01  0.20866277559E+02  0.00000000000E+00 0. -1.
        1    1    5    5  501    0  0.14225958977E+01 -0.25607552287E+02 -0.48053292243E+02  0.54469160161E+02  0.00000000000E+00 0. -1.
       -2    1    5    5    0  501  0.20740761180E+02 -0.94952869093E+01 -0.53400230958E+03  0.53448929483E+03  0.00000000000E+00 0.  1.
</event>
<event>
 9   1  0.7570500E-01  0.2499975E+03  0.7546771E-02  0.1113306E+00
       21   -1    0    0  503  502  0.00000000000E+00  0.00000000000E+00  0.12021836968E+03  0.12021836968E+03  0.00000000000E+00 0. -1.
       21   -1    0    0  502  503 -0.00000000000E+00 -0.00000000000E+00 -0.12996926720E+03  0.12996926720E+03  0.00000000000E+00 0. -1.
       25    2    1    2    0    0  0.00000000000E+00  0.71054273576E-14 -0.97508975270E+01  0.25018763688E+03  0.24999754728E+03 0.  0.
       24    2    3    3    0    0  0.50484261083E+02  0.33268670937E+02 -0.79694416601E+02  0.12768452216E+03  0.79351572622E+02 0.  0.
      -24    2    3    3    0    0 -0.50484261083E+02 -0.33268670937E+02  0.69943519074E+02  0.12250311472E+03  0.80370717138E+02 0.  0.
      -13    1    4    4    0    0  0.50287415912E+02  0.56950132576E+02 -0.63188638443E+02  0.98817740451E+02  0.00000000000E+00 0.  1.
       14    1    4    4    0    0  0.19684517173E+00 -0.23681461639E+02 -0.16505778159E+02  0.28866781705E+02  0.00000000000E+00 0. -1.
        1    1    5    5  501    0 -0.39196074080E+02  0.20967579747E+02  0.38478094690E+02  0.58792307274E+02  0.00000000000E+00 0. -1.
       -2    1    5    5    0  501 -0.11288187004E+02 -0.54236250684E+02  0.31465424385E+02  0.63710807449E+02  0.00000000000E+00 0.  1.
</event>
<event>
 9   1  0.7570500E-01  0.2500206E+03  0.7546771E-02  0.1113292E+00
       21   -1    0    0  503  502  0.00000000000E+00  0.00000000000E+00  0.16871193369E+02  0.16871193369E+02  0.00000000000E+00 0. -1.
       21   -1    0    0  502  503 -0.00000000000E+00 -0.00000000000E+00 -0.92628776854E+03  0.92628776854E+03  0.00000000000E+00 0. -1.
       25    2    1    2    0    0  0.00000000000E+00  0.00000000000E+00 -0.90941657517E+03  0.94315896191E+03  0.25002063961E+03 0.  0.
       24    2    3    3    0    0  0.84579716572E+02 -0.37261350467E+02 -0.42525841324E+03  0.44228238557E+03  0.78910416687E+02 0.  0.
      -24    2    3    3    0    0 -0.84579716572E+02  0.37261350467E+02 -0.48415816194E+03  0.50087657634E+03  0.89028547470E+02 0.  0.
      -13    1    4    4    0    0  0.44590615899E+02 -0.22650993143E+02 -0.36551679048E+03  0.36892264045E+03  0.00000000000E+00 0.  1.
       14    1    4    4    0    0  0.39989100674E+02 -0.14610357325E+02 -0.59741622761E+02  0.73359745119E+02  0.00000000000E+00 0. -1.
        1    1    5    5  501    0 -0.77044341831E+02 -0.12454360087E+02 -0.29515626684E+03  0.30530012045E+03  0.00000000000E+00 0. -1.
       -2    1    5    5    0  501 -0.75353747411E+01  0.49715710554E+02 -0.18900189510E+03  0.19557645589E+03  0.00000000000E+00 0.  1.
</event>
<event>
 9   1  0.7570500E-01  0.2499914E+03  0.7546771E-02  0.1113310E+00
       21   -1    0    0  503  502  0.00000000000E+00  0.00000000000E+00  0.19840442236E+02  0.19840442236E+02  0.00000000000E+00 0.  1.
       21   -1    0    0  502  503 -0.00000000000E+00 -0.00000000000E+00 -0.78747869787E+03  0.78747869787E+03  0.00000000000E+00 0.  1.
       25    2    1    2    0    0  0.71054273576E-14 -0.14210854715E-13 -0.76763825563E+03  0.80731914010E+03  0.24999140479E+03 0.  0.
       24    2    3    3    0    0 -0.47671664282E+02  0.85798945972E+02 -0.38693959278E+03  0.40710125622E+03  0.79844459113E+02 0.  0.
      -24    2    3    3    0    0  0.47671664282E+02 -0.85798945972E+02 -0.38069866285E+03  0.40021788388E+03  0.74892162319E+02 0.  0.
      -13    1    4    4    0    0 -0.25224364011E+00  0.23511792874E+02 -0.23506632529E+03  0.23623938139E+03  0.00000000000E+00 0.  1.
       14    1    4    4    0    0 -0.47419420642E+02  0.62287153098E+02 -0.15187326749E+03  0.17086187483E+03  0.00000000000E+00 0. -1.
        3    1    5    5  501    0  0.63280231391E+02 -0.43587851561E+02 -0.26998863467E+03  0.28071008414E+03  0.00000000000E+00 0. -1.
       -4    1    5    5    0  501 -0.15608567109E+02 -0.42211094410E+02 -0.11071002818E+03  0.11950779974E+03  0.00000000000E+00 0.  1.
</event>
<event>
 9   1  0.7570500E-01  0.2499705E+03  0.7546771E-02  0.1113323E+00
       21   -1    0    0  503  502  0.00000000000E+00  0.00000000000E+00  0.26035000913E+03  0.26035000913E+03  0.00000000000E+00 0.  1.
       21   -1    0    0  502  503 -0.00000000000E+00 -0.00000000000E+00 -0.60001183731E+02  0.60001183731E+02  0.00000000000E+00 0.  1.
       25    2    1    2    0    0 -0.71054273576E-14  0.00000000000E+00  0.20034882540E+03  0.32035119286E+03  0.24997046811E+03 0.  0.
       24    2    3    3    0    0 -0.30163212894E+02 -0.48472444196E+02  0.19475705786E+03  0.21825485549E+03  0.80283703829E+02 0.  0.
      -24    2    3    3    0    0  0.30163212894E+02  0.48472444196E+02  0.55917675346E+01  0.10209633737E+03  0.84457071824E+02 0.  0.
      -13    1    4    4    0    0  0.23428241101E+02 -0.72722812063E+01  0.92323774546E+02  0.95527210267E+02  0.00000000000E+00 0.  1.
       14    1    4    4    0    0 -0.53591453995E+02 -0.41200162990E+02  0.10243328332E+03  0.12272764523E+03  0.00000000000E+00 0. -1.
        3    1    5    5  501    0 -0.14763395770E+02  0.54049291098E+02  0.87787707973E+01  0.56712878075E+02  0.00000000000E+00 0. -1.
       -4    1    5    5    0  501  0.44926608664E+02 -0.55768469021E+01 -0.31870032627E+01  0.45383459291E+02  0.00000000000E+00 0.  1.
</event>
<event>
 9   1  0.7570500E-01  0.2499992E+03  0.7546771E-02  0.1113305E+00
       21   -1    0    0  503  502  0.00000000000E+00  0.00000000000E+00  0.18038109928E+03  0.18038109928E+03  0.00000000000E+00 0. -1.
       21   -1    0    0  502  503 -0.00000000000E+00 -0.00000000000E+00 -0.86621588734E+02  0.86621588734E+02  0.00000000000E+00 0. -1.
       25    2    1    2    0    0  0.35527136788E-14  0.00000000000E+00  0.93759510546E+02  0.26700268801E+03  0.24999917918E+03 0.  0.
       24    2    3    3    0    0  0.90870533006E+01  0.56795174568E+02  0.12516092694E+03  0.16154791340E+03  0.84405001636E+02 0.  0.
      -24    2    3    3    0    0 -0.90870533006E+01 -0.56795174568E+02 -0.31401416393E+02  0.10545477461E+03  0.82621995524E+02 0.  0.
      -13    1    4    4    0    0 -0.29867813919E+02  0.54848806802E+02  0.85923529230E+02  0.10622302383E+03  0.00000000000E+00 0.  1.
       14    1    4    4    0    0  0.38954867220E+02  0.19463677660E+01  0.39237397709E+02  0.55324889576E+02  0.00000000000E+00 0. -1.
        3    1    5    5  501    0  0.25303494032E+02  0.86491475844E+01 -0.83614578268E+01  0.28017646959E+02  0.00000000000E+00 0. -1.
       -4    1    5    5    0  501 -0.34390547332E+02 -0.65444322153E+02 -0.23039958567E+02  0.77437127649E+02  0.00000000000E+00 0.  1.
</event>
<event>
 9   1  0.7570500E-01  0.2500015E+03  0.7546771E-02  0.1113304E+00
       21   -1    0    0  503  502  0.00000000000E+00  0.00000000000E+00  0.30353419561E+02  0.30353419561E+02  0.00000000000E+00 0. -1.
       21   -1    0    0  502  503 -0.00000000000E+00 -0.00000000000E+00 -0.51477532626E+03  0.51477532626E+03  0.00000000000E+00 0. -1.
       25    2    1    2    0    0  0.00000000000E+00  0.00000000000E+00 -0.48442190670E+03  0.54512874582E+03  0.25000153166E+03 0.  0.
       24    2    3    3    0    0  0.47583820642E+02 -0.37788411297E+02 -0.40005497533E+03  0.41270406477E+03  0.81169438663E+02 0.  0.
      -24    2    3    3    0    0 -0.47583820642E+02  0.37788411297E+02 -0.84366931367E+02  0.13242468105E+03  0.82014224551E+02 0.  0.
      -13    1    4    4    0    0  0.10736763525E+02 -0.25756805481E+02 -0.34052760974E+03  0.34166905642E+03  0.00000000000E+00 0.  1.
       14    1    4    4    0    0  0.36847057117E+02 -0.12031605816E+02 -0.59527365593E+02  0.71035008349E+02  0.00000000000E+00 0. -1.
        3    1    5    5  501    0 -0.33362775560E+02  0.43144682716E+02 -0.97905988494E+02  0.11207194574E+03  0.00000000000E+00 0. -1.
       -4    1    5    5    0  501 -0.14221045082E+02 -0.53562714191E+01  0.13539057127E+02  0.20352735311E+02  0.00000000000E+00 0.  1.
</event>
<event>
 9   1  0.7570500E-01  0.2499843E+03  0.7546771E-02  0.1113315E+00
       21   -1    0    0  503  502  0.00000000000E+00  0.00000000000E+00  0.70655384924E+03  0.70655384924E+03  0.00000000000E+00 0.  1.
       21   -1    0    0  502  503 -0.00000000000E+00 -0.00000000000E+00 -0.22111600168E+02  0.22111600168E+02  0.00000000000E+00 0.  1.
       25    2    1    2    0    0  0.00000000000E+00  0.71054273576E-14  0.68444224907E+03  0.72866544941E+03  0.24998428920E+03 0.  0.
       24    2    3    3    0    0 -0.51638437146E+02  0.23061110650E+02  0.10754385880E+03  0.14543973028E+03  0.79929284760E+02 0.  0.
      -24    2    3    3    0    0  0.51638437146E+02 -0.23061110650E+02  0.57689839027E+03  0.58322571913E+03  0.64359488367E+02 0.  0.
      -13    1    4    4    0    0  0.13681052782E+02 -0.16577921037E+02  0.24606895454E+02  0.32672587516E+02  0.00000000000E+00 0.  1.
       14    1    4    4    0    0 -0.65319489928E+02  0.39639031687E+02  0.82936963348E+02  0.11276714276E+03  0.00000000000E+00 0. -1.
        1    1    5    5  501    0  0.20182280561E+02 -0.43622752444E+02  0.31592782636E+03  0.31956323388E+03  0.00000000000E+00 0. -1.
       -2    1    5    5    0  501  0.31456156585E+02  0.20561641794E+02  0.26097056390E+03  0.26366248524E+03  0.00000000000E+00 0.  1.
</event>
<event>
 9   1  0.7570500E-01  0.2499989E+03  0.7546771E-02  0.1113306E+00
       21   -1    0    0  503  502  0.00000000000E+00  0.00000000000E+00  0.41713925274E+02  0.41713925274E+02  0.00000000000E+00 0. -1.
       21   -1    0    0  502  503 -0.00000000000E+00 -0.00000000000E+00 -0.37457191481E+03  0.37457191481E+03  0.00000000000E+00 0. -1.
       25    2    1    2    0    0 -0.17763568394E-14  0.71054273576E-14 -0.33285798953E+03  0.41628584008E+03  0.24999891891E+03 0.  0.
       24    2    3    3    0    0 -0.25328334352E+01 -0.42327831992E+02 -0.22514918266E+02  0.93243150395E+02  0.79933115445E+02 0.  0.
      -24    2    3    3    0    0  0.25328334352E+01  0.42327831992E+02 -0.31034307127E+03  0.32304268968E+03  0.79029721431E+02 0.  0.
      -13    1    4    4    0    0  0.27275907248E+02  0.39830565444E+01  0.99567115444E+01  0.29308291666E+02  0.00000000000E+00 0.  1.
       14    1    4    4    0    0 -0.29808740683E+02 -0.46310888537E+02 -0.32471629810E+02  0.63934858729E+02  0.00000000000E+00 0. -1.
        1    1    5    5  501    0  0.87529647324E+01  0.20385852567E+01 -0.25033902747E+03  0.25050029720E+03  0.00000000000E+00 0. -1.
       -2    1    5    5    0  501 -0.62201312971E+01  0.40289246735E+02 -0.60004043795E+02  0.72542392486E+02  0.00000000000E+00 0.  1.
</event>
<event>
 9   1  0.7570500E-01  0.2500147E+03  0.7546771E-02  0.1113296E+00
       21   -1    0    0  503  502  0.00000000000E+00  0.00000000000E+00  0.51039590977E+02  0.51039590977E+02  0.00000000000E+00 0.  1.
       21   -1    0    0  502  503 -0.00000000000E+00 -0.00000000000E+00 -0.30617082202E+03  0.30617082202E+03  0.00000000000E+00 0.  1.
       25    2    1    2    0    0 -0.17763568394E-14 -0.71054273576E-14 -0.25513123105E+03  0.35721041300E+03  0.25001466777E+03 0.  0.
       24    2    3    3    0    0  0.15310982796E+02 -0.53830831171E+02 -0.23670814172E+03  0.26046065026E+03  0.93149457305E+02 0.  0.
      -24    2    3    3    0    0 -0.15310982796E+02  0.53830831171E+02 -0.18423089324E+02  0.96749762743E+02  0.76739310603E+02 0.  0.
      -13    1    4    4    0    0 -0.12701569055E+02  0.16677944365E+02 -0.11607271141E+03  0.11795065925E+03  0.00000000000E+00 0.  1.
       14    1    4    4    0    0  0.28012551851E+02 -0.70508775537E+02 -0.12063543031E+03  0.14250999100E+03  0.00000000000E+00 0. -1.
        3    1    5    5  501    0 -0.31935865106E+02  0.61286355402E+02 -0.29810955996E+02  0.75263602995E+02  0.00000000000E+00 0. -1.
       -4    1    5    5    0  501  0.16624882310E+02 -0.74555242302E+01  0.11387866672E+02  0.21486159748E+02  0.00000000000E+00 0.  1.
</event>
<event>
 9   1  0.7570500E-01  0.2499761E+03  0.7546771E-02  0.1113320E+00
       21   -1    0    0  503  502  0.00000000000E+00  0.00000000000E+00  0.66744482375E+02  0.66744482375E+02  0.00000000000E+00 0. -1.
       21   -1    0    0  502  503 -0.00000000000E+00 -0.00000000000E+00 -0.23405693079E+03  0.23405693079E+03  0.00000000000E+00 0. -1.
       25    2    1    2    0    0 -0.14210854715E-13  0.00000000000E+00 -0.16731244842E+03  0.30080141316E+03  0.24997606839E+03 0.  0.
       24    2    3    3    0    0 -0.86396212604E+02  0.34439527109E+02 -0.11529883906E+03  0.16801818204E+03  0.79283671894E+02 0.  0.
      -24    2    3    3    0    0  0.86396212604E+02 -0.34439527109E+02 -0.52013609358E+02  0.13278323112E+03  0.79218585756E+02 0.  0.
      -13    1    4    4    0    0  0.97266411974E+01  0.22598960560E+02 -0.16230558902E+02  0.29474592613E+02  0.00000000000E+00 0.  1.
       14    1    4    4    0    0 -0.96122853801E+02  0.11840566548E+02 -0.99068280155E+02  0.13854358943E+03  0.00000000000E+00 0. -1.
        1    1    5    5  501    0  0.76490296791E+02 -0.14615910885E+02 -0.69637380661E+02  0.10446891949E+03  0.00000000000E+00 0. -1.
       -2    1    5    5    0  501  0.99059158126E+01 -0.19823616224E+02  0.17623771303E+02  0.28314311632E+02  0.00000000000E+00 0.  1.
</event>
<event>
 9   1  0.7570500E-01  0.2499979E+03  0.7546771E-02  0.1113306E+00
       21   -1    0    0  503  502  0.00000000000E+00  0.00000000000E+00  0.21582887848E+03  0.21582887848E+03  0.00000000000E+00 0.  1.
       21   -1    0    0  502  503 -0.00000000000E+00 -0.00000000000E+00 -0.72394117236E+02  0.72394117236E+02  0.00000000000E+00 0.  1.
       25    2    1    2    0    0  0.71054273576E-14  0.00000000000E+00  0.14343476124E+03  0.28822299572E+03  0.24999792904E+03 0.  0.
       24    2    3    3    0    0  0.41698809768E+02 -0.57737977477E+02 -0.71436175780E+01  0.10333916211E+03  0.74535135160E+02 0.  0.
      -24    2    3    3    0    0 -0.41698809768E+02  0.57737977477E+02  0.15057837882E+03  0.18488383361E+03  0.80222933023E+02 0.  0.
      -13    1    4    4    0    0  0.23983168710E+02  0.11407096413E+02 -0.16627360680E+02  0.31333422302E+02  0.00000000000E+00 0.  1.
       14    1    4    4    0    0  0.17715641058E+02 -0.69145073890E+02  0.94837431025E+01  0.72005739803E+02  0.00000000000E+00 0. -1.
        1    1    5    5  501    0 -0.60195576494E+02  0.40938960459E+02  0.71842544369E+02  0.10227833150E+03  0.00000000000E+00 0. -1.
       -2    1    5    5    0  501  0.18496766726E+02  0.16799017018E+02  0.78735834453E+02  0.82605502111E+02  0.00000000000E+00 0.  1.
</event>
<event>
 9   1  0.7570500E-01  0.2499873E+03  0.7546771E-02  0.1113313E+00
       21   -1    0    0  503  502  0.00000000000E+00  0.00000000000E+00  0.36216248679E+02  0.36216248679E+02  0.00000000000E+00 0.  1.
       21   -1    0    0  502  503 -0.00000000000E+00 -0.00000000000E+00 -0.43139231562E+03  0.43139231562E+03  0.00000000000E+00 0.  1.
       25    2    1    2    0    0  0.00000000000E+00 -0.71054273576E-14 -0.39517606694E+03  0.46760856430E+03  0.24998729073E+03 0.  0.
       24    2    3    3    0    0 -0.39645424326E+02 -0.42912439853E+02 -0.51662648728E+02  0.10993103713E+03  0.77476231748E+02 0.  0.
      -24    2    3    3    0    0  0.39645424326E+02  0.42912439853E+02 -0.34351341822E+03  0.35767752718E+03  0.80737276325E+02 0.  0.
      -13    1    4    4    0    0  0.39707822435E+01 -0.45104266799E+02 -0.48186193137E+02  0.66121639455E+02  0.00000000000E+00 0.  1.
       14    1    4    4    0    0 -0.43616206570E+02  0.21918269461E+01 -0.34764555910E+01  0.43809397672E+02  0.00000000000E+00 0. -1.
        1    1    5    5  501    0  0.96601188270E+01 -0.18331381358E+02 -0.16979840571E+03  0.17105804869E+03  0.00000000000E+00 0. -1.
       -2    1    5    5    0  501  0.29985305499E+02  0.61243821211E+02 -0.17371501250E+03  0.18661947849E+03  0.00000000000E+00 0.  1.
</event>
<event>
 9   1  0.7570500E-01  0.2499980E+03  0.7546771E-02  0.1113306E+00
       21   -1    0    0  503  502  0.00000000000E+00  0.00000000000E+00  0.15779794749E+04  0.15779794749E+04  0.00000000000E+00 0.  1.
       21   -1    0    0  502  503 -0.00000000000E+00 -0.00000000000E+00 -0.99017486524E+01  0.99017486524E+01  0.00000000000E+00 0.  1.
       25    2    1    2    0    0  0.17763568394E-14  0.71054273576E-14  0.15680777262E+04  0.15878812235E+04  0.24999804911E+03 0.  0.
       24    2    3    3    0    0  0.12179560040E+02  0.45861717894E+02  0.13147934095E+04  0.13180831161E+04  0.80060928790E+02 0.  0.
      -24    2    3    3    0    0 -0.12179560040E+02 -0.45861717894E+02  0.25328431670E+03  0.26979810745E+03  0.79915172811E+02 0.  0.
      -13    1    4    4    0    0  0.16806530552E+02 -0.17377600394E+02  0.19449462860E+03  0.19599132893E+03  0.00000000000E+00 0.  1.
       14    1    4    4    0    0 -0.46269705120E+01  0.63239318287E+02  0.11202987809E+04  0.11220917872E+04  0.00000000000E+00 0. -1.
        3    1    5    5  501    0  0.11107771459E+02  0.17556696822E+02  0.29811525579E+02  0.36336582770E+02  0.00000000000E+00 0. -1.
       -4    1    5    5    0  501 -0.23287331499E+02 -0.63418414716E+02  0.22347279112E+03  0.23346152468E+03  0.00000000000E+00 0.  1.
</event>
<event>
 9   1  0.7570500E-01  0.2499952E+03  0.7546771E-02  0.1113308E+00
       21   -1    0    0  503  502  0.00000000000E+00  0.00000000000E+00  0.76182665254E+03  0.76182665254E+03  0.00000000000E+00 0.  1.
       21   -1    0    0  502  503 -0.00000000000E+00 -0.00000000000E+00 -0.20509122612E+02  0.20509122612E+02  0.00000000000E+00 0.  1.
       25    2    1    2    0    0  0.00000000000E+00 -0.14210854715E-13  0.74131752993E+03  0.78233577515E+03  0.24999516976E+03 0.  0.
       24    2    3    3    0    0  0.26993941869E+02  0.61867749115E+02  0.57751679066E+03  0.58804726333E+03  0.87850151638E+02 0.  0.
      -24    2    3    3    0    0 -0.26993941869E+02 -0.61867749115E+02  0.16380073927E+03  0.19428851182E+03  0.79756205784E+02 0.  0.
      -13    1    4    4    0    0  0.57001897282E+02  0.32245068814E+02  0.27997486188E+03  0.28753240520E+03  0.00000000000E+00 0.  1.
       14    1    4    4    0    0 -0.30007955413E+02  0.29622680301E+02  0.29754192878E+03  0.30051485813E+03  0.00000000000E+00 0. -1.
        3    1    5    5  501    0 -0.32698441244E+01  0.31686617007E+01 -0.79215513425E+01  0.91369181480E+01  0.00000000000E+00 0. -1.
       -4    1    5    5    0  501 -0.23724097745E+02 -0.65036410816E+02  0.17172229061E+03  0.18515159367E+03  0.00000000000E+00 0.  1.
</event>
<event>
 9   1  0.7570500E-01  0.2499972E+03  0.7546771E-02  0.1113307E+00
       21   -1    0    0  503  502  0.00000000000E+00  0.00000000000E+00  0.36134860953E+02  0.36134860953E+02  0.00000000000E+00 0.  1.
       21   -1    0    0  502  503 -0.00000000000E+00 -0.00000000000E+00 -0.43239811330E+03  0.43239811330E+03  0.00000000000E+00 0.  1.
       25    2    1    2    0    0 -0.35527136788E-14  0.71054273576E-14 -0.39626325235E+03  0.46853297426E+03  0.24999716559E+03 0.  0.
       24    2    3    3    0    0 -0.24311897465E+02 -0.60620675478E+02 -0.32054887385E+03  0.33712312057E+03  0.81452337238E+02 0.  0.
      -24    2    3    3    0    0  0.24311897465E+02  0.60620675478E+02 -0.75714378498E+02  0.13140985369E+03  0.85263989354E+02 0.  0.
      -13    1    4    4    0    0 -0.51266099793E+02 -0.45301266404E+02 -0.16689926532E+03  0.18037677925E+03  0.00000000000E+00 0.  1.
       14    1    4    4    0    0  0.26954202328E+02 -0.15319409074E+02 -0.15364960853E+03  0.15674634132E+03  0.00000000000E+00 0. -1.
        1    1    5    5  501    0  0.54691759204E+02  0.24421107704E+02 -0.46755504301E+02  0.75984578756E+02  0.00000000000E+00 0. -1.
       -2    1    5    5    0  501 -0.30379861739E+02  0.36199567774E+02 -0.28958874197E+02  0.55425274930E+02  0.00000000000E+00 0.  1.
</event>
<event>
 9   1  0.7570500E-01  0.2499761E+03  0.7546771E-02  0.1113320E+00
       21   -1    0    0  503  502  0.00000000000E+00  0.00000000000E+00  0.33320090451E+03  0.33320090451E+03  0.00000000000E+00 0. -1.
       21   -1    0    0  502  503 -0.00000000000E+00 -0.00000000000E+00 -0.46884676687E+02  0.46884676687E+02  0.00000000000E+00 0. -1.
       25    2    1    2    0    0 -0.71054273576E-14  0.00000000000E+00  0.28631622783E+03  0.38008558120E+03  0.24997613230E+03 0.  0.
       24    2    3    3    0    0 -0.37212527260E+02 -0.82933899094E+02  0.96383353350E+02  0.15543114658E+03  0.81279066933E+02 0.  0.
      -24    2    3    3    0    0  0.37212527260E+02  0.82933899094E+02  0.18993287448E+03  0.22465443462E+03  0.78309095143E+02 0.  0.
      -13    1    4    4    0    0 -0.24573344388E+02 -0.51448248860E+02  0.41624620830E+01  0.57167277841E+02  0.00000000000E+00 0.  1.
       14    1    4    4    0    0 -0.12639182872E+02 -0.31485650234E+02  0.92220891267E+02  0.98263868743E+02  0.00000000000E+00 0. -1.
        3    1    5    5  501    0  0.61407656127E+02  0.51443619334E+02  0.13234761656E+03  0.15470370975E+03  0.00000000000E+00 0. -1.
       -4    1    5    5    0  501 -0.24195128866E+02  0.31490279759E+02  0.57585257922E+02  0.69950724872E+02  0.00000000000E+00 0.  1.
</event>
<event>
 9   1  0.7570500E-01  0.2499967E+03  0.7546771E-02  0.1113307E+00
       21   -1    0    0  503  502  0.00000000000E+00  0.00000000000E+00  0.23601275260E+03  0.23601275260E+03  0.00000000000E+00 0.  1.
       21   -1    0    0  502  503 -0.00000000000E+00 -0.00000000000E+00 -0.66202321114E+02  0.66202321114E+02  0.00000000000E+00 0.  1.
       25    2    1    2    0    0 -0.71054273576E-14 -0.71054273576E-14  0.16981043148E+03  0.30221507371E+03  0.24999673625E+03 0.  0.
       24    2    3    3    0    0  0.45064118629E+02  0.55477625138E+02  0.16036393316E+03  0.19334515129E+03  0.80976631152E+02 0.  0.
      -24    2    3    3    0    0 -0.45064118629E+02 -0.55477625138E+02  0.94464983260E+01  0.10886992242E+03  0.81577460107E+02 0.  0.
      -13    1    4    4    0    0  0.31722961085E+02 -0.79914998411E+01  0.98209501275E+02  0.10351481281E+03  0.00000000000E+00 0.  1.
       14    1    4    4    0    0  0.13341157543E+02  0.63469124979E+02  0.62154431882E+02  0.89830338487E+02  0.00000000000E+00 0. -1.
        3    1    5    5  501    0 -0.84575665655E+01  0.20492790038E+02  0.10507008341E+02  0.24533285553E+02  0.00000000000E+00 0. -1.
       -4    1    5    5    0  501 -0.36606552063E+02 -0.75970415176E+02 -0.10605100151E+01  0.84336636863E+02  0.00000000000E+00 0.  1.
</event>
<event>
 9   1  0.7570500E-01  0.2500128E+03  0.7546771E-02  0.1113297E+00
       21   -1    0    0  503  502  0.00000000000E+00  0.00000000000E+00  0.10729856933E+03  0.10729856933E+03  0.00000000000E+00 0.  1.
       21   -1    0    0  502  503 -0.00000000000E+00 -0.00000000000E+00 -0.14563661117E+03  0.14563661117E+03  0.00000000000E+00 0.  1.
       25    2    1    2    0    0  0.00000000000E+00  0.00000000000E+00 -0.38338041839E+02  0.25293518050E+03  0.25001279984E+03 0.  0.
       24    2    3    3    0    0  0.82019788241E+02  0.40468925849E+02 -0.45064926225E+02  0.13075209411E+03  0.81855255890E+02 0.  0.
      -24    2    3    3    0    0 -0.82019788241E+02 -0.40468925849E+02  0.67268843859E+01  0.12218308639E+03  0.80737079478E+02 0.  0.
      -13    1    4    4    0    0  0.58973265609E+01  0.18733353549E+02  0.20184701968E+02  0.28162726951E+02  0.00000000000E+00 0.  1.
       14    1    4    4    0    0  0.76122461680E+02  0.21735572301E+02 -0.65249628193E+02  0.10258936716E+03  0.00000000000E+00 0. -1.
        1    1    5    5  501    0 -0.36810593228E+02 -0.24230738565E+02  0.43319806008E+02  0.61796068304E+02  0.00000000000E+00 0. -1.
       -2    1    5    5    0  501 -0.45209195013E+02 -0.16238187284E+02 -0.36592921622E+02  0.60387018082E+02  0.00000000000E+00 0.  1.
</event>
<event>
 9   1  0.7570500E-01  0.2500015E+03  0.7546771E-02  0.1113304E+00
       21   -1    0    0  503  502  0.00000000000E+00  0.00000000000E+00  0.37498019087E+02  0.37498019087E+02  0.00000000000E+00 0.  1.
       21   -1    0    0  502  503 -0.00000000000E+00 -0.00000000000E+00 -0.41669377634E+03  0.41669377634E+03  0.00000000000E+00 0.  1.
       25    2    1    2    0    0 -0.71054273576E-14  0.00000000000E+00 -0.37919575725E+03  0.45419179542E+03  0.25000152942E+03 0.  0.
       24    2    3    3    0    0 -0.10434543061E+02 -0.62232581961E+02 -0.59477631502E+02  0.11892926123E+03  0.81392914813E+02 0.  0.
      -24    2    3    3    0    0  0.10434543061E+02  0.62232581961E+02 -0.31971812575E+03  0.33526253419E+03  0.78736985937E+02 0.  0.
      -13    1    4    4    0    0 -0.40819920528E+02 -0.14965828390E+02 -0.11322642647E+02  0.44927098368E+02  0.00000000000E+00 0.  1.
       14    1    4    4    0    0  0.30385377467E+02 -0.47266753571E+02 -0.48154988855E+02  0.74002162864E+02  0.00000000000E+00 0. -1.
        3    1    5    5  501    0 -0.27601420677E+02  0.55635534505E+02 -0.18695550488E+03  0.19700129930E+03  0.00000000000E+00 0. -1.
       -4    1    5    5    0  501  0.38035963738E+02  0.65970474567E+01 -0.13276262087E+03  0.13826123489E+03  0.00000000000E+00 0.  1.
</event>
<event>
 9   1  0.7570500E-01  0.2500444E+03  0.7546771E-02  0.1113277E+00
       21   -1    0    0  503  502  0.00000000000E+00  0.00000000000E+00  0.16710246301E+02  0.16710246301E+02  0.00000000000E+00 0. -1.
       21   -1    0    0  502  503 -0.00000000000E+00 -0.00000000000E+00 -0.93538713994E+03  0.93538713994E+03  0.00000000000E+00 0. -1.
       25    2    1    2    0    0 -0.17763568394E-14  0.14210854715E-13 -0.91867689364E+03  0.95209738624E+03  0.25004439202E+03 0.  0.
       24    2    3    3    0    0  0.13219783601E+02  0.93490360771E+02 -0.44946498340E+03  0.46699839104E+03  0.84578458774E+02 0.  0.
      -24    2    3    3    0    0 -0.13219783601E+02 -0.93490360771E+02 -0.46921191023E+03  0.48509899520E+03  0.79031691155E+02 0.  0.
      -13    1    4    4    0    0  0.27429675881E+02  0.73942196345E+02 -0.42625959975E+03  0.43349403906E+03  0.00000000000E+00 0.  1.
       14    1    4    4    0    0 -0.14209892279E+02  0.19548164426E+02 -0.23205383655E+02  0.33504351980E+02  0.00000000000E+00 0. -1.
        1    1    5    5  501    0  0.12883412297E+02 -0.62322999647E+02 -0.39836379636E+03  0.40341523626E+03  0.00000000000E+00 0. -1.
       -2    1    5    5    0  501 -0.26103195898E+02 -0.31167361123E+02 -0.70848113875E+02  0.81683758943E+02  0.00000000000E+00 0.  1.
</event>
<event>
 9   1  0.7570500E-01  0.2500030E+03  0.7546771E-02  0.1113303E+00
       21   -1    0    0  503  502  0.00000000000E+00  0.00000000000E+00  0.23045832333E+02  0.23045832333E+02  0.00000000000E+00 0.  1.
       21   -1    0    0  502  503 -0.00000000000E+00 -0.00000000000E+00 -0.67801292185E+03  0.67801292185E+03  0.00000000000E+00 0.  1.
       25    2    1    2    0    0 -0.14210854715E-13  0.35527136788E-14 -0.65496708952E+03  0.70105875419E+03  0.25000297692E+03 0.  0.
       24    2    3    3    0    0  0.94108954753E+02  0.19007453290E+02 -0.36011623737E+03  0.38112263994E+03  0.79705605924E+02 0.  0.
      -24    2    3    3    0    0 -0.94108954753E+02 -0.19007453290E+02 -0.29485085216E+03  0.31993611425E+03  0.78767464965E+02 0.  0.
      -13    1    4    4    0    0  0.36316639926E+02 -0.16958305848E+02 -0.52422193985E+02  0.65989157405E+02  0.00000000000E+00 0.  1.
       14    1    4    4    0    0  0.57792314827E+02  0.35965759138E+02 -0.30769404338E+03  0.31513348254E+03  0.00000000000E+00 0. -1.
        3    1    5    5  501    0 -0.88351727864E+02 -0.41099767718E+02 -0.20136716342E+03  0.22370505856E+03  0.00000000000E+00 0. -1.
       -4    1    5    5    0  501 -0.57572268886E+01  0.22092314428E+02 -0.93483688739E+02  0.96231055687E+02  0.00000000000E+00 0.  1.
</event>
<event>
 9   1  0.7570500E-01  0.2499961E+03  0.7546771E-02  0.1113307E+00
       21   -1    0    0  503  502  0.00000000000E+00  0.00000000000E+00  0.21197944994E+03  0.21197944994E+03  0.00000000000E+00 0. -1.
       21   -1    0    0  502  503 -0.00000000000E+00 -0.00000000000E+00 -0.73707659312E+02  0.73707659312E+02  0.00000000000E+00 0. -1.
       25    2    1    2    0    0 -0.71054273576E-14  0.00000000000E+00  0.13827179062E+03  0.28568710925E+03  0.24999607259E+03 0.  0.
       24    2    3    3    0    0  0.48455504312E+02 -0.66132436725E+01 -0.25231515352E+02  0.96511246354E+02  0.79285057961E+02 0.  0.
      -24    2    3    3    0    0 -0.48455504312E+02  0.66132436725E+01  0.16350330598E+03  0.18917586290E+03  0.81624170115E+02 0.  0.
      -13    1    4    4    0    0  0.12654021654E+02 -0.26642376159E+02  0.19854695693E+02  0.35554878885E+02  0.00000000000E+00 0.  1.
       14    1    4    4    0    0  0.35801482658E+02  0.20029132487E+02 -0.45086211045E+02  0.60956367469E+02  0.00000000000E+00 0. -1.
        1    1    5    5  501    0 -0.68227543972E+02  0.38796658450E+00  0.14899560397E+03  0.16387445889E+03  0.00000000000E+00 0. -1.
       -2    1    5    5    0  501  0.19772039659E+02  0.62252770880E+01  0.14507702008E+02  0.25301404006E+02  0.00000000000E+00 0.  1.
</event>
<event>
 9   1  0.7570500E-01  0.2499980E+03  0.7546771E-02  0.1113306E+00
       21   -1    0    0  503  502  0.00000000000E+00  0.00000000000E+00  0.31089932498E+02  0.31089932498E+02  0.00000000000E+00 0.  1.
       21   -1    0    0  502  503 -0.00000000000E+00 -0.00000000000E+00 -0.50256610425E+03  0.50256610425E+03  0.00000000000E+00 0.  1.
       25    2    1    2    0    0  0.00000000000E+00  0.00000000000E+00 -0.47147617176E+03  0.53365603675E+03  0.24999797005E+03 0.  0.
       24    2    3    3    0    0 -0.20614962104E+02  0.77150315523E+02 -0.35275192248E+03  0.36885615542E+03  0.72414064449E+02 0.  0.
      -24    2    3    3    0    0  0.20614962104E+02 -0.77150315523E+02 -0.11872424928E+03  0.16479988133E+03  0.81770444984E+02 0.  0.
      -13    1    4    4    0    0 -0.18717619086E+02  0.14088450264E+02 -0.22659760715E+03  0.22780541974E+03  0.00000000000E+00 0.  1.
       14    1    4    4    0    0 -0.18973430182E+01  0.63061865259E+02 -0.12615431533E+03  0.14105073568E+03  0.00000000000E+00 0. -1.
        1    1    5    5  501    0  0.17004979112E+02 -0.82439469609E+02 -0.12819922637E+03  0.15336387158E+03  0.00000000000E+00 0. -1.
       -2    1    5    5    0  501  0.36099829926E+01  0.52891540855E+01  0.94749770933E+01  0.11436009753E+02  0.00000000000E+00 0.  1.
</event>
<event>
 9   1  0.7570500E-01  0.2499973E+03  0.7546771E-02  0.1113306E+00
       21   -1    0    0  503  502  0.00000000000E+00  0.00000000000E+00  0.18177783458E+03  0.18177783458E+03  0.00000000000E+00 0.  1.
       21   -1    0    0  502  503 -0.00000000000E+00 -0.00000000000E+00 -0.85954750937E+02  0.85954750937E+02  0.00000000000E+00 0.  1.
       25    2    1    2    0    0  0.00000000000E+00  0.14210854715E-13  0.95823083644E+02  0.26773258552E+03  0.24999734796E+03 0.  0.
       24    2    3    3    0    0 -0.29221397235E+02 -0.89463107910E+02  0.33924680531E+02  0.12782381620E+03  0.79564478921E+02 0.  0.
      -24    2    3    3    0    0  0.29221397235E+02  0.89463107910E+02  0.61898403113E+02  0.13990876932E+03  0.82978995477E+02 0.  0.
      -13    1    4    4    0    0  0.10685433101E+02 -0.18004642578E+02  0.40625734135E+02  0.45703346802E+02  0.00000000000E+00 0.  1.
       14    1    4    4    0    0 -0.39906830336E+02 -0.71458465332E+02 -0.67010536036E+01  0.82120469399E+02  0.00000000000E+00 0. -1.
        3    1    5    5  501    0  0.51830695057E+02  0.36693116583E+02  0.13737415417E+02  0.64973243239E+02  0.00000000000E+00 0. -1.
       -4    1    5    5    0  501 -0.22609297822E+02  0.52769991327E+02  0.48160987695E+02  0.74935526077E+02  0.00000000000E+00 0.  1.
</event>
<event>
 9   1  0.7570500E-01  0.2499982E+03  0.7546771E-02  0.1113306E+00
       21   -1    0    0  503  502  0.00000000000E+00  0.00000000000E+00  0.13623633371E+03  0.13623633371E+03  0.00000000000E+00 0. -1.
       21   -1    0    0  502  503 -0.00000000000E+00 -0.00000000000E+00 -0.11468874244E+03  0.11468874244E+03  0.00000000000E+00 0. -1.
       25    2    1    2    0    0  0.00000000000E+00 -0.35527136788E-14  0.21547591273E+02  0.25092507615E+03  0.24999819030E+03 0.  0.
       24    2    3    3    0    0 -0.47113102024E+02 -0.15961169157E+02  0.93032987692E+02  0.13348188041E+03  0.81779412416E+02 0.  0.
      -24    2    3    3    0    0  0.47113102024E+02  0.15961169157E+02 -0.71485396419E+02  0.11744319575E+03  0.78793013793E+02 0.  0.
      -13    1    4    4    0    0 -0.39301232676E+02  0.14501899032E+02  0.77726327637E+01  0.42606405451E+02  0.00000000000E+00 0.  1.
       14    1    4    4    0    0 -0.78118693483E+01 -0.30463068189E+02  0.85260354928E+02  0.90875474957E+02  0.00000000000E+00 0. -1.
        3    1    5    5  501    0  0.22263185499E+02  0.25943451238E+02  0.66664819829E+01  0.34830361364E+02  0.00000000000E+00 0. -1.
       -4    1    5    5    0  501  0.24849916525E+02 -0.99822820804E+01 -0.78151878402E+02  0.82612834382E+02  0.00000000000E+00 0.  1.
</event>
<event>
 9   1  0.7570500E-01  0.2499999E+03  0.7546771E-02  0.1113305E+00
       21   -1    0    0  503  502  0.00000000000E+00  0.00000000000E+00  0.49478267205E+03  0.49478267205E+03  0.00000000000E+00 0.  1.
       21   -1    0    0  502  503 -0.00000000000E+00 -0.00000000000E+00 -0.31579490534E+02  0.31579490534E+02  0.00000000000E+00 0.  1.
       25    2    1    2    0    0  0.00000000000E+00  0.00000000000E+00  0.46320318151E+03  0.52636216258E+03  0.24999987766E+03 0.  0.
       24    2    3    3    0    0  0.49690913944E+02  0.75524685817E+02  0.16681110817E+03  0.20610623222E+03  0.80502596556E+02 0.  0.
      -24    2    3    3    0    0 -0.49690913944E+02 -0.75524685817E+02  0.29639207334E+03  0.32025593036E+03  0.80885318184E+02 0.  0.
      -13    1    4    4    0    0  0.22093271505E+02  0.87965399373E+02  0.12169445323E+03  0.15177471489E+03  0.00000000000E+00 0.  1.
       14    1    4    4    0    0  0.27597642439E+02 -0.12440713555E+02  0.45116654940E+02  0.54331517326E+02  0.00000000000E+00 0. -1.
        3    1    5    5  501    0 -0.14260931305E+02 -0.23573128301E+02  0.13917833390E+02  0.30867015176E+02  0.00000000000E+00 0. -1.
       -4    1    5    5    0  501 -0.35429982639E+02 -0.51951557516E+02  0.28247423995E+03  0.28938891519E+03  0.00000000000E+00 0.  1.
</event>
<event>
 9   1  0.7570500E-01  0.2499997E+03  0.7546771E-02  0.1113305E+00
       21   -1    0    0  503  502  0.00000000000E+00  0.00000000000E+00  0.18041406261E+03  0.18041406261E+03  0.00000000000E+00 0. -1.
       21   -1    0    0  502  503 -0.00000000000E+00 -0.00000000000E+00 -0.86606129503E+02  0.86606129503E+02  0.00000000000E+00 0. -1.
       25    2    1    2    0    0  0.00000000000E+00  0.14210854715E-13  0.93807933111E+02  0.26702019212E+03  0.24999970937E+03 0.  0.
       24    2    3    3    0    0  0.39852454553E+02  0.80817307780E+02  0.52681053612E+01  0.11759616455E+03  0.75375391294E+02 0.  0.
      -24    2    3    3    0    0 -0.39852454553E+02 -0.80817307780E+02  0.88539827749E+02  0.14942402756E+03  0.79803405599E+02 0.  0.
      -13    1    4    4    0    0 -0.13871376636E+02  0.44628172809E+02  0.20533063495E+02  0.51046014482E+02  0.00000000000E+00 0.  1.
       14    1    4    4    0    0  0.53723831189E+02  0.36189134971E+02 -0.15264958134E+02  0.66550150070E+02  0.00000000000E+00 0. -1.
        3    1    5    5  501    0  0.19260479622E+02 -0.44514015364E+02  0.21851796620E+02  0.53197412104E+02  0.00000000000E+00 0. -1.
       -4    1    5    5    0  501 -0.59112934175E+02 -0.36303292416E+02  0.66688031129E+02  0.96226615461E+02  0.00000000000E+00 0.  1.
</event>
<event>
 9   1  0.7570500E-01  0.2500018E+03  0.7546771E-02  0.1113304E+00
       21   -1    0    0  503  502  0.00000000000E+00  0.00000000000E+00  0.15445721118E+03  0.15445721118E+03  0.00000000000E+00 0. -1.
       21   -1    0    0  502  503 -0.00000000000E+00 -0.00000000000E+00 -0.10116216857E+03  0.10116216857E+03  0.00000000000E+00 0. -1.
       25    2    1    2    0    0  0.00000000000E+00  0.00000000000E+00  0.53295042611E+02  0.25561937975E+03  0.25000181147E+03 0.  0.
       24    2    3    3    0    0 -0.41809414760E+02 -0.10312376799E+02  0.11476127926E+03  0.14628381624E+03  0.79840036319E+02 0.  0.
      -24    2    3    3    0    0  0.41809414760E+02  0.10312376799E+02 -0.61466236649E+02  0.10933556351E+03  0.79509715899E+02 0.  0.
      -13    1    4    4    0    0 -0.41608898595E+02 -0.27413768430E+02  0.26608670119E+02  0.56487489476E+02  0.00000000000E+00 0.  1.
       14    1    4    4    0    0 -0.20051616523E+00  0.17101391631E+02  0.88152609140E+02  0.89796326766E+02  0.00000000000E+00 0. -1.
        1    1    5    5  501    0  0.33259308276E+02 -0.32264006838E+02 -0.38297116856E+02  0.60115030431E+02  0.00000000000E+00 0. -1.
       -2    1    5    5    0  501  0.85501064841E+01  0.42576383637E+02 -0.23169119793E+02  0.49220533078E+02  0.00000000000E+00 0.  1.
</event>
<event>
 9   1  0.7570500E-01  0.2499984E+03  0.7546771E-02  0.1113306E+00
       21   -1    0    0  503  502  0.00000000000E+00  0.00000000000E+00  0.16752455632E+03  0.16752455632E+03  0.00000000000E+00 0.  1.
       21   -1    0    0  502  503 -0.00000000000E+00 -0.00000000000E+00 -0.93268711223E+02  0.93268711223E+02  0.00000000000E+00 0.  1.
       25    2    1    2    0    0  0.00000000000E+00  0.00000000000E+00  0.74255845092E+02  0.26079326754E+03  0.24999839572E+03 0.  0.
       24    2    3    3    0    0 -0.77327333639E+02 -0.43001351363E+02  0.75562059950E+02  0.14098282933E+03  0.79610932142E+02 0.  0.
      -24    2    3    3    0    0  0.77327333639E+02  0.43001351363E+02 -0.13062148581E+01  0.11981043820E+03  0.80772533442E+02 0.  0.
      -13    1    4    4    0    0 -0.38470869639E+02  0.19898686356E+02  0.16479835683E+02  0.46341671459E+02  0.00000000000E+00 0.  1.
       14    1    4    4    0    0 -0.38856464000E+02 -0.62900037719E+02  0.59082224267E+02  0.94641157875E+02  0.00000000000E+00 0. -1.
        3    1    5    5  501    0  0.33752220057E+02  0.44569528672E+02 -0.33890140754E+02  0.65377342292E+02  0.00000000000E+00 0. -1.
       -4    1    5    5    0  501  0.43575113582E+02 -0.15681773099E+01  0.32583925896E+02  0.54433095912E+02  0.00000000000E+00 0.  1.
</event>
<event>
 9   1  0.7570500E-01  0.2500013E+03  0.7546771E-02  0.1113304E+00
       21   -1    0    0  503  502  0.00000000000E+00  0.00000000000E+00  0.68284136996E+03  0.68284136996E+03  0.00000000000E+00 0. -1.
       21   -1    0    0  502  503 -0.00000000000E+00 -0.00000000000E+00 -0.22882564420E+02  0.22882564420E+02  0.00000000000E+00 0. -1.
       25    2    1    2    0    0 -0.35527136788E-14  0.00000000000E+00  0.65995880554E+03  0.70572393438E+03  0.25000129309E+03 0.  0.
       24    2    3    3    0    0  0.26890562702E+02  0.93117923734E+02  0.33816965517E+03  0.36090140336E+03  0.80604324864E+02 0.  0.
      -24    2    3    3    0    0 -0.26890562702E+02 -0.93117923734E+02  0.32178915037E+03  0.34482253102E+03  0.77202788292E+02 0.  0.
      -13    1    4    4    0    0  0.25495043268E+02 -0.55163511756E+01  0.94173021123E+02  0.97718909475E+02  0.00000000000E+00 0.  1.
       14    1    4    4    0    0  0.13955194340E+01  0.98634274910E+02  0.24399663404E+03  0.26318249388E+03  0.00000000000E+00 0. -1.
        3    1    5    5  501    0 -0.40727158691E+02 -0.29611447594E+02  0.20573123259E+03  0.21180387000E+03  0.00000000000E+00 0. -1.
       -4    1    5    5    0  501  0.13836595988E+02 -0.63506476141E+02  0.11605791778E+03  0.13301866102E+03  0.00000000000E+00 0.  1.
</event>
<event>
 9   1  0.7570500E-01  0.2500033E+03  0.7546771E-02  0.1113303E+00
       21   -1    0    0  503  502  0.00000000000E+00  0.00000000000E+00  0.56414171902E+03  0.56414171902E+03  0.00000000000E+00 0. -1.
       21   -1    0    0  502  503 -0.00000000000E+00 -0.00000000000E+00 -0.27697662518E+02  0.27697662518E+02  0.00000000000E+00 0. -1.
       25    2    1    2    0    0  0.14210854715E-13  0.00000000000E+00  0.53644405650E+03  0.59183938153E+03  0.25000325554E+03 0.  0.
       24    2    3    3    0    0 -0.51595927803E+02  0.72075392714E+02  0.35308648632E+03  0.37277089784E+03  0.80193973953E+02 0.  0.
      -24    2    3    3    0    0  0.51595927803E+02 -0.72075392714E+02  0.18335757018E+03  0.21906848369E+03  0.80709355116E+02 0.  0.
      -13    1    4    4    0    0  0.12556407647E+02  0.49968570197E+02  0.14301699999E+03  0.15201441927E+03  0.00000000000E+00 0.  1.
       14    1    4    4    0    0 -0.64152335449E+02  0.22106822518E+02  0.21006948633E+03  0.22075647857E+03  0.00000000000E+00 0. -1.
        3    1    5    5  501    0  0.30867888653E+02  0.11113286424E+02  0.66307061500E+02  0.73979443697E+02  0.00000000000E+00 0. -1.
       -4    1    5    5    0  501  0.20728039150E+02 -0.83188679139E+02  0.11705050868E+03  0.14508903999E+03  0.00000000000E+00 0.  1.
</event>
<event>
 9   1  0.7570500E-01  0.2500004E+03  0.7546771E-02  0.1113305E+00
       21   -1    0    0  503  502  0.00000000000E+00  0.00000000000E+00  0.56110312319E+02  0.56110312319E+02  0.00000000000E+00 0.  1.
       21   -1    0    0  502  503 -0.00000000000E+00 -0.00000000000E+00 -0.27847013657E+03  0.27847013657E+03  0.00000000000E+00 0.  1.
       25    2    1    2    0    0 -0.14210854715E-13 -0.71054273576E-14 -0.22235982425E+03  0.33458044889E+03  0.25000037067E+03 0.  0.
       24    2    3    3    0    0 -0.75967693524E+02  0.56343729443E+02 -0.13363582030E+03  0.18196571082E+03  0.79418392968E+02 0.  0.
      -24    2    3    3    0    0  0.75967693524E+02 -0.56343729443E+02 -0.88724003953E+02  0.15261473807E+03  0.80458704255E+02 0.  0.
      -13    1    4    4    0    0 -0.54754938604E+02  0.42907138889E+01 -0.10587904498E+03  0.11927650940E+03  0.00000000000E+00 0.  1.
       14    1    4    4    0    0 -0.21212754920E+02  0.52053015554E+02 -0.27756775314E+02  0.62689201425E+02  0.00000000000E+00 0. -1.
        3    1    5    5  501    0  0.64024485755E+02 -0.39411575058E+02 -0.15827314836E+02  0.76830403615E+02  0.00000000000E+00 0. -1.
       -4    1    5    5    0  501  0.11943207769E+02 -0.16932154385E+02 -0.72896689116E+02  0.75784334450E+02  0.00000000000E+00 0.  1.
</event>
<event>
 9   1  0.7570500E-01  0.2500059E+03  0.7546771E-02  0.1113301E+00
       21   -1    0    0  503  502  0.00000000000E+00  0.00000000000E+00  0.21412470192E+02  0.21412470192E+02  0.00000000000E+00 0. -1.
       21   -1    0    0  502  503 -0.00000000000E+00 -0.00000000000E+00 -0.72974929041E+03  0.72974929041E+03  0.00000000000E+00 0. -1.
       25    2    1    2    0    0  0.00000000000E+00  0.00000000000E+00 -0.70833682022E+03  0.75116176061E+03  0.25000587936E+03 0.  0.
       24    2    3    3    0    0 -0.20235391712E+02 -0.85992315838E+02 -0.45758413682E+03  0.47323685301E+03  0.82254041332E+02 0.  0.
      -24    2    3    3    0    0  0.20235391712E+02  0.85992315838E+02 -0.25075268340E+03  0.27792490760E+03  0.81001213380E+02 0.  0.
      -13    1    4    4    0    0  0.91336687581E+01 -0.83300619112E+02 -0.25249011728E+03  0.26603322419E+03  0.00000000000E+00 0.  1.
       14    1    4    4    0    0 -0.29369060470E+02 -0.26916967254E+01 -0.20509401953E+03  0.20720362881E+03  0.00000000000E+00 0. -1.
        1    1    5    5  501    0  0.34630143721E+02  0.10484687618E+02 -0.41815307753E+02  0.55296432897E+02  0.00000000000E+00 0. -1.
       -2    1    5    5    0  501 -0.14394752009E+02  0.75507628220E+02 -0.20893737565E+03  0.22262847470E+03  0.00000000000E+00 0.  1.
</event>
<event>
 9   1  0.7570500E-01  0.2500044E+03  0.7546771E-02  0.1113302E+00
       21   -1    0    0  503  502  0.00000000000E+00  0.00000000000E+00  0.16012157411E+03  0.16012157411E+03  0.00000000000E+00 0.  1.
       21   -1    0    0  502  503 -0.00000000000E+00 -0.00000000000E+00 -0.97585519612E+02  0.97585519612E+02  0.00000000000E+00 0.  1.
       25    2    1    2    0    0  0.71054273576E-14 -0.14210854715E-13  0.62536054502E+02  0.25770709373E+03  0.25000437605E+03 0.  0.
       24    2    3    3    0    0  0.62778011461E+02 -0.60851270212E+02 -0.52740492308E+01  0.12069212467E+03  0.83035038109E+02 0.  0.
      -24    2    3    3    0    0 -0.62778011461E+02  0.60851270212E+02  0.67810103733E+02  0.13701496905E+03  0.80814205229E+02 0.  0.
      -13    1    4    4    0    0  0.39712853191E+01 -0.60553040341E+02  0.54032204253E+01  0.60923202416E+02  0.00000000000E+00 0.  1.
       14    1    4    4    0    0  0.58806726142E+02 -0.29822987023E+00 -0.10677269656E+02  0.59768922258E+02  0.00000000000E+00 0. -1.
        1    1    5    5  501    0 -0.33848786581E+02  0.96717608958E+01  0.69817839422E+02  0.78190881907E+02  0.00000000000E+00 0. -1.
       -2    1    5    5    0  501 -0.28929224880E+02  0.51179509316E+02 -0.20077356882E+01  0.58824087146E+02  0.00000000000E+00 0.  1.
</event>
<event>
 9   1  0.7570500E-01  0.2500026E+03  0.7546771E-02  0.1113303E+00
       21   -1    0    0  503  502  0.00000000000E+00  0.00000000000E+00  0.43613110918E+02  0.43613110918E+02  0.00000000000E+00 0. -1.
       21   -1    0    0  502  503 -0.00000000000E+00 -0.00000000000E+00 -0.35827124531E+03  0.35827124531E+03  0.00000000000E+00 0. -1.
       25    2    1    2    0    0 -0.35527136788E-14  0.00000000000E+00 -0.31465813439E+03  0.40188435623E+03  0.25000258847E+03 0.  0.
       24    2    3    3    0    0  0.25010225718E+02 -0.33682120611E+02 -0.29690808558E+03  0.31114696729E+03  0.83054363703E+02 0.  0.
      -24    2    3    3    0    0 -0.25010225718E+02  0.33682120611E+02 -0.17750048808E+02  0.90737388937E+02  0.78474281641E+02 0.  0.
      -13    1    4    4    0    0  0.36200742857E+02 -0.41521681645E+02 -0.10341173009E+03  0.11716880877E+03  0.00000000000E+00 0.  1.
       14    1    4    4    0    0 -0.11190517139E+02  0.78395610340E+01 -0.19349635550E+03  0.19397815852E+03  0.00000000000E+00 0. -1.
        3    1    5    5  501    0  0.15313326040E+02 -0.17621587016E+02 -0.84317117242E+01  0.24821604419E+02  0.00000000000E+00 0. -1.
       -4    1    5    5    0  501 -0.40323551758E+02  0.51303707626E+02 -0.93183370840E+01  0.65915784518E+02  0.00000000000E+00 0.  1.
</event>
<event>
 9   1  0.7570500E-01  0.2499969E+03  0.7546771E-02  0.1113307E+00
       21   -1    0    0  503  502  0.00000000000E+00  0.00000000000E+00  0.37568883540E+03  0.37568883540E+03  0.00000000000E+00 0.  1.
       21   -1    0    0  502  503 -0.00000000000E+00 -0.00000000000E+00 -0.41589251542E+02  0.41589251542E+02  0.00000000000E+00 0.  1.
       25    2    1    2    0    0  0.00000000000E+00  0.28421709430E-13  0.33409958386E+03  0.41727808695E+03  0.24999693980E+03 0.  0.
       24    2    3    3    0    0 -0.75185206155E+01 -0.71584654497E+02  0.62663800779E+02  0.12467385282E+03  0.80224227874E+02 0.  0.
      -24    2    3    3    0    0  0.75185206155E+01  0.71584654497E+02  0.27143578308E+03  0.29260423412E+03  0.82212910041E+02 0.  0.
      -13    1    4    4    0    0  0.15475035798E+02 -0.38057612282E+02 -0.92060910236E+01  0.42102383514E+02  0.00000000000E+00 0.  1.
       14    1    4    4    0    0 -0.22993556414E+02 -0.33527042215E+02  0.71869891803E+02  0.82571469310E+02  0.00000000000E+00 0. -1.
        1    1    5    5  501    0 -0.17516552403E+02  0.64454506575E+02  0.10710664213E+03  0.12622616929E+03  0.00000000000E+00 0. -1.
       -2    1    5    5    0  501  0.25035073018E+02  0.71301479219E+01  0.16432914095E+03  0.16637806483E+03  0.00000000000E+00 0.  1.
</event>
<event>
 9   1  0.7570500E-01  0.2500077E+03  0.7546771E-02  0.1113300E+00
       21   -1    0    0  503  502  0.00000000000E+00  0.00000000000E+00  0.57337017430E+02  0.57337017430E+02  0.00000000000E+00 0. -1.
       21   -1    0    0  502  503 -0.00000000000E+00 -0.00000000000E+00 -0.27252842006E+03  0.27252842006E+03  0.00000000000E+00 0. -1.
       25    2    1    2    0    0  0.71054273576E-14  0.00000000000E+00 -0.21519140263E+03  0.32986543749E+03  0.25000773405E+03 0.  0.
       24    2    3    3    0    0 -0.43034665985E+02 -0.81402331177E+02 -0.72327230267E+02  0.14140506383E+03  0.79283301154E+02 0.  0.
      -24    2    3    3    0    0  0.43034665985E+02  0.81402331177E+02 -0.14286417237E+03  0.18846037366E+03  0.81417557669E+02 0.  0.
      -13    1    4    4    0    0  0.10412364845E+02 -0.80973122786E+01  0.11787404464E+02  0.17689734644E+02  0.00000000000E+00 0.  1.
       14    1    4    4    0    0 -0.53447030829E+02 -0.73305018898E+02 -0.84114634730E+02  0.12371532919E+03  0.00000000000E+00 0. -1.
        1    1    5    5  501    0 -0.23693185248E+02  0.20125454270E+02 -0.48824504407E+02  0.57881198738E+02  0.00000000000E+00 0. -1.
       -2    1    5    5    0  501  0.66727851232E+02  0.61276876906E+02 -0.94039667959E+02  0.13057917492E+03  0.00000000000E+00 0.  1.
</event>
<event>
 9   1  0.7570500E-01  0.2499907E+03  0.7546771E-02  0.1113311E+00
       21   -1    0    0  503  502  0.00000000000E+00  0.00000000000E+00  0.12762805672E+02  0.12762805672E+02  0.00000000000E+00 0. -1.
       21   -1    0    0  502  503 -0.00000000000E+00 -0.00000000000E+00 -0.12241699604E+04  0.12241699604E+04  0.00000000000E+00 0. -1.
       25    2    1    2    0    0 -0.14210854715E-13  0.14210854715E-13 -0.12114071548E+04  0.12369327661E+04  0.24999074634E+03 0.  0.
       24    2    3    3    0    0  0.36609900821E+02 -0.86492647477E+02 -0.56394110268E+03  0.57755544058E+03  0.81972292524E+02 0.  0.
      -24    2    3    3    0    0 -0.36609900821E+02  0.86492647477E+02 -0.64746605208E+03  0.65937732553E+03  0.82127376180E+02 0.  0.
      -13    1    4    4    0    0  0.89231565791E+01 -0.88864005039E+02 -0.49883715354E+03  0.50676911889E+03  0.00000000000E+00 0.  1.
       14    1    4    4    0    0  0.27686744242E+02  0.23713575622E+01 -0.65103949143E+02  0.70786321683E+02  0.00000000000E+00 0. -1.
        1    1    5    5  501    0 -0.62066189265E+02  0.50314355208E+02 -0.44749203127E+03  0.45456887734E+03  0.00000000000E+00 0. -1.
       -2    1    5    5    0  501  0.25456288444E+02  0.36178292269E+02 -0.19997402081E+03  0.20480844819E+03  0.00000000000E+00 0.  1.
</event>
<event>
 9   1  0.7570500E-01  0.2500073E+03  0.7546771E-02  0.1113300E+00
       21   -1    0    0  503  502  0.00000000000E+00  0.00000000000E+00  0.16854107158E+03  0.16854107158E+03  0.00000000000E+00 0. -1.
       21   -1    0    0  502  503 -0.00000000000E+00 -0.00000000000E+00 -0.92712763216E+02  0.92712763216E+02  0.00000000000E+00 0. -1.
       25    2    1    2    0    0  0.71054273576E-14  0.00000000000E+00  0.75828308364E+02  0.26125383480E+03  0.25000726759E+03 0.  0.
       24    2    3    3    0    0 -0.30471728188E+02 -0.83555421807E+02  0.74714865523E+02  0.14135699427E+03  0.80557147212E+02 0.  0.
      -24    2    3    3    0    0  0.30471728188E+02  0.83555421807E+02  0.11134428416E+01  0.11989684053E+03  0.80398867411E+02 0.  0.
      -13    1    4    4    0    0 -0.33134350342E+01 -0.68170004882E+02  0.93058109561E+01  0.68881975400E+02  0.00000000000E+00 0.  1.
       14    1    4    4    0    0 -0.27158293154E+02 -0.15385416924E+02  0.65409054567E+02  0.72475018870E+02  0.00000000000E+00 0. -1.
        3    1    5    5  501    0  0.96113215086E+01  0.57209046792E+02 -0.37215770184E+02  0.68922174127E+02  0.00000000000E+00 0. -1.
       -4    1    5    5    0  501  0.20860406679E+02  0.26346375015E+02  0.38329213026E+02  0.50974666398E+02  0.00000000000E+00 0.  1.
</event>
<event>
 9   1  0.7570500E-01  0.2499890E+03  0.7546771E-02  0.1113312E+00
       21   -1    0    0  503  502  0.00000000000E+00  0.00000000000E+00  0.55977964893E+02  0.55977964893E+02  0.00000000000E+00 0.  1.
       21   -1    0    0  502  503 -0.00000000000E+00 -0.00000000000E+00 -0.27910311189E+03  0.27910311189E+03  0.00000000000E+00 0.  1.
       25    2    1    2    0    0 -0.17763568394E-14 -0.14210854715E-13 -0.22312514699E+03  0.33508107678E+03  0.24998899335E+03 0.  0.
       24    2    3    3    0    0  0.10132814272E+02  0.93302306238E+02 -0.94263988909E+02  0.15619544946E+03  0.81873833133E+02 0.  0.
      -24    2    3    3    0    0 -0.10132814272E+02 -0.93302306238E+02 -0.12886115808E+03  0.17888562732E+03  0.81159567059E+02 0.  0.
      -13    1    4    4    0    0 -0.17303743504E+02  0.95336310053E+02 -0.70299612230E+02  0.11970992872E+03  0.00000000000E+00 0.  1.
       14    1    4    4    0    0  0.27436557775E+02 -0.20340038153E+01 -0.23964376680E+02  0.36485520741E+02  0.00000000000E+00 0. -1.
        3    1    5    5  501    0  0.60902831083E+01  0.55216331396E+01 -0.51994743467E+02  0.52640605326E+02  0.00000000000E+00 0. -1.
       -4    1    5    5    0  501 -0.16223097380E+02 -0.98823939377E+02 -0.76866414616E+02  0.12624502200E+03  0.00000000000E+00 0.  1.
</event>
<event>
 9   1  0.7570500E-01  0.2499970E+03  0.7546771E-02  0.1113307E+00
       21   -1    0    0  503  502  0.00000000000E+00  0.00000000000E+00  0.30027277527E+03  0.30027277527E+03  0.00000000000E+00 0.  1.
       21   -1    0    0  502  503 -0.00000000000E+00 -0.00000000000E+00 -0.52034770019E+02  0.52034770019E+02  0.00000000000E+00 0.  1.
       25    2    1    2    0    0 -0.14210854715E-13  0.00000000000E+00  0.24823800525E+03  0.35230754529E+03  0.24999699842E+03 0.  0.
       24    2    3    3    0    0  0.80525221011E+02 -0.13814475588E+02  0.19995743089E+03  0.22721197088E+03  0.70478043306E+02 0.  0.
      -24    2    3    3    0    0 -0.80525221011E+02  0.13814475588E+02  0.48280574364E+02  0.12509557441E+03  0.81502993331E+02 0.  0.
      -13    1    4    4    0    0 -0.13947715039E+00 -0.63267786363E+00  0.91014637041E+02  0.91016942878E+02  0.00000000000E+00 0.  1.
       14    1    4    4    0    0  0.80664698162E+02 -0.13181797725E+02  0.10894279385E+03  0.13619502800E+03  0.00000000000E+00 0. -1.
        3    1    5    5  501    0 -0.71173312461E+02  0.37431270910E+02  0.56632875200E+02  0.98356611380E+02  0.00000000000E+00 0. -1.
       -4    1    5    5    0  501 -0.93519085502E+01 -0.23616795322E+02 -0.83523008355E+01  0.26738963033E+02  0.00000000000E+00 0.  1.
</event>
<event>
 9   1  0.7570500E-01  0.2499943E+03  0.7546771E-02  0.1113308E+00
       21   -1    0    0  503  502  0.00000000000E+00  0.00000000000E+00  0.46263660549E+02  0.46263660549E+02  0.00000000000E+00 0.  1.
       21   -1    0    0  502  503 -0.00000000000E+00 -0.00000000000E+00 -0.33772271321E+03  0.33772271321E+03  0.00000000000E+00 0.  1.
       25    2    1    2    0    0  0.00000000000E+00 -0.28421709430E-13 -0.29145905267E+03  0.38398637376E+03  0.24999431165E+03 0.  0.
       24    2    3    3    0    0 -0.51800133645E+02  0.76811081207E+02 -0.20062382804E+03  0.23511176243E+03  0.80277172436E+02 0.  0.
      -24    2    3    3    0    0  0.51800133645E+02 -0.76811081207E+02 -0.90835224628E+02  0.14887461133E+03  0.73002848060E+02 0.  0.
      -13    1    4    4    0    0 -0.66239468314E+02  0.28671304065E+02 -0.12395059997E+03  0.14343452190E+03  0.00000000000E+00 0.  1.
       14    1    4    4    0    0  0.14439334670E+02  0.48139777142E+02 -0.76673228066E+02  0.91677240529E+02  0.00000000000E+00 0. -1.
        3    1    5    5  501    0  0.53234716132E+01 -0.69566733185E+02 -0.64233010695E+02  0.94835380418E+02  0.00000000000E+00 0. -1.
       -4    1    5    5    0  501  0.46476662032E+02 -0.72443480217E+01 -0.26602213934E+02  0.54039230916E+02  0.00000000000E+00 0.  1.
</event>
<event>
 9   1  0.7570500E-01  0.2499976E+03  0.7546771E-02  0.1113306E+00
       21   -1    0    0  503  502  0.00000000000E+00  0.00000000000E+00  0.71305700172E+02  0.71305700172E+02  0.00000000000E+00 0. -1.
       21   -1    0    0  502  503 -0.00000000000E+00 -0.00000000000E+00 -0.21912275438E+03  0.21912275438E+03  0.00000000000E+00 0. -1.
       25    2    1    2    0    0  0.00000000000E+00  0.00000000000E+00 -0.14781705421E+03  0.29042845455E+03  0.24999761139E+03 0.  0.
       24    2    3    3    0    0  0.92734613682E+02 -0.24686379411E+02 -0.75815842206E+02  0.14604794927E+03  0.79830042290E+02 0.  0.
      -24    2    3    3    0    0 -0.92734613682E+02  0.24686379411E+02 -0.72001212004E+02  0.14438050529E+03  0.80327018331E+02 0.  0.
      -13    1    4    4    0    0  0.39523697306E+02  0.73704001752E+01  0.87217355728E+01  0.41140176457E+02  0.00000000000E+00 0.  1.
       14    1    4    4    0    0  0.53210916376E+02 -0.32056779586E+02 -0.84537577779E+02  0.10490777281E+03  0.00000000000E+00 0. -1.
        1    1    5    5  501    0 -0.26200507609E+02  0.89842824043E+01  0.16737989994E+02  0.32362698255E+02  0.00000000000E+00 0. -1.
       -2    1    5    5    0  501 -0.66534106073E+02  0.15702097006E+02 -0.88739201998E+02  0.11201780703E+03  0.00000000000E+00 0.  1.
</event>
<event>
 9   1  0.7570500E-01  0.2499961E+03  0.7546771E-02  0.1113307E+00
       21   -1    0    0  503  502  0.00000000000E+00  0.00000000000E+00  0.12474743575E+04  0.12474743575E+04  0.00000000000E+00 0.  1.
       21   -1    0    0  502  503 -0.00000000000E+00 -0.00000000000E+00 -0.12524920251E+02  0.12524920251E+02  0.00000000000E+00 0.  1.
       25    2    1    2    0    0  0.71054273576E-14  0.00000000000E+00  0.12349494372E+04  0.12599992777E+04  0.24999613471E+03 0.  0.
       24    2    3    3    0    0  0.51367354957E+02  0.33927853980E+02  0.10136276242E+04  0.10176555112E+04  0.66272728023E+02 0.  0.
      -24    2    3    3    0    0 -0.51367354957E+02 -0.33927853980E+02  0.22132181299E+03  0.24234376650E+03  0.77184531009E+02 0.  0.
      -13    1    4    4    0    0  0.10035154873E+01  0.34295771866E+02  0.59869896463E+03  0.59968129641E+03  0.00000000000E+00 0.  1.
       14    1    4    4    0    0  0.50363839469E+02 -0.36791788569E+00  0.41492865961E+03  0.41797421482E+03  0.00000000000E+00 0. -1.
        3    1    5    5  501    0 -0.35279304461E+02 -0.20058999258E+02  0.21687895401E+03  0.22064331729E+03  0.00000000000E+00 0. -1.
       -4    1    5    5    0  501 -0.16088050496E+02 -0.13868854722E+02  0.44428589834E+01  0.21700449212E+02  0.00000000000E+00 0.  1.
</event>
<event>
 9   1  0.7570500E-01  0.2500033E+03  0.7546771E-02  0.1113303E+00
       21   -1    0    0  503  502  0.00000000000E+00  0.00000000000E+00  0.35046264072E+02  0.35046264072E+02  0.00000000000E+00 0.  1.
       21   -1    0    0  502  503 -0.00000000000E+00 -0.00000000000E+00 -0.44585111544E+03  0.44585111544E+03  0.00000000000E+00 0.  1.
       25    2    1    2    0    0 -0.71054273576E-14 -0.71054273576E-14 -0.41080485137E+03  0.48089737952E+03  0.25000332741E+03 0.  0.
       24    2    3    3    0    0  0.53219197074E+02 -0.55012535193E+02 -0.31881110605E+03  0.33749402586E+03  0.80018961369E+02 0.  0.
      -24    2    3    3    0    0 -0.53219197074E+02  0.55012535193E+02 -0.91993745317E+02  0.14340335366E+03  0.79012724913E+02 0.  0.
      -13    1    4    4    0    0 -0.16067376166E+02 -0.35136231679E+02 -0.11397345430E+03  0.12034393893E+03  0.00000000000E+00 0.  1.
       14    1    4    4    0    0  0.69286573241E+02 -0.19876303514E+02 -0.20483765176E+03  0.21715008692E+03  0.00000000000E+00 0. -1.
        1    1    5    5  501    0 -0.43023592849E+02 -0.94360025630E+01 -0.45176814381E+02  0.63095263242E+02  0.00000000000E+00 0. -1.
       -2    1    5    5    0  501 -0.10195604226E+02  0.64448537756E+02 -0.46816930937E+02  0.80308090419E+02  0.00000000000E+00 0.  1.
</event>
<event>
 9   1  0.7570500E-01  0.2500041E+03  0.7546771E-02  0.1113302E+00
       21   -1    0    0  503  502  0.00000000000E+00  0.00000000000E+00  0.22321813630E+03  0.22321813630E+03  0.00000000000E+00 0.  1.
       21   -1    0    0  502  503 -0.00000000000E+00 -0.00000000000E+00 -0.70001105626E+02  0.70001105626E+02  0.00000000000E+00 0.  1.
       25    2    1    2    0    0  0.71054273576E-14  0.00000000000E+00  0.15321703067E+03  0.29321924193E+03  0.25000413066E+03 0.  0.
       24    2    3    3    0    0  0.41184419744E+02 -0.46076979324E+02 -0.12541651237E+02  0.98803513963E+02  0.76063111312E+02 0.  0.
      -24    2    3    3    0    0 -0.41184419744E+02  0.46076979324E+02  0.16575868191E+03  0.19441572796E+03  0.80636779429E+02 0.  0.
      -13    1    4    4    0    0  0.49308534407E+02 -0.10766295182E+02  0.15709030353E+02  0.52858474362E+02  0.00000000000E+00 0.  1.
       14    1    4    4    0    0 -0.81241146625E+01 -0.35310684142E+02 -0.28250681590E+02  0.45945039601E+02  0.00000000000E+00 0. -1.
        3    1    5    5  501    0  0.13727603410E+02  0.26123926480E+02  0.15793268215E+02  0.33471390037E+02  0.00000000000E+00 0. -1.
       -4    1    5    5    0  501 -0.54912023155E+02  0.19953052844E+02  0.14996541370E+03  0.16094433793E+03  0.00000000000E+00 0.  1.
</event>
<event>
 9   1  0.7570500E-01  0.2500563E+03  0.7546771E-02  0.1113269E+00
       21   -1    0    0  503  502  0.00000000000E+00  0.00000000000E+00  0.42909968530E+03  0.42909968530E+03  0.00000000000E+00 0.  1.
       21   -1    0    0  502  503 -0.00000000000E+00 -0.00000000000E+00 -0.36429840811E+02  0.36429840811E+02  0.00000000000E+00 0.  1.
       25    2    1    2    0    0  0.00000000000E+00  0.00000000000E+00  0.39266984449E+03  0.46552952611E+03  0.25005625949E+03 0.  0.
       24    2    3    3    0    0  0.62816814983E+02 -0.60420538085E+02  0.27502270236E+03  0.29827142334E+03  0.75708397834E+02 0.  0.
      -24    2    3    3    0    0 -0.62816814983E+02  0.60420538085E+02  0.11764714213E+03  0.16725810277E+03  0.80856844011E+02 0.  0.
      -13    1    4    4    0    0 -0.37325238079E+01 -0.36440830797E+02  0.15209266523E+03  0.15644182529E+03  0.00000000000E+00 0.  1.
       14    1    4    4    0    0  0.66549338791E+02 -0.23979707288E+02  0.12293003713E+03  0.14182959805E+03  0.00000000000E+00 0. -1.
        1    1    5    5  501    0 -0.54339985189E+02  0.21156632458E+01  0.82006421557E+02  0.98398999984E+02  0.00000000000E+00 0. -1.
       -2    1    5    5    0  501 -0.84768297941E+01  0.58304874839E+02  0.35640720573E+02  0.68859102785E+02  0.00000000000E+00 0.  1.
</event>
<event>
 9   1  0.7570500E-01  0.2499970E+03  0.7546771E-02  0.1113307E+00
       21   -1    0    0  503  502  0.00000000000E+00  0.00000000000E+00  0.13478080871E+04  0.13478080871E+04  0.00000000000E+00 0. -1.
       21   -1    0    0  502  503 -0.00000000000E+00 -0.00000000000E+00 -0.11592616982E+02  0.11592616982E+02  0.00000000000E+00 0. -1.
       25    2    1    2    0    0  0.00000000000E+00  0.00000000000E+00  0.13362154701E+04  0.13594007041E+04  0.24999698333E+03 0.  0.
       24    2    3    3    0    0 -0.71346708124E+02  0.46013702325E+02  0.93800740862E+03  0.94520499100E+03  0.79667828034E+02 0.  0.
      -24    2    3    3    0    0  0.71346708124E+02 -0.46013702325E+02  0.39820806149E+03  0.41419571307E+03  0.76031670580E+02 0.  0.
      -13    1    4    4    0    0 -0.78463092168E+02  0.31942948270E+02  0.51639388894E+03  0.52329672014E+03  0.00000000000E+00 0.  1.
       14    1    4    4    0    0  0.71163840442E+01  0.14070754055E+02  0.42161351968E+03  0.42190827085E+03  0.00000000000E+00 0. -1.
        3    1    5    5  501    0  0.65768418962E+02 -0.56020799463E+02  0.39150104242E+03  0.40092004330E+03  0.00000000000E+00 0. -1.
       -4    1    5    5    0  501  0.55782891617E+01  0.10007097138E+02  0.67070190718E+01  0.13275669773E+02  0.00000000000E+00 0.  1.
</event>
<event>
 9   1  0.7570500E-01  0.2499991E+03  0.7546771E-02  0.1113305E+00
       21   -1    0    0  503  502  0.00000000000E+00  0.00000000000E+00  0.96210299144E+03  0.96210299144E+03  0.00000000000E+00 0. -1.
       21   -1    0    0  502  503 -0.00000000000E+00 -0.00000000000E+00 -0.16240346528E+02  0.16240346528E+02  0.00000000000E+00 0. -1.
       25    2    1    2    0    0 -0.71054273576E-14  0.14210854715E-13  0.94586264491E+03  0.97834333797E+03  0.24999908781E+03 0.  0.
       24    2    3    3    0    0  0.30156775005E+02 -0.81146200329E+02  0.32254055743E+03  0.34353589909E+03  0.80562806976E+02 0.  0.
      -24    2    3    3    0    0 -0.30156775005E+02  0.81146200329E+02  0.62332208748E+03  0.63480743888E+03  0.83402175085E+02 0.  0.
      -13    1    4    4    0    0  0.91735197063E+01 -0.49074338880E+02  0.28685936528E+03  0.29117132353E+03  0.00000000000E+00 0.  1.
       14    1    4    4    0    0  0.20983255299E+02 -0.32071861449E+02  0.35681192158E+02  0.52364575560E+02  0.00000000000E+00 0. -1.
        1    1    5    5  501    0  0.20682887105E+02  0.34896580611E+02  0.11680156431E+03  0.12364529341E+03  0.00000000000E+00 0. -1.
       -2    1    5    5    0  501 -0.50839662110E+02  0.46249619718E+02  0.50652052317E+03  0.51116214546E+03  0.00000000000E+00 0.  1.
</event>
<event>
 9   1  0.7570500E-01  0.2499938E+03  0.7546771E-02  0.1113309E+00
       21   -1    0    0  503  502  0.00000000000E+00  0.00000000000E+00  0.73952279429E+03  0.73952279429E+03  0.00000000000E+00 0. -1.
       21   -1    0    0  502  503 -0.00000000000E+00 -0.00000000000E+00 -0.21127442425E+02  0.21127442425E+02  0.00000000000E+00 0. -1.
       25    2    1    2    0    0  0.00000000000E+00  0.00000000000E+00  0.71839535186E+03  0.76065023671E+03  0.24999380199E+03 0.  0.
       24    2    3    3    0    0 -0.82220347592E+02 -0.40068330085E+02  0.28858665467E+03  0.31392954995E+03  0.83089400324E+02 0.  0.
      -24    2    3    3    0    0  0.82220347592E+02  0.40068330085E+02  0.42980869720E+03  0.44672068676E+03  0.80362921560E+02 0.  0.
      -13    1    4    4    0    0 -0.47046432066E+02 -0.36217582917E+02  0.26460528510E+03  0.27118450727E+03  0.00000000000E+00 0.  1.
       14    1    4    4    0    0 -0.35173915526E+02 -0.38507471675E+01  0.23981369568E+02  0.42745042678E+02  0.00000000000E+00 0. -1.
        3    1    5    5  501    0  0.53452899945E+02 -0.35411717537E+01  0.32742325077E+03  0.33177663805E+03  0.00000000000E+00 0. -1.
       -4    1    5    5    0  501  0.28767447647E+02  0.43609501838E+02  0.10238544642E+03  0.11494404871E+03  0.00000000000E+00 0.  1.
</event>
<event>
 9   1  0.7570500E-01  0.2500001E+03  0.7546771E-02  0.1113305E+00
       21   -1    0    0  503  502  0.00000000000E+00  0.00000000000E+00  0.84782945509E+03  0.84782945509E+03  0.00000000000E+00 0.  1.
       21   -1    0    0  502  503 -0.00000000000E+00 -0.00000000000E+00 -0.18429434378E+02  0.18429434378E+02  0.00000000000E+00 0.  1.
       25    2    1    2    0    0  0.00000000000E+00  0.14210854715E-13  0.82940002071E+03  0.86625888947E+03  0.25000013845E+03 0.  0.
       24    2    3    3    0    0  0.63445760727E+02 -0.72430761621E+02  0.44490675666E+03  0.46206387515E+03  0.79305881350E+02 0.  0.
      -24    2    3    3    0    0 -0.63445760727E+02  0.72430761621E+02  0.38449326406E+03  0.40419501432E+03  0.79164131479E+02 0.  0.
      -13    1    4    4    0    0 -0.78427814716E+01 -0.26381675333E+02  0.21933691240E+03  0.22105696812E+03  0.00000000000E+00 0.  1.
       14    1    4    4    0    0  0.71288542198E+02 -0.46049086288E+02  0.22556984426E+03  0.24100690703E+03  0.00000000000E+00 0. -1.
        1    1    5    5  501    0 -0.49695678276E+02 -0.12356076694E+01  0.15175353897E+03  0.15968820794E+03  0.00000000000E+00 0. -1.
       -2    1    5    5    0  501 -0.13750082450E+02  0.73666369290E+02  0.23273972508E+03  0.24450680638E+03  0.00000000000E+00 0.  1.
</event>
<event>
 9   1  0.7570500E-01  0.2499985E+03  0.7546771E-02  0.1113306E+00
       21   -1    0    0  503  502  0.00000000000E+00  0.00000000000E+00  0.22242958453E+02  0.22242958453E+02  0.00000000000E+00 0. -1.
       21   -1    0    0  502  503 -0.00000000000E+00 -0.00000000000E+00 -0.70246086988E+03  0.70246086988E+03  0.00000000000E+00 0. -1.
       25    2    1    2    0    0  0.00000000000E+00 -0.88817841970E-15 -0.68021791143E+03  0.72470382834E+03  0.24999846354E+03 0.  0.
       24    2    3    3    0    0  0.69101223564E+01 -0.36677912413E+01 -0.58076412424E+02  0.97503182985E+02  0.77928162616E+02 0.  0.
      -24    2    3    3    0    0 -0.69101223564E+01  0.36677912413E+01 -0.62214149901E+03  0.62720064535E+03  0.79116384263E+02 0.  0.
      -13    1    4    4    0    0 -0.15712448056E+02 -0.33739453710E+02 -0.43242984550E+02  0.57054250265E+02  0.00000000000E+00 0.  1.
       14    1    4    4    0    0  0.22622570412E+02  0.30071662469E+02 -0.14833427874E+02  0.40448932720E+02  0.00000000000E+00 0. -1.
        3    1    5    5  501    0 -0.39267127690E+02 -0.19847682054E+01 -0.46520578656E+03  0.46686429557E+03  0.00000000000E+00 0. -1.
       -4    1    5    5    0  501  0.32357005333E+02  0.56525594467E+01 -0.15693571244E+03  0.16033634979E+03  0.00000000000E+00 0.  1.
</event>
<event>
 9   1  0.7570500E-01  0.2500013E+03  0.7546771E-02  0.1113304E+00
       21   -1    0    0  503  502  0.00000000000E+00  0.00000000000E+00  0.44970094935E+03  0.44970094935E+03  0.00000000000E+00 0. -1.
       21   -1    0    0  502  503 -0.00000000000E+00 -0.00000000000E+00 -0.34745685976E+02  0.34745685976E+02  0.00000000000E+00 0. -1.
       25    2    1    2    0    0  0.00000000000E+00  0.00000000000E+00  0.41495526337E+03  0.48444663533E+03  0.25000134375E+03 0.  0.
       24    2    3    3    0    0  0.32523478749E+02  0.36186701160E+02  0.46843410722E+02  0.10437834670E+03  0.79581908246E+02 0.  0.
      -24    2    3    3    0    0 -0.32523478749E+02 -0.36186701160E+02  0.36811185265E+03  0.38006828863E+03  0.81106805812E+02 0.  0.
      -13    1    4    4    0    0  0.19458576884E+02 -0.19340278756E+02 -0.42940788846E+01  0.27769078310E+02  0.00000000000E+00 0.  1.
       14    1    4    4    0    0  0.13064901865E+02  0.55526979916E+02  0.51137489607E+02  0.76609268386E+02  0.00000000000E+00 0. -1.
        1    1    5    5  501    0 -0.39285316037E+01 -0.49273554384E+02  0.11725486085E+03  0.12724786408E+03  0.00000000000E+00 0. -1.
       -2    1    5    5    0  501 -0.28594947145E+02  0.13086853224E+02  0.25085699181E+03  0.25282042454E+03  0.00000000000E+00 0.  1.
</event>
<event>
 9   1  0.7570500E-01  0.2500060E+03  0.7546771E-02  0.1113301E+00
       21   -1    0    0  503  502  0.00000000000E+00  0.00000000000E+00  0.56785422456E+03  0.56785422456E+03  0.00000000000E+00 0. -1.
       21   -1    0    0  502  503 -0.00000000000E+00 -0.00000000000E+00 -0.27517184948E+02  0.27517184948E+02  0.00000000000E+00 0. -1.
       25    2    1    2    0    0 -0.14210854715E-13  0.00000000000E+00  0.54033703961E+03  0.59537140950E+03  0.25000599769E+03 0.  0.
       24    2    3    3    0    0 -0.68029336588E+02  0.13859236970E+02  0.43138832718E+03  0.44407026831E+03  0.79261877885E+02 0.  0.
      -24    2    3    3    0    0  0.68029336588E+02 -0.13859236970E+02  0.10894871243E+03  0.15130114119E+03  0.78753693883E+02 0.  0.
      -13    1    4    4    0    0 -0.42637114554E+02  0.34594974148E+02  0.13302132338E+03  0.14390763790E+03  0.00000000000E+00 0.  1.
       14    1    4    4    0    0 -0.25392222034E+02 -0.20735737178E+02  0.29836700380E+03  0.30016263041E+03  0.00000000000E+00 0. -1.
        3    1    5    5  501    0  0.33906227119E+02  0.16519224231E+02  0.53730123953E+01  0.38097063782E+02  0.00000000000E+00 0. -1.
       -4    1    5    5    0  501  0.34123109469E+02 -0.30378461202E+02  0.10357570003E+03  0.11320407741E+03  0.00000000000E+00 0.  1.
</event>
<event>
 9   1  0.7570500E-01  0.2500000E+03  0.7546771E-02  0.1113305E+00
       21   -1    0    0  503  502  0.00000000000E+00  0.00000000000E+00  0.51167723686E+03  0.51167723686E+03  0.00000000000E+00 0.  1.
       21   -1    0    0  502  503 -0.00000000000E+00 -0.00000000000E+00 -0.30536825154E+02  0.30536825154E+02  0.00000000000E+00 0.  1.
       25    2    1    2    0    0  0.71054273576E-14  0.00000000000E+00  0.48114041170E+03  0.54221406201E+03  0.24999998654E+03 0.  0.
       24    2    3    3    0    0  0.18073617995E+02 -0.80128251699E+02  0.34688284598E+03  0.36532532867E+03  0.79923053898E+02 0.  0.
      -24    2    3    3    0    0 -0.18073617995E+02  0.80128251699E+02  0.13425756572E+03  0.17688873334E+03  0.80730029364E+02 0.  0.
      -13    1    4    4    0    0 -0.29931164551E+01 -0.44618206386E+02  0.29800885126E+03  0.30134534760E+03  0.00000000000E+00 0.  1.
       14    1    4    4    0    0  0.21066734450E+02 -0.35510045314E+02  0.48873994722E+02  0.63979981077E+02  0.00000000000E+00 0. -1.
        1    1    5    5  501    0 -0.44522112993E+02  0.33101623235E+02  0.40405744570E+02  0.68633520967E+02  0.00000000000E+00 0. -1.
       -2    1    5    5    0  501  0.26448494998E+02  0.47026628464E+02  0.93851821147E+02  0.10825521237E+03  0.00000000000E+00 0.  1.
</event>
<event>
 9   1  0.7570500E-01  0.2499941E+03  0.7546771E-02  0.1113309E+00
       21   -1    0    0  503  502  0.00000000000E+00  0.00000000000E+00  0.22833831393E+03  0.22833831393E+03  0.00000000000E+00 0. -1.
       21   -1    0    0  502  503 -0.00000000000E+00 -0.00000000000E+00 -0.68425931775E+02  0.68425931775E+02  0.00000000000E+00 0. -1.
       25    2    1    2    0    0  0.71054273576E-14  0.00000000000E+00  0.15991238215E+03  0.29676424570E+03  0.24999409505E+03 0.  0.
       24    2    3    3    0    0 -0.38482463794E+02  0.26656431942E+02 -0.19891086773E+02  0.94413775267E+02  0.79541437274E+02 0.  0.
      -24    2    3    3    0    0  0.38482463794E+02 -0.26656431942E+02  0.17980346892E+03  0.20235047043E+03  0.80155848597E+02 0.  0.
      -13    1    4    4    0    0  0.49669328382E+01 -0.23212976602E+02  0.40311854357E+01  0.24078271544E+02  0.00000000000E+00 0.  1.
       14    1    4    4    0    0 -0.43449396632E+02  0.49869408544E+02 -0.23922272208E+02  0.70335503722E+02  0.00000000000E+00 0. -1.
        3    1    5    5  501    0 -0.61998883303E+01 -0.44262318322E+02  0.91474219724E+02  0.10180925455E+03  0.00000000000E+00 0. -1.
       -4    1    5    5    0  501  0.44682352124E+02  0.17605886380E+02  0.88329249200E+02  0.10054121588E+03  0.00000000000E+00 0.  1.
</event>
<event>
 9   1  0.7570500E-01  0.2499926E+03  0.7546771E-02  0.1113310E+00
       21   -1    0    0  503  502  0.00000000000E+00  0.00000000000E+00  0.24682198287E+02  0.24682198287E+02  0.00000000000E+00 0.  1.
       21   -1    0    0  502  503 -0.00000000000E+00 -0.00000000000E+00 -0.63300984696E+03  0.63300984696E+03  0.00000000000E+00 0.  1.
       25    2    1    2    0    0 -0.14210854715E-13  0.00000000000E+00 -0.60832764867E+03  0.65769204524E+03  0.24999259637E+03 0.  0.
       24    2    3    3    0    0 -0.80813357982E+02  0.32665785069E+02 -0.19605131040E+03  0.22862929793E+03  0.78977130979E+02 0.  0.
      -24    2    3    3    0    0  0.80813357982E+02 -0.32665785069E+02 -0.41227633827E+03  0.42906274732E+03  0.80778770090E+02 0.  0.
      -13    1    4    4    0    0 -0.77953843090E+02  0.15005126934E+02 -0.85624561807E+02  0.11676266985E+03  0.00000000000E+00 0.  1.
       14    1    4    4    0    0 -0.28595148920E+01  0.17660658135E+02 -0.11042674859E+03  0.11186662807E+03  0.00000000000E+00 0. -1.
        1    1    5    5  501    0  0.23357944523E+02 -0.29850933878E+02 -0.30491351288E+03  0.30726034915E+03  0.00000000000E+00 0. -1.
       -2    1    5    5    0  501  0.57455413459E+02 -0.28148511912E+01 -0.10736282539E+03  0.12180239816E+03  0.00000000000E+00 0.  1.
</event>
<event>
 9   1  0.7570500E-01  0.2499998E+03  0.7546771E-02  0.1113305E+00
       21   -1    0    0  503  502  0.00000000000E+00  0.00000000000E+00  0.42998068078E+02  0.42998068078E+02  0.00000000000E+00 0.  1.
       21   -1    0    0  502  503 -0.00000000000E+00 -0.00000000000E+00 -0.36338769324E+03  0.36338769324E+03  0.00000000000E+00 0.  1.
       25    2    1    2    0    0  0.00000000000E+00 -0.88817841970E-15 -0.32038962516E+03  0.40638576131E+03  0.24999975018E+03 0.  0.
       24    2    3    3    0    0 -0.81588336820E+02  0.73513403414E+01 -0.13475658960E+03  0.17679063113E+03  0.79905506098E+02 0.  0.
      -24    2    3    3    0    0  0.81588336820E+02 -0.73513403414E+01 -0.18563303556E+03  0.22959513018E+03  0.10744115135E+03 0.  0.
      -13    1    4    4    0    0 -0.63784177108E+02 -0.46125108030E+01 -0.14068339029E+03  0.15453644492E+03  0.00000000000E+00 0.  1.
       14    1    4    4    0    0 -0.17804159712E+02  0.11963851144E+02  0.59268006932E+01  0.22254186206E+02  0.00000000000E+00 0. -1.
        1    1    5    5  501    0  0.59652878135E+02  0.19889473961E+02 -0.18414891566E+03  0.19458900324E+03  0.00000000000E+00 0. -1.
       -2    1    5    5    0  501  0.21935458685E+02 -0.27240814302E+02 -0.14841198980E+01  0.35006126941E+02  0.00000000000E+00 0.  1.
</event>
<event>
 9   1  0.7570500E-01  0.2500054E+03  0.7546771E-02  0.1113301E+00
       21   -1    0    0  503  502  0.00000000000E+00  0.00000000000E+00  0.54683414320E+03  0.54683414320E+03  0.00000000000E+00 0. -1.
       21   -1    0    0  502  503 -0.00000000000E+00 -0.00000000000E+00 -0.28574805938E+02  0.28574805938E+02  0.00000000000E+00 0. -1.
       25    2    1    2    0    0  0.71054273576E-14  0.71054273576E-14  0.51825933726E+03  0.57540894914E+03  0.25000543612E+03 0.  0.
       24    2    3    3    0    0  0.55184985478E+02  0.35745969464E+02  0.42429174687E+03  0.43612232833E+03  0.76524779339E+02 0.  0.
      -24    2    3    3    0    0 -0.55184985478E+02 -0.35745969464E+02  0.93967590398E+02  0.13928662081E+03  0.79042379371E+02 0.  0.
      -13    1    4    4    0    0  0.40040744314E+02 -0.12398523244E+02  0.10835984121E+03  0.11618450745E+03  0.00000000000E+00 0.  1.
       14    1    4    4    0    0  0.15144241164E+02  0.48144492708E+02  0.31593190565E+03  0.31993782088E+03  0.00000000000E+00 0. -1.
        1    1    5    5  501    0 -0.18831999990E+02  0.24567271552E+02  0.18482168056E+02  0.36052539317E+02  0.00000000000E+00 0. -1.
       -2    1    5    5    0  501 -0.36352985488E+02 -0.60313241016E+02  0.75485422341E+02  0.10323408149E+03  0.00000000000E+00 0.  1.
</event>
<event>
 9   1  0.7570500E-01  0.2499925E+03  0.7546771E-02  0.1113310E+00
       21   -1    0    0  503  502  0.00000000000E+00  0.00000000000E+00  0.50634318674E+02  0.50634318674E+02  0.00000000000E+00 0.  1.
       21   -1    0    0  502  503 -0.00000000000E+00 -0.00000000000E+00 -0.30856676234E+03  0.30856676234E+03  0.00000000000E+00 0.  1.
       25    2    1    2    0    0  0.35527136788E-14  0.00000000000E+00 -0.25793244367E+03  0.35920108102E+03  0.24999254210E+03 0.  0.
       24    2    3    3    0    0  0.27469003526E+02  0.45814491110E+02 -0.24616945880E+03  0.26396462877E+03  0.78894924092E+02 0.  0.
      -24    2    3    3    0    0 -0.27469003526E+02 -0.45814491110E+02 -0.11762984868E+02  0.95236452243E+02  0.77962172060E+02 0.  0.
      -13    1    4    4    0    0  0.39564966487E+00 -0.22050852555E+02 -0.63701517464E+02  0.67411274756E+02  0.00000000000E+00 0.  1.
       14    1    4    4    0    0  0.27073353862E+02  0.67865343666E+02 -0.18246794133E+03  0.19655335402E+03  0.00000000000E+00 0. -1.
        3    1    5    5  501    0 -0.11566099235E+02 -0.33803304940E+02  0.31482915629E+02  0.47619450364E+02  0.00000000000E+00 0. -1.
       -4    1    5    5    0  501 -0.15902904291E+02 -0.12011186170E+02 -0.43245900498E+02  0.47617001879E+02  0.00000000000E+00 0.  1.
</event>
<event>
 9   1  0.7570500E-01  0.2500003E+03  0.7546771E-02  0.1113305E+00
       21   -1    0    0  503  502  0.00000000000E+00  0.00000000000E+00  0.10635434735E+04  0.10635434735E+04  0.00000000000E+00 0. -1.
       21   -1    0    0  502  503 -0.00000000000E+00 -0.00000000000E+00 -0.14691485689E+02  0.14691485689E+02  0.00000000000E+00 0. -1.
       25    2    1    2    0    0 -0.71054273576E-14 -0.14210854715E-13  0.10488519878E+04  0.10782349592E+04  0.25000026977E+03 0.  0.
       24    2    3    3    0    0 -0.45403866221E+02  0.75236076768E+02  0.69482115893E+03  0.70471277520E+03  0.78241129390E+02 0.  0.
      -24    2    3    3    0    0  0.45403866221E+02 -0.75236076768E+02  0.35403082891E+03  0.37352218401E+03  0.80368002431E+02 0.  0.
      -13    1    4    4    0    0  0.11929441026E+02  0.55129828653E+02  0.36693682789E+03  0.37124687909E+03  0.00000000000E+00 0.  1.
       14    1    4    4    0    0 -0.57333307247E+02  0.20106248115E+02  0.32788433103E+03  0.33346589611E+03  0.00000000000E+00 0. -1.
        3    1    5    5  501    0  0.64527932333E+01 -0.64180959630E+02  0.29480144392E+03  0.30177595242E+03  0.00000000000E+00 0. -1.
       -4    1    5    5    0  501  0.38951072988E+02 -0.11055117138E+02  0.59229384991E+02  0.71746231596E+02  0.00000000000E+00 0.  1.
</event>
<event>
 9   1  0.7570500E-01  0.2499789E+03  0.7546771E-02  0.1113318E+00
       21   -1    0    0  503  502  0.00000000000E+00  0.00000000000E+00  0.96078129206E+02  0.96078129206E+02  0.00000000000E+00 0.  1.
       21   -1    0    0  502  503 -0.00000000000E+00 -0.00000000000E+00 -0.16260057586E+03  0.16260057586E+03  0.00000000000E+00 0.  1.
       25    2    1    2    0    0 -0.35527136788E-14  0.00000000000E+00 -0.66522446656E+02  0.25867870507E+03  0.24997887220E+03 0.  0.
       24    2    3    3    0    0 -0.19792048397E+02 -0.69752998155E+02 -0.98712079868E+02  0.14622184250E+03  0.79872063840E+02 0.  0.
      -24    2    3    3    0    0  0.19792048397E+02  0.69752998155E+02  0.32189633211E+02  0.11245686257E+03  0.79706759565E+02 0.  0.
      -13    1    4    4    0    0  0.17132507549E+02 -0.68756550695E+02 -0.67484491039E+02  0.97852657650E+02  0.00000000000E+00 0.  1.
       14    1    4    4    0    0 -0.36924555946E+02 -0.99644746009E+00 -0.31227588829E+02  0.48369184854E+02  0.00000000000E+00 0. -1.
        3    1    5    5  501    0  0.49988211363E+02  0.36989250408E+02  0.26279245171E+02  0.67510181809E+02  0.00000000000E+00 0. -1.
       -4    1    5    5    0  501 -0.30196162966E+02  0.32763747747E+02  0.59103880402E+01  0.44946680757E+02  0.00000000000E+00 0.  1.
</event>
<event>
 9   1  0.7570500E-01  0.2499993E+03  0.7546771E-02  0.1113305E+00
       21   -1    0    0  503  502  0.00000000000E+00  0.00000000000E+00  0.93596361833E+01  0.93596361833E+01  0.00000000000E+00 0.  1.
       21   -1    0    0  502  503 -0.00000000000E+00 -0.00000000000E+00 -0.16693934853E+04  0.16693934853E+04  0.00000000000E+00 0.  1.
       25    2    1    2    0    0  0.35527136788E-14  0.00000000000E+00 -0.16600338491E+04  0.16787531215E+04  0.24999932535E+03 0.  0.
       24    2    3    3    0    0 -0.22106180958E+02 -0.58835090294E+02 -0.13137198272E+04  0.13176565684E+04  0.80054960824E+02 0.  0.
      -24    2    3    3    0    0  0.22106180958E+02  0.58835090294E+02 -0.34631402191E+03  0.36109655309E+03  0.80666398173E+02 0.  0.
      -13    1    4    4    0    0 -0.48714294662E+02 -0.56011138226E+02 -0.10333476930E+04  0.10360105138E+04  0.00000000000E+00 0.  1.
       14    1    4    4    0    0  0.26608113704E+02 -0.28239520689E+01 -0.28037213418E+03  0.28164605456E+03  0.00000000000E+00 0. -1.
        3    1    5    5  501    0  0.14636603656E+02  0.17984671520E+02 -0.15976464560E+02  0.28158941673E+02  0.00000000000E+00 0. -1.
       -4    1    5    5    0  501  0.74695773012E+01  0.40850418774E+02 -0.33033755735E+03  0.33293761142E+03  0.00000000000E+00 0.  1.
</event>
<event>
 9   1  0.7570500E-01  0.2499986E+03  0.7546771E-02  0.1113306E+00
       21   -1    0    0  503  502  0.00000000000E+00  0.00000000000E+00  0.98572318288E+02  0.98572318288E+02  0.00000000000E+00 0. -1.
       21   -1    0    0  502  503 -0.00000000000E+00 -0.00000000000E+00 -0.15851132199E+03  0.15851132199E+03  0.00000000000E+00 0. -1.
       25    2    1    2    0    0  0.00000000000E+00  0.00000000000E+00 -0.59939003703E+02  0.25708364028E+03  0.24999862787E+03 0.  0.
       24    2    3    3    0    0  0.82479613855E+02 -0.47207090179E+02 -0.28977034243E+02  0.12726061038E+03  0.79524828675E+02 0.  0.
      -24    2    3    3    0    0 -0.82479613855E+02  0.47207090179E+02 -0.30961969460E+02  0.12982302990E+03  0.82849136837E+02 0.  0.
      -13    1    4    4    0    0  0.28838515552E+02 -0.56319958126E+02  0.44042112118E+01  0.63427082062E+02  0.00000000000E+00 0.  1.
       14    1    4    4    0    0  0.53641098303E+02  0.91128679463E+01 -0.33381245455E+02  0.63833528318E+02  0.00000000000E+00 0. -1.
        1    1    5    5  501    0 -0.53526992092E+02 -0.13102632074E+02  0.22089210321E+01  0.55151583675E+02  0.00000000000E+00 0. -1.
       -2    1    5    5    0  501 -0.28952621763E+02  0.60309722254E+02 -0.33170890492E+02  0.74671446225E+02  0.00000000000E+00 0.  1.
</event>
<event>
 9   1  0.7570500E-01  0.2499748E+03  0.7546771E-02  0.1113321E+00
       21   -1    0    0  503  502  0.00000000000E+00  0.00000000000E+00  0.20775092376E+03  0.20775092376E+03  0.00000000000E+00 0.  1.
       21   -1    0    0  502  503 -0.00000000000E+00 -0.00000000000E+00 -0.75195093270E+02  0.75195093270E+02  0.00000000000E+00 0.  1.
       25    2    1    2    0    0  0.35527136788E-14  0.00000000000E+00  0.13255583049E+03  0.28294601703E+03  0.24997479944E+03 0.  0.
       24    2    3    3    0    0  0.11251020823E+02  0.41281670598E+02 -0.28010575312E+02  0.98346423802E+02  0.84003957933E+02 0.  0.
      -24    2    3    3    0    0 -0.11251020823E+02 -0.41281670598E+02  0.16056640580E+03  0.18459959323E+03  0.80403217294E+02 0.  0.
      -13    1    4    4    0    0 -0.27053318563E+02  0.64484444541E+01 -0.36492362957E+02  0.45881990316E+02  0.00000000000E+00 0.  1.
       14    1    4    4    0    0  0.38304339386E+02  0.34833226144E+02  0.84817876446E+01  0.52464433486E+02  0.00000000000E+00 0. -1.
        3    1    5    5  501    0 -0.39192427991E+02 -0.43223261808E+02  0.77972955764E+02  0.97386234159E+02  0.00000000000E+00 0. -1.
       -4    1    5    5    0  501  0.27941407169E+02  0.19415912098E+01  0.82593450040E+02  0.87213359072E+02  0.00000000000E+00 0.  1.
</event>
<event>
 9   1  0.7570500E-01  0.2500077E+03  0.7546771E-02  0.1113300E+00
       21   -1    0    0  503  502  0.00000000000E+00  0.00000000000E+00  0.48318684963E+02  0.48318684963E+02  0.00000000000E+00 0. -1.
       21   -1    0    0  502  503 -0.00000000000E+00 -0.00000000000E+00 -0.32339368037E+03  0.32339368037E+03  0.00000000000E+00 0. -1.
       25    2    1    2    0    0  0.17763568394E-14 -0.14210854715E-13 -0.27507499541E+03  0.37171236534E+03  0.25000765877E+03 0.  0.
       24    2    3    3    0    0 -0.10218553232E+02  0.83501619564E+02 -0.20258659579E+03  0.23336215595E+03  0.79621779270E+02 0.  0.
      -24    2    3    3    0    0  0.10218553232E+02 -0.83501619564E+02 -0.72488399616E+02  0.13835020939E+03  0.82518319534E+02 0.  0.
      -13    1    4    4    0    0  0.82343443628E+01  0.63028984960E+02 -0.57602983954E+02  0.85782056006E+02  0.00000000000E+00 0.  1.
       14    1    4    4    0    0 -0.18452897595E+02  0.20472634603E+02 -0.14498361184E+03  0.14758009994E+03  0.00000000000E+00 0. -1.
        1    1    5    5  501    0  0.44170394438E+02 -0.26816807163E+02 -0.29117384607E+02  0.59312620728E+02  0.00000000000E+00 0. -1.
       -2    1    5    5    0  501 -0.33951841206E+02 -0.56684812400E+02 -0.43371015009E+02  0.79037588659E+02  0.00000000000E+00 0.  1.
</event>
<event>
 9   1  0.7570500E-01  0.2499931E+03  0.7546771E-02  0.1113309E+00
       21   -1    0    0  503  502  0.00000000000E+00  0.00000000000E+00  0.15291839388E+03  0.15291839388E+03  0.00000000000E+00 0.  1.
       21   -1    0    0  502  503 -0.00000000000E+00 -0.00000000000E+00 -0.10217302787E+03  0.10217302787E+03  0.00000000000E+00 0.  1.
       25    2    1    2    0    0  0.14210854715E-13 -0.14210854715E-13  0.50745366007E+02  0.25509142175E+03  0.24999308246E+03 0.  0.
       24    2    3    3    0    0 -0.77862495071E+02  0.35051228814E+02 -0.17941743292E+02  0.11912115179E+03  0.81097385114E+02 0.  0.
      -24    2    3    3    0    0  0.77862495071E+02 -0.35051228814E+02  0.68687109299E+02  0.13597026996E+03  0.80491232740E+02 0.  0.
      -13    1    4    4    0    0 -0.34343274984E+02 -0.21958835952E+02  0.10290897097E+02  0.42042283193E+02  0.00000000000E+00 0.  1.
       14    1    4    4    0    0 -0.43519220087E+02  0.57010064765E+02 -0.28232640390E+02  0.77078868601E+02  0.00000000000E+00 0. -1.
        1    1    5    5  501    0  0.10765739621E+02  0.24985739497E+02  0.13559243917E+02  0.30398049664E+02  0.00000000000E+00 0. -1.
       -2    1    5    5    0  501  0.67096755451E+02 -0.60036968310E+02  0.55127865382E+02  0.10557222029E+03  0.00000000000E+00 0.  1.
</event>
<event>
 9   1  0.7570500E-01  0.2499478E+03  0.7546771E-02  0.1113338E+00
       21   -1    0    0  503  502  0.00000000000E+00  0.00000000000E+00  0.96982600299E+01  0.96982600299E+01  0.00000000000E+00 0.  1.
       21   -1    0    0  502  503 -0.00000000000E+00 -0.00000000000E+00 -0.16104409349E+04  0.16104409349E+04  0.00000000000E+00 0.  1.
       25    2    1    2    0    0  0.35527136788E-14  0.00000000000E+00 -0.16007426749E+04  0.16201391950E+04  0.24994779415E+03 0.  0.
       24    2    3    3    0    0  0.11201713982E+02  0.13335068755E+02 -0.18675297397E+03  0.20377885310E+03  0.79660813618E+02 0.  0.
      -24    2    3    3    0    0 -0.11201713982E+02 -0.13335068755E+02 -0.14139897009E+04  0.14163603419E+04  0.80040247525E+02 0.  0.
      -13    1    4    4    0    0 -0.28590412730E+02  0.20017589714E+02 -0.48461966646E+02  0.59721669511E+02  0.00000000000E+00 0.  1.
       14    1    4    4    0    0  0.39792126712E+02 -0.66825209590E+01 -0.13829100733E+03  0.14405718358E+03  0.00000000000E+00 0. -1.
        1    1    5    5  501    0 -0.42063946111E+02  0.91798142523E+01 -0.65917937338E+03  0.66058390144E+03  0.00000000000E+00 0. -1.
       -2    1    5    5    0  501  0.30862232129E+02 -0.22514883008E+02 -0.75481032755E+03  0.75577644043E+03  0.00000000000E+00 0.  1.
</event>
<event>
 9   1  0.7570500E-01  0.2499998E+03  0.7546771E-02  0.1113305E+00
       21   -1    0    0  503  502  0.00000000000E+00  0.00000000000E+00  0.75477951951E+01  0.75477951951E+01  0.00000000000E+00 0. -1.
       21   -1    0    0  502  503 -0.00000000000E+00 -0.00000000000E+00 -0.20701375139E+04  0.20701375139E+04  0.00000000000E+00 0. -1.
       25    2    1    2    0    0  0.00000000000E+00  0.71054273576E-14 -0.20625897187E+04  0.20776853091E+04  0.24999979185E+03 0.  0.
       24    2    3    3    0    0  0.52077458833E+02 -0.36508451156E+02 -0.16205470814E+04  0.16237979947E+04  0.80635946811E+02 0.  0.
      -24    2    3    3    0    0 -0.52077458833E+02  0.36508451156E+02 -0.44204263732E+03  0.45388731438E+03  0.81037474206E+02 0.  0.
      -13    1    4    4    0    0  0.98919484116E+01  0.25681695583E+02 -0.45200951929E+03  0.45284655863E+03  0.00000000000E+00 0.  1.
       14    1    4    4    0    0  0.42185510421E+02 -0.62190146739E+02 -0.11685375621E+04  0.11709514361E+04  0.00000000000E+00 0. -1.
        1    1    5    5  501    0 -0.27015867442E+02 -0.99173251000E+01 -0.31518719724E+03  0.31649830921E+03  0.00000000000E+00 0. -1.
       -2    1    5    5    0  501 -0.25061591391E+02  0.46425776256E+02 -0.12685544008E+03  0.13738900517E+03  0.00000000000E+00 0.  1.
</event>
<event>
 9   1  0.7570500E-01  0.2499953E+03  0.7546771E-02  0.1113308E+00
       21   -1    0    0  503  502  0.00000000000E+00  0.00000000000E+00  0.25524490509E+02  0.25524490509E+02  0.00000000000E+00 0. -1.
       21   -1    0    0  502  503 -0.00000000000E+00 -0.00000000000E+00 -0.61213419279E+03  0.61213419279E+03  0.00000000000E+00 0. -1.
       25    2    1    2    0    0  0.71054273576E-14 -0.71054273576E-14 -0.58660970228E+03  0.63765868330E+03  0.24999530711E+03 0.  0.
       24    2    3    3    0    0  0.50456924383E+02  0.39271551108E+02 -0.11210315073E+03  0.15227366921E+03  0.80820776952E+02 0.  0.
      -24    2    3    3    0    0 -0.50456924383E+02 -0.39271551108E+02 -0.47450655156E+03  0.48538501409E+03  0.79711909340E+02 0.  0.
      -13    1    4    4    0    0  0.47637358344E+01  0.12884842647E+02  0.11476819325E+02  0.17900551135E+02  0.00000000000E+00 0.  1.
       14    1    4    4    0    0  0.45693188548E+02  0.26386708461E+02 -0.12357997005E+03  0.13437311807E+03  0.00000000000E+00 0. -1.
        3    1    5    5  501    0 -0.41604961767E+02 -0.43362560613E+02 -0.16298159750E+03  0.17370747143E+03  0.00000000000E+00 0. -1.
       -4    1    5    5    0  501 -0.88519626155E+01  0.40910095046E+01 -0.31152495405E+03  0.31167754266E+03  0.00000000000E+00 0.  1.
</event>
<event>
 9   1  0.7570500E-01  0.2499891E+03  0.7546771E-02  0.1113312E+00
       21   -1    0    0  503  502  0.00000000000E+00  0.00000000000E+00  0.14024032873E+03  0.14024032873E+03  0.00000000000E+00 0.  1.
       21   -1    0    0  502  503 -0.00000000000E+00 -0.00000000000E+00 -0.11140617053E+03  0.11140617053E+03  0.00000000000E+00 0.  1.
       25    2    1    2    0    0  0.00000000000E+00  0.00000000000E+00  0.28834158204E+02  0.25164649926E+03  0.24998910358E+03 0.  0.
       24    2    3    3    0    0 -0.74305237588E+01 -0.16992468125E+02  0.10753032160E+03  0.13865688155E+03  0.85551178143E+02 0.  0.
      -24    2    3    3    0    0  0.74305237588E+01  0.16992468125E+02 -0.78696163401E+02  0.11298961770E+03  0.78927884289E+02 0.  0.
      -13    1    4    4    0    0  0.30348757732E+02  0.37648046867E+01  0.84330260063E+02  0.89704033424E+02  0.00000000000E+00 0.  1.
       14    1    4    4    0    0 -0.37779281491E+02 -0.20757272812E+02  0.23200061542E+02  0.48952848131E+02  0.00000000000E+00 0. -1.
        3    1    5    5  501    0 -0.21911021283E+02  0.36081654009E+02 -0.25525503722E+02  0.49330821501E+02  0.00000000000E+00 0. -1.
       -4    1    5    5    0  501  0.29341545042E+02 -0.19089185883E+02 -0.53170659679E+02  0.63658796202E+02  0.00000000000E+00 0.  1.
</event>
<event>
 9   1  0.7570500E-01  0.2500094E+03  0.7546771E-02  0.1113299E+00
       21   -1    0    0  503  502  0.00000000000E+00  0.00000000000E+00  0.18118006062E+02  0.18118006062E+02  0.00000000000E+00 0.  1.
       21   -1    0    0  502  503 -0.00000000000E+00 -0.00000000000E+00 -0.86246662695E+03  0.86246662695E+03  0.00000000000E+00 0.  1.
       25    2    1    2    0    0 -0.71054273576E-14 -0.28421709430E-13 -0.84434862088E+03  0.88058463301E+03  0.25000940443E+03 0.  0.
       24    2    3    3    0    0  0.57315303327E+02  0.64442880515E+02 -0.27400076206E+03  0.29827876647E+03  0.80348466503E+02 0.  0.
      -24    2    3    3    0    0 -0.57315303327E+02 -0.64442880515E+02 -0.57034785882E+03  0.58230586654E+03  0.79658730233E+02 0.  0.
      -13    1    4    4    0    0  0.19291350992E+02  0.59013312741E+02 -0.84113225120E+02  0.10454550179E+03  0.00000000000E+00 0.  1.
       14    1    4    4    0    0  0.38023952335E+02  0.54295677738E+01 -0.18988753694E+03  0.19373326468E+03  0.00000000000E+00 0. -1.
        3    1    5    5  501    0 -0.16845334138E+02 -0.65087281952E+02 -0.45761039393E+03  0.46252285586E+03  0.00000000000E+00 0. -1.
       -4    1    5    5    0  501 -0.40469969190E+02  0.64440143679E+00 -0.11273746489E+03  0.11978301069E+03  0.00000000000E+00 0.  1.
</event>
<event>
 9   1  0.7570500E-01  0.2500012E+03  0.7546771E-02  0.1113304E+00
       21   -1    0    0  503  502  0.00000000000E+00  0.00000000000E+00  0.21045048233E+03  0.21045048233E+03  0.00000000000E+00 0. -1.
       21   -1    0    0  502  503 -0.00000000000E+00 -0.00000000000E+00 -0.74246217948E+02  0.74246217948E+02  0.00000000000E+00 0. -1.
       25    2    1    2    0    0  0.00000000000E+00  0.14210854715E-13  0.13620426438E+03  0.28469670027E+03  0.25000121902E+03 0.  0.
       24    2    3    3    0    0  0.94518312754E+01  0.90318671561E+02  0.32949009978E+02  0.12555248823E+03  0.80193456686E+02 0.  0.
      -24    2    3    3    0    0 -0.94518312754E+01 -0.90318671561E+02  0.10325525440E+03  0.15914421204E+03  0.80115124158E+02 0.  0.
      -13    1    4    4    0    0  0.18715564089E+02  0.34338413697E+02 -0.23409212996E+02  0.45578396719E+02  0.00000000000E+00 0.  1.
       14    1    4    4    0    0 -0.92637328137E+01  0.55980257864E+02  0.56358222974E+02  0.79974091510E+02  0.00000000000E+00 0. -1.
        1    1    5    5  501    0 -0.44658187998E+01 -0.35446849907E+01 -0.12880066216E+02  0.14085610919E+02  0.00000000000E+00 0. -1.
       -2    1    5    5    0  501 -0.49860124756E+01 -0.86773986570E+02  0.11613532062E+03  0.14505860112E+03  0.00000000000E+00 0.  1.
</event>
<event>
 9   1  0.7570500E-01  0.2500004E+03  0.7546771E-02  0.1113305E+00
       21   -1    0    0  503  502  0.00000000000E+00  0.00000000000E+00  0.10673581031E+02  0.10673581031E+02  0.00000000000E+00 0.  1.
       21   -1    0    0  502  503 -0.00000000000E+00 -0.00000000000E+00 -0.14638989539E+04  0.14638989539E+04  0.00000000000E+00 0.  1.
       25    2    1    2    0    0  0.00000000000E+00  0.35527136788E-14 -0.14532253729E+04  0.14745725349E+04  0.25000035284E+03 0.  0.
       24    2    3    3    0    0  0.37137258894E+02 -0.13122597590E+02 -0.12360313024E+04  0.12391836795E+04  0.79066001078E+02 0.  0.
      -24    2    3    3    0    0 -0.37137258894E+02  0.13122597590E+02 -0.21719407049E+03  0.23538885543E+03  0.81751271775E+02 0.  0.
      -13    1    4    4    0    0 -0.92781567618E+01 -0.33753356648E+02 -0.65569895910E+03  0.65663269660E+03  0.00000000000E+00 0.  1.
       14    1    4    4    0    0  0.46415415656E+02  0.20630759058E+02 -0.58033234329E+03  0.58255098292E+03  0.00000000000E+00 0. -1.
        3    1    5    5  501    0 -0.33132112411E+02  0.40937503276E+02 -0.18641155032E+03  0.19370823973E+03  0.00000000000E+00 0. -1.
       -4    1    5    5    0  501 -0.40051464828E+01 -0.27814905686E+02 -0.30782520177E+02  0.41680615700E+02  0.00000000000E+00 0.  1.
</event>
<event>
 9   1  0.7570500E-01  0.2500012E+03  0.7546771E-02  0.1113304E+00
       21   -1    0    0  503  502  0.00000000000E+00  0.00000000000E+00  0.52844664735E+02  0.52844664735E+02  0.00000000000E+00 0.  1.
       21   -1    0    0  502  503 -0.00000000000E+00 -0.00000000000E+00 -0.29568085263E+03  0.29568085263E+03  0.00000000000E+00 0.  1.
       25    2    1    2    0    0  0.00000000000E+00  0.00000000000E+00 -0.24283618789E+03  0.34852551736E+03  0.25000124420E+03 0.  0.
       24    2    3    3    0    0  0.48327299593E+02 -0.73489020291E+02 -0.70848346012E+02  0.13804547791E+03  0.79378220244E+02 0.  0.
      -24    2    3    3    0    0 -0.48327299593E+02  0.73489020291E+02 -0.17198784188E+03  0.21048003945E+03  0.83581488767E+02 0.  0.
      -13    1    4    4    0    0  0.14679878858E+01 -0.70812646978E+02 -0.49938531579E+02  0.86662811498E+02  0.00000000000E+00 0.  1.
       14    1    4    4    0    0  0.46859311707E+02 -0.26763733125E+01 -0.20909814433E+02  0.51382666410E+02  0.00000000000E+00 0. -1.
        3    1    5    5  501    0 -0.62603574350E+02  0.21221492737E+02 -0.80623760156E+02  0.10425809310E+03  0.00000000000E+00 0. -1.
       -4    1    5    5    0  501  0.14276274757E+02  0.52267527554E+02 -0.91364081726E+02  0.10622194635E+03  0.00000000000E+00 0.  1.
</event>
<event>
 9   1  0.7570500E-01  0.2499966E+03  0.7546771E-02  0.1113307E+00
       21   -1    0    0  503  502  0.00000000000E+00  0.00000000000E+00  0.26592703534E+02  0.26592703534E+02  0.00000000000E+00 0.  1.
       21   -1    0    0  502  503 -0.00000000000E+00 -0.00000000000E+00 -0.58755120456E+03  0.58755120456E+03  0.00000000000E+00 0.  1.
       25    2    1    2    0    0  0.00000000000E+00  0.00000000000E+00 -0.56095850103E+03  0.61414390810E+03  0.24999659993E+03 0.  0.
       24    2    3    3    0    0  0.78653205490E+02 -0.29135708237E+02 -0.39224144555E+03  0.40956770776E+03  0.82807846243E+02 0.  0.
      -24    2    3    3    0    0 -0.78653205490E+02  0.29135708237E+02 -0.16871705548E+03  0.20457620034E+03  0.79691660220E+02 0.  0.
      -13    1    4    4    0    0  0.46772764856E+02  0.26258832674E+02 -0.19392349110E+03  0.20120521421E+03  0.00000000000E+00 0.  1.
       14    1    4    4    0    0  0.31880440634E+02 -0.55394540911E+02 -0.19831795446E+03  0.20836249355E+03  0.00000000000E+00 0. -1.
        3    1    5    5  501    0 -0.58782154667E+02 -0.12869517929E+02 -0.54179944235E+02  0.80971800995E+02  0.00000000000E+00 0. -1.
       -4    1    5    5    0  501 -0.19871050823E+02  0.42005226166E+02 -0.11453711124E+03  0.12360439934E+03  0.00000000000E+00 0.  1.
</event>
<event>
 9   1  0.7570500E-01  0.2499944E+03  0.7546771E-02  0.1113308E+00
       21   -1    0    0  503  502  0.00000000000E+00  0.00000000000E+00  0.87967422899E+02  0.87967422899E+02  0.00000000000E+00 0.  1.
       21   -1    0    0  502  503 -0.00000000000E+00 -0.00000000000E+00 -0.17761457775E+03  0.17761457775E+03  0.00000000000E+00 0.  1.
       25    2    1    2    0    0  0.71054273576E-14  0.00000000000E+00 -0.89647154852E+02  0.26558200065E+03  0.24999437333E+03 0.  0.
       24    2    3    3    0    0  0.47425198460E+02 -0.46383999460E+02  0.28174282329E+02  0.10837084344E+03  0.80930987069E+02 0.  0.
      -24    2    3    3    0    0 -0.47425198460E+02  0.46383999460E+02 -0.11782143718E+03  0.15721115721E+03  0.80204937738E+02 0.  0.
      -13    1    4    4    0    0 -0.33056491404E+01 -0.30975780183E+02  0.43203019849E+02  0.53262812527E+02  0.00000000000E+00 0.  1.
       14    1    4    4    0    0  0.50730847600E+02 -0.15408219277E+02 -0.15028737520E+02  0.55108030912E+02  0.00000000000E+00 0. -1.
        3    1    5    5  501    0  0.20962534044E+02  0.23988133593E+02 -0.31091488367E+02  0.44514481191E+02  0.00000000000E+00 0. -1.
       -4    1    5    5    0  501 -0.68387732503E+02  0.22395865867E+02 -0.86729948813E+02  0.11269667602E+03  0.00000000000E+00 0.  1.
</event>
<event>
 9   1  0.7570500E-01  0.2499968E+03  0.7546771E-02  0.1113307E+00
       21   -1    0    0  503  502  0.00000000000E+00  0.00000000000E+00  0.84607857028E+02  0.84607857028E+02  0.00000000000E+00 0. -1.
       21   -1    0    0  502  503 -0.00000000000E+00 -0.00000000000E+00 -0.18467076207E+03  0.18467076207E+03  0.00000000000E+00 0. -1.
       25    2    1    2    0    0  0.00000000000E+00  0.17763568394E-14 -0.10006290504E+03  0.26927861910E+03  0.24999677946E+03 0.  0.
       24    2    3    3    0    0 -0.81186113584E+02 -0.51179998720E+01 -0.11084080329E+03  0.15474164798E+03  0.71006443251E+02 0.  0.
      -24    2    3    3    0    0  0.81186113584E+02  0.51179998720E+01  0.10777898249E+02  0.11453697112E+03  0.79907294420E+02 0.  0.
      -13    1    4    4    0    0 -0.59639969600E+02  0.44535246885E+01 -0.11608843095E+03  0.13058822174E+03  0.00000000000E+00 0.  1.
       14    1    4    4    0    0 -0.21546143984E+02 -0.95715245604E+01  0.52476276612E+01  0.24153426238E+02  0.00000000000E+00 0. -1.
        3    1    5    5  501    0  0.66133549046E+02 -0.21470934933E+02  0.32794044811E+02  0.76877153508E+02  0.00000000000E+00 0. -1.
       -4    1    5    5    0  501  0.15052564538E+02  0.26588934805E+02 -0.22016146563E+02  0.37659817614E+02  0.00000000000E+00 0.  1.
</event>
<event>
 9   1  0.7570500E-01  0.2499670E+03  0.7546771E-02  0.1113326E+00
       21   -1    0    0  503  502  0.00000000000E+00  0.00000000000E+00  0.22972432036E+03  0.22972432036E+03  0.00000000000E+00 0. -1.
       21   -1    0    0  502  503 -0.00000000000E+00 -0.00000000000E+00 -0.67998355011E+02  0.67998355011E+02  0.00000000000E+00 0. -1.
       25    2    1    2    0    0  0.00000000000E+00  0.00000000000E+00  0.16172596535E+03  0.29772267537E+03  0.24996700495E+03 0.  0.
       24    2    3    3    0    0 -0.77722901475E+02  0.32599867959E+02  0.53861227446E+02  0.13863912323E+03  0.96000905541E+02 0.  0.
      -24    2    3    3    0    0  0.77722901475E+02 -0.32599867959E+02  0.10786473791E+03  0.15908355214E+03  0.81050441535E+02 0.  0.
      -13    1    4    4    0    0 -0.39342233590E+02  0.90442317824E+00 -0.24097529048E+02  0.46144557982E+02  0.00000000000E+00 0.  1.
       14    1    4    4    0    0 -0.38380667885E+02  0.31695444781E+02  0.77958756494E+02  0.92494565253E+02  0.00000000000E+00 0. -1.
        1    1    5    5  501    0  0.70363627304E+02  0.53159347594E+01  0.40307744543E+02  0.81265081553E+02  0.00000000000E+00 0. -1.
       -2    1    5    5    0  501  0.73592741714E+01 -0.37915802719E+02  0.67556993363E+02  0.77818470586E+02  0.00000000000E+00 0.  1.
</event>
<event>
 9   1  0.7570500E-01  0.2499972E+03  0.7546771E-02  0.1113307E+00
       21   -1    0    0  503  502  0.00000000000E+00  0.00000000000E+00  0.61776497229E+01  0.61776497229E+01  0.00000000000E+00 0. -1.
       21   -1    0    0  502  503 -0.00000000000E+00 -0.00000000000E+00 -0.25292233170E+04  0.25292233170E+04  0.00000000000E+00 0. -1.
       25    2    1    2    0    0 -0.14210854715E-13  0.71054273576E-14 -0.25230456673E+04  0.25354009667E+04  0.24999724577E+03 0.  0.
       24    2    3    3    0    0  0.81033813448E+02  0.39343158197E+02 -0.93513395065E+03  0.94297190015E+03  0.81278138398E+02 0.  0.
      -24    2    3    3    0    0 -0.81033813448E+02 -0.39343158197E+02 -0.15879117166E+04  0.15924290666E+04  0.79071798191E+02 0.  0.
      -13    1    4    4    0    0  0.97320660471E+02  0.38911887729E+02 -0.78848030437E+03  0.79541601464E+03  0.00000000000E+00 0.  1.
       14    1    4    4    0    0 -0.16286847023E+02  0.43127046835E+00 -0.14665364629E+03  0.14755588551E+03  0.00000000000E+00 0. -1.
        1    1    5    5  501    0  0.93454618788E+01  0.10005001067E+02 -0.34018078135E+03  0.34045616708E+03  0.00000000000E+00 0. -1.
       -2    1    5    5    0  501 -0.90379275327E+02 -0.49348159264E+02 -0.12477309353E+04  0.12519728995E+04  0.00000000000E+00 0.  1.
</event>
<event>
 9   1  0.7570500E-01  0.2499984E+03  0.7546771E-02  0.1113306E+00
       21   -1    0    0  503  502  0.00000000000E+00  0.00000000000E+00  0.91681875421E+02  0.91681875421E+02  0.00000000000E+00 0.  1.
       21   -1    0    0  502  503 -0.00000000000E+00 -0.00000000000E+00 -0.17042404232E+03  0.17042404232E+03  0.00000000000E+00 0.  1.
       25    2    1    2    0    0 -0.14210854715E-13  0.14210854715E-13 -0.78742166902E+02  0.26210591774E+03  0.24999836653E+03 0.  0.
       24    2    3    3    0    0  0.56772850681E+02  0.63950975674E+02 -0.55133380516E+01  0.11816664596E+03  0.81363846135E+02 0.  0.
      -24    2    3    3    0    0 -0.56772850681E+02 -0.63950975674E+02 -0.73228828850E+02  0.14393927178E+03  0.89683714918E+02 0.  0.
      -13    1    4    4    0    0  0.68985771116E+02  0.19151618290E+02 -0.26359365386E+01  0.71643347640E+02  0.00000000000E+00 0.  1.
       14    1    4    4    0    0 -0.12212920435E+02  0.44799357383E+02 -0.28774015130E+01  0.46523298325E+02  0.00000000000E+00 0. -1.
        3    1    5    5  501    0 -0.72752197007E+02 -0.62795255333E+02 -0.34640327375E+02  0.10215712673E+03  0.00000000000E+00 0. -1.
       -4    1    5    5    0  501  0.15979346327E+02 -0.11557203406E+01 -0.38588501475E+02  0.41782145046E+02  0.00000000000E+00 0.  1.
</event>
<event>
 9   1  0.7570500E-01  0.2500015E+03  0.7546771E-02  0.1113304E+00
       21   -1    0    0  503  502  0.00000000000E+00  0.00000000000E+00  0.11139779702E+04  0.11139779702E+04  0.00000000000E+00 0.  1.
       21   -1    0    0  502  503 -0.00000000000E+00 -0.00000000000E+00 -0.14026473530E+02  0.14026473530E+02  0.00000000000E+00 0.  1.
       25    2    1    2    0    0  0.00000000000E+00  0.00000000000E+00  0.10999514967E+04  0.11280044437E+04  0.25000146009E+03 0.  0.
       24    2    3    3    0    0 -0.83727801160E+02  0.11237663984E+02  0.35265317595E+03  0.37157671329E+03  0.81045429061E+02 0.  0.
      -24    2    3    3    0    0  0.83727801160E+02 -0.11237663984E+02  0.74729832071E+03  0.75642773043E+03  0.81188062240E+02 0.  0.
      -13    1    4    4    0    0 -0.18000960004E+01  0.96567822829E+01  0.30742124308E+00  0.98279345486E+01  0.00000000000E+00 0.  1.
       14    1    4    4    0    0 -0.81927705160E+02  0.15808817016E+01  0.35234575471E+03  0.36174877874E+03  0.00000000000E+00 0. -1.
        3    1    5    5  501    0  0.43272346238E+02 -0.18870944698E+02  0.14019018535E+03  0.14792530741E+03  0.00000000000E+00 0. -1.
       -4    1    5    5    0  501  0.40455454922E+02  0.76332807131E+01  0.60710813535E+03  0.60850242302E+03  0.00000000000E+00 0.  1.
</event>
<event>
 9   1  0.7570500E-01  0.2500017E+03  0.7546771E-02  0.1113304E+00
       21   -1    0    0  503  502  0.00000000000E+00  0.00000000000E+00  0.36763679024E+02  0.36763679024E+02  0.00000000000E+00 0. -1.
       21   -1    0    0  502  503 -0.00000000000E+00 -0.00000000000E+00 -0.42501769345E+03  0.42501769345E+03  0.00000000000E+00 0. -1.
       25    2    1    2    0    0  0.71054273576E-14  0.00000000000E+00 -0.38825401442E+03  0.46178137247E+03  0.25000171249E+03 0.  0.
       24    2    3    3    0    0  0.39581421902E+02  0.72053798636E+02 -0.11558214443E+03  0.16591215779E+03  0.86076553907E+02 0.  0.
      -24    2    3    3    0    0 -0.39581421902E+02 -0.72053798636E+02 -0.27267186999E+03  0.29586921468E+03  0.80188556889E+02 0.  0.
      -13    1    4    4    0    0  0.56479655477E+02  0.59745281380E+02 -0.11909108709E+03  0.14471398396E+03  0.00000000000E+00 0.  1.
       14    1    4    4    0    0 -0.16898233576E+02  0.12308517256E+02  0.35089426557E+01  0.21198173827E+02  0.00000000000E+00 0. -1.
        3    1    5    5  501    0 -0.49894505000E+02 -0.97416321864E+01 -0.10400076512E+03  0.11576061581E+03  0.00000000000E+00 0. -1.
       -4    1    5    5    0  501  0.10313083098E+02 -0.62312166450E+02 -0.16867110487E+03  0.18010859888E+03  0.00000000000E+00 0.  1.
</event>
<event>
 9   1  0.7570500E-01  0.2499943E+03  0.7546771E-02  0.1113308E+00
       21   -1    0    0  503  502  0.00000000000E+00  0.00000000000E+00  0.28334958414E+02  0.28334958414E+02  0.00000000000E+00 0.  1.
       21   -1    0    0  502  503 -0.00000000000E+00 -0.00000000000E+00 -0.55141392922E+03  0.55141392922E+03  0.00000000000E+00 0.  1.
       25    2    1    2    0    0  0.00000000000E+00  0.14210854715E-13 -0.52307897080E+03  0.57974888763E+03  0.24999432596E+03 0.  0.
       24    2    3    3    0    0 -0.72944815796E+02  0.48175932485E+02 -0.34631618564E+03  0.36685036626E+03  0.83680488548E+02 0.  0.
      -24    2    3    3    0    0  0.72944815796E+02 -0.48175932485E+02 -0.17676278516E+03  0.21289852137E+03  0.80242330244E+02 0.  0.
      -13    1    4    4    0    0 -0.46463840403E+02  0.27464093140E+02 -0.69482700783E+02  0.87983013049E+02  0.00000000000E+00 0.  1.
       14    1    4    4    0    0 -0.26480975393E+02  0.20711839345E+02 -0.27683348486E+03  0.27886735321E+03  0.00000000000E+00 0. -1.
        3    1    5    5  501    0  0.52332499427E+02 -0.60007282970E+02 -0.78533732817E+02  0.11183519882E+03  0.00000000000E+00 0. -1.
       -4    1    5    5    0  501  0.20612316369E+02  0.11831350486E+02 -0.98229052345E+02  0.10106332255E+03  0.00000000000E+00 0.  1.
</event>
<event>
 9   1  0.7570500E-01  0.2499820E+03  0.7546771E-02  0.1113316E+00
       21   -1    0    0  503  502  0.00000000000E+00  0.00000000000E+00  0.30995791987E+02  0.30995791987E+02  0.00000000000E+00 0. -1.
       21   -1    0    0  502  503 -0.00000000000E+00 -0.00000000000E+00 -0.50402828932E+03  0.50402828932E+03  0.00000000000E+00 0. -1.
       25    2    1    2    0    0  0.00000000000E+00  0.00000000000E+00 -0.47303249734E+03  0.53502408131E+03  0.24998204745E+03 0.  0.
       24    2    3    3    0    0 -0.58121275776E+02  0.69173288645E+02 -0.31260659267E+03  0.33453151216E+03  0.77623606510E+02 0.  0.
      -24    2    3    3    0    0  0.58121275776E+02 -0.69173288645E+02 -0.16042590466E+03  0.20049256915E+03  0.79358508281E+02 0.  0.
      -13    1    4    4    0    0 -0.47516951118E+02  0.85276891800E+02 -0.28136201896E+03  0.29781637738E+03  0.00000000000E+00 0.  1.
       14    1    4    4    0    0 -0.10604324658E+02 -0.16103603156E+02 -0.31244573710E+02  0.36715134786E+02  0.00000000000E+00 0. -1.
        3    1    5    5  501    0  0.35085215867E+02  0.95437001339E+01 -0.33920970370E+02  0.49726118042E+02  0.00000000000E+00 0. -1.
       -4    1    5    5    0  501  0.23036059910E+02 -0.78716988779E+02 -0.12650493429E+03  0.15076645110E+03  0.00000000000E+00 0.  1.
</event>
<event>
 9   1  0.7570500E-01  0.2499996E+03  0.7546771E-02  0.1113305E+00
       21   -1    0    0  503  502  0.00000000000E+00  0.00000000000E+00  0.18470347562E+02  0.18470347562E+02  0.00000000000E+00 0. -1.
       21   -1    0    0  502  503 -0.00000000000E+00 -0.00000000000E+00 -0.84594785274E+03  0.84594785274E+03  0.00000000000E+00 0. -1.
       25    2    1    2    0    0  0.00000000000E+00  0.71054273576E-14 -0.82747750518E+03  0.86441820030E+03  0.24999960687E+03 0.  0.
       24    2    3    3    0    0 -0.85899389136E+02 -0.31158027837E+02 -0.30905861960E+03  0.33197328014E+03  0.79620981076E+02 0.  0.
      -24    2    3    3    0    0  0.85899389136E+02  0.31158027837E+02 -0.51841888558E+03  0.53244492016E+03  0.79937002230E+02 0.  0.
      -13    1    4    4    0    0 -0.65360561645E+02 -0.40787543248E+02 -0.29586461419E+03  0.30573108548E+03  0.00000000000E+00 0.  1.
       14    1    4    4    0    0 -0.20538827491E+02  0.96295154110E+01 -0.13194005413E+02  0.26242194660E+02  0.00000000000E+00 0. -1.
        1    1    5    5  501    0  0.67598928781E+02 -0.16989582822E+02 -0.28301334584E+03  0.29147009284E+03  0.00000000000E+00 0. -1.
       -2    1    5    5    0  501  0.18300460355E+02  0.48147610660E+02 -0.23540553974E+03  0.24097482732E+03  0.00000000000E+00 0.  1.
</event>
<event>
 9   1  0.7570500E-01  0.2499976E+03  0.7546771E-02  0.1113306E+00
       21   -1    0    0  503  502  0.00000000000E+00  0.00000000000E+00  0.33078515311E+03  0.33078515311E+03  0.00000000000E+00 0. -1.
       21   -1    0    0  502  503 -0.00000000000E+00 -0.00000000000E+00 -0.47235198688E+02  0.47235198688E+02  0.00000000000E+00 0. -1.
       25    2    1    2    0    0  0.00000000000E+00  0.00000000000E+00  0.28354995442E+03  0.37802035180E+03  0.24999761943E+03 0.  0.
       24    2    3    3    0    0  0.37459444181E+02  0.85584112790E+02  0.16130298759E+03  0.20504487856E+03  0.85421883014E+02 0.  0.
      -24    2    3    3    0    0 -0.37459444181E+02 -0.85584112790E+02  0.12224696683E+03  0.17297547324E+03  0.79046461793E+02 0.  0.
      -13    1    4    4    0    0 -0.17835832190E+01  0.46730898274E+02  0.15714014516E+02  0.49334453223E+02  0.00000000000E+00 0.  1.
       14    1    4    4    0    0  0.39243027400E+02  0.38853214516E+02  0.14558897307E+03  0.15571042534E+03  0.00000000000E+00 0. -1.
        3    1    5    5  501    0 -0.41059739272E+02 -0.12048240113E+02  0.20666975119E+02  0.47520376045E+02  0.00000000000E+00 0. -1.
       -4    1    5    5    0  501  0.36002950913E+01 -0.73535872678E+02  0.10157999171E+03  0.12545509719E+03  0.00000000000E+00 0.  1.
</event>
<event>
 9   1  0.7570500E-01  0.2500124E+03  0.7546771E-02  0.1113297E+00
       21   -1    0    0  503  502  0.00000000000E+00  0.00000000000E+00  0.19311629471E+02  0.19311629471E+02  0.00000000000E+00 0.  1.
       21   -1    0    0  502  503 -0.00000000000E+00 -0.00000000000E+00 -0.80917843761E+03  0.80917843761E+03  0.00000000000E+00 0.  1.
       25    2    1    2    0    0 -0.17763568394E-14  0.00000000000E+00 -0.78986680814E+03  0.82849006708E+03  0.25001243300E+03 0.  0.
       24    2    3    3    0    0 -0.77058352410E+01 -0.80650631095E+02 -0.55966848743E+03  0.57176600647E+03  0.84401695072E+02 0.  0.
      -24    2    3    3    0    0  0.77058352410E+01  0.80650631095E+02 -0.23019832070E+03  0.25672406062E+03  0.79699888650E+02 0.  0.
      -13    1    4    4    0    0 -0.13275418087E+02  0.11376115439E+02 -0.18888113794E+03  0.18968852626E+03  0.00000000000E+00 0.  1.
       14    1    4    4    0    0  0.55695828461E+01 -0.92026746533E+02 -0.37078734950E+03  0.38207748020E+03  0.00000000000E+00 0. -1.
        1    1    5    5  501    0 -0.17635283789E+02  0.49313519763E+02 -0.19894927700E+03  0.20572710392E+03  0.00000000000E+00 0. -1.
       -2    1    5    5    0  501  0.25341119030E+02  0.31337111331E+02 -0.31249043701E+02  0.50996956698E+02  0.00000000000E+00 0.  1.
</event>
<event>
 9   1  0.7570500E-01  0.2499979E+03  0.7546771E-02  0.1113306E+00
       21   -1    0    0  503  502  0.00000000000E+00  0.00000000000E+00  0.50645783842E+03  0.50645783842E+03  0.00000000000E+00 0.  1.
       21   -1    0    0  502  503 -0.00000000000E+00 -0.00000000000E+00 -0.30851001729E+02  0.30851001729E+02  0.00000000000E+00 0.  1.
       25    2    1    2    0    0  0.71054273576E-14  0.00000000000E+00  0.47560683669E+03  0.53730884015E+03  0.24999785318E+03 0.  0.
       24    2    3    3    0    0 -0.51397952462E+02  0.69100645076E+02  0.32537376532E+03  0.34647734500E+03  0.82230254566E+02 0.  0.
      -24    2    3    3    0    0  0.51397952462E+02 -0.69100645076E+02  0.15023307137E+03  0.19083149516E+03  0.80187499920E+02 0.  0.
      -13    1    4    4    0    0 -0.51929051913E+02  0.44238681747E+02  0.10837209749E+03  0.12805545248E+03  0.00000000000E+00 0.  1.
       14    1    4    4    0    0  0.53109945053E+00  0.24861963329E+02  0.21700166784E+03  0.21842189252E+03  0.00000000000E+00 0. -1.
        1    1    5    5  501    0  0.51352337320E+01  0.28893148885E+01 -0.85931699560E+01  0.10419277129E+02  0.00000000000E+00 0. -1.
       -2    1    5    5    0  501  0.46262718730E+02 -0.71989959964E+02  0.15882624133E+03  0.18041221803E+03  0.00000000000E+00 0.  1.
</event>
<event>
 9   1  0.7570500E-01  0.2500064E+03  0.7546771E-02  0.1113301E+00
       21   -1    0    0  503  502  0.00000000000E+00  0.00000000000E+00  0.27737036719E+03  0.27737036719E+03  0.00000000000E+00 0. -1.
       21   -1    0    0  502  503 -0.00000000000E+00 -0.00000000000E+00 -0.56335499702E+02  0.56335499702E+02  0.00000000000E+00 0. -1.
       25    2    1    2    0    0 -0.14210854715E-13 -0.35527136788E-14  0.22103486749E+03  0.33370586689E+03  0.25000638582E+03 0.  0.
       24    2    3    3    0    0 -0.81106807496E+02  0.27452967482E+02  0.16553214508E+03  0.20569207232E+03  0.87042276604E+02 0.  0.
      -24    2    3    3    0    0  0.81106807496E+02 -0.27452967482E+02  0.55502722411E+02  0.12801379457E+03  0.77298122612E+02 0.  0.
      -13    1    4    4    0    0 -0.32651997204E+02  0.56008017078E+02  0.75267548230E+02  0.99339089562E+02  0.00000000000E+00 0.  1.
       14    1    4    4    0    0 -0.48454810292E+02 -0.28555049596E+02  0.90264596845E+02  0.10635298276E+03  0.00000000000E+00 0. -1.
        3    1    5    5  501    0  0.51410342833E+01  0.20866701867E+02 -0.13525896161E+01  0.21533206426E+02  0.00000000000E+00 0. -1.
       -4    1    5    5    0  501  0.75965773213E+02 -0.48319669349E+02  0.56855312027E+02  0.10648058814E+03  0.00000000000E+00 0.  1.
</event>
<event>
 9   1  0.7570500E-01  0.2500025E+03  0.7546771E-02  0.1113303E+00
       21   -1    0    0  503  502  0.00000000000E+00  0.00000000000E+00  0.14083100683E+04  0.14083100683E+04  0.00000000000E+00 0.  1.
       21   -1    0    0  502  503 -0.00000000000E+00 -0.00000000000E+00 -0.11095083214E+02  0.11095083214E+02  0.00000000000E+00 0.  1.
       25    2    1    2    0    0  0.00000000000E+00  0.17763568394E-14  0.13972149851E+04  0.14194051515E+04  0.25000253918E+03 0.  0.
       24    2    3    3    0    0  0.91344111523E+02  0.24265070673E+01  0.55335106923E+03  0.56687692523E+03  0.82476711202E+02 0.  0.
      -24    2    3    3    0    0 -0.91344111523E+02 -0.24265070673E+01  0.84386391586E+03  0.85252822629E+03  0.79677057458E+02 0.  0.
      -13    1    4    4    0    0  0.83458111546E+02 -0.22640058608E+01  0.55115461282E+03  0.55744218475E+03  0.00000000000E+00 0.  1.
       14    1    4    4    0    0  0.78859999775E+01  0.46905129281E+01  0.21964564133E+01  0.94347404814E+01  0.00000000000E+00 0. -1.
        3    1    5    5  501    0 -0.68875560198E+01 -0.30410530432E+02  0.17262866986E+03  0.17542205233E+03  0.00000000000E+00 0. -1.
       -4    1    5    5    0  501 -0.84456555503E+02  0.27984023364E+02  0.67123524601E+03  0.67710617396E+03  0.00000000000E+00 0.  1.
</event>
<event>
 9   1  0.7570500E-01  0.2499666E+03  0.7546771E-02  0.1113326E+00
       21   -1    0    0  503  502  0.00000000000E+00  0.00000000000E+00  0.56597302452E+02  0.56597302452E+02  0.00000000000E+00 0. -1.
       21   -1    0    0  502  503 -0.00000000000E+00 -0.00000000000E+00 -0.27599939229E+03  0.27599939229E+03  0.00000000000E+00 0. -1.
       25    2    1    2    0    0  0.14210854715E-13 -0.14210854715E-13 -0.21940208984E+03  0.33259669475E+03  0.24996656642E+03 0.  0.
       24    2    3    3    0    0  0.58504500173E+02 -0.56952490100E+02 -0.14857123865E+03  0.18780573484E+03  0.80815953965E+02 0.  0.
      -24    2    3    3    0    0 -0.58504500173E+02  0.56952490100E+02 -0.70830851187E+02  0.14479095990E+03  0.96338205923E+02 0.  0.
      -13    1    4    4    0    0  0.55323454743E+02 -0.61323731025E+02 -0.67805093170E+02  0.10685885687E+03  0.00000000000E+00 0.  1.
       14    1    4    4    0    0  0.31810454298E+01  0.43712409246E+01 -0.80766145485E+02  0.80946877974E+02  0.00000000000E+00 0. -1.
        1    1    5    5  501    0  0.22992766510E+02  0.14174796042E+02 -0.38918931624E+02  0.47373783820E+02  0.00000000000E+00 0. -1.
       -2    1    5    5    0  501 -0.81497266683E+02  0.42777694058E+02 -0.31911919563E+02  0.97417176083E+02  0.00000000000E+00 0.  1.
</event>
<event>
 9   1  0.7570500E-01  0.2499968E+03  0.7546771E-02  0.1113307E+00
       21   -1    0    0  503  502  0.00000000000E+00  0.00000000000E+00  0.20283304128E+03  0.20283304128E+03  0.00000000000E+00 0.  1.
       21   -1    0    0  502  503 -0.00000000000E+00 -0.00000000000E+00 -0.77031851828E+02  0.77031851828E+02  0.00000000000E+00 0.  1.
       25    2    1    2    0    0 -0.35527136788E-14  0.00000000000E+00  0.12580118945E+03  0.27986489311E+03  0.24999683823E+03 0.  0.
       24    2    3    3    0    0  0.28666294330E+02 -0.87551725379E+02  0.89594840659E+02  0.15237554953E+03  0.81878028640E+02 0.  0.
      -24    2    3    3    0    0 -0.28666294330E+02  0.87551725379E+02  0.36206348792E+02  0.12748934358E+03  0.80346574199E+02 0.  0.
      -13    1    4    4    0    0 -0.11663210782E+01  0.15191891526E+02  0.51699181170E+01  0.16089808150E+02  0.00000000000E+00 0.  1.
       14    1    4    4    0    0  0.29832615408E+02 -0.10274361690E+03  0.84424922542E+02  0.13628574138E+03  0.00000000000E+00 0. -1.
        1    1    5    5  501    0  0.21916188773E+02  0.51520551595E+02  0.33673188470E+02  0.65334295655E+02  0.00000000000E+00 0. -1.
       -2    1    5    5    0  501 -0.50582483102E+02  0.36031173784E+02  0.25331603215E+01  0.62155047923E+02  0.00000000000E+00 0.  1.
</event>
<event>
 9   1  0.7570500E-01  0.2499992E+03  0.7546771E-02  0.1113305E+00
       21   -1    0    0  503  502  0.00000000000E+00  0.00000000000E+00  0.18426091372E+02  0.18426091372E+02  0.00000000000E+00 0. -1.
       21   -1    0    0  502  503 -0.00000000000E+00 -0.00000000000E+00 -0.84797706497E+03  0.84797706497E+03  0.00000000000E+00 0. -1.
       25    2    1    2    0    0  0.00000000000E+00  0.00000000000E+00 -0.82955097359E+03  0.86640315634E+03  0.24999922305E+03 0.  0.
       24    2    3    3    0    0  0.64739746972E+02  0.62212239554E+02 -0.28675872661E+03  0.31083371555E+03  0.79532596157E+02 0.  0.
      -24    2    3    3    0    0 -0.64739746972E+02 -0.62212239554E+02 -0.54279224699E+03  0.55556944079E+03  0.77281191480E+02 0.  0.
      -13    1    4    4    0    0 -0.43843756314E+01  0.10490178026E+02 -0.88869045491E-02  0.11369549845E+02  0.00000000000E+00 0.  1.
       14    1    4    4    0    0  0.69124122603E+02  0.51722061528E+02 -0.28674983970E+03  0.29946416571E+03  0.00000000000E+00 0. -1.
        3    1    5    5  501    0  0.45997248971E+00 -0.52342935302E+02 -0.22518326239E+03  0.23118714521E+03  0.00000000000E+00 0. -1.
       -4    1    5    5    0  501 -0.65199719461E+02 -0.98693042517E+01 -0.31760898460E+03  0.32438229557E+03  0.00000000000E+00 0.  1.
</event>
<event>
 9   1  0.7570500E-01  0.2500191E+03  0.7546771E-02  0.1113293E+00
       21   -1    0    0  503  502  0.00000000000E+00  0.00000000000E+00  0.16089518682E+03  0.16089518682E+03  0.00000000000E+00 0. -1.
       21   -1    0    0  502  503 -0.00000000000E+00 -0.00000000000E+00 -0.97127738798E+02  0.97127738798E+02  0.00000000000E+00 0. -1.
       25    2    1    2    0    0  0.00000000000E+00  0.00000000000E+00  0.63767448022E+02  0.25802292562E+03  0.25001908471E+03 0.  0.
       24    2    3    3    0    0  0.35647238272E+02 -0.80934608697E+02  0.12490592441E+01  0.12203686159E+03  0.84085069753E+02 0.  0.
      -24    2    3    3    0    0 -0.35647238272E+02  0.80934608697E+02  0.62518388778E+02  0.13598606403E+03  0.82234568123E+02 0.  0.
      -13    1    4    4    0    0  0.25509923521E+02 -0.35243119198E+02 -0.40410714454E+02  0.59378948218E+02  0.00000000000E+00 0.  1.
       14    1    4    4    0    0  0.10137314751E+02 -0.45691489500E+02  0.41659773698E+02  0.62657913368E+02  0.00000000000E+00 0. -1.
        1    1    5    5  501    0 -0.76181571654E+01  0.79286586725E+02  0.15385702123E+02  0.81124096191E+02  0.00000000000E+00 0. -1.
       -2    1    5    5    0  501 -0.28029081107E+02  0.16480219729E+01  0.47132686656E+02  0.54861967842E+02  0.00000000000E+00 0.  1.
</event>
<event>
 9   1  0.7570500E-01  0.2499983E+03  0.7546771E-02  0.1113306E+00
       21   -1    0    0  503  502  0.00000000000E+00  0.00000000000E+00  0.32502691745E+03  0.32502691745E+03  0.00000000000E+00 0.  1.
       21   -1    0    0  502  503 -0.00000000000E+00 -0.00000000000E+00 -0.48072294219E+02  0.48072294219E+02  0.00000000000E+00 0.  1.
       25    2    1    2    0    0  0.00000000000E+00  0.71054273576E-14  0.27695462323E+03  0.37309921167E+03  0.24999831683E+03 0.  0.
       24    2    3    3    0    0  0.66935295941E+02 -0.52412226838E+02  0.11456089791E+03  0.16729345416E+03  0.87381491798E+02 0.  0.
      -24    2    3    3    0    0 -0.66935295941E+02  0.52412226838E+02  0.16239372532E+03  0.20580575751E+03  0.93578375905E+02 0.  0.
      -13    1    4    4    0    0  0.57935471418E+02 -0.49345524296E+02  0.12913559658E+03  0.14989163393E+03  0.00000000000E+00 0.  1.
       14    1    4    4    0    0  0.89998245223E+01 -0.30667025413E+01 -0.14574698673E+02  0.17401820230E+02  0.00000000000E+00 0. -1.
        3    1    5    5  501    0  0.51715249393E+01  0.18993308299E+00  0.92427389433E+02  0.92572150575E+02  0.00000000000E+00 0. -1.
       -4    1    5    5    0  501 -0.72106820880E+02  0.52222293755E+02  0.69966335889E+02  0.11323360694E+03  0.00000000000E+00 0.  1.
</event>
<event>
 9   1  0.7570500E-01  0.2499984E+03  0.7546771E-02  0.1113306E+00
       21   -1    0    0  503  502  0.00000000000E+00  0.00000000000E+00  0.13736317152E+04  0.13736317152E+04  0.00000000000E+00 0.  1.
       21   -1    0    0  502  503 -0.00000000000E+00 -0.00000000000E+00 -0.11374812380E+02  0.11374812380E+02  0.00000000000E+00 0.  1.
       25    2    1    2    0    0  0.00000000000E+00  0.17763568394E-14  0.13622569029E+04  0.13850065276E+04  0.24999842431E+03 0.  0.
       24    2    3    3    0    0 -0.31765348750E+02 -0.12109155794E+02  0.18030576500E+03  0.19998124166E+03  0.79540298523E+02 0.  0.
      -24    2    3    3    0    0  0.31765348750E+02  0.12109155794E+02  0.11819511379E+04  0.11850252860E+04  0.78235331117E+02 0.  0.
      -13    1    4    4    0    0 -0.44597265862E+01 -0.32916260600E+02  0.15170391055E+03  0.15529792609E+03  0.00000000000E+00 0.  1.
       14    1    4    4    0    0 -0.27305622164E+02  0.20807104806E+02  0.28601854453E+02  0.44683315570E+02  0.00000000000E+00 0. -1.
        3    1    5    5  501    0 -0.20877816286E+02 -0.64413799464E+01  0.60150252868E+03  0.60189921632E+03  0.00000000000E+00 0. -1.
       -4    1    5    5    0  501  0.52643165037E+02  0.18550535741E+02  0.58044860918E+03  0.58312606965E+03  0.00000000000E+00 0.  1.
</event>
<event>
 9   1  0.7570500E-01  0.2499979E+03  0.7546771E-02  0.1113306E+00
       21   -1    0    0  503  502  0.00000000000E+00  0.00000000000E+00  0.23863508802E+02  0.23863508802E+02  0.00000000000E+00 0.  1.
       21   -1    0    0  502  503 -0.00000000000E+00 -0.00000000000E+00 -0.65475427202E+03  0.65475427202E+03  0.00000000000E+00 0.  1.
       25    2    1    2    0    0  0.14210854715E-13  0.00000000000E+00 -0.63089076322E+03  0.67861778082E+03  0.24999787466E+03 0.  0.
       24    2    3    3    0    0  0.71039330689E+02  0.37982464453E+02 -0.16971706060E+03  0.20357537226E+03  0.78420644112E+02 0.  0.
      -24    2    3    3    0    0 -0.71039330689E+02 -0.37982464453E+02 -0.46117370262E+03  0.47504240856E+03  0.80590643574E+02 0.  0.
      -13    1    4    4    0    0  0.32749152377E+02  0.51108330047E+02 -0.14224643096E+03  0.15465644346E+03  0.00000000000E+00 0.  1.
       14    1    4    4    0    0  0.38290178312E+02 -0.13125865594E+02 -0.27470629634E+02  0.48918928803E+02  0.00000000000E+00 0. -1.
        3    1    5    5  501    0 -0.29839523943E+02 -0.59423645434E+02 -0.30183018999E+03  0.30906800290E+03  0.00000000000E+00 0. -1.
       -4    1    5    5    0  501 -0.41199806745E+02  0.21441180981E+02 -0.15934351263E+03  0.16597440566E+03  0.00000000000E+00 0.  1.
</event>
<event>
 9   1  0.7570500E-01  0.2499998E+03  0.7546771E-02  0.1113305E+00
       21   -1    0    0  503  502  0.00000000000E+00  0.00000000000E+00  0.35103525010E+03  0.35103525010E+03  0.00000000000E+00 0. -1.
       21   -1    0    0  502  503 -0.00000000000E+00 -0.00000000000E+00 -0.44511130444E+02  0.44511130444E+02  0.00000000000E+00 0. -1.
       25    2    1    2    0    0  0.00000000000E+00  0.00000000000E+00  0.30652411965E+03  0.39554638054E+03  0.24999980646E+03 0.  0.
       24    2    3    3    0    0 -0.34082968439E+02 -0.70326186292E+02  0.23723542825E+03  0.26278599969E+03  0.81660345341E+02 0.  0.
      -24    2    3    3    0    0  0.34082968439E+02  0.70326186292E+02  0.69288691402E+02  0.13276038085E+03  0.81957151920E+02 0.  0.
      -13    1    4    4    0    0 -0.18899905801E+02 -0.79069570382E+02  0.12446855772E+03  0.14866615371E+03  0.00000000000E+00 0.  1.
       14    1    4    4    0    0 -0.15183062638E+02  0.87433840894E+01  0.11276687054E+03  0.11411984598E+03  0.00000000000E+00 0. -1.
        1    1    5    5  501    0  0.34810087825E+02  0.84848901245E+02  0.73601225355E+02  0.11759344638E+03  0.00000000000E+00 0. -1.
       -2    1    5    5    0  501 -0.72711938601E+00 -0.14522714953E+02 -0.43125339531E+01  0.15166934472E+02  0.00000000000E+00 0.  1.
</event>
<event>
 9   1  0.7570500E-01  0.2499996E+03  0.7546771E-02  0.1113305E+00
       21   -1    0    0  503  502  0.00000000000E+00  0.00000000000E+00  0.19508120653E+03  0.19508120653E+03  0.00000000000E+00 0.  1.
       21   -1    0    0  502  503 -0.00000000000E+00 -0.00000000000E+00 -0.80094620464E+02  0.80094620464E+02  0.00000000000E+00 0.  1.
       25    2    1    2    0    0  0.71054273576E-14  0.00000000000E+00  0.11498658606E+03  0.27517582699E+03  0.24999964157E+03 0.  0.
       24    2    3    3    0    0  0.20343919000E+02  0.92611733287E+02  0.75120232080E+02  0.14508876986E+03  0.80105515968E+02 0.  0.
      -24    2    3    3    0    0 -0.20343919000E+02 -0.92611733287E+02  0.39866353981E+02  0.13008705713E+03  0.79639864834E+02 0.  0.
      -13    1    4    4    0    0 -0.30057077130E+02  0.22392807868E+02  0.18882330047E+02  0.41969132917E+02  0.00000000000E+00 0.  1.
       14    1    4    4    0    0  0.50400996129E+02  0.70218925419E+02  0.56237902034E+02  0.10311963694E+03  0.00000000000E+00 0. -1.
        1    1    5    5  501    0 -0.30566797649E+02 -0.29887080206E+02  0.49942965040E+02  0.65740903848E+02  0.00000000000E+00 0. -1.
       -2    1    5    5    0  501  0.10222878649E+02 -0.62724653081E+02 -0.10076611059E+02  0.64346153284E+02  0.00000000000E+00 0.  1.
</event>
<event>
 9   1  0.7570500E-01  0.2500035E+03  0.7546771E-02  0.1113303E+00
       21   -1    0    0  503  502  0.00000000000E+00  0.00000000000E+00  0.37384922232E+03  0.37384922232E+03  0.00000000000E+00 0. -1.
       21   -1    0    0  502  503 -0.00000000000E+00 -0.00000000000E+00 -0.41796083597E+02  0.41796083597E+02  0.00000000000E+00 0. -1.
       25    2    1    2    0    0  0.00000000000E+00 -0.35527136788E-14  0.33205313873E+03  0.41564530592E+03  0.25000346677E+03 0.  0.
       24    2    3    3    0    0  0.91069827023E+02  0.16816891185E+02  0.20880314247E+03  0.24137615147E+03  0.78020336892E+02 0.  0.
      -24    2    3    3    0    0 -0.91069827023E+02 -0.16816891185E+02  0.12324999626E+03  0.17426915446E+03  0.81256725222E+02 0.  0.
      -13    1    4    4    0    0  0.10127842975E+03  0.50282556078E+01  0.15391832410E+03  0.18431889263E+03  0.00000000000E+00 0.  1.
       14    1    4    4    0    0 -0.10208602727E+02  0.11788635577E+02  0.54884818365E+02  0.57057258832E+02  0.00000000000E+00 0. -1.
        3    1    5    5  501    0 -0.15311290719E+02  0.23971512081E+02  0.63936955513E+01  0.29153873803E+02  0.00000000000E+00 0. -1.
       -4    1    5    5    0  501 -0.75758536304E+02 -0.40788403266E+02  0.11685630071E+03  0.14511528065E+03  0.00000000000E+00 0.  1.
</event>
<event>
 9   1  0.7570500E-01  0.2500022E+03  0.7546771E-02  0.1113303E+00
       21   -1    0    0  503  502  0.00000000000E+00  0.00000000000E+00  0.92307626908E+03  0.92307626908E+03  0.00000000000E+00 0. -1.
       21   -1    0    0  502  503 -0.00000000000E+00 -0.00000000000E+00 -0.16927389065E+02  0.16927389065E+02  0.00000000000E+00 0. -1.
       25    2    1    2    0    0  0.14210854715E-13  0.00000000000E+00  0.90614888002E+03  0.94000365815E+03  0.25000216914E+03 0.  0.
       24    2    3    3    0    0 -0.94325430920E+02  0.18128025214E+02  0.39684492061E+03  0.41556826027E+03  0.77363917401E+02 0.  0.
      -24    2    3    3    0    0  0.94325430920E+02 -0.18128025214E+02  0.50930395941E+03  0.52443539788E+03  0.80100257556E+02 0.  0.
      -13    1    4    4    0    0 -0.58978277632E+02  0.71438398858E+01  0.35399262498E+03  0.35894324095E+03  0.00000000000E+00 0.  1.
       14    1    4    4    0    0 -0.35347153288E+02  0.10984185328E+02  0.42852295627E+02  0.56625019324E+02  0.00000000000E+00 0. -1.
        3    1    5    5  501    0  0.79463826815E+02  0.88796288709E+01  0.45516939351E+03  0.46213907470E+03  0.00000000000E+00 0. -1.
       -4    1    5    5    0  501  0.14861604105E+02 -0.27007654085E+02  0.54134565902E+02  0.62296323175E+02  0.00000000000E+00 0.  1.
</event>
<event>
 9   1  0.7570500E-01  0.2499975E+03  0.7546771E-02  0.1113306E+00
       21   -1    0    0  503  502  0.00000000000E+00  0.00000000000E+00  0.59637993643E+02  0.59637993643E+02  0.00000000000E+00 0. -1.
       21   -1    0    0  502  503 -0.00000000000E+00 -0.00000000000E+00 -0.26199227496E+03  0.26199227496E+03  0.00000000000E+00 0. -1.
       25    2    1    2    0    0  0.00000000000E+00 -0.71054273576E-14 -0.20235428132E+03  0.32163026861E+03  0.24999754902E+03 0.  0.
       24    2    3    3    0    0  0.52728170965E+02 -0.43308942320E+02 -0.18902540054E+03  0.21660353338E+03  0.80811905846E+02 0.  0.
      -24    2    3    3    0    0 -0.52728170965E+02  0.43308942320E+02 -0.13328880781E+02  0.10502673522E+03  0.78721226812E+02 0.  0.
      -13    1    4    4    0    0  0.28938923567E+02 -0.57725366946E+02 -0.17263696392E+03  0.18431820474E+03  0.00000000000E+00 0.  1.
       14    1    4    4    0    0  0.23789247397E+02  0.14416424626E+02 -0.16388436615E+02  0.32285328640E+02  0.00000000000E+00 0. -1.
        3    1    5    5  501    0 -0.68125983058E+01  0.53343027670E+02  0.61984407279E+01  0.54132344898E+02  0.00000000000E+00 0. -1.
       -4    1    5    5    0  501 -0.45915572659E+02 -0.10034085350E+02 -0.19527321509E+02  0.50894390326E+02  0.00000000000E+00 0.  1.
</event>
<event>
 9   1  0.7570500E-01  0.2500044E+03  0.7546771E-02  0.1113302E+00
       21   -1    0    0  503  502  0.00000000000E+00  0.00000000000E+00  0.11848467270E+03  0.11848467270E+03  0.00000000000E+00 0. -1.
       21   -1    0    0  502  503 -0.00000000000E+00 -0.00000000000E+00 -0.13187823414E+03  0.13187823414E+03  0.00000000000E+00 0. -1.
       25    2    1    2    0    0  0.14210854715E-13  0.00000000000E+00 -0.13393561437E+02  0.25036290684E+03  0.25000439523E+03 0.  0.
       24    2    3    3    0    0 -0.66495784126E+02 -0.35227468035E+02  0.53245348129E+02  0.12194192742E+03  0.79825451804E+02 0.  0.
      -24    2    3    3    0    0  0.66495784126E+02  0.35227468035E+02 -0.66638909566E+02  0.12842097942E+03  0.79928342132E+02 0.  0.
      -13    1    4    4    0    0 -0.41757662061E+02  0.17578443744E+02  0.37616270082E+01  0.45462664495E+02  0.00000000000E+00 0.  1.
       14    1    4    4    0    0 -0.24738122065E+02 -0.52805911779E+02  0.49483721121E+02  0.76479262928E+02  0.00000000000E+00 0. -1.
        3    1    5    5  501    0  0.33482333019E+02  0.63436595482E+01 -0.76246842460E+02  0.83515804648E+02  0.00000000000E+00 0. -1.
       -4    1    5    5    0  501  0.33013451106E+02  0.28883808487E+02  0.96079328938E+01  0.44905174770E+02  0.00000000000E+00 0.  1.
</event>
<event>
 9   1  0.7570500E-01  0.2500262E+03  0.7546771E-02  0.1113288E+00
       21   -1    0    0  503  502  0.00000000000E+00  0.00000000000E+00  0.37606155462E+03  0.37606155462E+03  0.00000000000E+00 0.  1.
       21   -1    0    0  502  503 -0.00000000000E+00 -0.00000000000E+00 -0.41557749947E+02  0.41557749947E+02  0.00000000000E+00 0.  1.
       25    2    1    2    0    0  0.00000000000E+00 -0.71054273576E-14  0.33450380468E+03  0.41761930457E+03  0.25002617504E+03 0.  0.
       24    2    3    3    0    0  0.87346163176E+02  0.33137252371E+02  0.13185135066E+03  0.18087773980E+03  0.81268372481E+02 0.  0.
      -24    2    3    3    0    0 -0.87346163176E+02 -0.33137252371E+02  0.20265245401E+03  0.23674156478E+03  0.79064035177E+02 0.  0.
      -13    1    4    4    0    0  0.86085917099E+02 -0.43954028702E+01  0.89004013613E+02  0.12390245812E+03  0.00000000000E+00 0.  1.
       14    1    4    4    0    0  0.12602460770E+01  0.37532655242E+02  0.42847337050E+02  0.56975281675E+02  0.00000000000E+00 0. -1.
        3    1    5    5  501    0 -0.25983411305E+02 -0.46974392438E+02  0.12996375187E+03  0.14061403915E+03  0.00000000000E+00 0. -1.
       -4    1    5    5    0  501 -0.61362751871E+02  0.13837140067E+02  0.72688702148E+02  0.96127525623E+02  0.00000000000E+00 0.  1.
</event>
<event>
 9   1  0.7570500E-01  0.2499902E+03  0.7546771E-02  0.1113311E+00
       21   -1    0    0  503  502  0.00000000000E+00  0.00000000000E+00  0.12681094057E+04  0.12681094057E+04  0.00000000000E+00 0. -1.
       21   -1    0    0  502  503 -0.00000000000E+00 -0.00000000000E+00 -0.12320521213E+02  0.12320521213E+02  0.00000000000E+00 0. -1.
       25    2    1    2    0    0 -0.14210854715E-13  0.71054273576E-14  0.12557888845E+04  0.12804299269E+04  0.24999015047E+03 0.  0.
       24    2    3    3    0    0  0.60719656958E+02 -0.62822850929E+02  0.44063620494E+03  0.45612674551E+03  0.79105976589E+02 0.  0.
      -24    2    3    3    0    0 -0.60719656958E+02  0.62822850929E+02  0.81515267952E+03  0.82430318137E+03  0.85838549295E+02 0.  0.
      -13    1    4    4    0    0 -0.35522389872E+01 -0.22767640312E+02  0.24907897252E+03  0.25014259613E+03  0.00000000000E+00 0.  1.
       14    1    4    4    0    0  0.64271895946E+02 -0.40055210617E+02  0.19155723241E+03  0.20598414938E+03  0.00000000000E+00 0. -1.
        1    1    5    5  501    0 -0.76369044155E+02  0.67520510579E+02  0.75922021265E+03  0.76603301596E+03  0.00000000000E+00 0. -1.
       -2    1    5    5    0  501  0.15649387196E+02 -0.46976596510E+01  0.55932466876E+02  0.58270165408E+02  0.00000000000E+00 0.  1.
</event>
<event>
 9   1  0.7570500E-01  0.2500003E+03  0.7546771E-02  0.1113305E+00
       21   -1    0    0  503  502  0.00000000000E+00  0.00000000000E+00  0.17895140242E+03  0.17895140242E+03  0.00000000000E+00 0.  1.
       21   -1    0    0  502  503 -0.00000000000E+00 -0.00000000000E+00 -0.87314387917E+02  0.87314387917E+02  0.00000000000E+00 0.  1.
       25    2    1    2    0    0  0.00000000000E+00  0.00000000000E+00  0.91637014504E+02  0.26626579034E+03  0.25000025735E+03 0.  0.
       24    2    3    3    0    0  0.41861485709E+02  0.66764678285E+02 -0.11594882498E+02  0.11408543269E+03  0.81677037166E+02 0.  0.
      -24    2    3    3    0    0 -0.41861485709E+02 -0.66764678285E+02  0.10323189700E+03  0.15218035764E+03  0.79322950284E+02 0.  0.
      -13    1    4    4    0    0 -0.11458430902E+02  0.52071611925E+02 -0.22227876301E+02  0.57765274102E+02  0.00000000000E+00 0.  1.
       14    1    4    4    0    0  0.53319916612E+02  0.14693066361E+02  0.10632993803E+02  0.56320158591E+02  0.00000000000E+00 0. -1.
        1    1    5    5  501    0 -0.57348912557E+02 -0.21125777488E+02  0.41550663649E+02  0.73903003293E+02  0.00000000000E+00 0. -1.
       -2    1    5    5    0  501  0.15487426848E+02 -0.45638900797E+02  0.61681233353E+02  0.78277354351E+02  0.00000000000E+00 0.  1.
</event>
<event>
 9   1  0.7570500E-01  0.2500056E+03  0.7546771E-02  0.1113301E+00
       21   -1    0    0  503  502  0.00000000000E+00  0.00000000000E+00  0.26831174206E+02  0.26831174206E+02  0.00000000000E+00 0.  1.
       21   -1    0    0  502  503 -0.00000000000E+00 -0.00000000000E+00 -0.58237089399E+03  0.58237089399E+03  0.00000000000E+00 0.  1.
       25    2    1    2    0    0  0.71054273576E-14  0.00000000000E+00 -0.55553971978E+03  0.60920206820E+03  0.25000555921E+03 0.  0.
       24    2    3    3    0    0  0.36444758029E+02  0.82542176556E+02 -0.35028141209E+03  0.37055936620E+03  0.80472013312E+02 0.  0.
      -24    2    3    3    0    0 -0.36444758029E+02 -0.82542176556E+02 -0.20525830770E+03  0.23864270200E+03  0.81718633367E+02 0.  0.
      -13    1    4    4    0    0 -0.52128196215E+01  0.43672821580E+02 -0.26077166696E+03  0.26445481868E+03  0.00000000000E+00 0.  1.
       14    1    4    4    0    0  0.41657577650E+02  0.38869354976E+02 -0.89509745124E+02  0.10610454752E+03  0.00000000000E+00 0. -1.
        1    1    5    5  501    0 -0.55669252872E+01 -0.56508668608E+02 -0.18488315710E+03  0.19340631341E+03  0.00000000000E+00 0. -1.
       -2    1    5    5    0  501 -0.30877832742E+02 -0.26033507948E+02 -0.20375150591E+02  0.45236388588E+02  0.00000000000E+00 0.  1.
</event>
<event>
 9   1  0.7570500E-01  0.2500042E+03  0.7546771E-02  0.1113302E+00
       21   -1    0    0  503  502  0.00000000000E+00  0.00000000000E+00  0.71272762530E+02  0.71272762530E+02  0.00000000000E+00 0.  1.
       21   -1    0    0  502  503 -0.00000000000E+00 -0.00000000000E+00 -0.21923552504E+03  0.21923552504E+03  0.00000000000E+00 0.  1.
       25    2    1    2    0    0  0.00000000000E+00  0.10658141036E-13 -0.14796276251E+03  0.29050828757E+03  0.25000417208E+03 0.  0.
       24    2    3    3    0    0 -0.14484414635E+02  0.21294898750E+02  0.34837174382E+02  0.89631039240E+02  0.78465428669E+02 0.  0.
      -24    2    3    3    0    0  0.14484414635E+02 -0.21294898750E+02 -0.18279993689E+03  0.20087724833E+03  0.79199627453E+02 0.  0.
      -13    1    4    4    0    0 -0.30254771622E+02 -0.18070591615E+02  0.31201846299E+02  0.47068595684E+02  0.00000000000E+00 0.  1.
       14    1    4    4    0    0  0.15770356987E+02  0.39365490365E+02  0.36353280830E+01  0.42562443556E+02  0.00000000000E+00 0. -1.
        1    1    5    5  501    0 -0.20108557523E+02 -0.35607122424E+02 -0.60878648494E+02  0.73337787637E+02  0.00000000000E+00 0. -1.
       -2    1    5    5    0  501  0.34592972158E+02  0.14312223674E+02 -0.12192128840E+03  0.12753946070E+03  0.00000000000E+00 0.  1.
</event>
<event>
 9   1  0.7570500E-01  0.2500111E+03  0.7546771E-02  0.1113298E+00
       21   -1    0    0  503  502  0.00000000000E+00  0.00000000000E+00  0.50699664923E+03  0.50699664923E+03  0.00000000000E+00 0.  1.
       21   -1    0    0  502  503 -0.00000000000E+00 -0.00000000000E+00 -0.30821478673E+02  0.30821478673E+02  0.00000000000E+00 0.  1.
       25    2    1    2    0    0  0.00000000000E+00  0.00000000000E+00  0.47617517055E+03  0.53781812790E+03  0.25001109105E+03 0.  0.
       24    2    3    3    0    0 -0.65336431498E+02 -0.56842346543E+02  0.32718843700E+03  0.34787301818E+03  0.80395658001E+02 0.  0.
      -24    2    3    3    0    0  0.65336431498E+02  0.56842346543E+02  0.14898673355E+03  0.18994510972E+03  0.79888649336E+02 0.  0.
      -13    1    4    4    0    0 -0.19455386549E+02 -0.39676632599E+01  0.21306979397E+03  0.21399297072E+03  0.00000000000E+00 0.  1.
       14    1    4    4    0    0 -0.45881044949E+02 -0.52874683283E+02  0.11411864303E+03  0.13388004745E+03  0.00000000000E+00 0. -1.
        1    1    5    5  501    0  0.45930807728E+02  0.64625322932E+02  0.14928722116E+03  0.16903474750E+03  0.00000000000E+00 0. -1.
       -2    1    5    5    0  501  0.19405623770E+02 -0.77829763896E+01 -0.30048760722E+00  0.20910362220E+02  0.00000000000E+00 0.  1.
</event>
<event>
 9   1  0.7570500E-01  0.2499971E+03  0.7546771E-02  0.1113307E+00
       21   -1    0    0  503  502  0.00000000000E+00  0.00000000000E+00  0.32745388565E+02  0.32745388565E+02  0.00000000000E+00 0.  1.
       21   -1    0    0  502  503 -0.00000000000E+00 -0.00000000000E+00 -0.47715544357E+03  0.47715544357E+03  0.00000000000E+00 0.  1.
       25    2    1    2    0    0  0.00000000000E+00  0.00000000000E+00 -0.44441005501E+03  0.50990083214E+03  0.24999712323E+03 0.  0.
       24    2    3    3    0    0  0.33965607027E+02  0.43752056379E+02 -0.59969282823E+02  0.11394464324E+03  0.79493156580E+02 0.  0.
      -24    2    3    3    0    0 -0.33965607027E+02 -0.43752056379E+02 -0.38444077218E+03  0.39595618890E+03  0.76933031329E+02 0.  0.
      -13    1    4    4    0    0  0.57904368846E+01  0.62432518649E+02 -0.43710366130E+02  0.76432615102E+02  0.00000000000E+00 0.  1.
       14    1    4    4    0    0  0.28175170142E+02 -0.18680462269E+02 -0.16258916694E+02  0.37512028140E+02  0.00000000000E+00 0. -1.
        1    1    5    5  501    0 -0.49152350177E+01  0.43876108961E+01 -0.25185446539E+03  0.25194063270E+03  0.00000000000E+00 0. -1.
       -2    1    5    5    0  501 -0.29050372009E+02 -0.48139667275E+02 -0.13258630679E+03  0.14401555620E+03  0.00000000000E+00 0.  1.
</event>
<event>
 9   1  0.7570500E-01  0.2499988E+03  0.7546771E-02  0.1113306E+00
       21   -1    0    0  503  502  0.00000000000E+00  0.00000000000E+00  0.14269632595E+03  0.14269632595E+03  0.00000000000E+00 0.  1.
       21   -1    0    0  502  503 -0.00000000000E+00 -0.00000000000E+00 -0.10949725009E+03  0.10949725009E+03  0.00000000000E+00 0.  1.
       25    2    1    2    0    0 -0.35527136788E-14 -0.14210854715E-13  0.33199075860E+02  0.25219357603E+03  0.24999884230E+03 0.  0.
       24    2    3    3    0    0 -0.25459548136E+02  0.88693389027E+02  0.39503244198E+02  0.12972298836E+03  0.82175674988E+02 0.  0.
      -24    2    3    3    0    0  0.25459548136E+02 -0.88693389027E+02 -0.63041683383E+01  0.12247058767E+03  0.80278243980E+02 0.  0.
      -13    1    4    4    0    0  0.21638776319E+02  0.67432888038E+02  0.31190906462E+02  0.77384130645E+02  0.00000000000E+00 0.  1.
       14    1    4    4    0    0 -0.47098324455E+02  0.21260500988E+02  0.83123377363E+01  0.52338857719E+02  0.00000000000E+00 0. -1.
        1    1    5    5  501    0  0.18344312188E+02 -0.49024751108E+02  0.36396475152E+02  0.63754556028E+02  0.00000000000E+00 0. -1.
       -2    1    5    5    0  501  0.71152359476E+01 -0.39668637919E+02 -0.42700643490E+02  0.58716031638E+02  0.00000000000E+00 0.  1.
</event>
<event>
 9   1  0.7570500E-01  0.2500226E+03  0.7546771E-02  0.1113291E+00
       21   -1    0    0  503  502  0.00000000000E+00  0.00000000000E+00  0.49874073654E+02  0.49874073654E+02  0.00000000000E+00 0. -1.
       21   -1    0    0  502  503 -0.00000000000E+00 -0.00000000000E+00 -0.31334574457E+03  0.31334574457E+03  0.00000000000E+00 0. -1.
       25    2    1    2    0    0  0.00000000000E+00  0.00000000000E+00 -0.26347167091E+03  0.36321981822E+03  0.25002262893E+03 0.  0.
       24    2    3    3    0    0  0.88470291591E+02  0.28707461522E+02 -0.15635318430E+03  0.19864720346E+03  0.79770184643E+02 0.  0.
      -24    2    3    3    0    0 -0.88470291591E+02 -0.28707461522E+02 -0.10711848661E+03  0.16457261476E+03  0.83418610128E+02 0.  0.
      -13    1    4    4    0    0  0.41497868238E+02  0.32648140400E+02 -0.13853194883E+03  0.14825341476E+03  0.00000000000E+00 0.  1.
       14    1    4    4    0    0  0.46972423354E+02 -0.39406788779E+01 -0.17821235470E+02  0.50393788699E+02  0.00000000000E+00 0. -1.
        1    1    5    5  501    0 -0.19169547246E+02 -0.24539134302E+02  0.61307012269E+01  0.31736826424E+02  0.00000000000E+00 0. -1.
       -2    1    5    5    0  501 -0.69300744346E+02 -0.41683272198E+01 -0.11324918784E+03  0.13283578834E+03  0.00000000000E+00 0.  1.
</event>
<event>
 9   1  0.7570500E-01  0.2499914E+03  0.7546771E-02  0.1113310E+00
       21   -1    0    0  503  502  0.00000000000E+00  0.00000000000E+00  0.40539329533E+03  0.40539329533E+03  0.00000000000E+00 0. -1.
       21   -1    0    0  502  503 -0.00000000000E+00 -0.00000000000E+00 -0.38540168940E+02  0.38540168940E+02  0.00000000000E+00 0. -1.
       25    2    1    2    0    0  0.00000000000E+00  0.00000000000E+00  0.36685312639E+03  0.44393346427E+03  0.24999140857E+03 0.  0.
       24    2    3    3    0    0 -0.21616006554E+01 -0.19511762893E+02  0.35006532059E+03  0.35935316012E+03  0.78762831356E+02 0.  0.
      -24    2    3    3    0    0  0.21616006554E+01  0.19511762893E+02  0.16787805801E+02  0.84580304147E+02  0.80539530774E+02 0.  0.
      -13    1    4    4    0    0 -0.22951510983E+02  0.91971268894E+01  0.27743825100E+03  0.27853786479E+03  0.00000000000E+00 0.  1.
       14    1    4    4    0    0  0.20789910328E+02 -0.28708889783E+02  0.72627069583E+02  0.80815295336E+02  0.00000000000E+00 0. -1.
        3    1    5    5  501    0 -0.33615362863E+02  0.27009300245E+02  0.20671288135E+02  0.47820467096E+02  0.00000000000E+00 0. -1.
       -4    1    5    5    0  501  0.35776963518E+02 -0.74975373519E+01 -0.38834823341E+01  0.36759837050E+02  0.00000000000E+00 0.  1.
</event>
<event>
 9   1  0.7570500E-01  0.2499988E+03  0.7546771E-02  0.1113306E+00
       21   -1    0    0  503  502  0.00000000000E+00  0.00000000000E+00  0.72593828526E+02  0.72593828526E+02  0.00000000000E+00 0.  1.
       21   -1    0    0  502  503 -0.00000000000E+00 -0.00000000000E+00 -0.21523667310E+03  0.21523667310E+03  0.00000000000E+00 0.  1.
       25    2    1    2    0    0 -0.17763568394E-14 -0.14210854715E-13 -0.14264284458E+03  0.28783050163E+03  0.24999883311E+03 0.  0.
       24    2    3    3    0    0 -0.13008445296E+02 -0.69141631167E+02 -0.15020093281E+02  0.10635893560E+03  0.78337954855E+02 0.  0.
      -24    2    3    3    0    0  0.13008445296E+02  0.69141631167E+02 -0.12762275130E+03  0.18147156603E+03  0.10814147131E+03 0.  0.
      -13    1    4    4    0    0  0.49295016729E+01 -0.49743723108E+02 -0.44391311447E+02  0.66853021677E+02  0.00000000000E+00 0.  1.
       14    1    4    4    0    0 -0.17937946969E+02 -0.19397908059E+02  0.29371218166E+02  0.39505913925E+02  0.00000000000E+00 0. -1.
        3    1    5    5  501    0  0.23607567641E+02 -0.11848136764E+02 -0.85665224552E+02  0.89645001490E+02  0.00000000000E+00 0. -1.
       -4    1    5    5    0  501 -0.10599122345E+02  0.80989767931E+02 -0.41957526744E+02  0.91826564536E+02  0.00000000000E+00 0.  1.
</event>
<event>
 9   1  0.7570500E-01  0.2499842E+03  0.7546771E-02  0.1113315E+00
       21   -1    0    0  503  502  0.00000000000E+00  0.00000000000E+00  0.36693068199E+03  0.36693068199E+03  0.00000000000E+00 0. -1.
       21   -1    0    0  502  503 -0.00000000000E+00 -0.00000000000E+00 -0.42577599658E+02  0.42577599658E+02  0.00000000000E+00 0. -1.
       25    2    1    2    0    0  0.00000000000E+00  0.00000000000E+00  0.32435308234E+03  0.40950828165E+03  0.24998422094E+03 0.  0.
       24    2    3    3    0    0 -0.51814814397E+02 -0.70257706132E+02  0.95738277302E+02  0.15360362264E+03  0.82506574796E+02 0.  0.
      -24    2    3    3    0    0  0.51814814397E+02  0.70257706132E+02  0.22861480503E+03  0.25590465901E+03  0.74843471075E+02 0.  0.
      -13    1    4    4    0    0 -0.50308174271E+02 -0.11847112359E+01  0.48647294465E+02  0.69991965238E+02  0.00000000000E+00 0.  1.
       14    1    4    4    0    0 -0.15066401264E+01 -0.69072994897E+02  0.47090982837E+02  0.83611657399E+02  0.00000000000E+00 0. -1.
        3    1    5    5  501    0 -0.30385734877E+01  0.50624397796E+02  0.14794299267E+03  0.15639434664E+03  0.00000000000E+00 0. -1.
       -4    1    5    5    0  501  0.54853387885E+02  0.19633308337E+02  0.80671812366E+02  0.99510312375E+02  0.00000000000E+00 0.  1.
</event>
<event>
 9   1  0.7570500E-01  0.2499959E+03  0.7546771E-02  0.1113307E+00
       21   -1    0    0  503  502  0.00000000000E+00  0.00000000000E+00  0.71101460279E+02  0.71101460279E+02  0.00000000000E+00 0.  1.
       21   -1    0    0  502  503 -0.00000000000E+00 -0.00000000000E+00 -0.21974913637E+03  0.21974913637E+03  0.00000000000E+00 0.  1.
       25    2    1    2    0    0 -0.44408920985E-14  0.00000000000E+00 -0.14864767609E+03  0.29085059665E+03  0.24999587589E+03 0.  0.
       24    2    3    3    0    0 -0.29735959848E+01  0.88482747599E+02 -0.38727874401E+02  0.12583867647E+03  0.80606980745E+02 0.  0.
      -24    2    3    3    0    0  0.29735959848E+01 -0.88482747599E+02 -0.10991980169E+03  0.16501192018E+03  0.85489953219E+02 0.  0.
      -13    1    4    4    0    0  0.44071684009E+01  0.33820962486E+02  0.24454103407E+02  0.41967651950E+02  0.00000000000E+00 0.  1.
       14    1    4    4    0    0 -0.73807643857E+01  0.54661785113E+02 -0.63181977808E+02  0.83871024522E+02  0.00000000000E+00 0. -1.
        1    1    5    5  501    0 -0.31442183258E+02 -0.25724491879E+02 -0.95445398219E+01  0.41730787327E+02  0.00000000000E+00 0. -1.
       -2    1    5    5    0  501  0.34415779243E+02 -0.62758255720E+02 -0.10037526187E+03  0.12328113285E+03  0.00000000000E+00 0.  1.
</event>
<event>
 9   1  0.7570500E-01  0.2500086E+03  0.7546771E-02  0.1113299E+00
       21   -1    0    0  503  502  0.00000000000E+00  0.00000000000E+00  0.22618686637E+02  0.22618686637E+02  0.00000000000E+00 0.  1.
       21   -1    0    0  502  503 -0.00000000000E+00 -0.00000000000E+00 -0.69084829869E+03  0.69084829869E+03  0.00000000000E+00 0.  1.
       25    2    1    2    0    0  0.00000000000E+00 -0.71054273576E-14 -0.66822961205E+03  0.71346698533E+03  0.25000864931E+03 0.  0.
       24    2    3    3    0    0 -0.69704409129E+02  0.41085279106E+02 -0.48450935254E+03  0.49763899212E+03  0.79677782152E+02 0.  0.
      -24    2    3    3    0    0  0.69704409129E+02 -0.41085279106E+02 -0.18372025951E+03  0.21582799321E+03  0.79258337638E+02 0.  0.
      -13    1    4    4    0    0 -0.50467919506E+02  0.64920639434E+02 -0.37619865675E+03  0.38508067943E+03  0.00000000000E+00 0.  1.
       14    1    4    4    0    0 -0.19236489623E+02 -0.23835360328E+02 -0.10831069579E+03  0.11255831270E+03  0.00000000000E+00 0. -1.
        1    1    5    5  501    0  0.19166894111E+02  0.22236609620E+02 -0.29477067671E+02  0.41602093165E+02  0.00000000000E+00 0. -1.
       -2    1    5    5    0  501  0.50537515018E+02 -0.63321888726E+02 -0.15424319184E+03  0.17422590004E+03  0.00000000000E+00 0.  1.
</event>
<event>
 9   1  0.7570500E-01  0.2499955E+03  0.7546771E-02  0.1113308E+00
       21   -1    0    0  503  502  0.00000000000E+00  0.00000000000E+00  0.10003517794E+02  0.10003517794E+02  0.00000000000E+00 0.  1.
       21   -1    0    0  502  503 -0.00000000000E+00 -0.00000000000E+00 -0.15618943464E+04  0.15618943464E+04  0.00000000000E+00 0.  1.
       25    2    1    2    0    0  0.00000000000E+00  0.00000000000E+00 -0.15518908286E+04  0.15718978642E+04  0.24999550305E+03 0.  0.
       24    2    3    3    0    0 -0.72737164486E+02 -0.53377883888E+02 -0.57071215555E+03  0.58326562670E+03  0.79665131698E+02 0.  0.
      -24    2    3    3    0    0  0.72737164486E+02  0.53377883888E+02 -0.98117867301E+03  0.98863223745E+03  0.80883984634E+02 0.  0.
      -13    1    4    4    0    0 -0.25954457081E+02 -0.65798348028E+02 -0.29699326713E+03  0.30529994623E+03  0.00000000000E+00 0.  1.
       14    1    4    4    0    0 -0.46782707405E+02  0.12420464140E+02 -0.27371888843E+03  0.27796568048E+03  0.00000000000E+00 0. -1.
        3    1    5    5  501    0  0.52166830855E+02  0.71845231000E+02 -0.84664775587E+03  0.85129051327E+03  0.00000000000E+00 0. -1.
       -4    1    5    5    0  501  0.20570333631E+02 -0.18467347112E+02 -0.13453091714E+03  0.13734172418E+03  0.00000000000E+00 0.  1.
</event>
<event>
 9   1  0.7570500E-01  0.2499986E+03  0.7546771E-02  0.1113306E+00
       21   -1    0    0  503  502  0.00000000000E+00  0.00000000000E+00  0.29413646805E+03  0.29413646805E+03  0.00000000000E+00 0.  1.
       21   -1    0    0  502  503 -0.00000000000E+00 -0.00000000000E+00 -0.53121024153E+02  0.53121024153E+02  0.00000000000E+00 0.  1.
       25    2    1    2    0    0  0.71054273576E-14  0.14210854715E-13  0.24101544390E+03  0.34725749221E+03  0.24999864339E+03 0.  0.
       24    2    3    3    0    0 -0.27979026918E+02 -0.78100347033E+02  0.54423236115E+02  0.12785065815E+03  0.80631333902E+02 0.  0.
      -24    2    3    3    0    0  0.27979026918E+02  0.78100347033E+02  0.18659220779E+03  0.21940683406E+03  0.80250960550E+02 0.  0.
      -13    1    4    4    0    0 -0.14250685181E+02 -0.16239141401E+02 -0.20459438517E+02  0.29755341806E+02  0.00000000000E+00 0.  1.
       14    1    4    4    0    0 -0.13728341736E+02 -0.61861205632E+02  0.74882674631E+02  0.98095316346E+02  0.00000000000E+00 0. -1.
        3    1    5    5  501    0  0.52432119626E+01  0.73335439865E+02  0.73526387139E+02  0.10397936150E+03  0.00000000000E+00 0. -1.
       -4    1    5    5    0  501  0.22735814955E+02  0.47649071681E+01  0.11306582065E+03  0.11542747256E+03  0.00000000000E+00 0.  1.
</event>
<event>
 8   1  0.7570500E-01  0.2502485E+03  0.7546771E-02  0.1113148E+00
       21   -1    0    0  503  502  0.00000000000E+00  0.00000000000E+00  0.18233520893E+03  0.18233520893E+03  0.00000000000E+00 0.  1.
       21   -1    0    0  502  503 -0.00000000000E+00 -0.00000000000E+00 -0.85864257472E+02  0.85864257472E+02  0.00000000000E+00 0.  1.
       24    2    1    2    0    0  0.42266787668E+02 -0.80969534796E+02  0.79617458831E+02  0.14540559217E+03  0.80382209336E+02 0.  0.
      -24    2    1    2    0    0 -0.42266787668E+02  0.80969534796E+02  0.16853492626E+02  0.12279387423E+03  0.80322776538E+02 0.  0.
      -13    1    3    3    0    0  0.44158573850E+02 -0.36342800367E+01  0.28374377191E+02  0.52614569434E+02  0.00000000000E+00 0.  1.
       14    1    3    3    0    0 -0.18917861817E+01 -0.77335254760E+02  0.51243081640E+02  0.92791022732E+02  0.00000000000E+00 0. -1.
        1    1    4    4  501    0  0.41025877938E+01  0.58035044525E+02 -0.17428797401E+02  0.60734344472E+02  0.00000000000E+00 0. -1.
       -2    1    4    4    0  501 -0.46369375462E+02  0.22934490271E+02  0.34282290027E+02  0.62059529761E+02  0.00000000000E+00 0.  1.
</event>
<event>
 9   1  0.7570500E-01  0.2500075E+03  0.7546771E-02  0.1113300E+00
       21   -1    0    0  503  502  0.00000000000E+00  0.00000000000E+00  0.62924586113E+02  0.62924586113E+02  0.00000000000E+00 0.  1.
       21   -1    0    0  502  503 -0.00000000000E+00 -0.00000000000E+00 -0.24832802138E+03  0.24832802138E+03  0.00000000000E+00 0.  1.
       25    2    1    2    0    0 -0.71054273576E-14  0.00000000000E+00 -0.18540343527E+03  0.31125260750E+03  0.25000750361E+03 0.  0.
       24    2    3    3    0    0 -0.42610911945E+02  0.54326626343E+02 -0.92652423381E+01  0.10533574546E+03  0.79010774014E+02 0.  0.
      -24    2    3    3    0    0  0.42610911945E+02 -0.54326626343E+02 -0.17613819293E+03  0.20591686203E+03  0.81302022812E+02 0.  0.
      -13    1    4    4    0    0 -0.22198334474E+02  0.71209460768E+01 -0.39361294621E+02  0.45746971929E+02  0.00000000000E+00 0.  1.
       14    1    4    4    0    0 -0.20412577471E+02  0.47205680266E+02  0.30096052283E+02  0.59588773535E+02  0.00000000000E+00 0. -1.
        3    1    5    5  501    0  0.56016128761E+01 -0.59390129992E+02 -0.62954737922E+02  0.86728684033E+02  0.00000000000E+00 0. -1.
       -4    1    5    5    0  501  0.37009299069E+02  0.50635036488E+01 -0.11318345501E+03  0.11918817800E+03  0.00000000000E+00 0.  1.
</event>
<event>
 9   1  0.7570500E-01  0.2500053E+03  0.7546771E-02  0.1113301E+00
       21   -1    0    0  503  502  0.00000000000E+00  0.00000000000E+00  0.15723428438E+03  0.15723428438E+03  0.00000000000E+00 0. -1.
       21   -1    0    0  502  503 -0.00000000000E+00 -0.00000000000E+00 -0.99378236275E+02  0.99378236275E+02  0.00000000000E+00 0. -1.
       25    2    1    2    0    0  0.00000000000E+00  0.35527136788E-14  0.57856048109E+02  0.25661252066E+03  0.25000532686E+03 0.  0.
       24    2    3    3    0    0 -0.75507639484E+02  0.18639045257E+02  0.86352683897E+02  0.14134331382E+03  0.80450784432E+02 0.  0.
      -24    2    3    3    0    0  0.75507639484E+02 -0.18639045257E+02 -0.28496635788E+02  0.11526920684E+03  0.80163047389E+02 0.  0.
      -13    1    4    4    0    0 -0.55999660450E+01 -0.27515656462E+02  0.23504703976E+02  0.36618875997E+02  0.00000000000E+00 0.  1.
       14    1    4    4    0    0 -0.69907673439E+02  0.46154701719E+02  0.62847979920E+02  0.10472443782E+03  0.00000000000E+00 0. -1.
        1    1    5    5  501    0 -0.13191977729E+00 -0.34045269744E+02 -0.39827373225E+01  0.34277689411E+02  0.00000000000E+00 0. -1.
       -2    1    5    5    0  501  0.75639559261E+02  0.15406224487E+02 -0.24513898466E+02  0.80991517433E+02  0.00000000000E+00 0.  1.
</event>
<event>
 9   1  0.7570500E-01  0.2499990E+03  0.7546771E-02  0.1113305E+00
       21   -1    0    0  503  502  0.00000000000E+00  0.00000000000E+00  0.58008030527E+02  0.58008030527E+02  0.00000000000E+00 0.  1.
       21   -1    0    0  502  503 -0.00000000000E+00 -0.00000000000E+00 -0.26935716287E+03  0.26935716287E+03  0.00000000000E+00 0.  1.
       25    2    1    2    0    0  0.00000000000E+00  0.00000000000E+00 -0.21134913234E+03  0.32736519339E+03  0.24999902821E+03 0.  0.
       24    2    3    3    0    0  0.46992639562E+02 -0.11782264797E+02  0.43477182410E+01  0.92366657079E+02  0.78521122950E+02 0.  0.
      -24    2    3    3    0    0 -0.46992639562E+02  0.11782264797E+02 -0.21569685058E+03  0.23499853631E+03  0.79699753967E+02 0.  0.
      -13    1    4    4    0    0  0.48876037562E+02  0.12436892262E+02 -0.23306232400E+02  0.55558291960E+02  0.00000000000E+00 0.  1.
       14    1    4    4    0    0 -0.18833979994E+01 -0.24219157059E+02  0.27653950641E+02  0.36808365119E+02  0.00000000000E+00 0. -1.
        3    1    5    5  501    0  0.16810997849E+02  0.68003116926E+00 -0.10820226606E+03  0.10950252268E+03  0.00000000000E+00 0. -1.
       -4    1    5    5    0  501 -0.63803637412E+02  0.11102233628E+02 -0.10749458452E+03  0.12549601364E+03  0.00000000000E+00 0.  1.
</event>
<event>
 9   1  0.7570500E-01  0.2500042E+03  0.7546771E-02  0.1113302E+00
       21   -1    0    0  503  502  0.00000000000E+00  0.00000000000E+00  0.44351610175E+03  0.44351610175E+03  0.00000000000E+00 0. -1.
       21   -1    0    0  502  503 -0.00000000000E+00 -0.00000000000E+00 -0.35231026725E+02  0.35231026725E+02  0.00000000000E+00 0. -1.
       25    2    1    2    0    0  0.00000000000E+00  0.00000000000E+00  0.40828507503E+03  0.47874712848E+03  0.25000422103E+03 0.  0.
       24    2    3    3    0    0 -0.33668078284E+02  0.26370281863E+02  0.39138490558E+02  0.98504613840E+02  0.79639225534E+02 0.  0.
      -24    2    3    3    0    0  0.33668078284E+02 -0.26370281863E+02  0.36914658447E+03  0.38024251464E+03  0.80537183034E+02 0.  0.
      -13    1    4    4    0    0 -0.28362270959E+02 -0.24524867034E+02  0.71878460868E+01  0.38177907857E+02  0.00000000000E+00 0.  1.
       14    1    4    4    0    0 -0.53058073255E+01  0.50895148897E+02  0.31950644471E+02  0.60326705983E+02  0.00000000000E+00 0. -1.
        3    1    5    5  501    0 -0.10879215368E+02 -0.15249437407E+02  0.27355780462E+03  0.27419842293E+03  0.00000000000E+00 0. -1.
       -4    1    5    5    0  501  0.44547293652E+02 -0.11120844456E+02  0.95588779853E+02  0.10604409171E+03  0.00000000000E+00 0.  1.
</event>
<event>
 9   1  0.7570500E-01  0.2500005E+03  0.7546771E-02  0.1113305E+00
       21   -1    0    0  503  502  0.00000000000E+00  0.00000000000E+00  0.32819984040E+03  0.32819984040E+03  0.00000000000E+00 0. -1.
       21   -1    0    0  502  503 -0.00000000000E+00 -0.00000000000E+00 -0.47608365632E+02  0.47608365632E+02  0.00000000000E+00 0. -1.
       25    2    1    2    0    0 -0.71054273576E-14  0.35527136788E-14  0.28059147477E+03  0.37580820603E+03  0.25000046401E+03 0.  0.
       24    2    3    3    0    0 -0.41868743863E+02  0.27364088200E+02  0.26384633818E+03  0.28012480442E+03  0.79707156774E+02 0.  0.
      -24    2    3    3    0    0  0.41868743863E+02 -0.27364088200E+02  0.16745136584E+02  0.95683401613E+02  0.79831877777E+02 0.  0.
      -13    1    4    4    0    0 -0.19728019641E+02  0.48147268171E+02  0.92692820539E+02  0.10629822751E+03  0.00000000000E+00 0.  1.
       14    1    4    4    0    0 -0.22140724223E+02 -0.20783179971E+02  0.17115351764E+03  0.17382657691E+03  0.00000000000E+00 0. -1.
        1    1    5    5  501    0  0.52917103976E+02 -0.21057578461E+02  0.39710231069E+02  0.69430137227E+02  0.00000000000E+00 0. -1.
       -2    1    5    5    0  501 -0.11048360112E+02 -0.63065097381E+01 -0.22965094485E+02  0.26253264386E+02  0.00000000000E+00 0.  1.
</event>
<event>
 9   1  0.7570500E-01  0.2499857E+03  0.7546771E-02  0.1113314E+00
       21   -1    0    0  503  502  0.00000000000E+00  0.00000000000E+00  0.72187761117E+02  0.72187761117E+02  0.00000000000E+00 0.  1.
       21   -1    0    0  502  503 -0.00000000000E+00 -0.00000000000E+00 -0.21642460125E+03  0.21642460125E+03  0.00000000000E+00 0.  1.
       25    2    1    2    0    0  0.00000000000E+00  0.00000000000E+00 -0.14423684014E+03  0.28861236237E+03  0.24998565891E+03 0.  0.
       24    2    3    3    0    0 -0.88766181193E+02  0.19370391571E+02 -0.38769957759E+02  0.12736015329E+03  0.80391865441E+02 0.  0.
      -24    2    3    3    0    0  0.88766181193E+02 -0.19370391571E+02 -0.10546688238E+03  0.16125220908E+03  0.81390200029E+02 0.  0.
      -13    1    4    4    0    0 -0.77161179466E+02  0.45005909572E+02 -0.42591901570E+02  0.98961859281E+02  0.00000000000E+00 0.  1.
       14    1    4    4    0    0 -0.11605001727E+02 -0.25635518002E+02  0.38219438118E+01  0.28398294012E+02  0.00000000000E+00 0. -1.
        1    1    5    5  501    0  0.28941883508E+02  0.28000473686E+02 -0.15175665455E+02  0.43034404488E+02  0.00000000000E+00 0. -1.
       -2    1    5    5    0  501  0.59824297685E+02 -0.47370865257E+02 -0.90291216924E+02  0.11821780459E+03  0.00000000000E+00 0.  1.
</event>
<event>
 9   1  0.7570500E-01  0.2499997E+03  0.7546771E-02  0.1113305E+00
       21   -1    0    0  503  502  0.00000000000E+00  0.00000000000E+00  0.28088194575E+03  0.28088194575E+03  0.00000000000E+00 0.  1.
       21   -1    0    0  502  503 -0.00000000000E+00 -0.00000000000E+00 -0.55628204501E+02  0.55628204501E+02  0.00000000000E+00 0.  1.
       25    2    1    2    0    0  0.00000000000E+00 -0.35527136788E-14  0.22525374125E+03  0.33651015025E+03  0.24999966655E+03 0.  0.
       24    2    3    3    0    0  0.35445733755E+02  0.26761778873E+02 -0.68052724224E+00  0.92658693394E+02  0.81317756328E+02 0.  0.
      -24    2    3    3    0    0 -0.35445733755E+02 -0.26761778873E+02  0.22593426849E+03  0.24385145686E+03  0.80278555561E+02 0.  0.
      -13    1    4    4    0    0  0.34303285827E+02 -0.23999520995E+02  0.57239947917E+00  0.41869082479E+02  0.00000000000E+00 0.  1.
       14    1    4    4    0    0  0.11424479289E+01  0.50761299868E+02 -0.12529267214E+01  0.50789610915E+02  0.00000000000E+00 0. -1.
        1    1    5    5  501    0 -0.15457811066E+02  0.28681954591E+02  0.72391592696E+02  0.79386026069E+02  0.00000000000E+00 0. -1.
       -2    1    5    5    0  501 -0.19987922690E+02 -0.55443733464E+02  0.15354267580E+03  0.16446543079E+03  0.00000000000E+00 0.  1.
</event>
<event>
 9   1  0.7570500E-01  0.2500009E+03  0.7546771E-02  0.1113304E+00
       21   -1    0    0  503  502  0.00000000000E+00  0.00000000000E+00  0.32604913318E+03  0.32604913318E+03  0.00000000000E+00 0.  1.
       21   -1    0    0  502  503 -0.00000000000E+00 -0.00000000000E+00 -0.47922553875E+02  0.47922553875E+02  0.00000000000E+00 0.  1.
       25    2    1    2    0    0  0.00000000000E+00  0.14210854715E-13  0.27812657930E+03  0.37397168705E+03  0.25000085720E+03 0.  0.
       24    2    3    3    0    0 -0.43986283644E+02 -0.71996733268E+02  0.81554742379E+02  0.14533273186E+03  0.85744412035E+02 0.  0.
      -24    2    3    3    0    0  0.43986283644E+02  0.71996733268E+02  0.19657183692E+03  0.22863895519E+03  0.80727702867E+02 0.  0.
      -13    1    4    4    0    0 -0.97377702835E+01 -0.76687810278E+02  0.29281889170E+02  0.82663616233E+02  0.00000000000E+00 0.  1.
       14    1    4    4    0    0 -0.34248513360E+02  0.46910770100E+01  0.52272853209E+02  0.62669115627E+02  0.00000000000E+00 0. -1.
        1    1    5    5  501    0  0.41972819093E+02  0.79296404558E+02  0.11096798049E+03  0.14270084096E+03  0.00000000000E+00 0. -1.
       -2    1    5    5    0  501  0.20134645505E+01 -0.72996712903E+01  0.85603856435E+02  0.85938114228E+02  0.00000000000E+00 0.  1.
</event>
<event>
 9   1  0.7570500E-01  0.2499929E+03  0.7546771E-02  0.1113309E+00
       21   -1    0    0  503  502  0.00000000000E+00  0.00000000000E+00  0.29298247293E+02  0.29298247293E+02  0.00000000000E+00 0. -1.
       21   -1    0    0  502  503 -0.00000000000E+00 -0.00000000000E+00 -0.53327795423E+03  0.53327795423E+03  0.00000000000E+00 0. -1.
       25    2    1    2    0    0  0.00000000000E+00  0.35527136788E-14 -0.50397970694E+03  0.56257620153E+03  0.24999287493E+03 0.  0.
       24    2    3    3    0    0 -0.51728272191E+02  0.31897010767E+02 -0.42024696901E+03  0.43189784504E+03  0.78962017109E+02 0.  0.
      -24    2    3    3    0    0  0.51728272191E+02 -0.31897010767E+02 -0.83732737929E+02  0.13067835649E+03  0.79827489085E+02 0.  0.
      -13    1    4    4    0    0 -0.47333977265E+02 -0.73174515725E+01 -0.12221942255E+03  0.13126933286E+03  0.00000000000E+00 0.  1.
       14    1    4    4    0    0 -0.43942949253E+01  0.39214462340E+02 -0.29802754646E+03  0.30062851217E+03  0.00000000000E+00 0. -1.
        3    1    5    5  501    0  0.53607664331E+02  0.12667665040E+02 -0.53536588111E+02  0.76814176290E+02  0.00000000000E+00 0. -1.
       -4    1    5    5    0  501 -0.18793921403E+01 -0.44564675807E+02 -0.30196149817E+02  0.53864180198E+02  0.00000000000E+00 0.  1.
</event>
<event>
 9   1  0.7570500E-01  0.2500064E+03  0.7546771E-02  0.1113301E+00
       21   -1    0    0  503  502  0.00000000000E+00  0.00000000000E+00  0.12987470479E+03  0.12987470479E+03  0.00000000000E+00 0. -1.
       21   -1    0    0  502  503 -0.00000000000E+00 -0.00000000000E+00 -0.12031446051E+03  0.12031446051E+03  0.00000000000E+00 0. -1.
       25    2    1    2    0    0 -0.71054273576E-14  0.00000000000E+00  0.95602442789E+01  0.25018916530E+03  0.25000644025E+03 0.  0.
       24    2    3    3    0    0  0.60125401630E+02 -0.60664767871E+01  0.79668452674E+02  0.12799555078E+03  0.79899515682E+02 0.  0.
      -24    2    3    3    0    0 -0.60125401630E+02  0.60664767871E+01 -0.70108208395E+02  0.12219361452E+03  0.79776265166E+02 0.  0.
      -13    1    4    4    0    0  0.37827998175E+02  0.34696585560E+02  0.55590195894E+02  0.75664260883E+02  0.00000000000E+00 0.  1.
       14    1    4    4    0    0  0.22297403455E+02 -0.40763062347E+02  0.24078256781E+02  0.52331289897E+02  0.00000000000E+00 0. -1.
        3    1    5    5  501    0 -0.37998403073E+02  0.15675845742E+02 -0.84596200899E+02  0.94053856819E+02  0.00000000000E+00 0. -1.
       -4    1    5    5    0  501 -0.22126998557E+02 -0.96093689546E+01  0.14487992504E+02  0.28139757704E+02  0.00000000000E+00 0.  1.
</event>
<event>
 9   1  0.7570500E-01  0.2500072E+03  0.7546771E-02  0.1113300E+00
       21   -1    0    0  503  502  0.00000000000E+00  0.00000000000E+00  0.33511577871E+02  0.33511577871E+02  0.00000000000E+00 0. -1.
       21   -1    0    0  502  503 -0.00000000000E+00 -0.00000000000E+00 -0.46628346510E+03  0.46628346510E+03  0.00000000000E+00 0. -1.
       25    2    1    2    0    0  0.00000000000E+00  0.00000000000E+00 -0.43277188723E+03  0.49979504297E+03  0.25000715710E+03 0.  0.
       24    2    3    3    0    0 -0.71559634222E+02  0.56897745754E+02 -0.15905040877E+03  0.20010395458E+03  0.79915113624E+02 0.  0.
      -24    2    3    3    0    0  0.71559634222E+02 -0.56897745754E+02 -0.27372147846E+03  0.29969108839E+03  0.80828002393E+02 0.  0.
      -13    1    4    4    0    0 -0.83854586946E+02  0.40327306017E+02 -0.95700007879E+02  0.13347799396E+03  0.00000000000E+00 0.  1.
       14    1    4    4    0    0  0.12294952725E+02  0.16570439737E+02 -0.63350400890E+02  0.66625960620E+02  0.00000000000E+00 0. -1.
        3    1    5    5  501    0  0.47860386762E+02 -0.53322947646E+02 -0.93068147090E+02  0.11745481416E+03  0.00000000000E+00 0. -1.
       -4    1    5    5    0  501  0.23699247460E+02 -0.35747981083E+01 -0.18065333137E+03  0.18223627423E+03  0.00000000000E+00 0.  1.
</event>
<event>
 9   1  0.7570500E-01  0.2499996E+03  0.7546771E-02  0.1113305E+00
       21   -1    0    0  503  502  0.00000000000E+00  0.00000000000E+00  0.81419149211E+02  0.81419149211E+02  0.00000000000E+00 0. -1.
       21   -1    0    0  502  503 -0.00000000000E+00 -0.00000000000E+00 -0.19190755674E+03  0.19190755674E+03  0.00000000000E+00 0. -1.
       25    2    1    2    0    0  0.00000000000E+00 -0.71054273576E-14 -0.11048840753E+03  0.27332670595E+03  0.24999959998E+03 0.  0.
       24    2    3    3    0    0  0.53952970962E+02 -0.52201406164E+02 -0.12254843197E+03  0.16412164027E+03  0.79258341796E+02 0.  0.
      -24    2    3    3    0    0 -0.53952970962E+02  0.52201406164E+02  0.12060024441E+02  0.10920506569E+03  0.78386174169E+02 0.  0.
      -13    1    4    4    0    0  0.41342752049E+02  0.10896732962E+02 -0.64968250806E+02  0.77774260196E+02  0.00000000000E+00 0.  1.
       14    1    4    4    0    0  0.12610218914E+02 -0.63098139126E+02 -0.57580181166E+02  0.86347380072E+02  0.00000000000E+00 0. -1.
        1    1    5    5  501    0 -0.24139713110E+02  0.68684094720E+02  0.17057372752E+02  0.74774224047E+02  0.00000000000E+00 0. -1.
       -2    1    5    5    0  501 -0.29813257853E+02 -0.16482688557E+02 -0.49973483113E+01  0.34430841639E+02  0.00000000000E+00 0.  1.
</event>
<event>
 9   1  0.7570500E-01  0.2499997E+03  0.7546771E-02  0.1113305E+00
       21   -1    0    0  503  502  0.00000000000E+00  0.00000000000E+00  0.45670060557E+03  0.45670060557E+03  0.00000000000E+00 0.  1.
       21   -1    0    0  502  503 -0.00000000000E+00 -0.00000000000E+00 -0.34212703957E+02  0.34212703957E+02  0.00000000000E+00 0.  1.
       25    2    1    2    0    0  0.00000000000E+00  0.00000000000E+00  0.42248790161E+03  0.49091330952E+03  0.24999970092E+03 0.  0.
       24    2    3    3    0    0 -0.19482924745E+02  0.88916775513E+02  0.26747702238E+03  0.29387633933E+03  0.80830489250E+02 0.  0.
      -24    2    3    3    0    0  0.19482924745E+02 -0.88916775513E+02  0.15501087923E+03  0.19703697019E+03  0.80680961937E+02 0.  0.
      -13    1    4    4    0    0 -0.86918523480E+01  0.72888771533E+02  0.26428819533E+03  0.27429285718E+03  0.00000000000E+00 0.  1.
       14    1    4    4    0    0 -0.10791072397E+02  0.16028003980E+02  0.31888270557E+01  0.19583482149E+02  0.00000000000E+00 0. -1.
        1    1    5    5  501    0  0.47689477621E+02 -0.66784388393E+02  0.12841190468E+03  0.15239441615E+03  0.00000000000E+00 0. -1.
       -2    1    5    5    0  501 -0.28206552875E+02 -0.22132387121E+02  0.26598974547E+02  0.44642554045E+02  0.00000000000E+00 0.  1.
</event>
<event>
 9   1  0.7570500E-01  0.2500003E+03  0.7546771E-02  0.1113305E+00
       21   -1    0    0  503  502  0.00000000000E+00  0.00000000000E+00  0.49982022554E+03  0.49982022554E+03  0.00000000000E+00 0.  1.
       21   -1    0    0  502  503 -0.00000000000E+00 -0.00000000000E+00 -0.31261323826E+02  0.31261323826E+02  0.00000000000E+00 0.  1.
       25    2    1    2    0    0  0.00000000000E+00  0.14210854715E-13  0.46855890171E+03  0.53108154936E+03  0.25000033540E+03 0.  0.
       24    2    3    3    0    0  0.66607554391E+02  0.68341941161E+02  0.26664214589E+03  0.29371958110E+03  0.77884344611E+02 0.  0.
      -24    2    3    3    0    0 -0.66607554391E+02 -0.68341941161E+02  0.20191675583E+03  0.23736196826E+03  0.80393659395E+02 0.  0.
      -13    1    4    4    0    0  0.50483397466E+01 -0.16704830490E+02  0.27835210318E+02  0.32853249905E+02  0.00000000000E+00 0.  1.
       14    1    4    4    0    0  0.61559214644E+02  0.85046771651E+02  0.23880693557E+03  0.26086633120E+03  0.00000000000E+00 0. -1.
        3    1    5    5  501    0 -0.14476737501E+02 -0.50805594050E+02  0.15915472151E+03  0.16769320110E+03  0.00000000000E+00 0. -1.
       -4    1    5    5    0  501 -0.52130816890E+02 -0.17536347111E+02  0.42762034318E+02  0.69668767168E+02  0.00000000000E+00 0.  1.
</event>
<event>
 9   1  0.7570500E-01  0.2499970E+03  0.7546771E-02  0.1113307E+00
       21   -1    0    0  503  502  0.00000000000E+00  0.00000000000E+00  0.31921824657E+03  0.31921824657E+03  0.00000000000E+00 0. -1.
       21   -1    0    0  502  503 -0.00000000000E+00 -0.00000000000E+00 -0.48946546120E+02  0.48946546120E+02  0.00000000000E+00 0. -1.
       25    2    1    2    0    0  0.00000000000E+00 -0.35527136788E-14  0.27027170045E+03  0.36816479269E+03  0.24999704501E+03 0.  0.
       24    2    3    3    0    0 -0.58381893896E+02 -0.56746591172E+01  0.23494782729E+03  0.25516243635E+03  0.80416043704E+02 0.  0.
      -24    2    3    3    0    0  0.58381893896E+02  0.56746591172E+01  0.35323873159E+02  0.11300235634E+03  0.89894990027E+02 0.  0.
      -13    1    4    4    0    0 -0.16683290334E+02 -0.29263877681E+02  0.17603319754E+03  0.17922721152E+03  0.00000000000E+00 0.  1.
       14    1    4    4    0    0 -0.41698603562E+02  0.23589218564E+02  0.58914629752E+02  0.75935224832E+02  0.00000000000E+00 0. -1.
        3    1    5    5  501    0  0.24364617071E+02  0.41136778051E+02  0.41712027314E+02  0.63448895153E+02  0.00000000000E+00 0. -1.
       -4    1    5    5    0  501  0.34017276825E+02 -0.35462118934E+02 -0.63881541553E+01  0.49553461185E+02  0.00000000000E+00 0.  1.
</event>
<event>
 9   1  0.7570500E-01  0.2500042E+03  0.7546771E-02  0.1113302E+00
       21   -1    0    0  503  502  0.00000000000E+00  0.00000000000E+00  0.13156590815E+03  0.13156590815E+03  0.00000000000E+00 0.  1.
       21   -1    0    0  502  503 -0.00000000000E+00 -0.00000000000E+00 -0.11876571437E+03  0.11876571437E+03  0.00000000000E+00 0.  1.
       25    2    1    2    0    0  0.00000000000E+00  0.00000000000E+00  0.12800193782E+02  0.25033162252E+03  0.25000415251E+03 0.  0.
       24    2    3    3    0    0  0.34134618566E+02  0.44945202379E+02  0.84358019016E+02  0.12924104544E+03  0.80010805851E+02 0.  0.
      -24    2    3    3    0    0 -0.34134618566E+02 -0.44945202379E+02 -0.71557825234E+02  0.12109057708E+03  0.79731813616E+02 0.  0.
      -13    1    4    4    0    0  0.45909002283E+01 -0.94904385680E+01  0.62772092759E+02  0.63651240510E+02  0.00000000000E+00 0.  1.
       14    1    4    4    0    0  0.29543718338E+02  0.54435640947E+02  0.21585926257E+02  0.65589804932E+02  0.00000000000E+00 0. -1.
        3    1    5    5  501    0 -0.36272331292E+02 -0.43756596970E+02 -0.78959972189E+01  0.57381779058E+02  0.00000000000E+00 0. -1.
       -4    1    5    5    0  501  0.21377127260E+01 -0.11886054090E+01 -0.63661828016E+02  0.63708798017E+02  0.00000000000E+00 0.  1.
</event>
<event>
 9   1  0.7570500E-01  0.2500076E+03  0.7546771E-02  0.1113300E+00
       21   -1    0    0  503  502  0.00000000000E+00  0.00000000000E+00  0.44720948402E+03  0.44720948402E+03  0.00000000000E+00 0. -1.
       21   -1    0    0  502  503 -0.00000000000E+00 -0.00000000000E+00 -0.34941017864E+02  0.34941017864E+02  0.00000000000E+00 0. -1.
       25    2    1    2    0    0  0.28421709430E-13  0.14210854715E-13  0.41226846615E+03  0.48215050188E+03  0.25000763644E+03 0.  0.
       24    2    3    3    0    0 -0.73297154308E+02 -0.53230890538E+02  0.25302689613E+03  0.28064739127E+03  0.80835311118E+02 0.  0.
      -24    2    3    3    0    0  0.73297154308E+02  0.53230890538E+02  0.15924157002E+03  0.20150311061E+03  0.83902475686E+02 0.  0.
      -13    1    4    4    0    0 -0.41902772941E+02 -0.67598504332E+02  0.12591052947E+03  0.14892569153E+03  0.00000000000E+00 0.  1.
       14    1    4    4    0    0 -0.31394381367E+02  0.14367613794E+02  0.12711636666E+03  0.13172169974E+03  0.00000000000E+00 0. -1.
        1    1    5    5  501    0  0.73490665581E+02  0.26809082771E+02  0.59398997033E+02  0.98223447786E+02  0.00000000000E+00 0. -1.
       -2    1    5    5    0  501 -0.19351127287E+00  0.26421807767E+02  0.99842572990E+02  0.10327966283E+03  0.00000000000E+00 0.  1.
</event>
<event>
 9   1  0.7570500E-01  0.2499820E+03  0.7546771E-02  0.1113316E+00
       21   -1    0    0  503  502  0.00000000000E+00  0.00000000000E+00  0.72791899660E+02  0.72791899660E+02  0.00000000000E+00 0. -1.
       21   -1    0    0  502  503 -0.00000000000E+00 -0.00000000000E+00 -0.21462213705E+03  0.21462213705E+03  0.00000000000E+00 0. -1.
       25    2    1    2    0    0  0.35527136788E-14  0.17763568394E-14 -0.14183023739E+03  0.28741403671E+03  0.24998202387E+03 0.  0.
       24    2    3    3    0    0 -0.12307712684E+02 -0.60195241018E+01 -0.18211641958E+03  0.19918514462E+03  0.79502308740E+02 0.  0.
      -24    2    3    3    0    0  0.12307712684E+02  0.60195241018E+01  0.40286182187E+02  0.88228892092E+02  0.77289368367E+02 0.  0.
      -13    1    4    4    0    0  0.95055765101E+01  0.30852380736E+02 -0.43973641072E+02  0.54551869729E+02  0.00000000000E+00 0.  1.
       14    1    4    4    0    0 -0.21813289194E+02 -0.36871904837E+02 -0.13814277851E+03  0.14463327489E+03  0.00000000000E+00 0. -1.
        1    1    5    5  501    0  0.40079308447E+02 -0.49961719265E+01  0.42043563849E+02  0.58300720070E+02  0.00000000000E+00 0. -1.
       -2    1    5    5    0  501 -0.27771595764E+02  0.11015696028E+02 -0.17573816620E+01  0.29928172022E+02  0.00000000000E+00 0.  1.
</event>
<event>
 9   1  0.7570500E-01  0.2500031E+03  0.7546771E-02  0.1113303E+00
       21   -1    0    0  503  502  0.00000000000E+00  0.00000000000E+00  0.82563792175E+02  0.82563792175E+02  0.00000000000E+00 0.  1.
       21   -1    0    0  502  503 -0.00000000000E+00 -0.00000000000E+00 -0.18925226652E+03  0.18925226652E+03  0.00000000000E+00 0.  1.
       25    2    1    2    0    0  0.00000000000E+00  0.00000000000E+00 -0.10668847435E+03  0.27181605870E+03  0.25000307840E+03 0.  0.
       24    2    3    3    0    0 -0.52784320555E+02 -0.77669679506E+02 -0.70976463947E+02  0.14247318549E+03  0.80263232791E+02 0.  0.
      -24    2    3    3    0    0  0.52784320555E+02  0.77669679506E+02 -0.35712010401E+02  0.12934287321E+03  0.81458379263E+02 0.  0.
      -13    1    4    4    0    0 -0.72623499693E+01 -0.75519925273E+02 -0.31381415870E+02  0.82102339202E+02  0.00000000000E+00 0.  1.
       14    1    4    4    0    0 -0.45521970586E+02 -0.21497542325E+01 -0.39595048077E+02  0.60370846288E+02  0.00000000000E+00 0. -1.
        3    1    5    5  501    0 -0.76775426297E+01  0.77781489422E+01 -0.35272853276E+02  0.36927204606E+02  0.00000000000E+00 0. -1.
       -4    1    5    5    0  501  0.60461863185E+02  0.69891530564E+02 -0.43915712495E+00  0.92415668603E+02  0.00000000000E+00 0.  1.
</event>
<event>
 9   1  0.7570500E-01  0.2499974E+03  0.7546771E-02  0.1113306E+00
       21   -1    0    0  503  502  0.00000000000E+00  0.00000000000E+00  0.25235971275E+02  0.25235971275E+02  0.00000000000E+00 0.  1.
       21   -1    0    0  502  503 -0.00000000000E+00 -0.00000000000E+00 -0.61914321419E+03  0.61914321419E+03  0.00000000000E+00 0.  1.
       25    2    1    2    0    0 -0.71054273576E-14  0.00000000000E+00 -0.59390724291E+03  0.64437918546E+03  0.24999744293E+03 0.  0.
       24    2    3    3    0    0 -0.57625153711E+02 -0.37079139549E+02 -0.49226101494E+03  0.50417344803E+03  0.84702053914E+02 0.  0.
      -24    2    3    3    0    0  0.57625153711E+02  0.37079139549E+02 -0.10164622797E+03  0.14020573743E+03  0.68045368824E+02 0.  0.
      -13    1    4    4    0    0 -0.61771310432E+02 -0.46098485718E+02 -0.24778523358E+03  0.25949621800E+03  0.00000000000E+00 0.  1.
       14    1    4    4    0    0  0.41461567210E+01  0.90193461693E+01 -0.24447578136E+03  0.24467723003E+03  0.00000000000E+00 0. -1.
        3    1    5    5  501    0  0.58588327808E+02  0.85553857884E+01 -0.93243921354E+02  0.11045458637E+03  0.00000000000E+00 0. -1.
       -4    1    5    5    0  501 -0.96317409625E+00  0.28523753761E+02 -0.84023066174E+01  0.29751151061E+02  0.00000000000E+00 0.  1.
</event>
<event>
 8   1  0.7570500E-01  0.2495828E+03  0.7546771E-02  0.1113569E+00
       21   -1    0    0  503  502  0.00000000000E+00  0.00000000000E+00  0.13779880708E+02  0.13779880708E+02  0.00000000000E+00 0.  1.
       21   -1    0    0  502  503 -0.00000000000E+00 -0.00000000000E+00 -0.11301182992E+04  0.11301182992E+04  0.00000000000E+00 0.  1.
       24    2    1    2    0    0  0.82417698670E+02  0.58990027476E+01 -0.44450188580E+03  0.46234393092E+03  0.96708369284E+02 0.  0.
      -24    2    1    2    0    0 -0.82417698670E+02 -0.58990027476E+01 -0.67183653272E+03  0.68155424902E+03  0.79526048380E+02 0.  0.
      -13    1    3    3    0    0  0.31793203890E+02 -0.13888121610E+02 -0.35111197891E+02  0.49360753163E+02  0.00000000000E+00 0.  1.
       14    1    3    3    0    0  0.50624494779E+02  0.19787124358E+02 -0.40939068791E+03  0.41298317776E+03  0.00000000000E+00 0. -1.
        1    1    4    4  501    0 -0.31148981135E+02  0.97349197549E+01 -0.51060607813E+03  0.51164792065E+03  0.00000000000E+00 0. -1.
       -2    1    4    4    0  501 -0.51268717535E+02 -0.15633922502E+02 -0.16123045459E+03  0.16990632837E+03  0.00000000000E+00 0.  1.
</event>
<event>
 9   1  0.7570500E-01  0.2500008E+03  0.7546771E-02  0.1113304E+00
       21   -1    0    0  503  502  0.00000000000E+00  0.00000000000E+00  0.57101442406E+03  0.57101442406E+03  0.00000000000E+00 0. -1.
       21   -1    0    0  502  503 -0.00000000000E+00 -0.00000000000E+00 -0.27363754985E+02  0.27363754985E+02  0.00000000000E+00 0. -1.
       25    2    1    2    0    0  0.14210854715E-13  0.35527136788E-14  0.54365066908E+03  0.59837817905E+03  0.25000079034E+03 0.  0.
       24    2    3    3    0    0 -0.96869943865E+02  0.13698448340E+02  0.29552030073E+03  0.32047962240E+03  0.76180750320E+02 0.  0.
      -24    2    3    3    0    0  0.96869943865E+02 -0.13698448340E+02  0.24813036835E+03  0.27789855665E+03  0.78022397933E+02 0.  0.
      -13    1    4    4    0    0 -0.30278159772E+02  0.35869995424E+02  0.69932669503E+02  0.84225897411E+02  0.00000000000E+00 0.  1.
       14    1    4    4    0    0 -0.66591784093E+02 -0.22171547084E+02  0.22558763123E+03  0.23625372499E+03  0.00000000000E+00 0. -1.
        1    1    5    5  501    0  0.61153656663E+02 -0.31198899035E+02  0.81377611159E+02  0.10646810143E+03  0.00000000000E+00 0. -1.
       -2    1    5    5    0  501  0.35716287202E+02  0.17500450695E+02  0.16675275719E+03  0.17143045521E+03  0.00000000000E+00 0.  1.
</event>
<event>
 9   1  0.7570500E-01  0.2499974E+03  0.7546771E-02  0.1113306E+00
       21   -1    0    0  503  502  0.00000000000E+00  0.00000000000E+00  0.39465265164E+02  0.39465265164E+02  0.00000000000E+00 0.  1.
       21   -1    0    0  502  503 -0.00000000000E+00 -0.00000000000E+00 -0.39590950757E+03  0.39590950757E+03  0.00000000000E+00 0.  1.
       25    2    1    2    0    0  0.71054273576E-14  0.00000000000E+00 -0.35644424240E+03  0.43537477273E+03  0.24999738956E+03 0.  0.
       24    2    3    3    0    0 -0.40440482815E+02  0.80209645162E+02 -0.12473378335E+03  0.17433997529E+03  0.82261111395E+02 0.  0.
      -24    2    3    3    0    0  0.40440482815E+02 -0.80209645162E+02 -0.23171045905E+03  0.26103479744E+03  0.79877461234E+02 0.  0.
      -13    1    4    4    0    0 -0.70663623758E+01  0.69196664511E+02 -0.34785648810E+02  0.77769873472E+02  0.00000000000E+00 0.  1.
       14    1    4    4    0    0 -0.33374120439E+02  0.11012980651E+02 -0.89948134541E+02  0.96570101819E+02  0.00000000000E+00 0. -1.
        3    1    5    5  501    0  0.33858857668E+02 -0.16946375949E+01 -0.33159317972E+02  0.47421876888E+02  0.00000000000E+00 0. -1.
       -4    1    5    5    0  501  0.65816251463E+01 -0.78515007567E+02 -0.19855114108E+03  0.21361292055E+03  0.00000000000E+00 0.  1.
</event>
<event>
 9   1  0.7570500E-01  0.2500135E+03  0.7546771E-02  0.1113296E+00
       21   -1    0    0  503  502  0.00000000000E+00  0.00000000000E+00  0.34209362046E+03  0.34209362046E+03  0.00000000000E+00 0.  1.
       21   -1    0    0  502  503 -0.00000000000E+00 -0.00000000000E+00 -0.45679569522E+02  0.45679569522E+02  0.00000000000E+00 0.  1.
       25    2    1    2    0    0  0.00000000000E+00  0.17763568394E-14  0.29641405093E+03  0.38777318998E+03  0.25001351419E+03 0.  0.
       24    2    3    3    0    0 -0.77334648712E+02  0.76373428042E+01  0.22502931660E+03  0.25089282408E+03  0.79183577519E+02 0.  0.
      -24    2    3    3    0    0  0.77334648712E+02 -0.76373428042E+01  0.71384734335E+02  0.13688036590E+03  0.87186451793E+02 0.  0.
      -13    1    4    4    0    0 -0.21998174079E+02  0.24119509668E+01  0.17411518853E+03  0.17551591394E+03  0.00000000000E+00 0.  1.
       14    1    4    4    0    0 -0.55336474633E+02  0.52253918374E+01  0.50914128070E+02  0.75376910137E+02  0.00000000000E+00 0. -1.
        3    1    5    5  501    0  0.36711965432E+02 -0.23550854316E+02  0.81189553686E+02  0.92163738925E+02  0.00000000000E+00 0. -1.
       -4    1    5    5    0  501  0.40622683280E+02  0.15913511512E+02 -0.98048193513E+01  0.44716626975E+02  0.00000000000E+00 0.  1.
</event>
<event>
 9   1  0.7570500E-01  0.2500005E+03  0.7546771E-02  0.1113304E+00
       21   -1    0    0  503  502  0.00000000000E+00  0.00000000000E+00  0.11041376838E+03  0.11041376838E+03  0.00000000000E+00 0. -1.
       21   -1    0    0  502  503 -0.00000000000E+00 -0.00000000000E+00 -0.14151376063E+03  0.14151376063E+03  0.00000000000E+00 0. -1.
       25    2    1    2    0    0  0.00000000000E+00  0.00000000000E+00 -0.31099992246E+02  0.25192752901E+03  0.25000054071E+03 0.  0.
       24    2    3    3    0    0 -0.90486098311E+02 -0.83721740505E+01  0.19167569846E+02  0.12022482412E+03  0.76346482015E+02 0.  0.
      -24    2    3    3    0    0  0.90486098311E+02  0.83721740505E+01 -0.50267562092E+02  0.13170270489E+03  0.80999675246E+02 0.  0.
      -13    1    4    4    0    0 -0.61959256729E+02  0.25171990013E+02 -0.96924682209E+01  0.67576049869E+02  0.00000000000E+00 0.  1.
       14    1    4    4    0    0 -0.28526841582E+02 -0.33544164064E+02  0.28860038067E+02  0.52648774255E+02  0.00000000000E+00 0. -1.
        3    1    5    5  501    0  0.86011706688E+02  0.20546259265E+02 -0.66701761805E+02  0.11076681581E+03  0.00000000000E+00 0. -1.
       -4    1    5    5    0  501  0.44743916232E+01 -0.12174085214E+02  0.16434199713E+02  0.20935889076E+02  0.00000000000E+00 0.  1.
</event>
<event>
 9   1  0.7570500E-01  0.2500028E+03  0.7546771E-02  0.1113303E+00
       21   -1    0    0  503  502  0.00000000000E+00  0.00000000000E+00  0.58389330010E+03  0.58389330010E+03  0.00000000000E+00 0. -1.
       21   -1    0    0  502  503 -0.00000000000E+00 -0.00000000000E+00 -0.26760631615E+02  0.26760631615E+02  0.00000000000E+00 0. -1.
       25    2    1    2    0    0  0.71054273576E-14  0.00000000000E+00  0.55713266848E+03  0.61065393171E+03  0.25000282804E+03 0.  0.
       24    2    3    3    0    0  0.59374170417E+02 -0.74506165009E+02  0.31151155428E+03  0.33556884773E+03  0.80563902442E+02 0.  0.
      -24    2    3    3    0    0 -0.59374170417E+02  0.74506165009E+02  0.24562111420E+03  0.27508508399E+03  0.79155612266E+02 0.  0.
      -13    1    4    4    0    0 -0.13083329017E+02 -0.43947396067E+02  0.10415153976E+03  0.11379846376E+03  0.00000000000E+00 0.  1.
       14    1    4    4    0    0  0.72457499434E+02 -0.30558768942E+02  0.20736001452E+03  0.22177038397E+03  0.00000000000E+00 0. -1.
        1    1    5    5  501    0 -0.32775578098E+02  0.32855556882E+02  0.33378928082E+02  0.57165365192E+02  0.00000000000E+00 0. -1.
       -2    1    5    5    0  501 -0.26598592320E+02  0.41650608127E+02  0.21224218612E+03  0.21791971879E+03  0.00000000000E+00 0.  1.
</event>
<event>
 9   1  0.7570500E-01  0.2499995E+03  0.7546771E-02  0.1113305E+00
       21   -1    0    0  503  502  0.00000000000E+00  0.00000000000E+00  0.35050286737E+02  0.35050286737E+02  0.00000000000E+00 0.  1.
       21   -1    0    0  502  503 -0.00000000000E+00 -0.00000000000E+00 -0.44578624437E+03  0.44578624437E+03  0.00000000000E+00 0.  1.
       25    2    1    2    0    0  0.00000000000E+00 -0.71054273576E-14 -0.41073595763E+03  0.48083653110E+03  0.24999948551E+03 0.  0.
       24    2    3    3    0    0  0.75359378218E+02 -0.41821244225E+02 -0.13554156820E+03  0.18098943767E+03  0.83412274187E+02 0.  0.
      -24    2    3    3    0    0 -0.75359378218E+02  0.41821244225E+02 -0.27519438943E+03  0.29984709343E+03  0.82147885618E+02 0.  0.
      -13    1    4    4    0    0  0.59627310043E+02  0.14581681375E+02 -0.69396561215E+02  0.92649469740E+02  0.00000000000E+00 0.  1.
       14    1    4    4    0    0  0.15732068174E+02 -0.56402925599E+02 -0.66145006982E+02  0.88339967930E+02  0.00000000000E+00 0. -1.
        1    1    5    5  501    0 -0.28961113943E+02 -0.12349581613E+01 -0.16152900780E+02  0.33184144498E+02  0.00000000000E+00 0. -1.
       -2    1    5    5    0  501 -0.46398264275E+02  0.43056202386E+02 -0.25904148865E+03  0.26666294894E+03  0.00000000000E+00 0.  1.
</event>
<event>
 9   1  0.7570500E-01  0.2499999E+03  0.7546771E-02  0.1113305E+00
       21   -1    0    0  503  502  0.00000000000E+00  0.00000000000E+00  0.11958327783E+02  0.11958327783E+02  0.00000000000E+00 0.  1.
       21   -1    0    0  502  503 -0.00000000000E+00 -0.00000000000E+00 -0.13066202834E+04  0.13066202834E+04  0.00000000000E+00 0.  1.
       25    2    1    2    0    0  0.00000000000E+00  0.17763568394E-14 -0.12946619556E+04  0.13185786112E+04  0.24999994909E+03 0.  0.
       24    2    3    3    0    0 -0.40641668416E+02 -0.26110038678E+01 -0.10958136866E+04  0.10995741774E+04  0.81222985444E+02 0.  0.
      -24    2    3    3    0    0  0.40641668416E+02  0.26110038678E+01 -0.19884826902E+03  0.21900443376E+03  0.82241992692E+02 0.  0.
      -13    1    4    4    0    0 -0.16690123521E+02 -0.39358528381E+02 -0.70759786921E+03  0.70888814243E+03  0.00000000000E+00 0.  1.
       14    1    4    4    0    0 -0.23951544895E+02  0.36747524513E+02 -0.38821581739E+03  0.39068603498E+03  0.00000000000E+00 0. -1.
        3    1    5    5  501    0 -0.19375509402E+02  0.14965396198E+02 -0.26454600733E+02  0.36044685432E+02  0.00000000000E+00 0. -1.
       -4    1    5    5    0  501  0.60017177818E+02 -0.12354392330E+02 -0.17239366828E+03  0.18295974833E+03  0.00000000000E+00 0.  1.
</event>
<event>
 9   1  0.7570500E-01  0.2500004E+03  0.7546771E-02  0.1113305E+00
       21   -1    0    0  503  502  0.00000000000E+00  0.00000000000E+00  0.14093619072E+03  0.14093619072E+03  0.00000000000E+00 0. -1.
       21   -1    0    0  502  503 -0.00000000000E+00 -0.00000000000E+00 -0.11086613533E+03  0.11086613533E+03  0.00000000000E+00 0. -1.
       25    2    1    2    0    0  0.71054273576E-14  0.35527136788E-14  0.30070055389E+02  0.25180232606E+03  0.25000040635E+03 0.  0.
       24    2    3    3    0    0  0.41193999530E+02  0.39075921698E+01  0.97261800884E+02  0.13537199505E+03  0.84578391202E+02 0.  0.
      -24    2    3    3    0    0 -0.41193999530E+02 -0.39075921698E+01 -0.67191745495E+02  0.11643033101E+03  0.85610025359E+02 0.  0.
      -13    1    4    4    0    0  0.48003676492E+02  0.34602791909E+02  0.44843623223E+02  0.74247267346E+02  0.00000000000E+00 0.  1.
       14    1    4    4    0    0 -0.68096769617E+01 -0.30695199739E+02  0.52418177661E+02  0.61124727702E+02  0.00000000000E+00 0. -1.
        3    1    5    5  501    0 -0.65607311249E+02 -0.14912120547E+02 -0.40034682047E+02  0.78290908765E+02  0.00000000000E+00 0. -1.
       -4    1    5    5    0  501  0.24413311719E+02  0.11004528378E+02 -0.27157063447E+02  0.38139422243E+02  0.00000000000E+00 0.  1.
</event>
<event>
 9   1  0.7570500E-01  0.2499996E+03  0.7546771E-02  0.1113305E+00
       21   -1    0    0  503  502  0.00000000000E+00  0.00000000000E+00  0.29338475289E+03  0.29338475289E+03  0.00000000000E+00 0. -1.
       21   -1    0    0  502  503 -0.00000000000E+00 -0.00000000000E+00 -0.53257548539E+02  0.53257548539E+02  0.00000000000E+00 0. -1.
       25    2    1    2    0    0 -0.14210854715E-13  0.71054273576E-14  0.24012720436E+03  0.34664230143E+03  0.24999962174E+03 0.  0.
       24    2    3    3    0    0 -0.78255403408E+02  0.35947497233E+02  0.61460628141E+02  0.13245675908E+03  0.79694751995E+02 0.  0.
      -24    2    3    3    0    0  0.78255403408E+02 -0.35947497233E+02  0.17866657621E+03  0.21418554235E+03  0.80855243343E+02 0.  0.
      -13    1    4    4    0    0 -0.50497801329E+02 -0.98840917619E+01  0.59742602986E+02  0.78847332362E+02  0.00000000000E+00 0.  1.
       14    1    4    4    0    0 -0.27757602079E+02  0.45831588995E+02  0.17180251555E+01  0.53609426722E+02  0.00000000000E+00 0. -1.
        3    1    5    5  501    0  0.43488552243E+02 -0.29912063582E+02  0.28613653362E+02  0.60039377767E+02  0.00000000000E+00 0. -1.
       -4    1    5    5    0  501  0.34766851165E+02 -0.60354336512E+01  0.15005292285E+03  0.15414616458E+03  0.00000000000E+00 0.  1.
</event>
<event>
 9   1  0.7570500E-01  0.2500056E+03  0.7546771E-02  0.1113301E+00
       21   -1    0    0  503  502  0.00000000000E+00  0.00000000000E+00  0.14748043495E+03  0.14748043495E+03  0.00000000000E+00 0.  1.
       21   -1    0    0  502  503 -0.00000000000E+00 -0.00000000000E+00 -0.10595104412E+03  0.10595104412E+03  0.00000000000E+00 0.  1.
       25    2    1    2    0    0  0.00000000000E+00  0.71054273576E-14  0.41529390834E+02  0.25343147907E+03  0.25000564849E+03 0.  0.
       24    2    3    3    0    0 -0.67199195299E+02 -0.37034795595E+02 -0.34303365612E+02  0.11858025311E+03  0.83649552308E+02 0.  0.
      -24    2    3    3    0    0  0.67199195299E+02  0.37034795595E+02  0.75832756446E+02  0.13485122596E+03  0.80913152568E+02 0.  0.
      -13    1    4    4    0    0 -0.93987829169E+01 -0.50223459332E+02 -0.29736893562E+02  0.59118658867E+02  0.00000000000E+00 0.  1.
       14    1    4    4    0    0 -0.57800412382E+02  0.13188663737E+02 -0.45664720506E+01  0.59461594241E+02  0.00000000000E+00 0. -1.
        3    1    5    5  501    0  0.68856619766E+02  0.68185221452E+01  0.78296310888E+02  0.10448941874E+03  0.00000000000E+00 0. -1.
       -4    1    5    5    0  501 -0.16574244679E+01  0.30216273449E+02 -0.24635544420E+01  0.30361807218E+02  0.00000000000E+00 0.  1.
</event>
<event>
 9   1  0.7570500E-01  0.2500004E+03  0.7546771E-02  0.1113305E+00
       21   -1    0    0  503  502  0.00000000000E+00  0.00000000000E+00  0.67601099584E+02  0.67601099584E+02  0.00000000000E+00 0.  1.
       21   -1    0    0  502  503 -0.00000000000E+00 -0.00000000000E+00 -0.23113602401E+03  0.23113602401E+03  0.00000000000E+00 0.  1.
       25    2    1    2    0    0  0.00000000000E+00  0.00000000000E+00 -0.16353492442E+03  0.29873712359E+03  0.25000039501E+03 0.  0.
       24    2    3    3    0    0  0.78272486002E+02 -0.29751428179E+02 -0.24468010569E+02  0.11772834012E+03  0.79054088973E+02 0.  0.
      -24    2    3    3    0    0 -0.78272486002E+02  0.29751428179E+02 -0.13906691385E+03  0.18100878347E+03  0.80080232393E+02 0.  0.
      -13    1    4    4    0    0  0.69698030724E+02 -0.36570991063E+02 -0.47705010837E+02  0.92038149336E+02  0.00000000000E+00 0.  1.
       14    1    4    4    0    0  0.85744552781E+01  0.68195628839E+01  0.23237000268E+02  0.25690190788E+02  0.00000000000E+00 0. -1.
        3    1    5    5  501    0 -0.13254337922E+02  0.35852725846E+02 -0.94524387227E+02  0.10196055710E+03  0.00000000000E+00 0. -1.
       -4    1    5    5    0  501 -0.65018148081E+02 -0.61012976667E+01 -0.44542526628E+02  0.79048226365E+02  0.00000000000E+00 0.  1.
</event>
<event>
 9   1  0.7570500E-01  0.2500009E+03  0.7546771E-02  0.1113304E+00
       21   -1    0    0  503  502  0.00000000000E+00  0.00000000000E+00  0.91839796858E+03  0.91839796858E+03  0.00000000000E+00 0. -1.
       21   -1    0    0  502  503 -0.00000000000E+00 -0.00000000000E+00 -0.17013445058E+02  0.17013445058E+02  0.00000000000E+00 0. -1.
       25    2    1    2    0    0  0.14210854715E-13  0.00000000000E+00  0.90138452352E+03  0.93541141364E+03  0.25000090704E+03 0.  0.
       24    2    3    3    0    0  0.10038593780E+03 -0.87532024461E+01  0.45129919839E+03  0.46761593885E+03  0.69568273942E+02 0.  0.
      -24    2    3    3    0    0 -0.10038593780E+03  0.87532024461E+01  0.45008532513E+03  0.46779547479E+03  0.78114347411E+02 0.  0.
      -13    1    4    4    0    0  0.51345810207E+02 -0.44864991363E+01  0.36197424823E+03  0.36562532364E+03  0.00000000000E+00 0.  1.
       14    1    4    4    0    0  0.49040127590E+02 -0.42667033098E+01  0.89324950154E+02  0.10199061521E+03  0.00000000000E+00 0. -1.
        1    1    5    5  501    0 -0.92435699531E+02  0.26090983703E+02  0.42785884944E+03  0.43850689051E+03  0.00000000000E+00 0. -1.
       -2    1    5    5    0  501 -0.79502382660E+01 -0.17337781257E+02  0.22226475691E+02  0.29288584279E+02  0.00000000000E+00 0.  1.
</event>
<event>
 9   1  0.7570500E-01  0.2499972E+03  0.7546771E-02  0.1113307E+00
       21   -1    0    0  503  502  0.00000000000E+00  0.00000000000E+00  0.99999164590E+02  0.99999164590E+02  0.00000000000E+00 0.  1.
       21   -1    0    0  502  503 -0.00000000000E+00 -0.00000000000E+00 -0.15624775969E+03  0.15624775969E+03  0.00000000000E+00 0.  1.
       25    2    1    2    0    0  0.14210854715E-13  0.17763568394E-14 -0.56248595098E+02  0.25624692428E+03  0.24999716349E+03 0.  0.
       24    2    3    3    0    0  0.76352501462E+02 -0.52315831288E+01  0.31981974632E+02  0.11552066436E+03  0.80405865776E+02 0.  0.
      -24    2    3    3    0    0 -0.76352501462E+02  0.52315831288E+01 -0.88230569730E+02  0.14072625992E+03  0.78499508622E+02 0.  0.
      -13    1    4    4    0    0  0.12396955498E+02 -0.11758666442E+01  0.47897587152E+02  0.49489857779E+02  0.00000000000E+00 0.  1.
       14    1    4    4    0    0  0.63955545964E+02 -0.40557164845E+01 -0.15915612520E+02  0.66030806580E+02  0.00000000000E+00 0. -1.
        1    1    5    5  501    0 -0.83854063125E+02  0.25500816411E+02 -0.65962743713E+02  0.10969448071E+03  0.00000000000E+00 0. -1.
       -2    1    5    5    0  501  0.75015616634E+01 -0.20269233282E+02 -0.22267826017E+02  0.31031779207E+02  0.00000000000E+00 0.  1.
</event>
<event>
 9   1  0.7570500E-01  0.2500064E+03  0.7546771E-02  0.1113301E+00
       21   -1    0    0  503  502  0.00000000000E+00  0.00000000000E+00  0.21804762799E+03  0.21804762799E+03  0.00000000000E+00 0. -1.
       21   -1    0    0  502  503 -0.00000000000E+00 -0.00000000000E+00 -0.71662349636E+02  0.71662349636E+02  0.00000000000E+00 0. -1.
       25    2    1    2    0    0  0.00000000000E+00  0.00000000000E+00  0.14638527836E+03  0.28970997763E+03  0.25000644275E+03 0.  0.
       24    2    3    3    0    0  0.56291122947E+02  0.29503311581E+02  0.15008166989E+03  0.18322599075E+03  0.83714515655E+02 0.  0.
      -24    2    3    3    0    0 -0.56291122947E+02 -0.29503311581E+02 -0.36963915371E+01  0.10648398688E+03  0.85358305011E+02 0.  0.
      -13    1    4    4    0    0 -0.13229115979E+02  0.21293117275E+02  0.10707178944E+02  0.27258944107E+02  0.00000000000E+00 0.  1.
       14    1    4    4    0    0  0.69520238927E+02  0.82101943058E+01  0.13937449095E+03  0.15596704664E+03  0.00000000000E+00 0. -1.
        3    1    5    5  501    0 -0.77603163804E+02 -0.12126043825E+02 -0.66572062521E+01  0.78826457273E+02  0.00000000000E+00 0. -1.
       -4    1    5    5    0  501  0.21312040856E+02 -0.17377267756E+02  0.29608147150E+01  0.27657529606E+02  0.00000000000E+00 0.  1.
</event>
<event>
 9   1  0.7570500E-01  0.2499954E+03  0.7546771E-02  0.1113308E+00
       21   -1    0    0  503  502  0.00000000000E+00  0.00000000000E+00  0.12439007480E+03  0.12439007480E+03  0.00000000000E+00 0.  1.
       21   -1    0    0  502  503 -0.00000000000E+00 -0.00000000000E+00 -0.12560831774E+03  0.12560831774E+03  0.00000000000E+00 0.  1.
       25    2    1    2    0    0 -0.71054273576E-14  0.28421709430E-13 -0.12182429443E+01  0.24999839254E+03  0.24999542427E+03 0.  0.
       24    2    3    3    0    0 -0.29186479063E+02  0.71970950121E+02  0.54811611442E+02  0.12370488505E+03  0.79163865583E+02 0.  0.
      -24    2    3    3    0    0  0.29186479063E+02 -0.71970950121E+02 -0.56029854386E+02  0.12629350749E+03  0.82334908941E+02 0.  0.
      -13    1    4    4    0    0  0.92803511839E+00  0.58754673156E+02 -0.11749817950E+01  0.58773747959E+02  0.00000000000E+00 0.  1.
       14    1    4    4    0    0 -0.30114514182E+02  0.13216276964E+02  0.55986593237E+02  0.64931137088E+02  0.00000000000E+00 0. -1.
        3    1    5    5  501    0 -0.26611554292E+02 -0.16996019604E+02 -0.30517397686E+02  0.43912994270E+02  0.00000000000E+00 0. -1.
       -4    1    5    5    0  501  0.55798033355E+02 -0.54974930517E+02 -0.25512456700E+02  0.82380513220E+02  0.00000000000E+00 0.  1.
</event>
<event>
 9   1  0.7570500E-01  0.2500038E+03  0.7546771E-02  0.1113302E+00
       21   -1    0    0  503  502  0.00000000000E+00  0.00000000000E+00  0.10268383951E+03  0.10268383951E+03  0.00000000000E+00 0.  1.
       21   -1    0    0  502  503 -0.00000000000E+00 -0.00000000000E+00 -0.15217078676E+03  0.15217078676E+03  0.00000000000E+00 0.  1.
       25    2    1    2    0    0  0.71054273576E-14 -0.28421709430E-13 -0.49486947253E+02  0.25485462627E+03  0.25000384514E+03 0.  0.
       24    2    3    3    0    0 -0.47616548317E+02  0.67789220981E+02 -0.73360453587E+02  0.13661503112E+03  0.80119887804E+02 0.  0.
      -24    2    3    3    0    0  0.47616548317E+02 -0.67789220981E+02  0.23873506335E+02  0.11823959516E+03  0.80919363588E+02 0.  0.
      -13    1    4    4    0    0 -0.49016548270E+02  0.84864258656E+02 -0.60249640116E+02  0.11504166000E+03  0.00000000000E+00 0.  1.
       14    1    4    4    0    0  0.13999999527E+01 -0.17075037675E+02 -0.13110813471E+02  0.21573371116E+02  0.00000000000E+00 0. -1.
        3    1    5    5  501    0  0.44569458783E+02  0.30021025066E+01  0.52627149991E+01  0.44979389112E+02  0.00000000000E+00 0. -1.
       -4    1    5    5    0  501  0.30470895337E+01 -0.70791323488E+02  0.18610791335E+02  0.73260206046E+02  0.00000000000E+00 0.  1.
</event>
<event>
 9   1  0.7570500E-01  0.2500029E+03  0.7546771E-02  0.1113303E+00
       21   -1    0    0  503  502  0.00000000000E+00  0.00000000000E+00  0.19833762434E+02  0.19833762434E+02  0.00000000000E+00 0.  1.
       21   -1    0    0  502  503 -0.00000000000E+00 -0.00000000000E+00 -0.78781643938E+03  0.78781643938E+03  0.00000000000E+00 0.  1.
       25    2    1    2    0    0  0.35527136788E-14  0.00000000000E+00 -0.76798267695E+03  0.80765020182E+03  0.25000291279E+03 0.  0.
       24    2    3    3    0    0  0.19529792183E+02  0.36786251125E+02 -0.66149918962E+03  0.66773448745E+03  0.80953856038E+02 0.  0.
      -24    2    3    3    0    0 -0.19529792183E+02 -0.36786251125E+02 -0.10648348733E+03  0.13991571437E+03  0.80641385151E+02 0.  0.
      -13    1    4    4    0    0  0.50990424789E+02  0.19825265308E+02 -0.36212634768E+03  0.36623565672E+03  0.00000000000E+00 0.  1.
       14    1    4    4    0    0 -0.31460632606E+02  0.16960985816E+02 -0.29937284193E+03  0.30149883073E+03  0.00000000000E+00 0. -1.
        3    1    5    5  501    0 -0.97976506931E+01 -0.48969948477E+02 -0.11259027917E+03  0.12316907394E+03  0.00000000000E+00 0. -1.
       -4    1    5    5    0  501 -0.97321414901E+01  0.12183697353E+02  0.61067918336E+01  0.16746640429E+02  0.00000000000E+00 0.  1.
</event>
<event>
 9   1  0.7570500E-01  0.2499933E+03  0.7546771E-02  0.1113309E+00
       21   -1    0    0  503  502  0.00000000000E+00  0.00000000000E+00  0.13803442987E+02  0.13803442987E+02  0.00000000000E+00 0.  1.
       21   -1    0    0  502  503 -0.00000000000E+00 -0.00000000000E+00 -0.11319032744E+04  0.11319032744E+04  0.00000000000E+00 0.  1.
       25    2    1    2    0    0  0.14210854715E-13  0.71054273576E-14 -0.11180998314E+04  0.11457067173E+04  0.24999329842E+03 0.  0.
       24    2    3    3    0    0  0.58784164147E+02 -0.56482882096E+02 -0.80361219883E+03  0.81134461903E+03  0.76430561837E+02 0.  0.
      -24    2    3    3    0    0 -0.58784164147E+02  0.56482882096E+02 -0.31448763253E+03  0.33436209831E+03  0.79054714274E+02 0.  0.
      -13    1    4    4    0    0  0.14543235983E+02 -0.55348621618E+02 -0.27547426479E+03  0.28135572890E+03  0.00000000000E+00 0.  1.
       14    1    4    4    0    0  0.44240928165E+02 -0.11342604781E+01 -0.52813793405E+03  0.52998889012E+03  0.00000000000E+00 0. -1.
        1    1    5    5  501    0 -0.59488301790E+02  0.76745644497E+01 -0.12437694242E+03  0.13808468704E+03  0.00000000000E+00 0. -1.
       -2    1    5    5    0  501  0.70413764212E+00  0.48808317646E+02 -0.19011069012E+03  0.19627741128E+03  0.00000000000E+00 0.  1.
</event>
<event>
 9   1  0.7570500E-01  0.2500082E+03  0.7546771E-02  0.1113300E+00
       21   -1    0    0  503  502  0.00000000000E+00  0.00000000000E+00  0.21565346037E+02  0.21565346037E+02  0.00000000000E+00 0. -1.
       21   -1    0    0  502  503 -0.00000000000E+00 -0.00000000000E+00 -0.72458948051E+03  0.72458948051E+03  0.00000000000E+00 0. -1.
       25    2    1    2    0    0 -0.71054273576E-14  0.00000000000E+00 -0.70302413448E+03  0.74615482655E+03  0.25000818292E+03 0.  0.
       24    2    3    3    0    0 -0.37457726729E+02  0.87921426303E+02 -0.32807988668E+03  0.35130543395E+03  0.81522005549E+02 0.  0.
      -24    2    3    3    0    0  0.37457726729E+02 -0.87921426303E+02 -0.37494424780E+03  0.39484939260E+03  0.78673981600E+02 0.  0.
      -13    1    4    4    0    0 -0.49491668568E+02  0.15708903190E+02 -0.12120796150E+03  0.13186191576E+03  0.00000000000E+00 0.  1.
       14    1    4    4    0    0  0.12033941839E+02  0.72212523114E+02 -0.20687192518E+03  0.21944351820E+03  0.00000000000E+00 0. -1.
        3    1    5    5  501    0 -0.67329668739E+01 -0.26667639324E+02 -0.22777713360E+03  0.22943172932E+03  0.00000000000E+00 0. -1.
       -4    1    5    5    0  501  0.44190693603E+02 -0.61253786979E+02 -0.14716711420E+03  0.16541766327E+03  0.00000000000E+00 0.  1.
</event>
<event>
 9   1  0.7570500E-01  0.2500182E+03  0.7546771E-02  0.1113293E+00
       21   -1    0    0  503  502  0.00000000000E+00  0.00000000000E+00  0.24612643945E+03  0.24612643945E+03  0.00000000000E+00 0.  1.
       21   -1    0    0  502  503 -0.00000000000E+00 -0.00000000000E+00 -0.63492873211E+02  0.63492873211E+02  0.00000000000E+00 0.  1.
       25    2    1    2    0    0  0.00000000000E+00 -0.14210854715E-13  0.18263356624E+03  0.30961931267E+03  0.25001819785E+03 0.  0.
       24    2    3    3    0    0  0.41063498456E+02 -0.33095780044E+02  0.19020970800E+03  0.21365963351E+03  0.81787312049E+02 0.  0.
      -24    2    3    3    0    0 -0.41063498456E+02  0.33095780044E+02 -0.75761417593E+01  0.95959679153E+02  0.79808023011E+02 0.  0.
      -13    1    4    4    0    0  0.21793276081E+01 -0.53375866792E+02  0.10131751818E+03  0.11453808150E+03  0.00000000000E+00 0.  1.
       14    1    4    4    0    0  0.38884170847E+02  0.20280086748E+02  0.88892189825E+02  0.99121552010E+02  0.00000000000E+00 0. -1.
        1    1    5    5  501    0 -0.53004767575E+02  0.24925281213E+02  0.22371625234E+02  0.62699797806E+02  0.00000000000E+00 0. -1.
       -2    1    5    5    0  501  0.11941269119E+02  0.81704988304E+01 -0.29947766994E+02  0.33259881347E+02  0.00000000000E+00 0.  1.
</event>
<event>
 9   1  0.7570500E-01  0.2499988E+03  0.7546771E-02  0.1113306E+00
       21   -1    0    0  503  502  0.00000000000E+00  0.00000000000E+00  0.13733405065E+03  0.13733405065E+03  0.00000000000E+00 0. -1.
       21   -1    0    0  502  503 -0.00000000000E+00 -0.00000000000E+00 -0.11377259632E+03  0.11377259632E+03  0.00000000000E+00 0. -1.
       25    2    1    2    0    0  0.00000000000E+00  0.35527136788E-14  0.23561454328E+02  0.25110664697E+03  0.24999881204E+03 0.  0.
       24    2    3    3    0    0 -0.82616852289E+02  0.17056989435E+02 -0.33439966655E+02  0.12198238075E+03  0.81516775414E+02 0.  0.
      -24    2    3    3    0    0  0.82616852289E+02 -0.17056989435E+02  0.57001420983E+02  0.12912426622E+03  0.79419323598E+02 0.  0.
      -13    1    4    4    0    0 -0.82536181535E+02  0.55303319129E+01  0.39902669389E+01  0.82817438162E+02  0.00000000000E+00 0.  1.
       14    1    4    4    0    0 -0.80670754334E-01  0.11526657522E+02 -0.37430233594E+02  0.39164942593E+02  0.00000000000E+00 0. -1.
        1    1    5    5  501    0  0.34412104496E+02  0.28752504550E+02  0.40921598037E+02  0.60708126636E+02  0.00000000000E+00 0. -1.
       -2    1    5    5    0  501  0.48204747794E+02 -0.45809493985E+02  0.16079822945E+02  0.68416139579E+02  0.00000000000E+00 0.  1.
</event>
<event>
 9   1  0.7570500E-01  0.2499982E+03  0.7546771E-02  0.1113306E+00
       21   -1    0    0  503  502  0.00000000000E+00  0.00000000000E+00  0.13036295561E+03  0.13036295561E+03  0.00000000000E+00 0.  1.
       21   -1    0    0  502  503 -0.00000000000E+00 -0.00000000000E+00 -0.11985591271E+03  0.11985591271E+03  0.00000000000E+00 0.  1.
       25    2    1    2    0    0  0.14210854715E-13  0.14210854715E-13  0.10507042891E+02  0.25021886832E+03  0.24999816822E+03 0.  0.
       24    2    3    3    0    0 -0.43990016248E+02 -0.65155485221E+02  0.58248481825E+02  0.12746367040E+03  0.81692979221E+02 0.  0.
      -24    2    3    3    0    0  0.43990016248E+02  0.65155485221E+02 -0.47741438934E+02  0.12275519792E+03  0.81297200690E+02 0.  0.
      -13    1    4    4    0    0 -0.77141060841E+01 -0.52482495810E+02 -0.51851182204E+01  0.53299204967E+02  0.00000000000E+00 0.  1.
       14    1    4    4    0    0 -0.36275910164E+02 -0.12672989411E+02  0.63433600046E+02  0.74164465437E+02  0.00000000000E+00 0. -1.
        3    1    5    5  501    0 -0.19384658724E+02  0.38859023510E+02 -0.10462533369E+02  0.44668258378E+02  0.00000000000E+00 0. -1.
       -4    1    5    5    0  501  0.63374674972E+02  0.26296461711E+02 -0.37278905565E+02  0.78086939538E+02  0.00000000000E+00 0.  1.
</event>
<event>
 9   1  0.7570500E-01  0.2500015E+03  0.7546771E-02  0.1113304E+00
       21   -1    0    0  503  502  0.00000000000E+00  0.00000000000E+00  0.48608120590E+02  0.48608120590E+02  0.00000000000E+00 0. -1.
       21   -1    0    0  502  503 -0.00000000000E+00 -0.00000000000E+00 -0.32145230399E+03  0.32145230399E+03  0.00000000000E+00 0. -1.
       25    2    1    2    0    0  0.00000000000E+00  0.00000000000E+00 -0.27284418340E+03  0.37006042458E+03  0.25000153885E+03 0.  0.
       24    2    3    3    0    0  0.71026093033E+02  0.37414524012E+02 -0.58993516083E+02  0.12709229553E+03  0.78915550719E+02 0.  0.
      -24    2    3    3    0    0 -0.71026093033E+02 -0.37414524012E+02 -0.21385066732E+03  0.24296812905E+03  0.82806106796E+02 0.  0.
      -13    1    4    4    0    0  0.32530643477E+02 -0.13077445447E+02  0.67388316922E+01  0.35702579697E+02  0.00000000000E+00 0.  1.
       14    1    4    4    0    0  0.38495449556E+02  0.50491969459E+02 -0.65732347775E+02  0.91389715835E+02  0.00000000000E+00 0. -1.
        1    1    5    5  501    0  0.10893511920E+02 -0.25026251180E+02 -0.26168332742E+02  0.37812213484E+02  0.00000000000E+00 0. -1.
       -2    1    5    5    0  501 -0.81919604953E+02 -0.12388272831E+02 -0.18768233458E+03  0.20515591556E+03  0.00000000000E+00 0.  1.
</event>
<event>
 9   1  0.7570500E-01  0.2500009E+03  0.7546771E-02  0.1113304E+00
       21   -1    0    0  503  502  0.00000000000E+00  0.00000000000E+00  0.13390069976E+03  0.13390069976E+03  0.00000000000E+00 0. -1.
       21   -1    0    0  502  503 -0.00000000000E+00 -0.00000000000E+00 -0.11669182353E+03  0.11669182353E+03  0.00000000000E+00 0. -1.
       25    2    1    2    0    0  0.00000000000E+00 -0.14210854715E-13  0.17208876229E+02  0.25059252329E+03  0.25000093462E+03 0.  0.
       24    2    3    3    0    0  0.47952079882E+02 -0.79143276326E+02  0.14799364442E+02  0.12373989966E+03  0.80805206688E+02 0.  0.
      -24    2    3    3    0    0 -0.47952079882E+02  0.79143276326E+02  0.24095117867E+01  0.12685262363E+03  0.86733627978E+02 0.  0.
      -13    1    4    4    0    0  0.34414014220E+02 -0.57380586128E+02 -0.29054763564E+02  0.72945427033E+02  0.00000000000E+00 0.  1.
       14    1    4    4    0    0  0.13538065662E+02 -0.21762690198E+02  0.43854128006E+02  0.50794472630E+02  0.00000000000E+00 0. -1.
        3    1    5    5  501    0 -0.46102945814E+02 -0.12653543524E+01  0.49314311991E+01  0.46383205452E+02  0.00000000000E+00 0. -1.
       -4    1    5    5    0  501 -0.18491340684E+01  0.80408630679E+02 -0.25219194124E+01  0.80469418178E+02  0.00000000000E+00 0.  1.
</event>
<event>
 9   1  0.7570500E-01  0.2500002E+03  0.7546771E-02  0.1113305E+00
       21   -1    0    0  503  502  0.00000000000E+00  0.00000000000E+00  0.88592666223E+03  0.88592666223E+03  0.00000000000E+00 0. -1.
       21   -1    0    0  502  503 -0.00000000000E+00 -0.00000000000E+00 -0.17636935309E+02  0.17636935309E+02  0.00000000000E+00 0. -1.
       25    2    1    2    0    0  0.00000000000E+00  0.00000000000E+00  0.86828972692E+03  0.90356359754E+03  0.25000024984E+03 0.  0.
       24    2    3    3    0    0 -0.17714199995E+02  0.83573452528E+02  0.58874260012E+03  0.60023981554E+03  0.79822754326E+02 0.  0.
      -24    2    3    3    0    0  0.17714199995E+02 -0.83573452528E+02  0.27954712680E+03  0.30332378200E+03  0.80996331876E+02 0.  0.
      -13    1    4    4    0    0 -0.44694124632E+02  0.34724471157E+02  0.37889686820E+03  0.38310075751E+03  0.00000000000E+00 0.  1.
       14    1    4    4    0    0  0.26979924637E+02  0.48848981371E+02  0.20984573192E+03  0.21713905803E+03  0.00000000000E+00 0. -1.
        1    1    5    5  501    0 -0.98766150451E+01 -0.45182602271E+02  0.23090734820E+03  0.23549356366E+03  0.00000000000E+00 0. -1.
       -2    1    5    5    0  501  0.27590815041E+02 -0.38390850256E+02  0.48639778597E+02  0.67830218339E+02  0.00000000000E+00 0.  1.
</event>
<event>
 9   1  0.7570500E-01  0.2499950E+03  0.7546771E-02  0.1113308E+00
       21   -1    0    0  503  502  0.00000000000E+00  0.00000000000E+00  0.42210573370E+02  0.42210573370E+02  0.00000000000E+00 0.  1.
       21   -1    0    0  502  503 -0.00000000000E+00 -0.00000000000E+00 -0.37015318206E+03  0.37015318206E+03  0.00000000000E+00 0.  1.
       25    2    1    2    0    0 -0.71054273576E-14  0.00000000000E+00 -0.32794260869E+03  0.41236375542E+03  0.24999502434E+03 0.  0.
       24    2    3    3    0    0  0.49290752906E+02 -0.81768463461E+02 -0.14058329732E+03  0.18787304164E+03  0.80105907100E+02 0.  0.
      -24    2    3    3    0    0 -0.49290752906E+02  0.81768463461E+02 -0.18735931137E+03  0.22449071378E+03  0.78593314472E+02 0.  0.
      -13    1    4    4    0    0 -0.26102828618E+01 -0.71716855689E+02 -0.80803369098E+02  0.10807083522E+03  0.00000000000E+00 0.  1.
       14    1    4    4    0    0  0.51901035768E+02 -0.10051607771E+02 -0.59779928218E+02  0.79802206425E+02  0.00000000000E+00 0. -1.
        1    1    5    5  501    0  0.54301709474E+01  0.31342684562E+02 -0.11991482414E+03  0.12406214443E+03  0.00000000000E+00 0. -1.
       -2    1    5    5    0  501 -0.54720923854E+02  0.50425778899E+02 -0.67444487231E+02  0.10042856936E+03  0.00000000000E+00 0.  1.
</event>
<event>
 9   1  0.7570500E-01  0.2499869E+03  0.7546771E-02  0.1113313E+00
       21   -1    0    0  503  502  0.00000000000E+00  0.00000000000E+00  0.16082643005E+02  0.16082643005E+02  0.00000000000E+00 0. -1.
       21   -1    0    0  502  503 -0.00000000000E+00 -0.00000000000E+00 -0.97144259569E+03  0.97144259569E+03  0.00000000000E+00 0. -1.
       25    2    1    2    0    0  0.00000000000E+00  0.00000000000E+00 -0.95535995269E+03  0.98752523870E+03  0.24998691539E+03 0.  0.
       24    2    3    3    0    0 -0.21981985470E+02  0.38761346425E+02 -0.79890757583E+03  0.80410594233E+03  0.79670584922E+02 0.  0.
      -24    2    3    3    0    0  0.21981985470E+02 -0.38761346425E+02 -0.15645237685E+03  0.18341929637E+03  0.84732770495E+02 0.  0.
      -13    1    4    4    0    0 -0.47648272585E+02  0.39059341943E+01 -0.39319225945E+03  0.39608807997E+03  0.00000000000E+00 0.  1.
       14    1    4    4    0    0  0.25666287115E+02  0.34855412230E+02 -0.40571531638E+03  0.40801786236E+03  0.00000000000E+00 0. -1.
        3    1    5    5  501    0  0.26970057196E+02  0.15439322367E+02 -0.10118406244E+03  0.10584881271E+03  0.00000000000E+00 0. -1.
       -4    1    5    5    0  501 -0.49880717262E+01 -0.54200668791E+02 -0.55268314412E+02  0.77570483658E+02  0.00000000000E+00 0.  1.
</event>
<event>
 9   1  0.7570500E-01  0.2500012E+03  0.7546771E-02  0.1113304E+00
       21   -1    0    0  503  502  0.00000000000E+00  0.00000000000E+00  0.21831215446E+02  0.21831215446E+02  0.00000000000E+00 0. -1.
       21   -1    0    0  502  503 -0.00000000000E+00 -0.00000000000E+00 -0.71572488993E+03  0.71572488993E+03  0.00000000000E+00 0. -1.
       25    2    1    2    0    0  0.00000000000E+00 -0.14210854715E-13 -0.69389367449E+03  0.73755610538E+03  0.25000115417E+03 0.  0.
       24    2    3    3    0    0  0.57714523147E+02  0.63826205236E+02 -0.44999238641E+03  0.46541056783E+03  0.81909084767E+02 0.  0.
      -24    2    3    3    0    0 -0.57714523147E+02 -0.63826205236E+02 -0.24390128808E+03  0.27214553755E+03  0.84679422667E+02 0.  0.
      -13    1    4    4    0    0 -0.16897573305E+02  0.30293373097E+02 -0.17945667614E+03  0.18277832215E+03  0.00000000000E+00 0.  1.
       14    1    4    4    0    0  0.74612096452E+02  0.33532832139E+02 -0.27053571027E+03  0.28263224568E+03  0.00000000000E+00 0. -1.
        1    1    5    5  501    0 -0.48601959691E+02 -0.41121767615E+02 -0.23881788855E+03  0.24715811569E+03  0.00000000000E+00 0. -1.
       -2    1    5    5    0  501 -0.91125634561E+01 -0.22704437622E+02 -0.50833995272E+01  0.24987421860E+02  0.00000000000E+00 0.  1.
</event>
<event>
 9   1  0.7570500E-01  0.2500013E+03  0.7546771E-02  0.1113304E+00
       21   -1    0    0  503  502  0.00000000000E+00  0.00000000000E+00  0.99387179215E+02  0.99387179215E+02  0.00000000000E+00 0. -1.
       21   -1    0    0  502  503 -0.00000000000E+00 -0.00000000000E+00 -0.15721510673E+03  0.15721510673E+03  0.00000000000E+00 0. -1.
       25    2    1    2    0    0  0.00000000000E+00  0.00000000000E+00 -0.57827927511E+02  0.25660228594E+03  0.25000132790E+03 0.  0.
       24    2    3    3    0    0 -0.62986881386E+02  0.15073668373E+02  0.42857850036E+02  0.11266209847E+03  0.81617341394E+02 0.  0.
      -24    2    3    3    0    0  0.62986881386E+02 -0.15073668373E+02 -0.10068577755E+03  0.14394018747E+03  0.79916137701E+02 0.  0.
      -13    1    4    4    0    0 -0.50312928763E+02  0.34277098049E+02  0.58824626072E+02  0.84656050487E+02  0.00000000000E+00 0.  1.
       14    1    4    4    0    0 -0.12673952622E+02 -0.19203429677E+02 -0.15966776036E+02  0.28006047979E+02  0.00000000000E+00 0. -1.
        1    1    5    5  501    0  0.16792208703E+02 -0.44142208448E+02 -0.36518165496E+02  0.59699993727E+02  0.00000000000E+00 0. -1.
       -2    1    5    5    0  501  0.46194672682E+02  0.29068540075E+02 -0.64167612050E+02  0.84240193747E+02  0.00000000000E+00 0.  1.
</event>
<event>
 9   1  0.7570500E-01  0.2499995E+03  0.7546771E-02  0.1113305E+00
       21   -1    0    0  503  502  0.00000000000E+00  0.00000000000E+00  0.71858025760E+02  0.71858025760E+02  0.00000000000E+00 0.  1.
       21   -1    0    0  502  503 -0.00000000000E+00 -0.00000000000E+00 -0.21744172731E+03  0.21744172731E+03  0.00000000000E+00 0.  1.
       25    2    1    2    0    0  0.00000000000E+00  0.00000000000E+00 -0.14558370155E+03  0.28929975307E+03  0.24999946594E+03 0.  0.
       24    2    3    3    0    0 -0.56741625325E+02  0.14004076521E+02 -0.16165778916E+03  0.18963682646E+03  0.80082201197E+02 0.  0.
      -24    2    3    3    0    0  0.56741625325E+02 -0.14004076521E+02  0.16074087615E+02  0.99662926609E+02  0.79111291507E+02 0.  0.
      -13    1    4    4    0    0 -0.13331302016E+02  0.37214289103E+02 -0.11579721893E+03  0.12235858302E+03  0.00000000000E+00 0.  1.
       14    1    4    4    0    0 -0.43410323309E+02 -0.23210212582E+02 -0.45860570228E+02  0.67278243434E+02  0.00000000000E+00 0. -1.
        3    1    5    5  501    0  0.17685461941E+02 -0.39184362587E+02 -0.12919783529E+02  0.44889983758E+02  0.00000000000E+00 0. -1.
       -4    1    5    5    0  501  0.39056163385E+02  0.25180286066E+02  0.28993871144E+02  0.54772942851E+02  0.00000000000E+00 0.  1.
</event>
<event>
 9   1  0.7570500E-01  0.2499955E+03  0.7546771E-02  0.1113308E+00
       21   -1    0    0  503  502  0.00000000000E+00  0.00000000000E+00  0.13736436367E+03  0.13736436367E+03  0.00000000000E+00 0. -1.
       21   -1    0    0  502  503 -0.00000000000E+00 -0.00000000000E+00 -0.11374450980E+03  0.11374450980E+03  0.00000000000E+00 0. -1.
       25    2    1    2    0    0  0.00000000000E+00  0.00000000000E+00  0.23619853873E+02  0.25110887348E+03  0.24999553764E+03 0.  0.
       24    2    3    3    0    0 -0.72236284129E+02 -0.61731421901E+02  0.19224391586E+02  0.12611598387E+03  0.80664831011E+02 0.  0.
      -24    2    3    3    0    0  0.72236284129E+02  0.61731421901E+02  0.43954622874E+01  0.12499288960E+03  0.81086701544E+02 0.  0.
      -13    1    4    4    0    0 -0.37833922903E+02  0.13814516466E+02  0.15062331830E+02  0.43001400298E+02  0.00000000000E+00 0.  1.
       14    1    4    4    0    0 -0.34402361226E+02 -0.75545938367E+02  0.41620597553E+01  0.83114583576E+02  0.00000000000E+00 0. -1.
        1    1    5    5  501    0  0.35428659398E+02  0.71499573295E+02 -0.16603958837E+02  0.81505032587E+02  0.00000000000E+00 0. -1.
       -2    1    5    5    0  501  0.36807624732E+02 -0.97681513933E+01  0.20999421125E+02  0.43487857013E+02  0.00000000000E+00 0.  1.
</event>
<event>
 9   1  0.7570500E-01  0.2500078E+03  0.7546771E-02  0.1113300E+00
       21   -1    0    0  503  502  0.00000000000E+00  0.00000000000E+00  0.12027479962E+03  0.12027479962E+03  0.00000000000E+00 0. -1.
       21   -1    0    0  502  503 -0.00000000000E+00 -0.00000000000E+00 -0.12991891211E+03  0.12991891211E+03  0.00000000000E+00 0. -1.
       25    2    1    2    0    0  0.00000000000E+00 -0.71054273576E-14 -0.96441124864E+01  0.25019371173E+03  0.25000776885E+03 0.  0.
       24    2    3    3    0    0  0.26964573106E+02 -0.39481765666E+02  0.78806794127E+02  0.12209053121E+03  0.80060533279E+02 0.  0.
      -24    2    3    3    0    0 -0.26964573106E+02  0.39481765666E+02 -0.88450906613E+02  0.12810318052E+03  0.79378611443E+02 0.  0.
      -13    1    4    4    0    0 -0.25904007629E+02 -0.25114775144E+02  0.45138075225E+02  0.57785944457E+02  0.00000000000E+00 0.  1.
       14    1    4    4    0    0  0.52868580735E+02 -0.14366990523E+02  0.33668718902E+02  0.64304586758E+02  0.00000000000E+00 0. -1.
        1    1    5    5  501    0 -0.27130966056E+02 -0.19485195992E+02 -0.27154075613E+02  0.43047717761E+02  0.00000000000E+00 0. -1.
       -2    1    5    5    0  501  0.16639295041E+00  0.58966961659E+02 -0.61296831000E+02  0.85055462755E+02  0.00000000000E+00 0.  1.
</event>
<event>
 9   1  0.7570500E-01  0.2499640E+03  0.7546771E-02  0.1113328E+00
       21   -1    0    0  503  502  0.00000000000E+00  0.00000000000E+00  0.12544787063E+04  0.12544787063E+04  0.00000000000E+00 0.  1.
       21   -1    0    0  502  503 -0.00000000000E+00 -0.00000000000E+00 -0.12451790156E+02  0.12451790156E+02  0.00000000000E+00 0.  1.
       25    2    1    2    0    0  0.00000000000E+00  0.00000000000E+00  0.12420269161E+04  0.12669304964E+04  0.24996404226E+03 0.  0.
       24    2    3    3    0    0  0.34491107991E+02 -0.34788412506E+02  0.10948461876E+04  0.10988203841E+04  0.79487054940E+02 0.  0.
      -24    2    3    3    0    0 -0.34491107991E+02  0.34788412506E+02  0.14718072853E+03  0.16811011231E+03  0.64799481753E+02 0.  0.
      -13    1    4    4    0    0  0.35520649632E+02  0.48251695574E+01  0.20631673815E+03  0.20940772491E+03  0.00000000000E+00 0.  1.
       14    1    4    4    0    0 -0.10295416410E+01 -0.39613582064E+02  0.88852944943E+03  0.88941265920E+03  0.00000000000E+00 0. -1.
        1    1    5    5  501    0  0.66468968990E+01 -0.26975820222E+01 -0.31299203910E+01  0.78265310838E+01  0.00000000000E+00 0. -1.
       -2    1    5    5    0  501 -0.41138004890E+02  0.37485994528E+02  0.15031064892E+03  0.16028358123E+03  0.00000000000E+00 0.  1.
</event>
<event>
 9   1  0.7570500E-01  0.2499947E+03  0.7546771E-02  0.1113308E+00
       21   -1    0    0  503  502  0.00000000000E+00  0.00000000000E+00  0.75930267039E+02  0.75930267039E+02  0.00000000000E+00 0.  1.
       21   -1    0    0  502  503 -0.00000000000E+00 -0.00000000000E+00 -0.20577225071E+03  0.20577225071E+03  0.00000000000E+00 0.  1.
       25    2    1    2    0    0 -0.14210854715E-13  0.00000000000E+00 -0.12984198368E+03  0.28170251775E+03  0.24999473551E+03 0.  0.
       24    2    3    3    0    0 -0.90423896217E+02 -0.24308808672E+02 -0.70194364953E+02  0.14458875050E+03  0.84919130428E+02 0.  0.
      -24    2    3    3    0    0  0.90423896217E+02  0.24308808672E+02 -0.59647618723E+02  0.13711376726E+03  0.80467058888E+02 0.  0.
      -13    1    4    4    0    0 -0.70963695513E+02  0.14726419411E+02 -0.70303201541E+02  0.10097154875E+03  0.00000000000E+00 0.  1.
       14    1    4    4    0    0 -0.19460200704E+02 -0.39035228083E+02  0.10883658761E+00  0.43617201748E+02  0.00000000000E+00 0. -1.
        3    1    5    5  501    0  0.22145761842E+02 -0.52043092596E+01 -0.58449440974E+02  0.62720465182E+02  0.00000000000E+00 0. -1.
       -4    1    5    5    0  501  0.68278134375E+02  0.29513117931E+02 -0.11981777486E+01  0.74393302076E+02  0.00000000000E+00 0.  1.
</event>
<event>
 9   1  0.7570500E-01  0.2499984E+03  0.7546771E-02  0.1113306E+00
       21   -1    0    0  503  502  0.00000000000E+00  0.00000000000E+00  0.30664861274E+03  0.30664861274E+03  0.00000000000E+00 0.  1.
       21   -1    0    0  502  503 -0.00000000000E+00 -0.00000000000E+00 -0.50953434872E+02  0.50953434872E+02  0.00000000000E+00 0.  1.
       25    2    1    2    0    0  0.00000000000E+00 -0.88817841970E-15  0.25569517786E+03  0.35760204761E+03  0.24999840094E+03 0.  0.
       24    2    3    3    0    0 -0.79924312267E+02 -0.28255882839E+01  0.21627201248E+03  0.24438787604E+03  0.80968950416E+02 0.  0.
      -24    2    3    3    0    0  0.79924312267E+02  0.28255882839E+01  0.39423165384E+02  0.11321417157E+03  0.69766632675E+02 0.  0.
      -13    1    4    4    0    0 -0.54370872910E+02  0.37405316276E+02  0.11932738247E+03  0.13636118844E+03  0.00000000000E+00 0.  1.
       14    1    4    4    0    0 -0.25553439358E+02 -0.40230904560E+02  0.96944630009E+02  0.10802668759E+03  0.00000000000E+00 0. -1.
        1    1    5    5  501    0  0.42780779909E+02 -0.59346487065E+01  0.56738654797E+02  0.71307013211E+02  0.00000000000E+00 0. -1.
       -2    1    5    5    0  501  0.37143532358E+02  0.87602369904E+01 -0.17315489412E+02  0.41907158359E+02  0.00000000000E+00 0.  1.
</event>
<event>
 9   1  0.7570500E-01  0.2499954E+03  0.7546771E-02  0.1113308E+00
       21   -1    0    0  503  502  0.00000000000E+00  0.00000000000E+00  0.60208604780E+01  0.60208604780E+01  0.00000000000E+00 0. -1.
       21   -1    0    0  502  503 -0.00000000000E+00 -0.00000000000E+00 -0.25950475672E+04  0.25950475672E+04  0.00000000000E+00 0. -1.
       25    2    1    2    0    0  0.14210854715E-13 -0.88817841970E-15 -0.25890267067E+04  0.26010684277E+04  0.24999535464E+03 0.  0.
       24    2    3    3    0    0 -0.83893593450E+02  0.57713170178E+01 -0.82701425873E+03  0.83511405552E+03  0.79946597546E+02 0.  0.
      -24    2    3    3    0    0  0.83893593450E+02 -0.57713170178E+01 -0.17620124480E+04  0.17659543722E+04  0.82677291620E+02 0.  0.
      -13    1    4    4    0    0 -0.11459448346E+02  0.96731469472E+01 -0.20796240162E+02  0.25639273257E+02  0.00000000000E+00 0.  1.
       14    1    4    4    0    0 -0.72434145104E+02 -0.39018299293E+01 -0.80621801857E+03  0.80947478226E+03  0.00000000000E+00 0. -1.
        1    1    5    5  501    0  0.80049137383E+02 -0.30943110333E+02 -0.10555308432E+04  0.10590140233E+04  0.00000000000E+00 0. -1.
       -2    1    5    5    0  501  0.38444560661E+01  0.25171793315E+02 -0.70648160477E+03  0.70694034889E+03  0.00000000000E+00 0.  1.
</event>
<event>
 9   1  0.7570500E-01  0.2499980E+03  0.7546771E-02  0.1113306E+00
       21   -1    0    0  503  502  0.00000000000E+00  0.00000000000E+00  0.49705579515E+02  0.49705579515E+02  0.00000000000E+00 0.  1.
       21   -1    0    0  502  503 -0.00000000000E+00 -0.00000000000E+00 -0.31434599746E+03  0.31434599746E+03  0.00000000000E+00 0.  1.
       25    2    1    2    0    0  0.00000000000E+00  0.14210854715E-13 -0.26464041794E+03  0.36405157697E+03  0.24999799977E+03 0.  0.
       24    2    3    3    0    0  0.41091394506E+02 -0.77153694117E+02 -0.73399404051E+02  0.13949664856E+03  0.80191316405E+02 0.  0.
      -24    2    3    3    0    0 -0.41091394506E+02  0.77153694117E+02 -0.19124101389E+03  0.22455492841E+03  0.78807329994E+02 0.  0.
      -13    1    4    4    0    0  0.46417293762E+02 -0.71944733848E+02 -0.88202970247E+02  0.12292426062E+03  0.00000000000E+00 0.  1.
       14    1    4    4    0    0 -0.53258992564E+01 -0.52089602682E+01  0.14803566196E+02  0.16572387942E+02  0.00000000000E+00 0. -1.
        1    1    5    5  501    0 -0.57238461330E+02  0.27532254690E+02 -0.84181519184E+02  0.10545517852E+03  0.00000000000E+00 0. -1.
       -2    1    5    5    0  501  0.16147066824E+02  0.49621439426E+02 -0.10705949471E+03  0.11909974989E+03  0.00000000000E+00 0.  1.
</event>
<event>
 9   1  0.7570500E-01  0.2499928E+03  0.7546771E-02  0.1113309E+00
       21   -1    0    0  503  502  0.00000000000E+00  0.00000000000E+00  0.17548373388E+03  0.17548373388E+03  0.00000000000E+00 0. -1.
       21   -1    0    0  502  503 -0.00000000000E+00 -0.00000000000E+00 -0.89034427950E+02  0.89034427950E+02  0.00000000000E+00 0. -1.
       25    2    1    2    0    0  0.00000000000E+00  0.14210854715E-13  0.86449305933E+02  0.26451816183E+03  0.24999275078E+03 0.  0.
       24    2    3    3    0    0  0.26266766117E+02  0.74200330597E+02 -0.12941841174E+02  0.11512156700E+03  0.83005131601E+02 0.  0.
      -24    2    3    3    0    0 -0.26266766117E+02 -0.74200330597E+02  0.99391147107E+02  0.14939659484E+03  0.79026010669E+02 0.  0.
      -13    1    4    4    0    0  0.24960418638E+02 -0.35678011729E+01 -0.26040517201E+02  0.36247210098E+02  0.00000000000E+00 0.  1.
       14    1    4    4    0    0  0.13063474788E+01  0.77768131770E+02  0.13098676027E+02  0.78874356900E+02  0.00000000000E+00 0. -1.
        1    1    5    5  501    0  0.69286994543E+01 -0.77124504421E+02  0.61117652276E+02  0.98648687158E+02  0.00000000000E+00 0. -1.
       -2    1    5    5    0  501 -0.33195465572E+02  0.29241738239E+01  0.38273494830E+02  0.50747907677E+02  0.00000000000E+00 0.  1.
</event>
<event>
 9   1  0.7570500E-01  0.2500016E+03  0.7546771E-02  0.1113304E+00
       21   -1    0    0  503  502  0.00000000000E+00  0.00000000000E+00  0.68184667237E+02  0.68184667237E+02  0.00000000000E+00 0. -1.
       21   -1    0    0  502  503 -0.00000000000E+00 -0.00000000000E+00 -0.22915998886E+03  0.22915998886E+03  0.00000000000E+00 0. -1.
       25    2    1    2    0    0 -0.35527136788E-14  0.00000000000E+00 -0.16097532162E+03  0.29734465610E+03  0.25000158067E+03 0.  0.
       24    2    3    3    0    0  0.26766352409E+02  0.59229442837E+02  0.42496986789E+01  0.10250093371E+03  0.79144279344E+02 0.  0.
      -24    2    3    3    0    0 -0.26766352409E+02 -0.59229442837E+02 -0.16522502030E+03  0.19484372238E+03  0.80250883479E+02 0.  0.
      -13    1    4    4    0    0  0.29452117356E+02  0.70363147989E-01  0.26125428785E+02  0.39369660869E+02  0.00000000000E+00 0.  1.
       14    1    4    4    0    0 -0.26857649475E+01  0.59159079689E+02 -0.21875730106E+02  0.63131272842E+02  0.00000000000E+00 0. -1.
        3    1    5    5  501    0  0.25392709043E+02 -0.38703264961E+02 -0.61899116827E+02  0.77293163055E+02  0.00000000000E+00 0. -1.
       -4    1    5    5    0  501 -0.52159061452E+02 -0.20526177876E+02 -0.10332590347E+03  0.11755055933E+03  0.00000000000E+00 0.  1.
</event>
<event>
 8   1  0.7570500E-01  0.2501200E+03  0.7546771E-02  0.1113229E+00
       21   -1    0    0  503  502  0.00000000000E+00  0.00000000000E+00  0.10817060960E+03  0.10817060960E+03  0.00000000000E+00 0. -1.
       21   -1    0    0  502  503 -0.00000000000E+00 -0.00000000000E+00 -0.14458649400E+03  0.14458649400E+03  0.00000000000E+00 0. -1.
       24    2    1    2    0    0  0.12400504956E+02  0.64653223778E+02 -0.88171558833E+02  0.13609419801E+03  0.80084924150E+02 0.  0.
      -24    2    1    2    0    0 -0.12400504956E+02 -0.64653223778E+02  0.51755674433E+02  0.11666290559E+03  0.81226669488E+02 0.  0.
      -13    1    3    3    0    0 -0.20901518094E+02  0.17094612144E+02 -0.70361833297E+02  0.75365023770E+02  0.00000000000E+00 0.  1.
       14    1    3    3    0    0  0.33302023051E+02  0.47558611634E+02 -0.17809725536E+02  0.60729174237E+02  0.00000000000E+00 0. -1.
        1    1    4    4  501    0 -0.13500668568E+02 -0.71575583544E+02  0.90638290971E+01  0.73399490525E+02  0.00000000000E+00 0. -1.
       -2    1    4    4    0  501  0.11001636121E+01  0.69223597658E+01  0.42691845336E+02  0.43263415062E+02  0.00000000000E+00 0.  1.
</event>
<event>
 9   1  0.7570500E-01  0.2500011E+03  0.7546771E-02  0.1113304E+00
       21   -1    0    0  503  502  0.00000000000E+00  0.00000000000E+00  0.18735104466E+02  0.18735104466E+02  0.00000000000E+00 0.  1.
       21   -1    0    0  502  503 -0.00000000000E+00 -0.00000000000E+00 -0.83400322725E+03  0.83400322725E+03  0.00000000000E+00 0.  1.
       25    2    1    2    0    0  0.14210854715E-13  0.00000000000E+00 -0.81526812279E+03  0.85273833172E+03  0.25000110070E+03 0.  0.
       24    2    3    3    0    0 -0.74131474953E+02 -0.54381004953E+02 -0.36412324616E+03  0.38424962023E+03  0.81297373701E+02 0.  0.
      -24    2    3    3    0    0  0.74131474953E+02  0.54381004953E+02 -0.45114487663E+03  0.46848871149E+03  0.86586395077E+02 0.  0.
      -13    1    4    4    0    0 -0.46628788427E+02  0.55314933858E+01 -0.81680063113E+02  0.94215041471E+02  0.00000000000E+00 0.  1.
       14    1    4    4    0    0 -0.27502686526E+02 -0.59912498339E+02 -0.28244318305E+03  0.29003457875E+03  0.00000000000E+00 0. -1.
        3    1    5    5  501    0  0.74093940731E+02  0.29955184896E+02 -0.18892710042E+03  0.20513574635E+03  0.00000000000E+00 0. -1.
       -4    1    5    5    0  501  0.37534221249E-01  0.24425820057E+02 -0.26221777620E+03  0.26335296515E+03  0.00000000000E+00 0.  1.
</event>
<event>
 9   1  0.7570500E-01  0.2500228E+03  0.7546771E-02  0.1113290E+00
       21   -1    0    0  503  502  0.00000000000E+00  0.00000000000E+00  0.95687565482E+02  0.95687565482E+02  0.00000000000E+00 0. -1.
       21   -1    0    0  502  503 -0.00000000000E+00 -0.00000000000E+00 -0.16332164467E+03  0.16332164467E+03  0.00000000000E+00 0. -1.
       25    2    1    2    0    0  0.00000000000E+00  0.00000000000E+00 -0.67634079189E+02  0.25900921015E+03  0.25002280351E+03 0.  0.
       24    2    3    3    0    0  0.27605929575E+02 -0.64890831801E+02 -0.10192013211E+03  0.14658862507E+03  0.78279015531E+02 0.  0.
      -24    2    3    3    0    0 -0.27605929575E+02  0.64890831801E+02  0.34286052921E+02  0.11242058508E+03  0.80560208076E+02 0.  0.
      -13    1    4    4    0    0  0.99729624861E+01  0.11703066668E+02 -0.50197005974E+02  0.52499153887E+02  0.00000000000E+00 0.  1.
       14    1    4    4    0    0  0.17632967089E+02 -0.76593898469E+02 -0.51723126136E+02  0.94089471187E+02  0.00000000000E+00 0. -1.
        1    1    5    5  501    0  0.13147053748E+02  0.39795561269E+02 -0.14239661381E+02  0.44263977173E+02  0.00000000000E+00 0. -1.
       -2    1    5    5    0  501 -0.40752983323E+02  0.25095270532E+02  0.48525714302E+02  0.68156607906E+02  0.00000000000E+00 0.  1.
</event>
<event>
 9   1  0.7570500E-01  0.2499990E+03  0.7546771E-02  0.1113305E+00
       21   -1    0    0  503  502  0.00000000000E+00  0.00000000000E+00  0.25952502529E+03  0.25952502529E+03  0.00000000000E+00 0.  1.
       21   -1    0    0  502  503 -0.00000000000E+00 -0.00000000000E+00 -0.60205647267E+02  0.60205647267E+02  0.00000000000E+00 0.  1.
       25    2    1    2    0    0  0.00000000000E+00  0.71054273576E-14  0.19931937803E+03  0.31973067256E+03  0.24999897704E+03 0.  0.
       24    2    3    3    0    0  0.75456902143E+02  0.39689801337E+02  0.15786781416E+03  0.19571744839E+03  0.78192380998E+02 0.  0.
      -24    2    3    3    0    0 -0.75456902143E+02 -0.39689801337E+02  0.41451563864E+02  0.12401322417E+03  0.79950129521E+02 0.  0.
      -13    1    4    4    0    0  0.16608412810E+02  0.52323997674E+02  0.85277724429E+02  0.10141957598E+03  0.00000000000E+00 0.  1.
       14    1    4    4    0    0  0.58848489332E+02 -0.12634196337E+02  0.72590089735E+02  0.94297872412E+02  0.00000000000E+00 0. -1.
        3    1    5    5  501    0 -0.56525283318E+02 -0.13125959320E+02 -0.13985933681E+02  0.59690910558E+02  0.00000000000E+00 0. -1.
       -4    1    5    5    0  501 -0.18931618825E+02 -0.26563842016E+02  0.55437497545E+02  0.64322313609E+02  0.00000000000E+00 0.  1.
</event>
<event>
 9   1  0.7570500E-01  0.2499991E+03  0.7546771E-02  0.1113305E+00
       21   -1    0    0  503  502  0.00000000000E+00  0.00000000000E+00  0.12382117574E+04  0.12382117574E+04  0.00000000000E+00 0.  1.
       21   -1    0    0  502  503 -0.00000000000E+00 -0.00000000000E+00 -0.12618917576E+02  0.12618917576E+02  0.00000000000E+00 0.  1.
       25    2    1    2    0    0  0.00000000000E+00  0.35527136788E-14  0.12255928398E+04  0.12508306749E+04  0.24999913686E+03 0.  0.
       24    2    3    3    0    0  0.30326121699E+02  0.31447375532E+02  0.17927914714E+03  0.20045941293E+03  0.78322107661E+02 0.  0.
      -24    2    3    3    0    0 -0.30326121699E+02 -0.31447375532E+02  0.10463136926E+04  0.10503712620E+04  0.81233204700E+02 0.  0.
      -13    1    4    4    0    0  0.13716748710E+02 -0.24802638677E+02  0.37328946240E+02  0.46869716320E+02  0.00000000000E+00 0.  1.
       14    1    4    4    0    0  0.16609372989E+02  0.56250014210E+02  0.14195020090E+03  0.15358969661E+03  0.00000000000E+00 0. -1.
        1    1    5    5  501    0 -0.22404818429E+02 -0.25533649283E+02  0.14211377341E+03  0.14611730811E+03  0.00000000000E+00 0. -1.
       -2    1    5    5    0  501 -0.79213032700E+01 -0.59137262490E+01  0.90419991922E+03  0.90425395389E+03  0.00000000000E+00 0.  1.
</event>
<event>
 9   1  0.7570500E-01  0.2500449E+03  0.7546771E-02  0.1113276E+00
       21   -1    0    0  503  502  0.00000000000E+00  0.00000000000E+00  0.16331376424E+02  0.16331376424E+02  0.00000000000E+00 0. -1.
       21   -1    0    0  502  503 -0.00000000000E+00 -0.00000000000E+00 -0.95709124961E+03  0.95709124961E+03  0.00000000000E+00 0. -1.
       25    2    1    2    0    0  0.00000000000E+00  0.71054273576E-14 -0.94075987319E+03  0.97342262604E+03  0.25004493572E+03 0.  0.
       24    2    3    3    0    0  0.45517110829E+02  0.55580373446E+02 -0.22301219750E+03  0.24816153177E+03  0.81784597122E+02 0.  0.
      -24    2    3    3    0    0 -0.45517110829E+02 -0.55580373446E+02 -0.71774767569E+03  0.72526109426E+03  0.75372034667E+02 0.  0.
      -13    1    4    4    0    0  0.17796139848E+02 -0.91773838623E+01 -0.74209243473E+01  0.21354088279E+02  0.00000000000E+00 0.  1.
       14    1    4    4    0    0  0.27720970981E+02  0.64757757308E+02 -0.21559127316E+03  0.22680744350E+03  0.00000000000E+00 0. -1.
        1    1    5    5  501    0  0.10750689597E+02 -0.18410412207E+02 -0.39339173777E+03  0.39396900887E+03  0.00000000000E+00 0. -1.
       -2    1    5    5    0  501 -0.56267800426E+02 -0.37169961239E+02 -0.32435593791E+03  0.33129208539E+03  0.00000000000E+00 0.  1.
</event>
<event>
 9   1  0.7570500E-01  0.2500035E+03  0.7546771E-02  0.1113303E+00
       21   -1    0    0  503  502  0.00000000000E+00  0.00000000000E+00  0.78383275861E+02  0.78383275861E+02  0.00000000000E+00 0.  1.
       21   -1    0    0  502  503 -0.00000000000E+00 -0.00000000000E+00 -0.19934658726E+03  0.19934658726E+03  0.00000000000E+00 0.  1.
       25    2    1    2    0    0  0.00000000000E+00 -0.71054273576E-14 -0.12096331140E+03  0.27772986312E+03  0.25000350831E+03 0.  0.
       24    2    3    3    0    0  0.65640222291E+02 -0.42255802172E+02 -0.10341741904E+01  0.11250399620E+03  0.81005481570E+02 0.  0.
      -24    2    3    3    0    0 -0.65640222291E+02  0.42255802172E+02 -0.11992913721E+03  0.16522586693E+03  0.82597805961E+02 0.  0.
      -13    1    4    4    0    0  0.25048669855E+02 -0.15331203963E+02  0.39440183908E+02  0.49173262889E+02  0.00000000000E+00 0.  1.
       14    1    4    4    0    0  0.40591552436E+02 -0.26924598210E+02 -0.40474358098E+02  0.63330733308E+02  0.00000000000E+00 0. -1.
        3    1    5    5  501    0 -0.63639132364E+02  0.29323362800E+01 -0.37623684813E+02  0.73987021991E+02  0.00000000000E+00 0. -1.
       -4    1    5    5    0  501 -0.20010899264E+01  0.39323465892E+02 -0.82305452398E+02  0.91238844935E+02  0.00000000000E+00 0.  1.
</event>
<event>
 9   1  0.7570500E-01  0.2499989E+03  0.7546771E-02  0.1113305E+00
       21   -1    0    0  503  502  0.00000000000E+00  0.00000000000E+00  0.27420266123E+02  0.27420266123E+02  0.00000000000E+00 0. -1.
       21   -1    0    0  502  503 -0.00000000000E+00 -0.00000000000E+00 -0.56982920404E+03  0.56982920404E+03  0.00000000000E+00 0. -1.
       25    2    1    2    0    0  0.00000000000E+00  0.00000000000E+00 -0.54240893792E+03  0.59724947016E+03  0.24999894735E+03 0.  0.
       24    2    3    3    0    0  0.13196387151E+02  0.61446774581E+02 -0.98171753517E+02  0.14167341203E+03  0.80522119618E+02 0.  0.
      -24    2    3    3    0    0 -0.13196387151E+02 -0.61446774581E+02 -0.44423718440E+03  0.45557605813E+03  0.79076026707E+02 0.  0.
      -13    1    4    4    0    0 -0.24169250432E+02  0.48962975962E+02 -0.83222624275E+02  0.99536580576E+02  0.00000000000E+00 0.  1.
       14    1    4    4    0    0  0.37365637584E+02  0.12483798619E+02 -0.14949129242E+02  0.42136831455E+02  0.00000000000E+00 0. -1.
        3    1    5    5  501    0 -0.23475639048E+02 -0.14980322267E+02 -0.33825477251E+03  0.33939918505E+03  0.00000000000E+00 0. -1.
       -4    1    5    5    0  501  0.10279251897E+02 -0.46466452314E+02 -0.10598241189E+03  0.11617687308E+03  0.00000000000E+00 0.  1.
</event>
<event>
 9   1  0.7570500E-01  0.2500023E+03  0.7546771E-02  0.1113303E+00
       21   -1    0    0  503  502  0.00000000000E+00  0.00000000000E+00  0.18612040415E+03  0.18612040415E+03  0.00000000000E+00 0.  1.
       21   -1    0    0  502  503 -0.00000000000E+00 -0.00000000000E+00 -0.83952600764E+02  0.83952600764E+02  0.00000000000E+00 0.  1.
       25    2    1    2    0    0  0.71054273576E-14 -0.71054273576E-14  0.10216780339E+03  0.27007300491E+03  0.25000233586E+03 0.  0.
       24    2    3    3    0    0 -0.30371423857E+02  0.50162246893E+02 -0.30928847605E+02  0.10497960548E+03  0.81396864509E+02 0.  0.
      -24    2    3    3    0    0  0.30371423857E+02 -0.50162246893E+02  0.13309665099E+03  0.16509339944E+03  0.78118100537E+02 0.  0.
      -13    1    4    4    0    0  0.65151666507E+01  0.22037806694E+02 -0.49843406287E+02  0.54886040763E+02  0.00000000000E+00 0.  1.
       14    1    4    4    0    0 -0.36886590507E+02  0.28124440199E+02  0.18914558683E+02  0.50093564716E+02  0.00000000000E+00 0. -1.
        3    1    5    5  501    0  0.43955515378E+02 -0.60671027898E+02  0.81454102784E+02  0.11066992283E+03  0.00000000000E+00 0. -1.
       -4    1    5    5    0  501 -0.13584091522E+02  0.10508781005E+02  0.51642548207E+02  0.54423476607E+02  0.00000000000E+00 0.  1.
</event>
<event>
 9   1  0.7570500E-01  0.2500009E+03  0.7546771E-02  0.1113304E+00
       21   -1    0    0  503  502  0.00000000000E+00  0.00000000000E+00  0.14813233491E+03  0.14813233491E+03  0.00000000000E+00 0.  1.
       21   -1    0    0  502  503 -0.00000000000E+00 -0.00000000000E+00 -0.10548074106E+03  0.10548074106E+03  0.00000000000E+00 0.  1.
       25    2    1    2    0    0  0.00000000000E+00 -0.17763568394E-14  0.42651593856E+02  0.25361307597E+03  0.25000086769E+03 0.  0.
       24    2    3    3    0    0  0.96758099952E+02  0.95267908427E+01  0.15708715360E+02  0.12650314450E+03  0.79393905179E+02 0.  0.
      -24    2    3    3    0    0 -0.96758099952E+02 -0.95267908427E+01  0.26942878496E+02  0.12710993147E+03  0.77318344052E+02 0.  0.
      -13    1    4    4    0    0  0.22772396258E+02  0.62190707607E+01 -0.30984636258E+02  0.38952619379E+02  0.00000000000E+00 0.  1.
       14    1    4    4    0    0  0.73985703694E+02  0.33077200820E+01  0.46693351618E+02  0.87550525119E+02  0.00000000000E+00 0. -1.
        3    1    5    5  501    0 -0.76007337075E+02 -0.40955122116E+02  0.15248564531E+02  0.87675287493E+02  0.00000000000E+00 0. -1.
       -4    1    5    5    0  501 -0.20750762877E+02  0.31428331273E+02  0.11694313965E+02  0.39434643978E+02  0.00000000000E+00 0.  1.
</event>
<event>
 9   1  0.7570500E-01  0.2500050E+03  0.7546771E-02  0.1113302E+00
       21   -1    0    0  503  502  0.00000000000E+00  0.00000000000E+00  0.54710758618E+02  0.54710758618E+02  0.00000000000E+00 0. -1.
       21   -1    0    0  502  503 -0.00000000000E+00 -0.00000000000E+00 -0.28560416789E+03  0.28560416789E+03  0.00000000000E+00 0. -1.
       25    2    1    2    0    0  0.00000000000E+00  0.00000000000E+00 -0.23089340927E+03  0.34031492651E+03  0.25000496547E+03 0.  0.
       24    2    3    3    0    0 -0.83234349698E+02 -0.46821402832E+02 -0.11505795350E+03  0.16886466545E+03  0.78464908351E+02 0.  0.
      -24    2    3    3    0    0  0.83234349698E+02  0.46821402832E+02 -0.11583545578E+03  0.17145026106E+03  0.82807840624E+02 0.  0.
      -13    1    4    4    0    0 -0.57915780917E+02  0.63902203251E+01 -0.84063482665E+02  0.10228265597E+03  0.00000000000E+00 0.  1.
       14    1    4    4    0    0 -0.25318568781E+02 -0.53211623157E+02 -0.30994470830E+02  0.66582009479E+02  0.00000000000E+00 0. -1.
        3    1    5    5  501    0  0.21660160699E+02  0.48785553990E+02 -0.90017648756E+02  0.10465357102E+03  0.00000000000E+00 0. -1.
       -4    1    5    5    0  501  0.61574188999E+02 -0.19641511583E+01 -0.25817807022E+02  0.66796690038E+02  0.00000000000E+00 0.  1.
</event>
<event>
 9   1  0.7570500E-01  0.2499913E+03  0.7546771E-02  0.1113310E+00
       21   -1    0    0  503  502  0.00000000000E+00  0.00000000000E+00  0.34853419686E+03  0.34853419686E+03  0.00000000000E+00 0.  1.
       21   -1    0    0  502  503 -0.00000000000E+00 -0.00000000000E+00 -0.44827494100E+02  0.44827494100E+02  0.00000000000E+00 0.  1.
       25    2    1    2    0    0  0.71054273576E-14  0.71054273576E-14  0.30370670276E+03  0.39336169096E+03  0.24999131708E+03 0.  0.
       24    2    3    3    0    0 -0.67739463199E+01 -0.50236560406E+02  0.27919605518E+03  0.29467024089E+03  0.79438751796E+02 0.  0.
      -24    2    3    3    0    0  0.67739463199E+01  0.50236560406E+02  0.24510647582E+02  0.98691450075E+02  0.81053267194E+02 0.  0.
      -13    1    4    4    0    0  0.36335033183E+02 -0.19292787242E+02  0.12562065625E+03  0.13218545893E+03  0.00000000000E+00 0.  1.
       14    1    4    4    0    0 -0.43108979503E+02 -0.30943773165E+02  0.15357539894E+03  0.16248478196E+03  0.00000000000E+00 0. -1.
        1    1    5    5  501    0  0.28437732042E+02  0.43884820223E+02 -0.13925519266E+02  0.54115636710E+02  0.00000000000E+00 0. -1.
       -2    1    5    5    0  501 -0.21663785722E+02  0.63517401833E+01  0.38436166848E+02  0.44575813365E+02  0.00000000000E+00 0.  1.
</event>
<event>
 9   1  0.7570500E-01  0.2499960E+03  0.7546771E-02  0.1113307E+00
       21   -1    0    0  503  502  0.00000000000E+00  0.00000000000E+00  0.14708986792E+03  0.14708986792E+03  0.00000000000E+00 0.  1.
       21   -1    0    0  502  503 -0.00000000000E+00 -0.00000000000E+00 -0.10622413790E+03  0.10622413790E+03  0.00000000000E+00 0.  1.
       25    2    1    2    0    0  0.00000000000E+00  0.00000000000E+00  0.40865730018E+02  0.25331400581E+03  0.24999595527E+03 0.  0.
       24    2    3    3    0    0 -0.92383011687E+02 -0.18955830358E+02  0.30612196228E+02  0.12831214478E+03  0.81442959103E+02 0.  0.
      -24    2    3    3    0    0  0.92383011687E+02  0.18955830358E+02  0.10253533790E+02  0.12500186103E+03  0.81402616380E+02 0.  0.
      -13    1    4    4    0    0 -0.27436447099E+02 -0.41628864585E+02 -0.62841910415E+01  0.50251488068E+02  0.00000000000E+00 0.  1.
       14    1    4    4    0    0 -0.64946564588E+02  0.22673034227E+02  0.36896387270E+02  0.78060656712E+02  0.00000000000E+00 0. -1.
        3    1    5    5  501    0  0.38963884265E+02 -0.28666752871E+02  0.20815930899E+02  0.52661845546E+02  0.00000000000E+00 0. -1.
       -4    1    5    5    0  501  0.53419127422E+02  0.47622583228E+02 -0.10562397108E+02  0.72340015486E+02  0.00000000000E+00 0.  1.
</event>
<event>
 9   1  0.7570500E-01  0.2500259E+03  0.7546771E-02  0.1113288E+00
       21   -1    0    0  503  502  0.00000000000E+00  0.00000000000E+00  0.18663030618E+03  0.18663030618E+03  0.00000000000E+00 0.  1.
       21   -1    0    0  502  503 -0.00000000000E+00 -0.00000000000E+00 -0.83739029972E+02  0.83739029972E+02  0.00000000000E+00 0.  1.
       25    2    1    2    0    0  0.00000000000E+00 -0.14210854715E-13  0.10289127621E+03  0.27036933615E+03  0.25002592508E+03 0.  0.
       24    2    3    3    0    0  0.34413960635E+02  0.79549677606E+02  0.52067412162E+01  0.11704331820E+03  0.78482840723E+02 0.  0.
      -24    2    3    3    0    0 -0.34413960635E+02 -0.79549677606E+02  0.97684534992E+02  0.15332601795E+03  0.80337584666E+02 0.  0.
      -13    1    4    4    0    0  0.18929609119E+02 -0.10912134846E+02  0.12155402585E+02  0.25003171805E+02  0.00000000000E+00 0.  1.
       14    1    4    4    0    0  0.15484351515E+02  0.90461812452E+02 -0.69486613692E+01  0.92040146397E+02  0.00000000000E+00 0. -1.
        3    1    5    5  501    0 -0.33941697991E+00 -0.79678437718E+02  0.47808890515E+02  0.92921787829E+02  0.00000000000E+00 0. -1.
       -4    1    5    5    0  501 -0.34074543655E+02  0.12876011280E+00  0.49875644477E+02  0.60404230120E+02  0.00000000000E+00 0.  1.
</event>
<event>
 9   1  0.7570500E-01  0.2500016E+03  0.7546771E-02  0.1113304E+00
       21   -1    0    0  503  502  0.00000000000E+00  0.00000000000E+00  0.60871512244E+03  0.60871512244E+03  0.00000000000E+00 0. -1.
       21   -1    0    0  502  503 -0.00000000000E+00 -0.00000000000E+00 -0.25669147441E+02  0.25669147441E+02  0.00000000000E+00 0. -1.
       25    2    1    2    0    0 -0.14210854715E-13 -0.35527136788E-14  0.58304597500E+03  0.63438426989E+03  0.25000158582E+03 0.  0.
       24    2    3    3    0    0  0.83562227088E+02 -0.99089145324E+01  0.17433698211E+03  0.20933493193E+03  0.79667421280E+02 0.  0.
      -24    2    3    3    0    0 -0.83562227088E+02  0.99089145324E+01  0.40870899290E+03  0.42504933796E+03  0.80889223251E+02 0.  0.
      -13    1    4    4    0    0  0.69671768326E+02 -0.39888609844E+02  0.10196477990E+03  0.12977701197E+03  0.00000000000E+00 0.  1.
       14    1    4    4    0    0  0.13890458762E+02  0.29979695311E+02  0.72372202206E+02  0.79557919956E+02  0.00000000000E+00 0. -1.
        1    1    5    5  501    0 -0.39050758564E+02 -0.27021620062E+02  0.27923635755E+03  0.28324560556E+03  0.00000000000E+00 0. -1.
       -2    1    5    5    0  501 -0.44511468524E+02  0.36930534594E+02  0.12947263535E+03  0.14180373239E+03  0.00000000000E+00 0.  1.
</event>
<event>
 9   1  0.7570500E-01  0.2499960E+03  0.7546771E-02  0.1113307E+00
       21   -1    0    0  503  502  0.00000000000E+00  0.00000000000E+00  0.19720084335E+03  0.19720084335E+03  0.00000000000E+00 0. -1.
       21   -1    0    0  502  503 -0.00000000000E+00 -0.00000000000E+00 -0.79231437029E+02  0.79231437029E+02  0.00000000000E+00 0. -1.
       25    2    1    2    0    0  0.00000000000E+00  0.00000000000E+00  0.11796940632E+03  0.27643228038E+03  0.24999604959E+03 0.  0.
       24    2    3    3    0    0 -0.11129684384E+02  0.55496962021E+02  0.14590337288E+03  0.17605968627E+03  0.80656284597E+02 0.  0.
      -24    2    3    3    0    0  0.11129684384E+02 -0.55496962021E+02 -0.27933966559E+02  0.10037259411E+03  0.78042094359E+02 0.  0.
      -13    1    4    4    0    0  0.67368038104E+00  0.17937721024E+02  0.13361628614E+03  0.13481664438E+03  0.00000000000E+00 0.  1.
       14    1    4    4    0    0 -0.11803364765E+02  0.37559240997E+02  0.12287086744E+02  0.41243041894E+02  0.00000000000E+00 0. -1.
        1    1    5    5  501    0 -0.16444373706E+02 -0.21243320148E+02 -0.45647340728E+02  0.52965798332E+02  0.00000000000E+00 0. -1.
       -2    1    5    5    0  501  0.27574058090E+02 -0.34253641873E+02  0.17713374169E+02  0.47406795774E+02  0.00000000000E+00 0.  1.
</event>
<event>
 9   1  0.7570500E-01  0.2499968E+03  0.7546771E-02  0.1113307E+00
       21   -1    0    0  503  502  0.00000000000E+00  0.00000000000E+00  0.15808984748E+02  0.15808984748E+02  0.00000000000E+00 0. -1.
       21   -1    0    0  502  503 -0.00000000000E+00 -0.00000000000E+00 -0.98833698406E+03  0.98833698406E+03  0.00000000000E+00 0. -1.
       25    2    1    2    0    0  0.00000000000E+00  0.00000000000E+00 -0.97252799931E+03  0.10041459688E+04  0.24999683444E+03 0.  0.
       24    2    3    3    0    0  0.22988698835E+02 -0.90397396784E+02 -0.53327068902E+03  0.54744256101E+03  0.81336094142E+02 0.  0.
      -24    2    3    3    0    0 -0.22988698835E+02  0.90397396784E+02 -0.43925731028E+03  0.45670340780E+03  0.83251717318E+02 0.  0.
      -13    1    4    4    0    0  0.45894429581E+02 -0.65767107569E+02 -0.45841736430E+03  0.46537951287E+03  0.00000000000E+00 0.  1.
       14    1    4    4    0    0 -0.22905730746E+02 -0.24630289215E+02 -0.74853324724E+02  0.82063048140E+02  0.00000000000E+00 0. -1.
        1    1    5    5  501    0  0.82076754890E+01  0.91130304751E+02 -0.36193920396E+03  0.37332571000E+03  0.00000000000E+00 0. -1.
       -2    1    5    5    0  501 -0.31196374324E+02 -0.73290796743E+00 -0.77318106323E+02  0.83377697801E+02  0.00000000000E+00 0.  1.
</event>
<event>
 9   1  0.7570500E-01  0.2499816E+03  0.7546771E-02  0.1113316E+00
       21   -1    0    0  503  502  0.00000000000E+00  0.00000000000E+00  0.75864917406E+03  0.75864917406E+03  0.00000000000E+00 0.  1.
       21   -1    0    0  502  503 -0.00000000000E+00 -0.00000000000E+00 -0.20592779979E+02  0.20592779979E+02  0.00000000000E+00 0.  1.
       25    2    1    2    0    0  0.00000000000E+00  0.00000000000E+00  0.73805639409E+03  0.77924195404E+03  0.24998156350E+03 0.  0.
       24    2    3    3    0    0  0.17919422088E+02  0.65766800407E+02  0.57784558897E+03  0.58770158458E+03  0.82711849849E+02 0.  0.
      -24    2    3    3    0    0 -0.17919422088E+02 -0.65766800407E+02  0.16021080512E+03  0.19154036946E+03  0.79836290832E+02 0.  0.
      -13    1    4    4    0    0  0.50534414995E+02  0.45464450471E+02  0.40217402315E+03  0.40787827627E+03  0.00000000000E+00 0.  1.
       14    1    4    4    0    0 -0.32614992908E+02  0.20302349936E+02  0.17567156582E+03  0.17982330831E+03  0.00000000000E+00 0. -1.
        3    1    5    5  501    0 -0.28030234393E+02 -0.13835188225E+02  0.12286903319E+03  0.12678290812E+03  0.00000000000E+00 0. -1.
       -4    1    5    5    0  501  0.10110812305E+02 -0.51931612181E+02  0.37341771926E+02  0.64757461344E+02  0.00000000000E+00 0.  1.
</event>
<event>
 9   1  0.7570500E-01  0.2500066E+03  0.7546771E-02  0.1113301E+00
       21   -1    0    0  503  502  0.00000000000E+00  0.00000000000E+00  0.78766286237E+03  0.78766286237E+03  0.00000000000E+00 0.  1.
       21   -1    0    0  502  503 -0.00000000000E+00 -0.00000000000E+00 -0.19838215211E+02  0.19838215211E+02  0.00000000000E+00 0.  1.
       25    2    1    2    0    0  0.17763568394E-14  0.00000000000E+00  0.76782464716E+03  0.80750107758E+03  0.25000660293E+03 0.  0.
       24    2    3    3    0    0  0.13771237399E+02 -0.95730501132E+02  0.33164830940E+03  0.35481925518E+03  0.80945209197E+02 0.  0.
      -24    2    3    3    0    0 -0.13771237399E+02  0.95730501132E+02  0.43617633776E+03  0.45268182240E+03  0.72918165674E+02 0.  0.
      -13    1    4    4    0    0 -0.32173411557E+02 -0.59216402673E+02  0.17281108404E+03  0.18548687696E+03  0.00000000000E+00 0.  1.
       14    1    4    4    0    0  0.45944648956E+02 -0.36514098459E+02  0.15883722536E+03  0.16933237822E+03  0.00000000000E+00 0. -1.
        1    1    5    5  501    0 -0.11698352374E+02  0.94168162265E+02  0.26485522218E+03  0.28134104384E+03  0.00000000000E+00 0. -1.
       -2    1    5    5    0  501 -0.20728850253E+01  0.15623388669E+01  0.17132111557E+03  0.17134077856E+03  0.00000000000E+00 0.  1.
</event>
<event>
 9   1  0.7570500E-01  0.2500049E+03  0.7546771E-02  0.1113302E+00
       21   -1    0    0  503  502  0.00000000000E+00  0.00000000000E+00  0.23170173572E+02  0.23170173572E+02  0.00000000000E+00 0.  1.
       21   -1    0    0  502  503 -0.00000000000E+00 -0.00000000000E+00 -0.67438502132E+03  0.67438502132E+03  0.00000000000E+00 0.  1.
       25    2    1    2    0    0  0.00000000000E+00  0.00000000000E+00 -0.65121484774E+03  0.69755519489E+03  0.25000494394E+03 0.  0.
       24    2    3    3    0    0 -0.78539967435E+02  0.11181536331E+02 -0.21038824030E+03  0.24251499810E+03  0.90866712322E+02 0.  0.
      -24    2    3    3    0    0  0.78539967435E+02 -0.11181536331E+02 -0.44082660744E+03  0.45504019679E+03  0.80249172098E+02 0.  0.
      -13    1    4    4    0    0 -0.34536878832E+02 -0.40034763990E+02 -0.85041465870E+02  0.10013805093E+03  0.00000000000E+00 0.  1.
       14    1    4    4    0    0 -0.44003088602E+02  0.51216300321E+02 -0.12534677443E+03  0.14237694717E+03  0.00000000000E+00 0. -1.
        1    1    5    5  501    0  0.66903478392E+02 -0.41375310527E+02 -0.34651971430E+03  0.35533632539E+03  0.00000000000E+00 0. -1.
       -2    1    5    5    0  501  0.11636489042E+02  0.30193774196E+02 -0.94306893139E+02  0.99703871393E+02  0.00000000000E+00 0.  1.
</event>
<event>
 9   1  0.7570500E-01  0.2500008E+03  0.7546771E-02  0.1113304E+00
       21   -1    0    0  503  502  0.00000000000E+00  0.00000000000E+00  0.16435623908E+03  0.16435623908E+03  0.00000000000E+00 0.  1.
       21   -1    0    0  502  503 -0.00000000000E+00 -0.00000000000E+00 -0.95068510333E+02  0.95068510333E+02  0.00000000000E+00 0.  1.
       25    2    1    2    0    0  0.00000000000E+00  0.00000000000E+00  0.69287728746E+02  0.25942474941E+03  0.25000082250E+03 0.  0.
       24    2    3    3    0    0  0.89810469902E+02 -0.34916172815E+02  0.38890085849E+02  0.13090385463E+03  0.79613571401E+02 0.  0.
      -24    2    3    3    0    0 -0.89810469902E+02  0.34916172815E+02  0.30397642897E+02  0.12852089478E+03  0.79426343706E+02 0.  0.
      -13    1    4    4    0    0  0.25703010525E+02 -0.52338073393E+02  0.14037587957E+02  0.59974765962E+02  0.00000000000E+00 0.  1.
       14    1    4    4    0    0  0.64107459377E+02  0.17421900578E+02  0.24852497892E+02  0.70929088666E+02  0.00000000000E+00 0. -1.
        1    1    5    5  501    0 -0.33820002282E+02 -0.24416362414E+02  0.74602783819E+00  0.41719394356E+02  0.00000000000E+00 0. -1.
       -2    1    5    5    0  501 -0.55990467619E+02  0.59332535229E+02  0.29651615058E+02  0.86801500428E+02  0.00000000000E+00 0.  1.
</event>
<event>
 9   1  0.7570500E-01  0.2499793E+03  0.7546771E-02  0.1113318E+00
       21   -1    0    0  503  502  0.00000000000E+00  0.00000000000E+00  0.60651888801E+02  0.60651888801E+02  0.00000000000E+00 0. -1.
       21   -1    0    0  502  503 -0.00000000000E+00 -0.00000000000E+00 -0.25757511585E+03  0.25757511585E+03  0.00000000000E+00 0. -1.
       25    2    1    2    0    0  0.00000000000E+00  0.00000000000E+00 -0.19692322705E+03  0.31822700465E+03  0.24997933742E+03 0.  0.
       24    2    3    3    0    0 -0.29055425323E+02 -0.56710565652E+02 -0.13050086612E+02  0.10530982816E+03  0.82822395216E+02 0.  0.
      -24    2    3    3    0    0  0.29055425323E+02  0.56710565652E+02 -0.18387314043E+03  0.21291717649E+03  0.86394943560E+02 0.  0.
      -13    1    4    4    0    0 -0.49072393982E+02 -0.54165106260E+01 -0.80421896902E+01  0.50021148063E+02  0.00000000000E+00 0.  1.
       14    1    4    4    0    0  0.20016968659E+02 -0.51294055026E+02 -0.50078969213E+01  0.55288680097E+02  0.00000000000E+00 0. -1.
        3    1    5    5  501    0 -0.29389749604E+02  0.32607217431E+02 -0.82333813005E+02  0.93305116549E+02  0.00000000000E+00 0. -1.
       -4    1    5    5    0  501  0.58445174927E+02  0.24103348221E+02 -0.10153932743E+03  0.11961205994E+03  0.00000000000E+00 0.  1.
</event>
<event>
 9   1  0.7570500E-01  0.2499963E+03  0.7546771E-02  0.1113307E+00
       21   -1    0    0  503  502  0.00000000000E+00  0.00000000000E+00  0.12568334628E+03  0.12568334628E+03  0.00000000000E+00 0.  1.
       21   -1    0    0  502  503 -0.00000000000E+00 -0.00000000000E+00 -0.12431666251E+03  0.12431666251E+03  0.00000000000E+00 0.  1.
       25    2    1    2    0    0  0.00000000000E+00 -0.35527136788E-14  0.13666837782E+01  0.25000000879E+03  0.24999627311E+03 0.  0.
       24    2    3    3    0    0 -0.27965392864E+02 -0.31895112540E+02 -0.83646342814E+02  0.12373982312E+03  0.80718472227E+02 0.  0.
      -24    2    3    3    0    0  0.27965392864E+02  0.31895112540E+02  0.85013026592E+02  0.12626018567E+03  0.83156830098E+02 0.  0.
      -13    1    4    4    0    0 -0.49827750351E+02 -0.62520041288E+01 -0.72603568944E+02  0.88278935676E+02  0.00000000000E+00 0.  1.
       14    1    4    4    0    0  0.21862357487E+02 -0.25643108412E+02 -0.11042773870E+02  0.35460887448E+02  0.00000000000E+00 0. -1.
        1    1    5    5  501    0 -0.12793373469E+02  0.21122746314E+02 -0.64717846901E+01  0.25528901536E+02  0.00000000000E+00 0. -1.
       -2    1    5    5    0  501  0.40758766333E+02  0.10772366227E+02  0.91484811282E+02  0.10073128413E+03  0.00000000000E+00 0.  1.
</event>
<event>
 9   1  0.7570500E-01  0.2500110E+03  0.7546771E-02  0.1113298E+00
       21   -1    0    0  503  502  0.00000000000E+00  0.00000000000E+00  0.15328113912E+02  0.15328113912E+02  0.00000000000E+00 0. -1.
       21   -1    0    0  502  503 -0.00000000000E+00 -0.00000000000E+00 -0.10194586947E+04  0.10194586947E+04  0.00000000000E+00 0. -1.
       25    2    1    2    0    0 -0.71054273576E-14  0.00000000000E+00 -0.10041305808E+04  0.10347868086E+04  0.25001103176E+03 0.  0.
       24    2    3    3    0    0  0.55119062918E+02  0.17139671978E+02 -0.78689908291E+03  0.79553795403E+03  0.10167885796E+03 0.  0.
      -24    2    3    3    0    0 -0.55119062918E+02 -0.17139671978E+02 -0.21723149786E+03  0.23924885458E+03  0.81967135477E+02 0.  0.
      -13    1    4    4    0    0  0.40847023452E+02 -0.14259416568E+02 -0.70931006730E+03  0.71062830077E+03  0.00000000000E+00 0.  1.
       14    1    4    4    0    0  0.14272039466E+02  0.31399088546E+02 -0.77589015613E+02  0.84909653255E+02  0.00000000000E+00 0. -1.
        1    1    5    5  501    0 -0.26318604223E+02 -0.18002979551E+02 -0.20579186814E+03  0.20824761509E+03  0.00000000000E+00 0. -1.
       -2    1    5    5    0  501 -0.28800458695E+02  0.86330757328E+00 -0.11439629727E+02  0.31001239480E+02  0.00000000000E+00 0.  1.
</event>
<event>
 9   1  0.7570500E-01  0.2499910E+03  0.7546771E-02  0.1113311E+00
       21   -1    0    0  503  502  0.00000000000E+00  0.00000000000E+00  0.39710564558E+03  0.39710564558E+03  0.00000000000E+00 0. -1.
       21   -1    0    0  502  503 -0.00000000000E+00 -0.00000000000E+00 -0.39344367771E+02  0.39344367771E+02  0.00000000000E+00 0. -1.
       25    2    1    2    0    0  0.28421709430E-13  0.35527136788E-14  0.35776127781E+03  0.43645001336E+03  0.24999096435E+03 0.  0.
       24    2    3    3    0    0 -0.96004673808E+02 -0.39086273825E+01  0.19429237574E+03  0.23146364834E+03  0.81201714701E+02 0.  0.
      -24    2    3    3    0    0  0.96004673808E+02  0.39086273825E+01  0.16346890207E+03  0.20498636502E+03  0.77879093069E+02 0.  0.
      -13    1    4    4    0    0 -0.63712580965E+02  0.43813572301E+01  0.18663134813E+03  0.19725554332E+03  0.00000000000E+00 0.  1.
       14    1    4    4    0    0 -0.32292092843E+02 -0.82899846126E+01  0.76610276088E+01  0.34208105020E+02  0.00000000000E+00 0. -1.
        1    1    5    5  501    0  0.40887599375E+02  0.37735251797E+02  0.52218459960E+02  0.76305390186E+02  0.00000000000E+00 0. -1.
       -2    1    5    5    0  501  0.55117074433E+02 -0.33826624415E+02  0.11125044211E+03  0.12868097483E+03  0.00000000000E+00 0.  1.
</event>
<event>
 9   1  0.7570500E-01  0.2500061E+03  0.7546771E-02  0.1113301E+00
       21   -1    0    0  503  502  0.00000000000E+00  0.00000000000E+00  0.58237117296E+02  0.58237117296E+02  0.00000000000E+00 0.  1.
       21   -1    0    0  502  503 -0.00000000000E+00 -0.00000000000E+00 -0.26831271882E+03  0.26831271882E+03  0.00000000000E+00 0.  1.
       25    2    1    2    0    0  0.00000000000E+00  0.71054273576E-14 -0.21007560152E+03  0.32654983612E+03  0.25000607415E+03 0.  0.
       24    2    3    3    0    0 -0.26715727926E+02  0.60645285398E+02 -0.19042533782E+03  0.22022589859E+03  0.88577967704E+02 0.  0.
      -24    2    3    3    0    0  0.26715727926E+02 -0.60645285398E+02 -0.19650263700E+02  0.10632393753E+03  0.80790259741E+02 0.  0.
      -13    1    4    4    0    0 -0.58854326005E+02  0.46382744086E+02 -0.11925397426E+03  0.14084282380E+03  0.00000000000E+00 0.  1.
       14    1    4    4    0    0  0.32138598079E+02  0.14262541312E+02 -0.71171363567E+02  0.79383074791E+02  0.00000000000E+00 0. -1.
        3    1    5    5  501    0 -0.23685168637E+01 -0.15576686082E+02  0.29582327732E+02  0.33516520337E+02  0.00000000000E+00 0. -1.
       -4    1    5    5    0  501  0.29084244790E+02 -0.45068599317E+02 -0.49232591432E+02  0.72807417194E+02  0.00000000000E+00 0.  1.
</event>
<event>
 9   1  0.7570500E-01  0.2499994E+03  0.7546771E-02  0.1113305E+00
       21   -1    0    0  503  502  0.00000000000E+00  0.00000000000E+00  0.69027928834E+02  0.69027928834E+02  0.00000000000E+00 0.  1.
       21   -1    0    0  502  503 -0.00000000000E+00 -0.00000000000E+00 -0.22635648864E+03  0.22635648864E+03  0.00000000000E+00 0.  1.
       25    2    1    2    0    0 -0.35527136788E-14 -0.35527136788E-14 -0.15732855981E+03  0.29538441748E+03  0.24999935671E+03 0.  0.
       24    2    3    3    0    0  0.10425841041E+02 -0.29875205360E+02 -0.18452429056E+03  0.20537515918E+03  0.84430540352E+02 0.  0.
      -24    2    3    3    0    0 -0.10425841041E+02  0.29875205360E+02  0.27195730749E+02  0.90009258300E+02  0.79754829020E+02 0.  0.
      -13    1    4    4    0    0  0.34824408619E+02 -0.15053923428E+02 -0.16833361804E+03  0.17255598224E+03  0.00000000000E+00 0.  1.
       14    1    4    4    0    0 -0.24398567578E+02 -0.14821281932E+02 -0.16190672521E+02  0.32819176934E+02  0.00000000000E+00 0. -1.
        1    1    5    5  501    0  0.33101955001E+02  0.94027733389E+01  0.23694474988E+02  0.41780135427E+02  0.00000000000E+00 0. -1.
       -2    1    5    5    0  501 -0.43527796042E+02  0.20472432021E+02  0.35012557615E+01  0.48229122873E+02  0.00000000000E+00 0.  1.
</event>
<event>
 9   1  0.7570500E-01  0.2499937E+03  0.7546771E-02  0.1113309E+00
       21   -1    0    0  503  502  0.00000000000E+00  0.00000000000E+00  0.23621017009E+03  0.23621017009E+03  0.00000000000E+00 0.  1.
       21   -1    0    0  502  503 -0.00000000000E+00 -0.00000000000E+00 -0.66145389510E+02  0.66145389510E+02  0.00000000000E+00 0.  1.
       25    2    1    2    0    0  0.00000000000E+00  0.00000000000E+00  0.17006478058E+03  0.30235555960E+03  0.24999370957E+03 0.  0.
       24    2    3    3    0    0  0.82187103138E+02 -0.31915399952E+02  0.10306028883E+03  0.15731916971E+03  0.79715653093E+02 0.  0.
      -24    2    3    3    0    0 -0.82187103138E+02  0.31915399952E+02  0.67004491746E+02  0.14503638989E+03  0.93662371318E+02 0.  0.
      -13    1    4    4    0    0  0.54264399355E+02 -0.22072379029E+02  0.11199716976E+03  0.12639296257E+03  0.00000000000E+00 0.  1.
       14    1    4    4    0    0  0.27922703783E+02 -0.98430209233E+01 -0.89368809258E+01  0.30926207141E+02  0.00000000000E+00 0. -1.
        1    1    5    5  501    0 -0.71853250895E+02 -0.16803082409E+02  0.59247526645E+02  0.94633517614E+02  0.00000000000E+00 0. -1.
       -2    1    5    5    0  501 -0.10333852244E+02  0.48718482361E+02  0.77569651017E+01  0.50402872273E+02  0.00000000000E+00 0.  1.
</event>
<event>
 9   1  0.7570500E-01  0.2500046E+03  0.7546771E-02  0.1113302E+00
       21   -1    0    0  503  502  0.00000000000E+00  0.00000000000E+00  0.57205019849E+02  0.57205019849E+02  0.00000000000E+00 0. -1.
       21   -1    0    0  502  503 -0.00000000000E+00 -0.00000000000E+00 -0.27315044028E+03  0.27315044028E+03  0.00000000000E+00 0. -1.
       25    2    1    2    0    0  0.00000000000E+00  0.35527136788E-14 -0.21594542043E+03  0.33035546013E+03  0.25000461082E+03 0.  0.
       24    2    3    3    0    0 -0.10605530724E+02  0.18888513963E+02  0.13135821608E+02  0.86978890538E+02  0.83207718081E+02 0.  0.
      -24    2    3    3    0    0  0.10605530724E+02 -0.18888513963E+02 -0.22908124204E+03  0.24337656959E+03  0.79276011066E+02 0.  0.
      -13    1    4    4    0    0 -0.29041177288E+02  0.29270041351E+02 -0.21416889831E+02  0.46462979553E+02  0.00000000000E+00 0.  1.
       14    1    4    4    0    0  0.18435646564E+02 -0.10381527388E+02  0.34552711439E+02  0.40515910984E+02  0.00000000000E+00 0. -1.
        3    1    5    5  501    0 -0.29353114953E+02 -0.88107818901E+01 -0.16023154680E+03  0.16313608989E+03  0.00000000000E+00 0. -1.
       -4    1    5    5    0  501  0.39958645677E+02 -0.10077732073E+02 -0.68849695234E+02  0.80240479696E+02  0.00000000000E+00 0.  1.
</event>
<event>
 9   1  0.7570500E-01  0.2499985E+03  0.7546771E-02  0.1113306E+00
       21   -1    0    0  503  502  0.00000000000E+00  0.00000000000E+00  0.19159949926E+02  0.19159949926E+02  0.00000000000E+00 0.  1.
       21   -1    0    0  502  503 -0.00000000000E+00 -0.00000000000E+00 -0.81549332318E+03  0.81549332318E+03  0.00000000000E+00 0.  1.
       25    2    1    2    0    0  0.14210854715E-13  0.00000000000E+00 -0.79633337325E+03  0.83465327311E+03  0.24999848989E+03 0.  0.
       24    2    3    3    0    0 -0.57736378249E+02 -0.75363068050E+02 -0.41063718986E+03  0.42926798593E+03  0.81455636056E+02 0.  0.
      -24    2    3    3    0    0  0.57736378249E+02  0.75363068050E+02 -0.38569618339E+03  0.40538528718E+03  0.81009899263E+02 0.  0.
      -13    1    4    4    0    0 -0.55257364298E+02 -0.97728721511E+01 -0.23923370090E+03  0.24572677711E+03  0.00000000000E+00 0.  1.
       14    1    4    4    0    0 -0.24790139511E+01 -0.65590195899E+02 -0.17140348896E+03  0.18354120882E+03  0.00000000000E+00 0. -1.
        3    1    5    5  501    0  0.18751891274E+01  0.68391713805E+02 -0.21925486357E+03  0.22968160146E+03  0.00000000000E+00 0. -1.
       -4    1    5    5    0  501  0.55861189122E+02  0.69713542457E+01 -0.16644131982E+03  0.17570368572E+03  0.00000000000E+00 0.  1.
</event>
<event>
 9   1  0.7570500E-01  0.2499941E+03  0.7546771E-02  0.1113309E+00
       21   -1    0    0  503  502  0.00000000000E+00  0.00000000000E+00  0.45094197697E+02  0.45094197697E+02  0.00000000000E+00 0. -1.
       21   -1    0    0  502  503 -0.00000000000E+00 -0.00000000000E+00 -0.34648041786E+03  0.34648041786E+03  0.00000000000E+00 0. -1.
       25    2    1    2    0    0  0.00000000000E+00  0.71054273576E-14 -0.30138622016E+03  0.39157461556E+03  0.24999405162E+03 0.  0.
       24    2    3    3    0    0  0.38984724465E+02  0.42863693559E+02 -0.26714548980E+03  0.28382070688E+03  0.76356898609E+02 0.  0.
      -24    2    3    3    0    0 -0.38984724465E+02 -0.42863693559E+02 -0.34240730365E+02  0.10775390868E+03  0.84150889795E+02 0.  0.
      -13    1    4    4    0    0  0.44474186927E+02  0.47605089825E+02 -0.12039474731E+03  0.13689080707E+03  0.00000000000E+00 0.  1.
       14    1    4    4    0    0 -0.54894624623E+01 -0.47413962663E+01 -0.14675074249E+03  0.14692989981E+03  0.00000000000E+00 0. -1.
        1    1    5    5  501    0 -0.70090866652E+01 -0.43993561718E+02  0.16718980133E+02  0.47582402894E+02  0.00000000000E+00 0. -1.
       -2    1    5    5    0  501 -0.31975637800E+02  0.11298681592E+01 -0.50959710498E+02  0.60171505788E+02  0.00000000000E+00 0.  1.
</event>
<event>
 9   1  0.7570500E-01  0.2499923E+03  0.7546771E-02  0.1113310E+00
       21   -1    0    0  503  502  0.00000000000E+00  0.00000000000E+00  0.72054725868E+02  0.72054725868E+02  0.00000000000E+00 0. -1.
       21   -1    0    0  502  503 -0.00000000000E+00 -0.00000000000E+00 -0.21683565787E+03  0.21683565787E+03  0.00000000000E+00 0. -1.
       25    2    1    2    0    0  0.00000000000E+00  0.00000000000E+00 -0.14478093200E+03  0.28889038374E+03  0.24999227097E+03 0.  0.
       24    2    3    3    0    0 -0.65827699244E+02  0.18708471655E+02 -0.14564281432E+03  0.18033025073E+03  0.81387204558E+02 0.  0.
      -24    2    3    3    0    0  0.65827699244E+02 -0.18708471655E+02  0.86188231400E+00  0.10856013301E+03  0.84269014111E+02 0.  0.
      -13    1    4    4    0    0 -0.25098211081E+02 -0.23917832670E+02 -0.16561401607E+02  0.38422167329E+02  0.00000000000E+00 0.  1.
       14    1    4    4    0    0 -0.40729488164E+02  0.42626304325E+02 -0.12908141271E+03  0.14190808340E+03  0.00000000000E+00 0. -1.
        1    1    5    5  501    0 -0.15006079645E+01 -0.34541864171E+02 -0.14857044655E+02  0.37631422781E+02  0.00000000000E+00 0. -1.
       -2    1    5    5    0  501  0.67328307209E+02  0.15833392516E+02  0.15718926969E+02  0.70928710232E+02  0.00000000000E+00 0.  1.
</event>
<event>
 9   1  0.7570500E-01  0.2500013E+03  0.7546771E-02  0.1113304E+00
       21   -1    0    0  503  502  0.00000000000E+00  0.00000000000E+00  0.94992783063E+01  0.94992783063E+01  0.00000000000E+00 0. -1.
       21   -1    0    0  502  503 -0.00000000000E+00 -0.00000000000E+00 -0.16448786440E+04  0.16448786440E+04  0.00000000000E+00 0. -1.
       25    2    1    2    0    0 -0.71054273576E-14  0.88817841970E-15 -0.16353793657E+04  0.16543779223E+04  0.25000128015E+03 0.  0.
       24    2    3    3    0    0 -0.60213443522E+02 -0.22160288797E+01 -0.33228893340E+03  0.34721377145E+03  0.80690137287E+02 0.  0.
      -24    2    3    3    0    0  0.60213443522E+02  0.22160288797E+01 -0.13030904323E+04  0.13071641509E+04  0.83683170353E+02 0.  0.
      -13    1    4    4    0    0 -0.47613697914E+02  0.37366847317E+01 -0.32957403258E+03  0.33301662120E+03  0.00000000000E+00 0.  1.
       14    1    4    4    0    0 -0.12599745607E+02 -0.59527136114E+01 -0.27149008210E+01  0.14197150249E+02  0.00000000000E+00 0. -1.
        3    1    5    5  501    0  0.31498531723E+02 -0.36119477557E+02 -0.89318699848E+03  0.89447179297E+03  0.00000000000E+00 0. -1.
       -4    1    5    5    0  501  0.28714911799E+02  0.38335506437E+02 -0.40990343383E+03  0.41269235791E+03  0.00000000000E+00 0.  1.
</event>
<event>
 9   1  0.7570500E-01  0.2500017E+03  0.7546771E-02  0.1113304E+00
       21   -1    0    0  503  502  0.00000000000E+00  0.00000000000E+00  0.92548331106E+01  0.92548331106E+01  0.00000000000E+00 0.  1.
       21   -1    0    0  502  503 -0.00000000000E+00 -0.00000000000E+00 -0.16883297873E+04  0.16883297873E+04  0.00000000000E+00 0.  1.
       25    2    1    2    0    0  0.00000000000E+00  0.00000000000E+00 -0.16790749542E+04  0.16975846204E+04  0.25000168333E+03 0.  0.
       24    2    3    3    0    0 -0.93094123354E+02 -0.13522191271E+02 -0.71496205223E+03  0.72546789666E+03  0.79268956635E+02 0.  0.
      -24    2    3    3    0    0  0.93094123354E+02  0.13522191271E+02 -0.96411290193E+03  0.97211672373E+03  0.81534479968E+02 0.  0.
      -13    1    4    4    0    0 -0.38562684923E+02 -0.11837969672E+02 -0.55487983564E+03  0.55634418321E+03  0.00000000000E+00 0.  1.
       14    1    4    4    0    0 -0.54531438431E+02 -0.16842215992E+01 -0.16008221659E+03  0.16912371344E+03  0.00000000000E+00 0. -1.
        3    1    5    5  501    0  0.19349741172E+02 -0.29851086400E+02 -0.19101172666E+03  0.19429611310E+03  0.00000000000E+00 0. -1.
       -4    1    5    5    0  501  0.73744382181E+02  0.43373277672E+02 -0.77310117527E+03  0.77782061063E+03  0.00000000000E+00 0.  1.
</event>
<event>
 9   1  0.7570500E-01  0.2499933E+03  0.7546771E-02  0.1113309E+00
       21   -1    0    0  503  502  0.00000000000E+00  0.00000000000E+00  0.42695521379E+01  0.42695521379E+01  0.00000000000E+00 0.  1.
       21   -1    0    0  502  503 -0.00000000000E+00 -0.00000000000E+00 -0.36594393290E+04  0.36594393290E+04  0.00000000000E+00 0.  1.
       25    2    1    2    0    0  0.00000000000E+00 -0.17763568394E-14 -0.36551697769E+04  0.36637088812E+04  0.24999333600E+03 0.  0.
       24    2    3    3    0    0 -0.68431479136E+02  0.10173305829E+02 -0.85669290774E+03  0.86317358102E+03  0.79746657129E+02 0.  0.
      -24    2    3    3    0    0  0.68431479136E+02 -0.10173305829E+02 -0.27984768692E+04  0.28005353002E+04  0.82090295804E+02 0.  0.
      -13    1    4    4    0    0 -0.22265618718E+02  0.39300008717E+02 -0.53298484382E+03  0.53489540305E+03  0.00000000000E+00 0.  1.
       14    1    4    4    0    0 -0.46165860419E+02 -0.29126702888E+02 -0.32370806391E+03  0.32827817797E+03  0.00000000000E+00 0. -1.
        1    1    5    5  501    0  0.62749354354E+02  0.14017449738E+02 -0.25518239004E+04  0.25526337750E+04  0.00000000000E+00 0. -1.
       -2    1    5    5    0  501  0.56821247826E+01 -0.24190755567E+02 -0.24665296876E+03  0.24790152519E+03  0.00000000000E+00 0.  1.
</event>
<event>
 9   1  0.7570500E-01  0.2500077E+03  0.7546771E-02  0.1113300E+00
       21   -1    0    0  503  502  0.00000000000E+00  0.00000000000E+00  0.31325074755E+03  0.31325074755E+03  0.00000000000E+00 0. -1.
       21   -1    0    0  502  503 -0.00000000000E+00 -0.00000000000E+00 -0.49883245332E+02  0.49883245332E+02  0.00000000000E+00 0. -1.
       25    2    1    2    0    0  0.35527136788E-14  0.00000000000E+00  0.26336750222E+03  0.36313399288E+03  0.25000771100E+03 0.  0.
       24    2    3    3    0    0  0.37978620714E+01 -0.14435627417E+02  0.27052031729E+03  0.28242807397E+03  0.79759411985E+02 0.  0.
      -24    2    3    3    0    0 -0.37978620714E+01  0.14435627417E+02 -0.71528150762E+01  0.80705918915E+02  0.78990325289E+02 0.  0.
      -13    1    4    4    0    0 -0.37407420169E+02 -0.89671961879E+01  0.10689990454E+03  0.11361036608E+03  0.00000000000E+00 0.  1.
       14    1    4    4    0    0  0.41205282241E+02 -0.54684312288E+01  0.16362041275E+03  0.16881770788E+03  0.00000000000E+00 0. -1.
        1    1    5    5  501    0  0.19268394662E+02  0.40888695567E+02 -0.21338845342E+01  0.45251628934E+02  0.00000000000E+00 0. -1.
       -2    1    5    5    0  501 -0.23066256734E+02 -0.26453068150E+02 -0.50189305420E+01  0.35454289981E+02  0.00000000000E+00 0.  1.
</event>
<event>
 9   1  0.7570500E-01  0.2499867E+03  0.7546771E-02  0.1113313E+00
       21   -1    0    0  503  502  0.00000000000E+00  0.00000000000E+00  0.15282716011E+03  0.15282716011E+03  0.00000000000E+00 0.  1.
       21   -1    0    0  502  503 -0.00000000000E+00 -0.00000000000E+00 -0.10222882800E+03  0.10222882800E+03  0.00000000000E+00 0.  1.
       25    2    1    2    0    0 -0.35527136788E-14 -0.14210854715E-13  0.50598332110E+02  0.25505598811E+03  0.24998673136E+03 0.  0.
       24    2    3    3    0    0  0.33076247134E+01  0.93037315165E+02  0.25607801903E+02  0.12936564195E+03  0.86097778161E+02 0.  0.
      -24    2    3    3    0    0 -0.33076247134E+01 -0.93037315165E+02  0.24990530207E+02  0.12569034616E+03  0.80663834049E+02 0.  0.
      -13    1    4    4    0    0 -0.32015484801E+02  0.57149640605E+02 -0.11897495452E+02  0.66577947448E+02  0.00000000000E+00 0.  1.
       14    1    4    4    0    0  0.35323109515E+02  0.35887674560E+02  0.37505297355E+02  0.62787694502E+02  0.00000000000E+00 0. -1.
        3    1    5    5  501    0  0.13205550705E+02  0.59815137544E+01 -0.11884245295E+02  0.18745675833E+02  0.00000000000E+00 0. -1.
       -4    1    5    5    0  501 -0.16513175419E+02 -0.99018828920E+02  0.36874775501E+02  0.10694467033E+03  0.00000000000E+00 0.  1.
</event>
<event>
 9   1  0.7570500E-01  0.2500023E+03  0.7546771E-02  0.1113303E+00
       21   -1    0    0  503  502  0.00000000000E+00  0.00000000000E+00  0.34598736641E+03  0.34598736641E+03  0.00000000000E+00 0.  1.
       21   -1    0    0  502  503 -0.00000000000E+00 -0.00000000000E+00 -0.45161440631E+02  0.45161440631E+02  0.00000000000E+00 0.  1.
       25    2    1    2    0    0  0.00000000000E+00  0.71054273576E-14  0.30082592578E+03  0.39114880704E+03  0.25000230325E+03 0.  0.
       24    2    3    3    0    0 -0.55431940461E+02  0.59775147857E+02  0.21310111962E+03  0.24166688696E+03  0.79655688695E+02 0.  0.
      -24    2    3    3    0    0  0.55431940461E+02 -0.59775147857E+02  0.87724806156E+02  0.14948192009E+03  0.89461916439E+02 0.  0.
      -13    1    4    4    0    0 -0.32591792460E+02  0.78099965059E+02  0.16187960963E+03  0.18266591771E+03  0.00000000000E+00 0.  1.
       14    1    4    4    0    0 -0.22840148000E+02 -0.18324817202E+02  0.51221509995E+02  0.59000969249E+02  0.00000000000E+00 0. -1.
        1    1    5    5  501    0  0.67712621393E+02 -0.15436545394E+02  0.73966347674E+02  0.10146086249E+03  0.00000000000E+00 0. -1.
       -2    1    5    5    0  501 -0.12280680932E+02 -0.44338602463E+02  0.13758458483E+02  0.48021057593E+02  0.00000000000E+00 0.  1.
</event>
<event>
 9   1  0.7570500E-01  0.2499857E+03  0.7546771E-02  0.1113314E+00
       21   -1    0    0  503  502  0.00000000000E+00  0.00000000000E+00  0.44818450953E+02  0.44818450953E+02  0.00000000000E+00 0.  1.
       21   -1    0    0  502  503 -0.00000000000E+00 -0.00000000000E+00 -0.34858876710E+03  0.34858876710E+03  0.00000000000E+00 0.  1.
       25    2    1    2    0    0  0.71054273576E-14 -0.35527136788E-14 -0.30377031614E+03  0.39340721805E+03  0.24998566808E+03 0.  0.
       24    2    3    3    0    0  0.42681788715E+02 -0.19138283749E+02 -0.20075790676E+02  0.94880115638E+02  0.80069906828E+02 0.  0.
      -24    2    3    3    0    0 -0.42681788715E+02  0.19138283749E+02 -0.28369452547E+03  0.29852710241E+03  0.80298431500E+02 0.  0.
      -13    1    4    4    0    0 -0.21684172082E+02 -0.13389309112E+02  0.42389228539E+01  0.25834964376E+02  0.00000000000E+00 0.  1.
       14    1    4    4    0    0  0.64365960797E+02 -0.57489746373E+01 -0.24314713530E+02  0.69045151261E+02  0.00000000000E+00 0. -1.
        3    1    5    5  501    0  0.16555856248E+02 -0.12054169140E+02 -0.11893260091E+03  0.12068290239E+03  0.00000000000E+00 0. -1.
       -4    1    5    5    0  501 -0.59237644963E+02  0.31192452889E+02 -0.16476192456E+03  0.17784420003E+03  0.00000000000E+00 0.  1.
</event>
<event>
 9   1  0.7570500E-01  0.2500063E+03  0.7546771E-02  0.1113301E+00
       21   -1    0    0  503  502  0.00000000000E+00  0.00000000000E+00  0.22229920925E+03  0.22229920925E+03  0.00000000000E+00 0.  1.
       21   -1    0    0  502  503 -0.00000000000E+00 -0.00000000000E+00 -0.70291665802E+02  0.70291665802E+02  0.00000000000E+00 0.  1.
       25    2    1    2    0    0 -0.71054273576E-14  0.00000000000E+00  0.15200754345E+03  0.29259087506E+03  0.25000625372E+03 0.  0.
       24    2    3    3    0    0 -0.51970805481E+02  0.78528890358E+02  0.50969696880E+02  0.13435384157E+03  0.81149821326E+02 0.  0.
      -24    2    3    3    0    0  0.51970805481E+02 -0.78528890358E+02  0.10103784657E+03  0.15823703349E+03  0.77217621587E+02 0.  0.
      -13    1    4    4    0    0 -0.65467192064E+01  0.30656109225E+01 -0.19983164221E+02  0.21250514229E+02  0.00000000000E+00 0.  1.
       14    1    4    4    0    0 -0.45424086275E+02  0.75463279435E+02  0.70952861102E+02  0.11310332734E+03  0.00000000000E+00 0. -1.
        3    1    5    5  501    0  0.12900165593E+02 -0.41452629712E+02  0.94479857283E+02  0.10397681576E+03  0.00000000000E+00 0. -1.
       -4    1    5    5    0  501  0.39070639888E+02 -0.37076260646E+02  0.65579892886E+01  0.54260217731E+02  0.00000000000E+00 0.  1.
</event>
<event>
 9   1  0.7570500E-01  0.2500048E+03  0.7546771E-02  0.1113302E+00
       21   -1    0    0  503  502  0.00000000000E+00  0.00000000000E+00  0.78256195619E+02  0.78256195619E+02  0.00000000000E+00 0.  1.
       21   -1    0    0  502  503 -0.00000000000E+00 -0.00000000000E+00 -0.19967233062E+03  0.19967233062E+03  0.00000000000E+00 0.  1.
       25    2    1    2    0    0 -0.14210854715E-13  0.00000000000E+00 -0.12141613500E+03  0.27792852624E+03  0.25000477567E+03 0.  0.
       24    2    3    3    0    0 -0.72691840290E+02  0.64487282364E+02 -0.48578892142E+02  0.13212172841E+03  0.75189953609E+02 0.  0.
      -24    2    3    3    0    0  0.72691840290E+02 -0.64487282364E+02 -0.72837242862E+02  0.14580679784E+03  0.80694765108E+02 0.  0.
      -13    1    4    4    0    0 -0.67543575655E+02  0.20839744696E+02 -0.60177028521E+01  0.70941118675E+02  0.00000000000E+00 0.  1.
       14    1    4    4    0    0 -0.51482646353E+01  0.43647537668E+02 -0.42561189290E+02  0.61180609731E+02  0.00000000000E+00 0. -1.
        3    1    5    5  501    0  0.96964985887E+01 -0.40836737095E+02  0.57319607013E+01  0.42361734560E+02  0.00000000000E+00 0. -1.
       -4    1    5    5    0  501  0.62995341702E+02 -0.23650545270E+02 -0.78569203563E+02  0.10344506328E+03  0.00000000000E+00 0.  1.
</event>
<event>
 9   1  0.7570500E-01  0.2500117E+03  0.7546771E-02  0.1113297E+00
       21   -1    0    0  503  502  0.00000000000E+00  0.00000000000E+00  0.25637884427E+03  0.25637884427E+03  0.00000000000E+00 0.  1.
       21   -1    0    0  502  503 -0.00000000000E+00 -0.00000000000E+00 -0.60950693900E+02  0.60950693900E+02  0.00000000000E+00 0.  1.
       25    2    1    2    0    0  0.14210854715E-13  0.00000000000E+00  0.19542815037E+03  0.31732953817E+03  0.25001174740E+03 0.  0.
       24    2    3    3    0    0 -0.64032473271E+02  0.17992828386E+02  0.17996649981E+03  0.20802987014E+03  0.80402651143E+02 0.  0.
      -24    2    3    3    0    0  0.64032473271E+02 -0.17992828386E+02  0.15461650557E+02  0.10929966802E+03  0.85343161916E+02 0.  0.
      -13    1    4    4    0    0 -0.68290936865E+02  0.70361906698E+01  0.72219180188E+02  0.99643213638E+02  0.00000000000E+00 0.  1.
       14    1    4    4    0    0  0.42584635947E+01  0.10956637716E+02  0.10774731962E+03  0.10838665651E+03  0.00000000000E+00 0. -1.
        3    1    5    5  501    0  0.68215058959E+01 -0.18042832248E+00 -0.32088007374E+02  0.32805574440E+02  0.00000000000E+00 0. -1.
       -4    1    5    5    0  501  0.57210967375E+02 -0.17812400063E+02  0.47549657931E+02  0.76494093585E+02  0.00000000000E+00 0.  1.
</event>
<event>
 9   1  0.7570500E-01  0.2500046E+03  0.7546771E-02  0.1113302E+00
       21   -1    0    0  503  502  0.00000000000E+00  0.00000000000E+00  0.10967637439E+03  0.10967637439E+03  0.00000000000E+00 0.  1.
       21   -1    0    0  502  503 -0.00000000000E+00 -0.00000000000E+00 -0.14246989203E+03  0.14246989203E+03  0.00000000000E+00 0.  1.
       25    2    1    2    0    0  0.00000000000E+00 -0.71054273576E-14 -0.32793517637E+02  0.25214626641E+03  0.25000464969E+03 0.  0.
       24    2    3    3    0    0 -0.51325538591E+02 -0.54411002002E+02 -0.69058993030E+02  0.13097792327E+03  0.82408760555E+02 0.  0.
      -24    2    3    3    0    0  0.51325538591E+02  0.54411002002E+02  0.36265475392E+02  0.12116834314E+03  0.88157328811E+02 0.  0.
      -13    1    4    4    0    0 -0.67575837436E+02 -0.18624532819E+02 -0.32359289824E+02  0.77204214042E+02  0.00000000000E+00 0.  1.
       14    1    4    4    0    0  0.16250298845E+02 -0.35786469183E+02 -0.36699703206E+02  0.53773709232E+02  0.00000000000E+00 0. -1.
        3    1    5    5  501    0  0.39089518841E+01  0.33700341789E+01  0.49911226012E+02  0.50177360604E+02  0.00000000000E+00 0. -1.
       -4    1    5    5    0  501  0.47416586707E+02  0.51040967824E+02 -0.13645750619E+02  0.70990982535E+02  0.00000000000E+00 0.  1.
</event>
<event>
 9   1  0.7570500E-01  0.2499995E+03  0.7546771E-02  0.1113305E+00
       21   -1    0    0  503  502  0.00000000000E+00  0.00000000000E+00  0.16440119742E+04  0.16440119742E+04  0.00000000000E+00 0. -1.
       21   -1    0    0  502  503 -0.00000000000E+00 -0.00000000000E+00 -0.95041538531E+01  0.95041538531E+01  0.00000000000E+00 0. -1.
       25    2    1    2    0    0  0.00000000000E+00  0.00000000000E+00  0.16345078204E+04  0.16535161281E+04  0.24999954191E+03 0.  0.
       24    2    3    3    0    0  0.39738513425E+02  0.81392022837E+02  0.97426335771E+03  0.98238037467E+03  0.87625906738E+02 0.  0.
      -24    2    3    3    0    0 -0.39738513425E+02 -0.81392022837E+02  0.66024446266E+03  0.67113575341E+03  0.79351359123E+02 0.  0.
      -13    1    4    4    0    0 -0.10474235160E+02  0.74597297343E+02  0.59198404276E+03  0.59675754981E+03  0.00000000000E+00 0.  1.
       14    1    4    4    0    0  0.50212748585E+02  0.67947254948E+01  0.38227931495E+03  0.38562282486E+03  0.00000000000E+00 0. -1.
        1    1    5    5  501    0 -0.55977726738E+02 -0.25369319032E+02  0.30436606281E+03  0.31050895064E+03  0.00000000000E+00 0. -1.
       -2    1    5    5    0  501  0.16239213313E+02 -0.56022703806E+02  0.35587839986E+03  0.36062680277E+03  0.00000000000E+00 0.  1.
</event>
<event>
 9   1  0.7570500E-01  0.2500011E+03  0.7546771E-02  0.1113304E+00
       21   -1    0    0  503  502  0.00000000000E+00  0.00000000000E+00  0.14763226111E+04  0.14763226111E+04  0.00000000000E+00 0. -1.
       21   -1    0    0  502  503 -0.00000000000E+00 -0.00000000000E+00 -0.10583824326E+02  0.10583824326E+02  0.00000000000E+00 0. -1.
       25    2    1    2    0    0  0.71054273576E-14  0.71054273576E-14  0.14657387868E+04  0.14869064355E+04  0.25000111331E+03 0.  0.
       24    2    3    3    0    0 -0.58724298398E+02 -0.56540809758E+02  0.34566967666E+03  0.36098443561E+03  0.64628407073E+02 0.  0.
      -24    2    3    3    0    0  0.58724298398E+02  0.56540809758E+02  0.11200691102E+04  0.11259219999E+04  0.80623395142E+02 0.  0.
      -13    1    4    4    0    0 -0.48285562881E+02 -0.49706374801E+02  0.34049769969E+03  0.34747791695E+03  0.00000000000E+00 0.  1.
       14    1    4    4    0    0 -0.10438735517E+02 -0.68344349563E+01  0.51719769693E+01  0.13506518653E+02  0.00000000000E+00 0. -1.
        3    1    5    5  501    0  0.36001034870E+02  0.76044427350E+02  0.87292964258E+03  0.87697490862E+03  0.00000000000E+00 0. -1.
       -4    1    5    5    0  501  0.22723263528E+02 -0.19503617592E+02  0.24713946757E+03  0.24894709124E+03  0.00000000000E+00 0.  1.
</event>
<event>
 9   1  0.7570500E-01  0.2500014E+03  0.7546771E-02  0.1113304E+00
       21   -1    0    0  503  502  0.00000000000E+00  0.00000000000E+00  0.15818568252E+02  0.15818568252E+02  0.00000000000E+00 0.  1.
       21   -1    0    0  502  503 -0.00000000000E+00 -0.00000000000E+00 -0.98777427237E+03  0.98777427237E+03  0.00000000000E+00 0.  1.
       25    2    1    2    0    0  0.35527136788E-14 -0.71054273576E-14 -0.97195570411E+03  0.10035928406E+04  0.25000139796E+03 0.  0.
       24    2    3    3    0    0  0.26081318164E+01  0.53487956778E+02 -0.16413466503E+03  0.19026670056E+03  0.79959147102E+02 0.  0.
      -24    2    3    3    0    0 -0.26081318164E+01 -0.53487956778E+02 -0.80782103909E+03  0.81332614006E+03  0.77825542373E+02 0.  0.
      -13    1    4    4    0    0 -0.32673533171E+02  0.49308311385E+02 -0.85371640823E+02  0.10386138069E+03  0.00000000000E+00 0.  1.
       14    1    4    4    0    0  0.35281664987E+02  0.41796453929E+01 -0.78763024205E+02  0.86405319869E+02  0.00000000000E+00 0. -1.
        3    1    5    5  501    0 -0.21269564491E+02 -0.54724401131E+02 -0.75522766243E+03  0.75750642014E+03  0.00000000000E+00 0. -1.
       -4    1    5    5    0  501  0.18661432674E+02  0.12364443532E+01 -0.52593376653E+02  0.55819719919E+02  0.00000000000E+00 0.  1.
</event>
<event>
 9   1  0.7570500E-01  0.2500002E+03  0.7546771E-02  0.1113305E+00
       21   -1    0    0  503  502  0.00000000000E+00  0.00000000000E+00  0.48886723881E+02  0.48886723881E+02  0.00000000000E+00 0. -1.
       21   -1    0    0  502  503 -0.00000000000E+00 -0.00000000000E+00 -0.31961699366E+03  0.31961699366E+03  0.00000000000E+00 0. -1.
       25    2    1    2    0    0  0.00000000000E+00  0.71054273576E-14 -0.27073026978E+03  0.36850371754E+03  0.25000022173E+03 0.  0.
       24    2    3    3    0    0 -0.43987031775E+02 -0.58889220718E+02 -0.42646164009E+02  0.11636199849E+03  0.79489748444E+02 0.  0.
      -24    2    3    3    0    0  0.43987031775E+02  0.58889220718E+02 -0.22808410577E+03  0.25214171905E+03  0.78423771255E+02 0.  0.
      -13    1    4    4    0    0 -0.50024064880E+02 -0.27727691442E+02  0.68075945861E+01  0.57598396539E+02  0.00000000000E+00 0.  1.
       14    1    4    4    0    0  0.60370331046E+01 -0.31161529276E+02 -0.49453758596E+02  0.58763601955E+02  0.00000000000E+00 0. -1.
        1    1    5    5  501    0  0.24505940851E+02  0.49623373202E+02 -0.56082390970E+02  0.78792479856E+02  0.00000000000E+00 0. -1.
       -2    1    5    5    0  501  0.19481090925E+02  0.92658475155E+01 -0.17200171480E+03  0.17334923919E+03  0.00000000000E+00 0.  1.
</event>
<event>
 9   1  0.7570500E-01  0.2499973E+03  0.7546771E-02  0.1113307E+00
       21   -1    0    0  503  502  0.00000000000E+00  0.00000000000E+00  0.35840420105E+03  0.35840420105E+03  0.00000000000E+00 0.  1.
       21   -1    0    0  502  503 -0.00000000000E+00 -0.00000000000E+00 -0.43595075373E+02  0.43595075373E+02  0.00000000000E+00 0.  1.
       25    2    1    2    0    0  0.00000000000E+00  0.14210854715E-13  0.31480912567E+03  0.40199927642E+03  0.24999726525E+03 0.  0.
       24    2    3    3    0    0  0.40067092478E+02  0.84761424261E+02  0.12544122691E+03  0.17555066544E+03  0.79326312059E+02 0.  0.
      -24    2    3    3    0    0 -0.40067092478E+02 -0.84761424261E+02  0.18936789876E+03  0.22644861098E+03  0.81418065503E+02 0.  0.
      -13    1    4    4    0    0  0.42327258569E+02  0.48315035708E+02  0.25434779174E+02  0.69085942746E+02  0.00000000000E+00 0.  1.
       14    1    4    4    0    0 -0.22601660909E+01  0.36446388553E+02  0.10000644774E+03  0.10646472269E+03  0.00000000000E+00 0. -1.
        3    1    5    5  501    0 -0.57689252697E+02 -0.60987100413E+02  0.91372271906E+02  0.12408210333E+03  0.00000000000E+00 0. -1.
       -4    1    5    5    0  501  0.17622160219E+02 -0.23774323848E+02  0.97995626858E+02  0.10236650765E+03  0.00000000000E+00 0.  1.
</event>
<event>
 9   1  0.7570500E-01  0.2500108E+03  0.7546771E-02  0.1113298E+00
       21   -1    0    0  503  502  0.00000000000E+00  0.00000000000E+00  0.38437987599E+02  0.38437987599E+02  0.00000000000E+00 0.  1.
       21   -1    0    0  502  503 -0.00000000000E+00 -0.00000000000E+00 -0.40653397662E+03  0.40653397662E+03  0.00000000000E+00 0.  1.
       25    2    1    2    0    0  0.00000000000E+00  0.00000000000E+00 -0.36809598902E+03  0.44497196422E+03  0.25001078338E+03 0.  0.
       24    2    3    3    0    0 -0.65023649577E+02  0.32207134024E+02 -0.70431034239E+02  0.12837999601E+03  0.79091834629E+02 0.  0.
      -24    2    3    3    0    0  0.65023649577E+02 -0.32207134024E+02 -0.29766495478E+03  0.31659196821E+03  0.79753837167E+02 0.  0.
      -13    1    4    4    0    0 -0.10380282646E+02  0.70208722117E+01  0.17688689036E+02  0.21677929657E+02  0.00000000000E+00 0.  1.
       14    1    4    4    0    0 -0.54643366931E+02  0.25186261812E+02 -0.88119723275E+02  0.10670206635E+03  0.00000000000E+00 0. -1.
        1    1    5    5  501    0  0.73534757870E+02 -0.43142218614E+02 -0.28613229768E+03  0.29856373426E+03  0.00000000000E+00 0. -1.
       -2    1    5    5    0  501 -0.85111082930E+01  0.10935084590E+02 -0.11532657103E+02  0.18028233947E+02  0.00000000000E+00 0.  1.
</event>
<event>
 9   1  0.7570500E-01  0.2499992E+03  0.7546771E-02  0.1113305E+00
       21   -1    0    0  503  502  0.00000000000E+00  0.00000000000E+00  0.10405668197E+03  0.10405668197E+03  0.00000000000E+00 0.  1.
       21   -1    0    0  502  503 -0.00000000000E+00 -0.00000000000E+00 -0.15015755647E+03  0.15015755647E+03  0.00000000000E+00 0.  1.
       25    2    1    2    0    0  0.00000000000E+00  0.00000000000E+00 -0.46100874503E+02  0.25421423843E+03  0.24999917678E+03 0.  0.
       24    2    3    3    0    0  0.66474508222E+02 -0.35177067889E+02 -0.83321675740E+02  0.13774459316E+03  0.79842250388E+02 0.  0.
      -24    2    3    3    0    0 -0.66474508222E+02  0.35177067889E+02  0.37220801238E+02  0.11646964528E+03  0.80768210810E+02 0.  0.
      -13    1    4    4    0    0  0.58781423640E+01  0.23904351062E+02 -0.24103766794E+02  0.34452316773E+02  0.00000000000E+00 0.  1.
       14    1    4    4    0    0  0.60596365858E+02 -0.59081418951E+02 -0.59217908946E+02  0.10329227638E+03  0.00000000000E+00 0. -1.
        3    1    5    5  501    0 -0.27317510745E+02  0.39257513871E+02 -0.15855315327E+02  0.50386405039E+02  0.00000000000E+00 0. -1.
       -4    1    5    5    0  501 -0.39156997477E+02 -0.40804459815E+01  0.53076116564E+02  0.66083240238E+02  0.00000000000E+00 0.  1.
</event>
<event>
 9   1  0.7570500E-01  0.2500002E+03  0.7546771E-02  0.1113305E+00
       21   -1    0    0  503  502  0.00000000000E+00  0.00000000000E+00  0.97240814867E+02  0.97240814867E+02  0.00000000000E+00 0.  1.
       21   -1    0    0  502  503 -0.00000000000E+00 -0.00000000000E+00 -0.16068386939E+03  0.16068386939E+03  0.00000000000E+00 0.  1.
       25    2    1    2    0    0  0.71054273576E-14  0.00000000000E+00 -0.63443054523E+02  0.25792468426E+03  0.25000024316E+03 0.  0.
       24    2    3    3    0    0  0.44730250060E+02  0.70635936620E+02 -0.78721791758E+02  0.14111787446E+03  0.82017700427E+02 0.  0.
      -24    2    3    3    0    0 -0.44730250060E+02 -0.70635936620E+02  0.15278737234E+02  0.11680680979E+03  0.80125902117E+02 0.  0.
      -13    1    4    4    0    0  0.26903972284E+02  0.67492023755E+02 -0.14104494417E+02  0.74013064778E+02  0.00000000000E+00 0.  1.
       14    1    4    4    0    0  0.17826277776E+02  0.31439128655E+01 -0.64617297340E+02  0.67104809686E+02  0.00000000000E+00 0. -1.
        1    1    5    5  501    0 -0.21638926860E+01 -0.67961738546E+01  0.36505194606E+02  0.37195425039E+02  0.00000000000E+00 0. -1.
       -2    1    5    5    0  501 -0.42566357374E+02 -0.63839762765E+02 -0.21226457371E+02  0.79611384755E+02  0.00000000000E+00 0.  1.
</event>
<event>
 9   1  0.7570500E-01  0.2500006E+03  0.7546771E-02  0.1113304E+00
       21   -1    0    0  503  502  0.00000000000E+00  0.00000000000E+00  0.10643934878E+03  0.10643934878E+03  0.00000000000E+00 0. -1.
       21   -1    0    0  502  503 -0.00000000000E+00 -0.00000000000E+00 -0.14679794223E+03  0.14679794223E+03  0.00000000000E+00 0. -1.
       25    2    1    2    0    0  0.00000000000E+00  0.71054273576E-14 -0.40358593448E+02  0.25323729101E+03  0.25000061898E+03 0.  0.
       24    2    3    3    0    0  0.69155180994E+02 -0.61302638198E+02 -0.44877219400E+02  0.13048224804E+03  0.80443767472E+02 0.  0.
      -24    2    3    3    0    0 -0.69155180994E+02  0.61302638198E+02  0.45186259522E+01  0.12275504296E+03  0.80671742788E+02 0.  0.
      -13    1    4    4    0    0  0.52867975075E+02  0.14075341610E+01 -0.22661906740E+01  0.52935239313E+02  0.00000000000E+00 0.  1.
       14    1    4    4    0    0  0.16287205919E+02 -0.62710172359E+02 -0.42611028726E+02  0.77547008731E+02  0.00000000000E+00 0. -1.
        3    1    5    5  501    0 -0.30308238818E+02  0.33934672974E+02 -0.37778033773E+02  0.59138238103E+02  0.00000000000E+00 0. -1.
       -4    1    5    5    0  501 -0.38846942176E+02  0.27367965224E+02  0.42296659726E+02  0.63616804862E+02  0.00000000000E+00 0.  1.
</event>
<event>
 9   1  0.7570500E-01  0.2500027E+03  0.7546771E-02  0.1113303E+00
       21   -1    0    0  503  502  0.00000000000E+00  0.00000000000E+00  0.26875800379E+02  0.26875800379E+02  0.00000000000E+00 0. -1.
       21   -1    0    0  502  503 -0.00000000000E+00 -0.00000000000E+00 -0.58139042163E+03  0.58139042163E+03  0.00000000000E+00 0. -1.
       25    2    1    2    0    0  0.00000000000E+00 -0.71054273576E-14 -0.55451462125E+03  0.60826622201E+03  0.25000266330E+03 0.  0.
       24    2    3    3    0    0 -0.89866539083E+02 -0.34122534719E+02 -0.28286293483E+03  0.30970291912E+03  0.81634036940E+02 0.  0.
      -24    2    3    3    0    0  0.89866539083E+02  0.34122534719E+02 -0.27165168642E+03  0.29856330289E+03  0.78134914572E+02 0.  0.
      -13    1    4    4    0    0 -0.97811130796E+01 -0.44189506283E+02 -0.94757797536E+02  0.10501153666E+03  0.00000000000E+00 0.  1.
       14    1    4    4    0    0 -0.80085426004E+02  0.10066971564E+02 -0.18810513729E+03  0.20469138245E+03  0.00000000000E+00 0. -1.
        3    1    5    5  501    0  0.88678274883E+02  0.13780587617E+02 -0.26008513050E+03  0.27513272459E+03  0.00000000000E+00 0. -1.
       -4    1    5    5    0  501  0.11882641997E+01  0.20341947101E+02 -0.11566555917E+02  0.23430578300E+02  0.00000000000E+00 0.  1.
</event>
<event>
 9   1  0.7570500E-01  0.2500030E+03  0.7546771E-02  0.1113303E+00
       21   -1    0    0  503  502  0.00000000000E+00  0.00000000000E+00  0.27881054383E+03  0.27881054383E+03  0.00000000000E+00 0. -1.
       21   -1    0    0  502  503 -0.00000000000E+00 -0.00000000000E+00 -0.56042967702E+02  0.56042967702E+02  0.00000000000E+00 0. -1.
       25    2    1    2    0    0  0.71054273576E-14  0.00000000000E+00  0.22276757613E+03  0.33485351153E+03  0.25000296241E+03 0.  0.
       24    2    3    3    0    0 -0.62630855614E+02  0.47949338148E+02  0.17590218652E+03  0.21119356072E+03  0.86251827607E+02 0.  0.
      -24    2    3    3    0    0  0.62630855614E+02 -0.47949338148E+02  0.46865389611E+02  0.12365995081E+03  0.82907512246E+02 0.  0.
      -13    1    4    4    0    0 -0.78352392332E+02  0.21397611633E+02  0.97259089357E+02  0.12671339957E+03  0.00000000000E+00 0.  1.
       14    1    4    4    0    0  0.15721536718E+02  0.26551726515E+02  0.78643097161E+02  0.84480161155E+02  0.00000000000E+00 0. -1.
        3    1    5    5  501    0  0.28164694692E+02 -0.61341422308E+02  0.53454247052E+02  0.86100967740E+02  0.00000000000E+00 0. -1.
       -4    1    5    5    0  501  0.34466160922E+02  0.13392084160E+02 -0.65888574400E+01  0.37558983069E+02  0.00000000000E+00 0.  1.
</event>
<event>
 9   1  0.7570500E-01  0.2500016E+03  0.7546771E-02  0.1113304E+00
       21   -1    0    0  503  502  0.00000000000E+00  0.00000000000E+00  0.73491827094E+03  0.73491827094E+03  0.00000000000E+00 0. -1.
       21   -1    0    0  502  503 -0.00000000000E+00 -0.00000000000E+00 -0.21261132613E+02  0.21261132613E+02  0.00000000000E+00 0. -1.
       25    2    1    2    0    0  0.00000000000E+00 -0.71054273576E-14  0.71365713833E+03  0.75617940356E+03  0.25000155854E+03 0.  0.
       24    2    3    3    0    0  0.75562175623E+02 -0.52359536586E+02  0.44185075327E+03  0.45836197286E+03  0.80077753107E+02 0.  0.
      -24    2    3    3    0    0 -0.75562175623E+02  0.52359536586E+02  0.27180638506E+03  0.29781743070E+03  0.79783128609E+02 0.  0.
      -13    1    4    4    0    0  0.70886153564E+02 -0.55591599897E+02  0.44340938048E+03  0.45246784576E+03  0.00000000000E+00 0.  1.
       14    1    4    4    0    0  0.46760220593E+01  0.32320633104E+01 -0.15586272093E+01  0.58941271040E+01  0.00000000000E+00 0. -1.
        1    1    5    5  501    0 -0.23587522289E+02  0.49299498116E+02  0.21004613679E+03  0.21703960768E+03  0.00000000000E+00 0. -1.
       -2    1    5    5    0  501 -0.51974653334E+02  0.30600384705E+01  0.61760248273E+02  0.80777823017E+02  0.00000000000E+00 0.  1.
</event>
<event>
 9   1  0.7570500E-01  0.2500060E+03  0.7546771E-02  0.1113301E+00
       21   -1    0    0  503  502  0.00000000000E+00  0.00000000000E+00  0.12173597015E+03  0.12173597015E+03  0.00000000000E+00 0. -1.
       21   -1    0    0  502  503 -0.00000000000E+00 -0.00000000000E+00 -0.12835771108E+03  0.12835771108E+03  0.00000000000E+00 0. -1.
       25    2    1    2    0    0 -0.14210854715E-13 -0.14210854715E-13 -0.66217409215E+01  0.25009368123E+03  0.25000600381E+03 0.  0.
       24    2    3    3    0    0 -0.38089977703E+02 -0.53546376276E+02 -0.72231518054E+02  0.12688451509E+03  0.81019918262E+02 0.  0.
      -24    2    3    3    0    0  0.38089977703E+02  0.53546376276E+02  0.65609777133E+02  0.12320916614E+03  0.80980213339E+02 0.  0.
      -13    1    4    4    0    0  0.25060755698E+02 -0.11724008794E+02 -0.27023814959E+02  0.38675320726E+02  0.00000000000E+00 0.  1.
       14    1    4    4    0    0 -0.63150733401E+02 -0.41822367482E+02 -0.45207703096E+02  0.88209194362E+02  0.00000000000E+00 0. -1.
        1    1    5    5  501    0  0.45725077958E+02  0.72127622167E+01  0.50334832046E+01  0.46563318677E+02  0.00000000000E+00 0. -1.
       -2    1    5    5    0  501 -0.76351002544E+01  0.46333614059E+02  0.60576293928E+02  0.76645847466E+02  0.00000000000E+00 0.  1.
</event>
<event>
 9   1  0.7570500E-01  0.2500048E+03  0.7546771E-02  0.1113302E+00
       21   -1    0    0  503  502  0.00000000000E+00  0.00000000000E+00  0.41367036896E+02  0.41367036896E+02  0.00000000000E+00 0.  1.
       21   -1    0    0  502  503 -0.00000000000E+00 -0.00000000000E+00 -0.37773081768E+03  0.37773081768E+03  0.00000000000E+00 0.  1.
       25    2    1    2    0    0 -0.71054273576E-14  0.00000000000E+00 -0.33636378078E+03  0.41909785457E+03  0.25000483733E+03 0.  0.
       24    2    3    3    0    0 -0.44791724512E+02  0.31646334918E+02 -0.29789815502E+03  0.31326794814E+03  0.79910621739E+02 0.  0.
      -24    2    3    3    0    0  0.44791724512E+02 -0.31646334918E+02 -0.38465625760E+02  0.10582990644E+03  0.81930309609E+02 0.  0.
      -13    1    4    4    0    0 -0.60272180933E+02  0.40385466183E+02 -0.27424392450E+03  0.28367843027E+03  0.00000000000E+00 0.  1.
       14    1    4    4    0    0  0.15480456421E+02 -0.87391312645E+01 -0.23654230518E+02  0.29589517868E+02  0.00000000000E+00 0. -1.
        1    1    5    5  501    0 -0.21777581231E+02  0.53104071615E+01 -0.99617607981E+01  0.24529576978E+02  0.00000000000E+00 0. -1.
       -2    1    5    5    0  501  0.66569305743E+02 -0.36956742080E+02 -0.28503864962E+02  0.81300329458E+02  0.00000000000E+00 0.  1.
</event>
<event>
 9   1  0.7570500E-01  0.2500101E+03  0.7546771E-02  0.1113298E+00
       21   -1    0    0  503  502  0.00000000000E+00  0.00000000000E+00  0.90032661209E+03  0.90032661209E+03  0.00000000000E+00 0. -1.
       21   -1    0    0  502  503 -0.00000000000E+00 -0.00000000000E+00 -0.17356215566E+02  0.17356215566E+02  0.00000000000E+00 0. -1.
       25    2    1    2    0    0  0.00000000000E+00  0.14210854715E-13  0.88297039652E+03  0.91768282765E+03  0.25001010187E+03 0.  0.
       24    2    3    3    0    0 -0.48246769631E+02 -0.88177898626E+02  0.56106542140E+03  0.57565597607E+03  0.80512751250E+02 0.  0.
      -24    2    3    3    0    0  0.48246769631E+02  0.88177898626E+02  0.32190497512E+03  0.34202685158E+03  0.57065415157E+02 0.  0.
      -13    1    4    4    0    0 -0.25255175165E+02 -0.45835538317E+02  0.10774184868E+03  0.11977907330E+03  0.00000000000E+00 0.  1.
       14    1    4    4    0    0 -0.22991594466E+02 -0.42342360309E+02  0.45332357272E+03  0.45587690277E+03  0.00000000000E+00 0. -1.
        3    1    5    5  501    0 -0.40858294894E+01  0.43476913653E+02  0.88520788304E+02  0.98705957193E+02  0.00000000000E+00 0. -1.
       -4    1    5    5    0  501  0.52332599121E+02  0.44700984973E+02  0.23338418682E+03  0.24332089439E+03  0.00000000000E+00 0.  1.
</event>
<event>
 9   1  0.7570500E-01  0.2500010E+03  0.7546771E-02  0.1113304E+00
       21   -1    0    0  503  502  0.00000000000E+00  0.00000000000E+00  0.76830483123E+02  0.76830483123E+02  0.00000000000E+00 0.  1.
       21   -1    0    0  502  503 -0.00000000000E+00 -0.00000000000E+00 -0.20337143597E+03  0.20337143597E+03  0.00000000000E+00 0.  1.
       25    2    1    2    0    0 -0.14210854715E-13 -0.71054273576E-14 -0.12654095285E+03  0.28020191909E+03  0.25000100543E+03 0.  0.
       24    2    3    3    0    0  0.80214670497E+02  0.31809203206E+02 -0.11263973875E+03  0.16134878030E+03  0.76808198705E+02 0.  0.
      -24    2    3    3    0    0 -0.80214670497E+02 -0.31809203206E+02 -0.13901214095E+02  0.11885313879E+03  0.80539469049E+02 0.  0.
      -13    1    4    4    0    0  0.70604681882E+02  0.27240580665E+02 -0.35697514230E+02  0.83674266419E+02  0.00000000000E+00 0.  1.
       14    1    4    4    0    0  0.96099886146E+01  0.45686225413E+01 -0.76942224520E+02  0.77674513885E+02  0.00000000000E+00 0. -1.
        1    1    5    5  501    0 -0.83871848446E+02 -0.13116595032E+01 -0.22704394570E+02  0.86900500258E+02  0.00000000000E+00 0. -1.
       -2    1    5    5    0  501  0.36571779492E+01 -0.30497543703E+02  0.88031804751E+01  0.31952638529E+02  0.00000000000E+00 0.  1.
</event>
<event>
 9   1  0.7570500E-01  0.2500003E+03  0.7546771E-02  0.1113305E+00
       21   -1    0    0  503  502  0.00000000000E+00  0.00000000000E+00  0.97923687976E+02  0.97923687976E+02  0.00000000000E+00 0.  1.
       21   -1    0    0  502  503 -0.00000000000E+00 -0.00000000000E+00 -0.15956342742E+03  0.15956342742E+03  0.00000000000E+00 0.  1.
       25    2    1    2    0    0 -0.14210854715E-13 -0.17763568394E-14 -0.61639739439E+02  0.25748711539E+03  0.25000031423E+03 0.  0.
       24    2    3    3    0    0 -0.91915139508E+02  0.19255678438E+01 -0.65656049476E+00  0.12166000315E+03  0.79678256839E+02 0.  0.
      -24    2    3    3    0    0  0.91915139508E+02 -0.19255678438E+01 -0.60983178944E+02  0.13582711224E+03  0.79233551121E+02 0.  0.
      -13    1    4    4    0    0  0.47525164394E+01 -0.11019837777E+02  0.18707212047E+02  0.22225728778E+02  0.00000000000E+00 0.  1.
       14    1    4    4    0    0 -0.96667655947E+02  0.12945405621E+02 -0.19363772542E+02  0.99434274373E+02  0.00000000000E+00 0. -1.
        1    1    5    5  501    0  0.66031347100E+02 -0.33850053328E+02 -0.58790697118E+02  0.94669482821E+02  0.00000000000E+00 0. -1.
       -2    1    5    5    0  501  0.25883792408E+02  0.31924485484E+02 -0.21924818265E+01  0.41157629419E+02  0.00000000000E+00 0.  1.
</event>
<event>
 9   1  0.7570500E-01  0.2499928E+03  0.7546771E-02  0.1113309E+00
       21   -1    0    0  503  502  0.00000000000E+00  0.00000000000E+00  0.54370141674E+02  0.54370141674E+02  0.00000000000E+00 0. -1.
       21   -1    0    0  502  503 -0.00000000000E+00 -0.00000000000E+00 -0.28736545090E+03  0.28736545090E+03  0.00000000000E+00 0. -1.
       25    2    1    2    0    0  0.00000000000E+00 -0.71054273576E-14 -0.23299530923E+03  0.34173559258E+03  0.24999280212E+03 0.  0.
       24    2    3    3    0    0 -0.79856594363E+02  0.42430168058E+02 -0.78794014995E+02  0.14528207371E+03  0.81981640126E+02 0.  0.
      -24    2    3    3    0    0  0.79856594363E+02 -0.42430168058E+02 -0.15420129423E+03  0.19645351887E+03  0.81477304246E+02 0.  0.
      -13    1    4    4    0    0 -0.36819057070E+02 -0.16234687372E+02 -0.32071066036E+01  0.40366986144E+02  0.00000000000E+00 0.  1.
       14    1    4    4    0    0 -0.43037537293E+02  0.58664855430E+02 -0.75586908391E+02  0.10491508757E+03  0.00000000000E+00 0. -1.
        1    1    5    5  501    0  0.35111379734E+02  0.17869289355E+01 -0.62824254092E+01  0.35713736445E+02  0.00000000000E+00 0. -1.
       -2    1    5    5    0  501  0.44745214629E+02 -0.44217096993E+02 -0.14791886882E+03  0.16073978242E+03  0.00000000000E+00 0.  1.
</event>
<event>
 9   1  0.7570500E-01  0.2499981E+03  0.7546771E-02  0.1113306E+00
       21   -1    0    0  503  502  0.00000000000E+00  0.00000000000E+00  0.16020776957E+04  0.16020776957E+04  0.00000000000E+00 0.  1.
       21   -1    0    0  502  503 -0.00000000000E+00 -0.00000000000E+00 -0.97528127448E+01  0.97528127448E+01  0.00000000000E+00 0.  1.
       25    2    1    2    0    0  0.71054273576E-14  0.14210854715E-13  0.15923248830E+04  0.16118305085E+04  0.24999811015E+03 0.  0.
       24    2    3    3    0    0  0.20509089398E+02 -0.89835152756E+02  0.95502677820E+03  0.96303050431E+03  0.82828906479E+02 0.  0.
      -24    2    3    3    0    0 -0.20509089398E+02  0.89835152756E+02  0.63729810480E+03  0.64880000417E+03  0.79382577517E+02 0.  0.
      -13    1    4    4    0    0 -0.15955501670E+02 -0.83598571061E+02  0.73560770194E+03  0.74051467931E+03  0.00000000000E+00 0.  1.
       14    1    4    4    0    0  0.36464591068E+02 -0.62365816952E+01  0.21941907625E+03  0.22251582500E+03  0.00000000000E+00 0. -1.
        3    1    5    5  501    0 -0.38582057233E+02  0.42546375331E+02  0.48314772920E+03  0.48654958373E+03  0.00000000000E+00 0. -1.
       -4    1    5    5    0  501  0.18072967835E+02  0.47288777425E+02  0.15415037559E+03  0.16225042044E+03  0.00000000000E+00 0.  1.
</event>
<event>
 9   1  0.7570500E-01  0.2499954E+03  0.7546771E-02  0.1113308E+00
       21   -1    0    0  503  502  0.00000000000E+00  0.00000000000E+00  0.76682011461E+02  0.76682011461E+02  0.00000000000E+00 0.  1.
       21   -1    0    0  502  503 -0.00000000000E+00 -0.00000000000E+00 -0.20375606901E+03  0.20375606901E+03  0.00000000000E+00 0.  1.
       25    2    1    2    0    0  0.00000000000E+00 -0.14210854715E-13 -0.12707405754E+03  0.28043808047E+03  0.24999540171E+03 0.  0.
       24    2    3    3    0    0 -0.59793871202E+01 -0.65456497888E+02  0.70535703740E-01  0.10054173513E+03  0.76081070843E+02 0.  0.
      -24    2    3    3    0    0  0.59793871202E+01  0.65456497888E+02 -0.12714459325E+03  0.17989634534E+03  0.10898000408E+03 0.  0.
      -13    1    4    4    0    0  0.33887620179E+02 -0.25827068885E+02 -0.91467648304E+01  0.43578338604E+02  0.00000000000E+00 0.  1.
       14    1    4    4    0    0 -0.39867007299E+02 -0.39629429003E+02  0.92173005342E+01  0.56963396522E+02  0.00000000000E+00 0. -1.
        3    1    5    5  501    0  0.31457464722E+02 -0.20072722416E+02 -0.46426878948E+02  0.59564598217E+02  0.00000000000E+00 0. -1.
       -4    1    5    5    0  501 -0.25478077602E+02  0.85529220304E+02 -0.80717714301E+02  0.12033174712E+03  0.00000000000E+00 0.  1.
</event>
<event>
 9   1  0.7570500E-01  0.2500011E+03  0.7546771E-02  0.1113304E+00
       21   -1    0    0  503  502  0.00000000000E+00  0.00000000000E+00  0.27702270962E+04  0.27702270962E+04  0.00000000000E+00 0. -1.
       21   -1    0    0  502  503 -0.00000000000E+00 -0.00000000000E+00 -0.56403797229E+01  0.56403797229E+01  0.00000000000E+00 0. -1.
       25    2    1    2    0    0  0.00000000000E+00  0.00000000000E+00  0.27645867164E+04  0.27758674759E+04  0.25000106193E+03 0.  0.
       24    2    3    3    0    0  0.60068205056E+02 -0.24661418101E+02  0.21571303035E+04  0.21596118264E+04  0.80596027935E+02 0.  0.
      -24    2    3    3    0    0 -0.60068205056E+02  0.24661418101E+02  0.60745641295E+03  0.61625564948E+03  0.80940453913E+02 0.  0.
      -13    1    4    4    0    0  0.22569297931E+02 -0.50955121674E+02  0.97133404273E+03  0.97293145709E+03  0.00000000000E+00 0.  1.
       14    1    4    4    0    0  0.37498907125E+02  0.26293703572E+02  0.11857962608E+04  0.11866803693E+04  0.00000000000E+00 0. -1.
        1    1    5    5  501    0 -0.11583905227E+02  0.45833226578E+02  0.36802300927E+03  0.37104690656E+03  0.00000000000E+00 0. -1.
       -2    1    5    5    0  501 -0.48484299829E+02 -0.21171808477E+02  0.23943340368E+03  0.24520874292E+03  0.00000000000E+00 0.  1.
</event>
<event>
 9   1  0.7570500E-01  0.2500112E+03  0.7546771E-02  0.1113298E+00
       21   -1    0    0  503  502  0.00000000000E+00  0.00000000000E+00  0.21607981581E+02  0.21607981581E+02  0.00000000000E+00 0.  1.
       21   -1    0    0  502  503 -0.00000000000E+00 -0.00000000000E+00 -0.72317724453E+03  0.72317724453E+03  0.00000000000E+00 0.  1.
       25    2    1    2    0    0  0.35527136788E-14  0.14210854715E-13 -0.70156926295E+03  0.74478522612E+03  0.25001120438E+03 0.  0.
       24    2    3    3    0    0 -0.20752200165E+01 -0.71182213891E+02 -0.53634979148E+03  0.54712655195E+03  0.81272079612E+02 0.  0.
      -24    2    3    3    0    0  0.20752200165E+01  0.71182213891E+02 -0.16521947148E+03  0.19765867416E+03  0.81855137915E+02 0.  0.
      -13    1    4    4    0    0  0.24479377400E+02 -0.40926499347E+02 -0.44176323301E+03  0.44432980129E+03  0.00000000000E+00 0.  1.
       14    1    4    4    0    0 -0.26554597416E+02 -0.30255714544E+02 -0.94586558462E+02  0.10279675067E+03  0.00000000000E+00 0. -1.
        3    1    5    5  501    0 -0.22552623252E+02  0.61746268499E+02 -0.15672185379E+03  0.16994988069E+03  0.00000000000E+00 0. -1.
       -4    1    5    5    0  501  0.24627843268E+02  0.94359453925E+01 -0.84976176855E+01  0.27708793475E+02  0.00000000000E+00 0.  1.
</event>
<event>
 9   1  0.7570500E-01  0.2500224E+03  0.7546771E-02  0.1113291E+00
       21   -1    0    0  503  502  0.00000000000E+00  0.00000000000E+00  0.31714611717E+02  0.31714611717E+02  0.00000000000E+00 0.  1.
       21   -1    0    0  502  503 -0.00000000000E+00 -0.00000000000E+00 -0.49276338796E+03  0.49276338796E+03  0.00000000000E+00 0.  1.
       25    2    1    2    0    0 -0.35527136788E-14  0.71054273576E-14 -0.46104877624E+03  0.52447799968E+03  0.25002239514E+03 0.  0.
       24    2    3    3    0    0 -0.62735181512E+01  0.11182803658E+02 -0.26661546757E+02  0.82479919342E+02  0.76991472850E+02 0.  0.
      -24    2    3    3    0    0  0.62735181512E+01 -0.11182803658E+02 -0.43438722949E+03  0.44199808034E+03  0.80657459372E+02 0.  0.
      -13    1    4    4    0    0 -0.51314229381E+01 -0.32998073215E+02 -0.70616047412E+01  0.34133130516E+02  0.00000000000E+00 0.  1.
       14    1    4    4    0    0 -0.11420952132E+01  0.44180876873E+02 -0.19599942016E+02  0.48346788826E+02  0.00000000000E+00 0. -1.
        3    1    5    5  501    0 -0.26694138353E+02  0.21596440780E+02 -0.21653683627E+03  0.21924229687E+03  0.00000000000E+00 0. -1.
       -4    1    5    5    0  501  0.32967656504E+02 -0.32779244438E+02 -0.21785039322E+03  0.22275578347E+03  0.00000000000E+00 0.  1.
</event>
<event>
 9   1  0.7570500E-01  0.2500058E+03  0.7546771E-02  0.1113301E+00
       21   -1    0    0  503  502  0.00000000000E+00  0.00000000000E+00  0.10277418811E+03  0.10277418811E+03  0.00000000000E+00 0.  1.
       21   -1    0    0  502  503 -0.00000000000E+00 -0.00000000000E+00 -0.15203935817E+03  0.15203935817E+03  0.00000000000E+00 0.  1.
       25    2    1    2    0    0  0.00000000000E+00  0.00000000000E+00 -0.49265170061E+02  0.25481354629E+03  0.25000577271E+03 0.  0.
       24    2    3    3    0    0  0.10573169878E+01  0.31985904950E+02 -0.12412212435E+03  0.15022690082E+03  0.78342861456E+02 0.  0.
      -24    2    3    3    0    0 -0.10573169878E+01 -0.31985904950E+02  0.74856954291E+02  0.10458664547E+03  0.65655058980E+02 0.  0.
      -13    1    4    4    0    0 -0.32820885571E+02  0.38008538701E+02 -0.73732344271E+02  0.89209406094E+02  0.00000000000E+00 0.  1.
       14    1    4    4    0    0  0.33878202559E+02 -0.60226337505E+01 -0.50389780081E+02  0.61017494725E+02  0.00000000000E+00 0. -1.
        3    1    5    5  501    0 -0.22379022546E+02 -0.42048336713E+02  0.38463164281E+02  0.61223347482E+02  0.00000000000E+00 0. -1.
       -4    1    5    5    0  501  0.21321705558E+02  0.10062431762E+02  0.36393790010E+02  0.43363297985E+02  0.00000000000E+00 0.  1.
</event>
<event>
 9   1  0.7570500E-01  0.2499912E+03  0.7546771E-02  0.1113310E+00
       21   -1    0    0  503  502  0.00000000000E+00  0.00000000000E+00  0.45083643205E+02  0.45083643205E+02  0.00000000000E+00 0. -1.
       21   -1    0    0  502  503 -0.00000000000E+00 -0.00000000000E+00 -0.34655367978E+03  0.34655367978E+03  0.00000000000E+00 0. -1.
       25    2    1    2    0    0  0.17763568394E-14  0.14210854715E-13 -0.30147003658E+03  0.39163732299E+03  0.24999121945E+03 0.  0.
       24    2    3    3    0    0 -0.14418756047E+02 -0.95043267369E+02 -0.16541477172E+03  0.20701535395E+03  0.79070771270E+02 0.  0.
      -24    2    3    3    0    0  0.14418756047E+02  0.95043267369E+02 -0.13605526486E+03  0.18462196904E+03  0.79580859244E+02 0.  0.
      -13    1    4    4    0    0 -0.10620194387E+02  0.12338903182E+02 -0.14802598438E+02  0.22003499292E+02  0.00000000000E+00 0.  1.
       14    1    4    4    0    0 -0.37985616600E+01 -0.10738217055E+03 -0.15061217328E+03  0.18501185465E+03  0.00000000000E+00 0. -1.
        3    1    5    5  501    0 -0.77036067093E+01  0.58231535585E+02 -0.21957310574E+02  0.62708697806E+02  0.00000000000E+00 0. -1.
       -4    1    5    5    0  501  0.22122362756E+02  0.36811731785E+02 -0.11409795429E+03  0.12191327123E+03  0.00000000000E+00 0.  1.
</event>
<event>
 9   1  0.7570500E-01  0.2499954E+03  0.7546771E-02  0.1113308E+00
       21   -1    0    0  503  502  0.00000000000E+00  0.00000000000E+00  0.63584768467E+02  0.63584768467E+02  0.00000000000E+00 0. -1.
       21   -1    0    0  502  503 -0.00000000000E+00 -0.00000000000E+00 -0.24572595117E+03  0.24572595117E+03  0.00000000000E+00 0. -1.
       25    2    1    2    0    0  0.00000000000E+00  0.00000000000E+00 -0.18214118271E+03  0.30931071964E+03  0.24999542165E+03 0.  0.
       24    2    3    3    0    0  0.10835977871E+02 -0.69428838813E+02 -0.10428243738E+02  0.10795672336E+03  0.81290367049E+02 0.  0.
      -24    2    3    3    0    0 -0.10835977871E+02  0.69428838813E+02 -0.17171293897E+03  0.20135399628E+03  0.78232450655E+02 0.  0.
      -13    1    4    4    0    0  0.31723591334E+02 -0.55222507514E+02  0.21524212030E+02  0.67225019797E+02  0.00000000000E+00 0.  1.
       14    1    4    4    0    0 -0.20887613463E+02 -0.14206331299E+02 -0.31952455768E+02  0.40731703559E+02  0.00000000000E+00 0. -1.
        1    1    5    5  501    0  0.33573839862E+02  0.23059578843E+02 -0.60358851135E+02  0.72815779951E+02  0.00000000000E+00 0. -1.
       -2    1    5    5    0  501 -0.44409817733E+02  0.46369259970E+02 -0.11135408783E+03  0.12853821633E+03  0.00000000000E+00 0.  1.
</event>
<event>
 9   1  0.7570500E-01  0.2500044E+03  0.7546771E-02  0.1113302E+00
       21   -1    0    0  503  502  0.00000000000E+00  0.00000000000E+00  0.18199924172E+04  0.18199924172E+04  0.00000000000E+00 0.  1.
       21   -1    0    0  502  503 -0.00000000000E+00 -0.00000000000E+00 -0.85855046702E+01  0.85855046702E+01  0.00000000000E+00 0.  1.
       25    2    1    2    0    0  0.00000000000E+00  0.71054273576E-14  0.18114069126E+04  0.18285779219E+04  0.25000442714E+03 0.  0.
       24    2    3    3    0    0 -0.32490483916E+02  0.29330388416E+02  0.28555577233E+03  0.30006156006E+03  0.81110649609E+02 0.  0.
      -24    2    3    3    0    0  0.32490483916E+02 -0.29330388416E+02  0.15258511402E+04  0.15285163618E+04  0.78896533949E+02 0.  0.
      -13    1    4    4    0    0 -0.18657534094E+02 -0.21717322494E+02  0.17707540444E+03  0.17937515026E+03  0.00000000000E+00 0.  1.
       14    1    4    4    0    0 -0.13832949822E+02  0.51047710910E+02  0.10848036790E+03  0.12068640979E+03  0.00000000000E+00 0. -1.
        3    1    5    5  501    0  0.26022975672E+02 -0.55719970659E+02  0.11789256724E+04  0.11805285475E+04  0.00000000000E+00 0. -1.
       -4    1    5    5    0  501  0.64675082442E+01  0.26389582242E+02  0.34692546778E+03  0.34798781431E+03  0.00000000000E+00 0.  1.
</event>
<event>
 9   1  0.7570500E-01  0.2500002E+03  0.7546771E-02  0.1113305E+00
       21   -1    0    0  503  502  0.00000000000E+00  0.00000000000E+00  0.11756560978E+04  0.11756560978E+04  0.00000000000E+00 0.  1.
       21   -1    0    0  502  503 -0.00000000000E+00 -0.00000000000E+00 -0.13290470206E+02  0.13290470206E+02  0.00000000000E+00 0.  1.
       25    2    1    2    0    0  0.00000000000E+00  0.00000000000E+00  0.11623656276E+04  0.11889465680E+04  0.25000017872E+03 0.  0.
       24    2    3    3    0    0  0.17683649060E+02  0.93470567251E+02  0.60994850131E+03  0.62243905325E+03  0.79647613706E+02 0.  0.
      -24    2    3    3    0    0 -0.17683649060E+02 -0.93470567251E+02  0.55241712628E+03  0.56650751476E+03  0.81955014990E+02 0.  0.
      -13    1    4    4    0    0 -0.45304544848E+01  0.95630083384E+02  0.55385395171E+03  0.56206746720E+03  0.00000000000E+00 0.  1.
       14    1    4    4    0    0  0.22214103545E+02 -0.21595161338E+01  0.56094549606E+02  0.60371586046E+02  0.00000000000E+00 0. -1.
        1    1    5    5  501    0  0.29653657568E+02 -0.61485080142E+02  0.31534750065E+03  0.32265120588E+03  0.00000000000E+00 0. -1.
       -2    1    5    5    0  501 -0.47337306628E+02 -0.31985487109E+02  0.23706962562E+03  0.24385630888E+03  0.00000000000E+00 0.  1.
</event>
<event>
 9   1  0.7570500E-01  0.2500546E+03  0.7546771E-02  0.1113270E+00
       21   -1    0    0  503  502  0.00000000000E+00  0.00000000000E+00  0.26400012001E+03  0.26400012001E+03  0.00000000000E+00 0.  1.
       21   -1    0    0  502  503 -0.00000000000E+00 -0.00000000000E+00 -0.59211422270E+02  0.59211422270E+02  0.00000000000E+00 0.  1.
       25    2    1    2    0    0  0.71054273576E-14  0.14210854715E-13  0.20478869774E+03  0.32321154228E+03  0.25005457473E+03 0.  0.
       24    2    3    3    0    0  0.54129811907E+02  0.65271955131E+02  0.16377419582E+03  0.20095411820E+03  0.79812942200E+02 0.  0.
      -24    2    3    3    0    0 -0.54129811907E+02 -0.65271955131E+02  0.41014501924E+02  0.12225742408E+03  0.77937306286E+02 0.  0.
      -13    1    4    4    0    0  0.38804527835E+02  0.77862719172E+02  0.92547611691E+02  0.12701753756E+03  0.00000000000E+00 0.  1.
       14    1    4    4    0    0  0.15325284073E+02 -0.12590764041E+02  0.71226584128E+02  0.73936580646E+02  0.00000000000E+00 0. -1.
        3    1    5    5  501    0 -0.51800230262E+02 -0.14410810265E+02  0.46450757048E+02  0.71053558236E+02  0.00000000000E+00 0. -1.
       -4    1    5    5    0  501 -0.23295816459E+01 -0.50861144865E+02 -0.54362551241E+01  0.51203865845E+02  0.00000000000E+00 0.  1.
</event>
<event>
 8   1  0.7570500E-01  0.2503399E+03  0.7546771E-02  0.1113090E+00
       21   -1    0    0  503  502  0.00000000000E+00  0.00000000000E+00  0.10032254298E+03  0.10032254298E+03  0.00000000000E+00 0. -1.
       21   -1    0    0  502  503 -0.00000000000E+00 -0.00000000000E+00 -0.15617143110E+03  0.15617143110E+03  0.00000000000E+00 0. -1.
       24    2    1    2    0    0 -0.73460546295E+02 -0.50556209597E+02  0.80777133622E+01  0.12048114987E+03  0.80610643411E+02 0.  0.
      -24    2    1    2    0    0  0.73460546295E+02  0.50556209597E+02 -0.63926601479E+02  0.13601282420E+03  0.80377209334E+02 0.  0.
      -13    1    3    3    0    0 -0.64235612941E+02 -0.66432799801E+01 -0.19933060224E+02  0.67584569457E+02  0.00000000000E+00 0.  1.
       14    1    3    3    0    0 -0.92249333541E+01 -0.43912929617E+02  0.28010773586E+02  0.52896580417E+02  0.00000000000E+00 0. -1.
        3    1    4    4  501    0  0.11156751336E+02  0.11122168208E+02 -0.60152954937E+02  0.62181618776E+02  0.00000000000E+00 0. -1.
       -4    1    4    4    0  501  0.62303794959E+02  0.39434041390E+02 -0.37736465423E+01  0.73831205427E+02  0.00000000000E+00 0.  1.
</event>
<event>
 9   1  0.7570500E-01  0.2500036E+03  0.7546771E-02  0.1113303E+00
       21   -1    0    0  503  502  0.00000000000E+00  0.00000000000E+00  0.18229152800E+03  0.18229152800E+03  0.00000000000E+00 0.  1.
       21   -1    0    0  502  503 -0.00000000000E+00 -0.00000000000E+00 -0.85716836300E+02  0.85716836300E+02  0.00000000000E+00 0.  1.
       25    2    1    2    0    0  0.00000000000E+00  0.71054273576E-14  0.96574691698E+02  0.26800836430E+03  0.25000362449E+03 0.  0.
       24    2    3    3    0    0  0.69057095564E+02  0.62563349865E+02  0.36479490084E+02  0.13055783195E+03  0.83854272952E+02 0.  0.
      -24    2    3    3    0    0 -0.69057095564E+02 -0.62563349865E+02  0.60095201613E+02  0.13745053235E+03  0.81229061252E+02 0.  0.
      -13    1    4    4    0    0  0.12362471128E+02 -0.17285340929E+02 -0.83791118389E+01  0.22843450235E+02  0.00000000000E+00 0.  1.
       14    1    4    4    0    0  0.56694624436E+02  0.79848690794E+02  0.44858601923E+02  0.10771438171E+03  0.00000000000E+00 0. -1.
        3    1    5    5  501    0 -0.79121059166E+02 -0.64423629270E+02  0.31045467787E+02  0.10665067783E+03  0.00000000000E+00 0. -1.
       -4    1    5    5    0  501  0.10063963602E+02  0.18602794044E+01  0.29049733827E+02  0.30799854517E+02  0.00000000000E+00 0.  1.
</event>
<event>
 9   1  0.7570500E-01  0.2500039E+03  0.7546771E-02  0.1113302E+00
       21   -1    0    0  503  502  0.00000000000E+00  0.00000000000E+00  0.39550568689E+03  0.39550568689E+03  0.00000000000E+00 0.  1.
       21   -1    0    0  502  503 -0.00000000000E+00 -0.00000000000E+00 -0.39507633123E+02  0.39507633123E+02  0.00000000000E+00 0.  1.
       25    2    1    2    0    0  0.28421709430E-13  0.00000000000E+00  0.35599805377E+03  0.43501332002E+03  0.25000394858E+03 0.  0.
       24    2    3    3    0    0  0.84118335273E+02  0.35522395315E+02  0.22739681012E+03  0.25803328835E+03  0.80833988822E+02 0.  0.
      -24    2    3    3    0    0 -0.84118335273E+02 -0.35522395315E+02  0.12860124365E+03  0.17698003166E+03  0.80286467356E+02 0.  0.
      -13    1    4    4    0    0  0.10397244021E+02  0.43642691937E+02  0.59794435488E+02  0.74754008308E+02  0.00000000000E+00 0.  1.
       14    1    4    4    0    0  0.73721091252E+02 -0.81202966222E+01  0.16760237463E+03  0.18327928004E+03  0.00000000000E+00 0. -1.
        1    1    5    5  501    0 -0.17314350264E+02  0.24083386581E+02  0.48480605507E+02  0.56834543586E+02  0.00000000000E+00 0. -1.
       -2    1    5    5    0  501 -0.66803985010E+02 -0.59605781896E+02  0.80120638146E+02  0.12014548808E+03  0.00000000000E+00 0.  1.
</event>
<event>
 8   1  0.7570500E-01  0.2496266E+03  0.7546771E-02  0.1113541E+00
       21   -1    0    0  503  502  0.00000000000E+00  0.00000000000E+00  0.21474227479E+03  0.21474227479E+03  0.00000000000E+00 0. -1.
       21   -1    0    0  502  503 -0.00000000000E+00 -0.00000000000E+00 -0.72544459077E+02  0.72544459077E+02  0.00000000000E+00 0. -1.
       24    2    1    2    0    0  0.41608502275E+01  0.76878626383E+02  0.13766858518E+03  0.17613300421E+03  0.78374485377E+02 0.  0.
      -24    2    1    2    0    0 -0.41608502275E+01 -0.76878626383E+02  0.45292305310E+01  0.11115372965E+03  0.80043749398E+02 0.  0.
      -13    1    3    3    0    0  0.38798927512E+02  0.58919354883E+02  0.82298475264E+02  0.10839689196E+03  0.00000000000E+00 0.  1.
       14    1    3    3    0    0 -0.34638077285E+02  0.17959271500E+02  0.55370109919E+02  0.67736112253E+02  0.00000000000E+00 0. -1.
        3    1    4    4  501    0  0.17574836704E+02 -0.58984709421E+01 -0.25118510246E+02  0.31218686738E+02  0.00000000000E+00 0. -1.
       -4    1    4    4    0  501 -0.21735686932E+02 -0.70980155441E+02  0.29647740778E+02  0.79935042916E+02  0.00000000000E+00 0.  1.
</event>
<event>
 9   1  0.7570500E-01  0.2499858E+03  0.7546771E-02  0.1113314E+00
       21   -1    0    0  503  502  0.00000000000E+00  0.00000000000E+00  0.31169043825E+02  0.31169043825E+02  0.00000000000E+00 0. -1.
       21   -1    0    0  502  503 -0.00000000000E+00 -0.00000000000E+00 -0.50124173491E+03  0.50124173491E+03  0.00000000000E+00 0. -1.
       25    2    1    2    0    0  0.00000000000E+00 -0.35527136788E-14 -0.47007269108E+03  0.53241077873E+03  0.24998580442E+03 0.  0.
       24    2    3    3    0    0 -0.44348194219E+02 -0.12678602246E+02 -0.54671891601E+02  0.10658705968E+03  0.79020733192E+02 0.  0.
      -24    2    3    3    0    0  0.44348194219E+02  0.12678602246E+02 -0.41540079948E+03  0.42582371905E+03  0.81489301224E+02 0.  0.
      -13    1    4    4    0    0 -0.64068768000E+02  0.48778851353E+01 -0.45100110352E+02  0.78502361430E+02  0.00000000000E+00 0.  1.
       14    1    4    4    0    0  0.19720573781E+02 -0.17556487382E+02 -0.95717812495E+01  0.28084698248E+02  0.00000000000E+00 0. -1.
        3    1    5    5  501    0  0.40628025331E+02 -0.30181581623E+02 -0.22246734857E+03  0.22815189127E+03  0.00000000000E+00 0. -1.
       -4    1    5    5    0  501  0.37201688882E+01  0.42860183869E+02 -0.19293345091E+03  0.19767182778E+03  0.00000000000E+00 0.  1.
</event>
<event>
 9   1  0.7570500E-01  0.2499943E+03  0.7546771E-02  0.1113308E+00
       21   -1    0    0  503  502  0.00000000000E+00  0.00000000000E+00  0.15415283138E+02  0.15415283138E+02  0.00000000000E+00 0. -1.
       21   -1    0    0  502  503 -0.00000000000E+00 -0.00000000000E+00 -0.10135585964E+04  0.10135585964E+04  0.00000000000E+00 0. -1.
       25    2    1    2    0    0  0.00000000000E+00 -0.14210854715E-13 -0.99814331326E+03  0.10289738795E+04  0.24999434186E+03 0.  0.
       24    2    3    3    0    0  0.56228073239E+02 -0.73812569236E+02 -0.43565628061E+03  0.45226923272E+03  0.78365633024E+02 0.  0.
      -24    2    3    3    0    0 -0.56228073239E+02  0.73812569236E+02 -0.56248703265E+03  0.57670464681E+03  0.87101642655E+02 0.  0.
      -13    1    4    4    0    0  0.64014972069E+02 -0.22289262363E+02 -0.20974351055E+03  0.22042474471E+03  0.00000000000E+00 0.  1.
       14    1    4    4    0    0 -0.77868988298E+01 -0.51523306872E+02 -0.22591277006E+03  0.23184448801E+03  0.00000000000E+00 0. -1.
        3    1    5    5  501    0 -0.23915083562E+02  0.64084955727E+02 -0.17721863615E+03  0.18996120070E+03  0.00000000000E+00 0. -1.
       -4    1    5    5    0  501 -0.32312989678E+02  0.97276135090E+01 -0.38526839650E+03  0.38674344611E+03  0.00000000000E+00 0.  1.
</event>
<event>
 9   1  0.7570500E-01  0.2500018E+03  0.7546771E-02  0.1113304E+00
       21   -1    0    0  503  502  0.00000000000E+00  0.00000000000E+00  0.92920315019E+02  0.92920315019E+02  0.00000000000E+00 0.  1.
       21   -1    0    0  502  503 -0.00000000000E+00 -0.00000000000E+00 -0.16815722934E+03  0.16815722934E+03  0.00000000000E+00 0.  1.
       25    2    1    2    0    0  0.17763568394E-14  0.00000000000E+00 -0.75236914317E+02  0.26107754436E+03  0.25000178178E+03 0.  0.
       24    2    3    3    0    0  0.82716823232E+01  0.81160052410E+02  0.14656896882E+02  0.11532368118E+03  0.80183240010E+02 0.  0.
      -24    2    3    3    0    0 -0.82716823232E+01 -0.81160052410E+02 -0.89893811199E+02  0.14575386318E+03  0.80671658616E+02 0.  0.
      -13    1    4    4    0    0 -0.18629241555E+01 -0.13040752823E+02  0.15801594874E+02  0.20572363042E+02  0.00000000000E+00 0.  1.
       14    1    4    4    0    0  0.10134606479E+02  0.94200805232E+02 -0.11446979912E+01  0.94751318135E+02  0.00000000000E+00 0. -1.
        1    1    5    5  501    0  0.17931080840E+01 -0.32962255506E+02  0.99091206631E+01  0.34466160171E+02  0.00000000000E+00 0. -1.
       -2    1    5    5    0  501 -0.10064790407E+02 -0.48197796904E+02 -0.99802931862E+02  0.11128770301E+03  0.00000000000E+00 0.  1.
</event>
<event>
 9   1  0.7570500E-01  0.2499905E+03  0.7546771E-02  0.1113311E+00
       21   -1    0    0  503  502  0.00000000000E+00  0.00000000000E+00  0.84650906997E+02  0.84650906997E+02  0.00000000000E+00 0. -1.
       21   -1    0    0  502  503 -0.00000000000E+00 -0.00000000000E+00 -0.18456756003E+03  0.18456756003E+03  0.00000000000E+00 0. -1.
       25    2    1    2    0    0  0.35527136788E-14  0.35527136788E-14 -0.99916653034E+02  0.26921846703E+03  0.24999049069E+03 0.  0.
       24    2    3    3    0    0 -0.17614489269E+02 -0.29510509698E+02  0.43650656036E+02  0.10018427253E+03  0.83368868735E+02 0.  0.
      -24    2    3    3    0    0  0.17614489269E+02  0.29510509698E+02 -0.14356730907E+03  0.16903419450E+03  0.82339821852E+02 0.  0.
      -13    1    4    4    0    0  0.32809594229E+02 -0.21211859403E+02  0.18498433183E+02  0.43227358039E+02  0.00000000000E+00 0.  1.
       14    1    4    4    0    0 -0.50424083498E+02 -0.82986502946E+01  0.25152222854E+02  0.56956914486E+02  0.00000000000E+00 0. -1.
        3    1    5    5  501    0  0.14360794853E+01 -0.21599654532E+02 -0.92483662513E+02  0.94983341866E+02  0.00000000000E+00 0. -1.
       -4    1    5    5    0  501  0.16178409784E+02  0.51110164229E+02 -0.51083646557E+02  0.74050852637E+02  0.00000000000E+00 0.  1.
</event>
<event>
 9   1  0.7570500E-01  0.2500014E+03  0.7546771E-02  0.1113304E+00
       21   -1    0    0  503  502  0.00000000000E+00  0.00000000000E+00  0.20353725545E+03  0.20353725545E+03  0.00000000000E+00 0.  1.
       21   -1    0    0  502  503 -0.00000000000E+00 -0.00000000000E+00 -0.76768138575E+02  0.76768138575E+02  0.00000000000E+00 0.  1.
       25    2    1    2    0    0  0.14210854715E-13 -0.14210854715E-13  0.12676911688E+03  0.28030539403E+03  0.25000140985E+03 0.  0.
       24    2    3    3    0    0 -0.79452194558E+02  0.44241044906E+02  0.33114925723E+02  0.12556991842E+03  0.80008029795E+02 0.  0.
      -24    2    3    3    0    0  0.79452194558E+02 -0.44241044906E+02  0.93654191154E+02  0.15473547561E+03  0.83078508752E+02 0.  0.
      -13    1    4    4    0    0 -0.40451218379E+02 -0.11719660083E+02  0.38614783770E+02  0.57138017347E+02  0.00000000000E+00 0.  1.
       14    1    4    4    0    0 -0.39000976179E+02  0.55960704989E+02 -0.54998580466E+01  0.68431901072E+02  0.00000000000E+00 0. -1.
        3    1    5    5  501    0  0.75371522542E+02 -0.65738003264E+02  0.67614242089E+02  0.12072297717E+03  0.00000000000E+00 0. -1.
       -4    1    5    5    0  501  0.40806720169E+01  0.21496958358E+02  0.26039949065E+02  0.34012498439E+02  0.00000000000E+00 0.  1.
</event>
<event>
 9   1  0.7570500E-01  0.2500009E+03  0.7546771E-02  0.1113304E+00
       21   -1    0    0  503  502  0.00000000000E+00  0.00000000000E+00  0.43955655793E+03  0.43955655793E+03  0.00000000000E+00 0.  1.
       21   -1    0    0  502  503 -0.00000000000E+00 -0.00000000000E+00 -0.35547454381E+02  0.35547454381E+02  0.00000000000E+00 0.  1.
       25    2    1    2    0    0  0.00000000000E+00 -0.71054273576E-14  0.40400910355E+03  0.47510401232E+03  0.25000093353E+03 0.  0.
       24    2    3    3    0    0 -0.84358728731E+02  0.46608529789E+02  0.18742132121E+03  0.22520249721E+03  0.79376715376E+02 0.  0.
      -24    2    3    3    0    0  0.84358728731E+02 -0.46608529789E+02  0.21658778235E+03  0.24990151511E+03  0.79068006352E+02 0.  0.
      -13    1    4    4    0    0 -0.17400307162E+00  0.30653860951E+02  0.91924741664E+02  0.96901225989E+02  0.00000000000E+00 0.  1.
       14    1    4    4    0    0 -0.84184725660E+02  0.15954668838E+02  0.95496579543E+02  0.12830127122E+03  0.00000000000E+00 0. -1.
        3    1    5    5  501    0  0.24304975018E+02  0.17958648494E+02  0.25850383114E+02  0.39767916383E+02  0.00000000000E+00 0. -1.
       -4    1    5    5    0  501  0.60053753714E+02 -0.64567178282E+02  0.19073739923E+03  0.21013359872E+03  0.00000000000E+00 0.  1.
</event>
<event>
 9   1  0.7570500E-01  0.2499997E+03  0.7546771E-02  0.1113305E+00
       21   -1    0    0  503  502  0.00000000000E+00  0.00000000000E+00  0.19749531919E+03  0.19749531919E+03  0.00000000000E+00 0.  1.
       21   -1    0    0  502  503 -0.00000000000E+00 -0.00000000000E+00 -0.79115619793E+02  0.79115619793E+02  0.00000000000E+00 0.  1.
       25    2    1    2    0    0 -0.71054273576E-14 -0.14210854715E-13  0.11837969940E+03  0.27661093899E+03  0.24999971667E+03 0.  0.
       24    2    3    3    0    0 -0.26815589303E+02 -0.92237360102E+02  0.61131827730E+02  0.13853647548E+03  0.78920518546E+02 0.  0.
      -24    2    3    3    0    0  0.26815589303E+02  0.92237360102E+02  0.57247871670E+02  0.13807446351E+03  0.80996495198E+02 0.  0.
      -13    1    4    4    0    0  0.67599597360E+01 -0.75344707916E+02  0.66309891520E+02  0.10059584375E+03  0.00000000000E+00 0.  1.
       14    1    4    4    0    0 -0.33575549039E+02 -0.16892652187E+02 -0.51780637894E+01  0.37940631726E+02  0.00000000000E+00 0. -1.
        3    1    5    5  501    0  0.49802468442E+02  0.31707977408E+02  0.15518997646E+02  0.61045237178E+02  0.00000000000E+00 0. -1.
       -4    1    5    5    0  501 -0.22986879139E+02  0.60529382694E+02  0.41728874024E+02  0.77029226331E+02  0.00000000000E+00 0.  1.
</event>
<event>
 9   1  0.7570500E-01  0.2499982E+03  0.7546771E-02  0.1113306E+00
       21   -1    0    0  503  502  0.00000000000E+00  0.00000000000E+00  0.10288518921E+03  0.10288518921E+03  0.00000000000E+00 0. -1.
       21   -1    0    0  502  503 -0.00000000000E+00 -0.00000000000E+00 -0.15186614666E+03  0.15186614666E+03  0.00000000000E+00 0. -1.
       25    2    1    2    0    0  0.14210854715E-13 -0.35527136788E-14 -0.48980957449E+02  0.25475133587E+03  0.24999821786E+03 0.  0.
       24    2    3    3    0    0  0.77324768514E+02  0.37948625170E+01 -0.81894043144E+02  0.13867955881E+03  0.80819953745E+02 0.  0.
      -24    2    3    3    0    0 -0.77324768514E+02 -0.37948625170E+01  0.32913085695E+02  0.11607177706E+03  0.79974154648E+02 0.  0.
      -13    1    4    4    0    0 -0.27203394879E+01 -0.25136723319E+02 -0.97287880581E+01  0.27090670409E+02  0.00000000000E+00 0.  1.
       14    1    4    4    0    0  0.80045108001E+02  0.28931585836E+02 -0.72165255086E+02  0.11158888841E+03  0.00000000000E+00 0. -1.
        1    1    5    5  501    0 -0.24964316769E+02  0.37184305499E+02  0.14582111321E+02  0.47101249005E+02  0.00000000000E+00 0. -1.
       -2    1    5    5    0  501 -0.52360451744E+02 -0.40979168016E+02  0.18330974374E+02  0.68970528051E+02  0.00000000000E+00 0.  1.
</event>
<event>
 9   1  0.7570500E-01  0.2499971E+03  0.7546771E-02  0.1113307E+00
       21   -1    0    0  503  502  0.00000000000E+00  0.00000000000E+00  0.68444941849E+02  0.68444941849E+02  0.00000000000E+00 0.  1.
       21   -1    0    0  502  503 -0.00000000000E+00 -0.00000000000E+00 -0.22828047193E+03  0.22828047193E+03  0.00000000000E+00 0.  1.
       25    2    1    2    0    0 -0.71054273576E-14 -0.71054273576E-14 -0.15983553008E+03  0.29672541378E+03  0.24999714900E+03 0.  0.
       24    2    3    3    0    0 -0.57227218483E+02  0.49262746207E+02 -0.13962888433E+03  0.18129384855E+03  0.87575461640E+02 0.  0.
      -24    2    3    3    0    0  0.57227218483E+02 -0.49262746207E+02 -0.20206645751E+02  0.11543156524E+03  0.84937418264E+02 0.  0.
      -13    1    4    4    0    0 -0.41324926906E+02  0.67091993390E+02 -0.62576150732E+02  0.10062236233E+03  0.00000000000E+00 0.  1.
       14    1    4    4    0    0 -0.15902291577E+02 -0.17829247184E+02 -0.77052733602E+02  0.80671486214E+02  0.00000000000E+00 0. -1.
        1    1    5    5  501    0  0.77818663676E+02 -0.33618365947E+02 -0.39004995959E+01  0.84859606659E+02  0.00000000000E+00 0. -1.
       -2    1    5    5    0  501 -0.20591445193E+02 -0.15644380260E+02 -0.16306146155E+02  0.30571958578E+02  0.00000000000E+00 0.  1.
</event>
<event>
 9   1  0.7570500E-01  0.2500010E+03  0.7546771E-02  0.1113304E+00
       21   -1    0    0  503  502  0.00000000000E+00  0.00000000000E+00  0.26180927799E+03  0.26180927799E+03  0.00000000000E+00 0.  1.
       21   -1    0    0  502  503 -0.00000000000E+00 -0.00000000000E+00 -0.59681310793E+02  0.59681310793E+02  0.00000000000E+00 0.  1.
       25    2    1    2    0    0  0.14210854715E-13 -0.71054273576E-14  0.20212796720E+03  0.32149058878E+03  0.25000096710E+03 0.  0.
       24    2    3    3    0    0 -0.74919548676E+02  0.60132538438E+02  0.97560904092E+02  0.15900930894E+03  0.80851526703E+02 0.  0.
      -24    2    3    3    0    0  0.74919548676E+02 -0.60132538438E+02  0.10456706311E+03  0.16248127984E+03  0.78974898921E+02 0.  0.
      -13    1    4    4    0    0 -0.24915439769E+01 -0.91295352278E+01  0.44732464050E+02  0.45722527760E+02  0.00000000000E+00 0.  1.
       14    1    4    4    0    0 -0.72428004699E+02  0.69262073666E+02  0.52828440043E+02  0.11328678118E+03  0.00000000000E+00 0. -1.
        3    1    5    5  501    0  0.86412835021E+02 -0.57196380041E+02  0.10844953335E+03  0.14999968410E+03  0.00000000000E+00 0. -1.
       -4    1    5    5    0  501 -0.11493286345E+02 -0.29361583973E+01 -0.38824702412E+01  0.12481595744E+02  0.00000000000E+00 0.  1.
</event>
<event>
 9   1  0.7570500E-01  0.2500076E+03  0.7546771E-02  0.1113300E+00
       21   -1    0    0  503  502  0.00000000000E+00  0.00000000000E+00  0.37196693572E+03  0.37196693572E+03  0.00000000000E+00 0.  1.
       21   -1    0    0  502  503 -0.00000000000E+00 -0.00000000000E+00 -0.42008981683E+02  0.42008981683E+02  0.00000000000E+00 0.  1.
       25    2    1    2    0    0  0.35527136788E-14  0.00000000000E+00  0.32995795404E+03  0.41397591741E+03  0.25000761740E+03 0.  0.
       24    2    3    3    0    0 -0.28003549396E+02 -0.89978871370E+02  0.14132197136E+03  0.18821936368E+03  0.81081645311E+02 0.  0.
      -24    2    3    3    0    0  0.28003549396E+02  0.89978871370E+02  0.18863598269E+03  0.22575655372E+03  0.80635547451E+02 0.  0.
      -13    1    4    4    0    0 -0.12724979804E+02 -0.84097546084E+02  0.14787012925E+03  0.17058692064E+03  0.00000000000E+00 0.  1.
       14    1    4    4    0    0 -0.15278569592E+02 -0.58813252862E+01 -0.65481578964E+01  0.17632443045E+02  0.00000000000E+00 0. -1.
        3    1    5    5  501    0  0.94298936193E+01 -0.18457591446E+01  0.87003272818E+02  0.87532275199E+02  0.00000000000E+00 0. -1.
       -4    1    5    5    0  501  0.18573655777E+02  0.91824630515E+02  0.10163270987E+03  0.13822427852E+03  0.00000000000E+00 0.  1.
</event>
<event>
 9   1  0.7570500E-01  0.2500081E+03  0.7546771E-02  0.1113300E+00
       21   -1    0    0  503  502  0.00000000000E+00  0.00000000000E+00  0.14754052278E+03  0.14754052278E+03  0.00000000000E+00 0.  1.
       21   -1    0    0  502  503 -0.00000000000E+00 -0.00000000000E+00 -0.10590996154E+03  0.10590996154E+03  0.00000000000E+00 0.  1.
       25    2    1    2    0    0  0.00000000000E+00 -0.10658141036E-13  0.41630561242E+02  0.25345048432E+03  0.25000808862E+03 0.  0.
       24    2    3    3    0    0  0.77895360475E+02  0.29513009101E+02 -0.28725025641E+02  0.11901157508E+03  0.79999518844E+02 0.  0.
      -24    2    3    3    0    0 -0.77895360475E+02 -0.29513009101E+02  0.70355586883E+02  0.13443890924E+03  0.78646085875E+02 0.  0.
      -13    1    4    4    0    0 -0.13752490106E+02  0.22966670518E+00 -0.17332575895E+02  0.22126950040E+02  0.00000000000E+00 0.  1.
       14    1    4    4    0    0  0.91647850581E+02  0.29283342396E+02 -0.11392449746E+02  0.96884625041E+02  0.00000000000E+00 0. -1.
        1    1    5    5  501    0 -0.26113302102E+02  0.51094464206E+01 -0.13612849367E+02  0.29888470307E+02  0.00000000000E+00 0. -1.
       -2    1    5    5    0  501 -0.51782058373E+02 -0.34622455522E+02  0.83968436250E+02  0.10455043894E+03  0.00000000000E+00 0.  1.
</event>
<event>
 9   1  0.7570500E-01  0.2500005E+03  0.7546771E-02  0.1113304E+00
       21   -1    0    0  503  502  0.00000000000E+00  0.00000000000E+00  0.41820138127E+02  0.41820138127E+02  0.00000000000E+00 0. -1.
       21   -1    0    0  502  503 -0.00000000000E+00 -0.00000000000E+00 -0.37362535904E+03  0.37362535904E+03  0.00000000000E+00 0. -1.
       25    2    1    2    0    0 -0.71054273576E-14  0.00000000000E+00 -0.33180522091E+03  0.41544549717E+03  0.25000051298E+03 0.  0.
       24    2    3    3    0    0  0.48552758337E+02  0.79298727468E+02 -0.12637624159E+03  0.17639296070E+03  0.80609327169E+02 0.  0.
      -24    2    3    3    0    0 -0.48552758337E+02 -0.79298727468E+02 -0.20542897932E+03  0.23905253646E+03  0.79368703687E+02 0.  0.
      -13    1    4    4    0    0  0.77730222216E+01  0.79574304310E+02 -0.99098855436E+02  0.12733056557E+03  0.00000000000E+00 0.  1.
       14    1    4    4    0    0  0.40779736116E+02 -0.27557684268E+00 -0.27277386157E+02  0.49062395129E+02  0.00000000000E+00 0. -1.
        1    1    5    5  501    0 -0.70070662668E+02 -0.68982650791E+02 -0.16232041489E+03  0.18977992773E+03  0.00000000000E+00 0. -1.
       -2    1    5    5    0  501  0.21517904330E+02 -0.10316076676E+02 -0.43108564427E+02  0.49272608737E+02  0.00000000000E+00 0.  1.
</event>
<event>
 9   1  0.7570500E-01  0.2500024E+03  0.7546771E-02  0.1113303E+00
       21   -1    0    0  503  502  0.00000000000E+00  0.00000000000E+00  0.21454779693E+03  0.21454779693E+03  0.00000000000E+00 0. -1.
       21   -1    0    0  502  503 -0.00000000000E+00 -0.00000000000E+00 -0.72828992552E+02  0.72828992552E+02  0.00000000000E+00 0. -1.
       25    2    1    2    0    0  0.71054273576E-14  0.00000000000E+00  0.14171880438E+03  0.28737678949E+03  0.25000239923E+03 0.  0.
       24    2    3    3    0    0 -0.50034060928E+02 -0.74101631653E+02  0.38676908275E+02  0.12882406685E+03  0.84292810481E+02 0.  0.
      -24    2    3    3    0    0  0.50034060928E+02  0.74101631653E+02  0.10304189611E+03  0.15855272264E+03  0.80789073743E+02 0.  0.
      -13    1    4    4    0    0 -0.20373742828E+02 -0.20145697399E+02 -0.26596322591E+02  0.39093514755E+02  0.00000000000E+00 0.  1.
       14    1    4    4    0    0 -0.29660318100E+02 -0.53955934254E+02  0.65273230867E+02  0.89730552092E+02  0.00000000000E+00 0. -1.
        3    1    5    5  501    0 -0.15261209253E+01  0.41175272803E+02  0.30313525309E+01  0.41314903288E+02  0.00000000000E+00 0. -1.
       -4    1    5    5    0  501  0.51560181853E+02  0.32926358850E+02  0.10001054358E+03  0.11723781935E+03  0.00000000000E+00 0.  1.
</event>
<event>
 9   1  0.7570500E-01  0.2500016E+03  0.7546771E-02  0.1113304E+00
       21   -1    0    0  503  502  0.00000000000E+00  0.00000000000E+00  0.85458001776E+02  0.85458001776E+02  0.00000000000E+00 0.  1.
       21   -1    0    0  502  503 -0.00000000000E+00 -0.00000000000E+00 -0.18284070081E+03  0.18284070081E+03  0.00000000000E+00 0.  1.
       25    2    1    2    0    0 -0.35527136788E-14 -0.14210854715E-13 -0.97382699031E+02  0.26829870258E+03  0.25000160747E+03 0.  0.
       24    2    3    3    0    0  0.62374576705E+01 -0.95749216696E+02 -0.45235541265E+02  0.13287509618E+03  0.80016989536E+02 0.  0.
      -24    2    3    3    0    0 -0.62374576705E+01  0.95749216696E+02 -0.52147157767E+02  0.13542360641E+03  0.80083760731E+02 0.  0.
      -13    1    4    4    0    0 -0.28644378523E+02 -0.13419602802E+02 -0.27071024445E+02  0.41634439168E+02  0.00000000000E+00 0.  1.
       14    1    4    4    0    0  0.34881836193E+02 -0.82329613894E+02 -0.18164516820E+02  0.91240657009E+02  0.00000000000E+00 0. -1.
        1    1    5    5  501    0  0.33327156034E+02  0.46114198757E+02 -0.42947395346E+02  0.71286025442E+02  0.00000000000E+00 0. -1.
       -2    1    5    5    0  501 -0.39564613704E+02  0.49635017939E+02 -0.91997624208E+01  0.64137580964E+02  0.00000000000E+00 0.  1.
</event>
<event>
 9   1  0.7570500E-01  0.2499948E+03  0.7546771E-02  0.1113308E+00
       21   -1    0    0  503  502  0.00000000000E+00  0.00000000000E+00  0.12863710326E+02  0.12863710326E+02  0.00000000000E+00 0.  1.
       21   -1    0    0  502  503 -0.00000000000E+00 -0.00000000000E+00 -0.12146070699E+04  0.12146070699E+04  0.00000000000E+00 0.  1.
       25    2    1    2    0    0  0.00000000000E+00  0.26645352591E-14 -0.12017433596E+04  0.12274707803E+04  0.24999482801E+03 0.  0.
       24    2    3    3    0    0 -0.67122011679E+02 -0.61205150546E+01 -0.26675062686E+03  0.28673636195E+03  0.80740443242E+02 0.  0.
      -24    2    3    3    0    0  0.67122011679E+02  0.61205150546E+01 -0.93499273274E+03  0.94073441831E+03  0.78911408268E+02 0.  0.
      -13    1    4    4    0    0 -0.34095908345E+02  0.29903075541E+02 -0.65708692791E+02  0.79839571648E+02  0.00000000000E+00 0.  1.
       14    1    4    4    0    0 -0.33026103334E+02 -0.36023590596E+02 -0.20104193407E+03  0.20689679030E+03  0.00000000000E+00 0. -1.
        1    1    5    5  501    0  0.43606727704E+01  0.12613643989E+02 -0.23228636027E+02  0.26789718427E+02  0.00000000000E+00 0. -1.
       -2    1    5    5    0  501  0.62761338908E+02 -0.64931289349E+01 -0.91176409671E+03  0.91394469988E+03  0.00000000000E+00 0.  1.
</event>
<event>
 9   1  0.7570500E-01  0.2500025E+03  0.7546771E-02  0.1113303E+00
       21   -1    0    0  503  502  0.00000000000E+00  0.00000000000E+00  0.31405471371E+02  0.31405471371E+02  0.00000000000E+00 0. -1.
       21   -1    0    0  502  503 -0.00000000000E+00 -0.00000000000E+00 -0.49753489820E+03  0.49753489820E+03  0.00000000000E+00 0. -1.
       25    2    1    2    0    0  0.00000000000E+00 -0.71054273576E-14 -0.46612942683E+03  0.52894036957E+03  0.25000254400E+03 0.  0.
       24    2    3    3    0    0 -0.52214650368E+02  0.35630763883E+02 -0.38574992710E+03  0.39918038414E+03  0.80907674405E+02 0.  0.
      -24    2    3    3    0    0  0.52214650368E+02 -0.35630763883E+02 -0.80379499728E+02  0.12975998543E+03  0.79880340472E+02 0.  0.
      -13    1    4    4    0    0 -0.36638703140E+02  0.40998982496E+02 -0.37607762029E+03  0.38007589718E+03  0.00000000000E+00 0.  1.
       14    1    4    4    0    0 -0.15575947228E+02 -0.53682186126E+01 -0.96723068125E+01  0.19104486965E+02  0.00000000000E+00 0. -1.
        1    1    5    5  501    0  0.36071231627E+02 -0.33436527346E+02 -0.95570771463E+02  0.10748445222E+03  0.00000000000E+00 0. -1.
       -2    1    5    5    0  501  0.16143418741E+02 -0.21942365365E+01  0.15191271734E+02  0.22275533204E+02  0.00000000000E+00 0.  1.
</event>
<event>
 9   1  0.7570500E-01  0.2500034E+03  0.7546771E-02  0.1113303E+00
       21   -1    0    0  503  502  0.00000000000E+00  0.00000000000E+00  0.16814853389E+03  0.16814853389E+03  0.00000000000E+00 0.  1.
       21   -1    0    0  502  503 -0.00000000000E+00 -0.00000000000E+00 -0.92926345130E+02  0.92926345130E+02  0.00000000000E+00 0.  1.
       25    2    1    2    0    0  0.00000000000E+00 -0.35527136788E-14  0.75222188760E+02  0.26107487902E+03  0.25000342952E+03 0.  0.
       24    2    3    3    0    0  0.87231432892E+02  0.27921826374E+02  0.67772896688E+02  0.13875500963E+03  0.79188609648E+02 0.  0.
      -24    2    3    3    0    0 -0.87231432892E+02 -0.27921826374E+02  0.74492920721E+01  0.12231986940E+03  0.80732318337E+02 0.  0.
      -13    1    4    4    0    0  0.35008251575E+02 -0.24948076193E+02  0.41998541752E+02  0.60098766155E+02  0.00000000000E+00 0.  1.
       14    1    4    4    0    0  0.52223181317E+02  0.52869902568E+02  0.25774354937E+02  0.78656243470E+02  0.00000000000E+00 0. -1.
        3    1    5    5  501    0 -0.44952984423E+02 -0.22505216265E+02  0.43511721515E+02  0.66487032397E+02  0.00000000000E+00 0. -1.
       -4    1    5    5    0  501 -0.42278448469E+02 -0.54166101090E+01 -0.36062429443E+02  0.55832836999E+02  0.00000000000E+00 0.  1.
</event>
<event>
 9   1  0.7570500E-01  0.2500029E+03  0.7546771E-02  0.1113303E+00
       21   -1    0    0  503  502  0.00000000000E+00  0.00000000000E+00  0.18037625894E+02  0.18037625894E+02  0.00000000000E+00 0. -1.
       21   -1    0    0  502  503 -0.00000000000E+00 -0.00000000000E+00 -0.86626511936E+03  0.86626511936E+03  0.00000000000E+00 0. -1.
       25    2    1    2    0    0  0.00000000000E+00  0.00000000000E+00 -0.84822749347E+03  0.88430274526E+03  0.25000292917E+03 0.  0.
       24    2    3    3    0    0 -0.76639245387E+02  0.32922789229E+02 -0.27194953566E+03  0.29669900530E+03  0.84357962367E+02 0.  0.
      -24    2    3    3    0    0  0.76639245387E+02 -0.32922789229E+02 -0.57627795781E+03  0.58760373996E+03  0.78894781668E+02 0.  0.
      -13    1    4    4    0    0 -0.14754477386E+02 -0.81487022548E+01 -0.16853618399E+03  0.16937692070E+03  0.00000000000E+00 0.  1.
       14    1    4    4    0    0 -0.61884768001E+02  0.41071491484E+02 -0.10341335168E+03  0.12732208460E+03  0.00000000000E+00 0. -1.
        1    1    5    5  501    0  0.60991263007E+02 -0.26277681635E+01 -0.50403158960E+03  0.50771515896E+03  0.00000000000E+00 0. -1.
       -2    1    5    5    0  501  0.15647982380E+02 -0.30295021065E+02 -0.72246368209E+02  0.79888580994E+02  0.00000000000E+00 0.  1.
</event>
<event>
 9   1  0.7570500E-01  0.2499988E+03  0.7546771E-02  0.1113306E+00
       21   -1    0    0  503  502  0.00000000000E+00  0.00000000000E+00  0.12200408109E+03  0.12200408109E+03  0.00000000000E+00 0. -1.
       21   -1    0    0  502  503 -0.00000000000E+00 -0.00000000000E+00 -0.12806828093E+03  0.12806828093E+03  0.00000000000E+00 0. -1.
       25    2    1    2    0    0  0.00000000000E+00  0.14210854715E-13 -0.60641998426E+01  0.25007236202E+03  0.24999882345E+03 0.  0.
       24    2    3    3    0    0  0.46016005660E+02 -0.67858258872E+02  0.41961307110E+02  0.12241898168E+03  0.80643906815E+02 0.  0.
      -24    2    3    3    0    0 -0.46016005660E+02  0.67858258872E+02 -0.48025506952E+02  0.12765338034E+03  0.85245059213E+02 0.  0.
      -13    1    4    4    0    0  0.16944909193E+02 -0.25070976414E+02 -0.23979264244E+02  0.38609440809E+02  0.00000000000E+00 0.  1.
       14    1    4    4    0    0  0.29071096467E+02 -0.42787282458E+02  0.65940571354E+02  0.83809540868E+02  0.00000000000E+00 0. -1.
        3    1    5    5  501    0  0.14253985159E+02 -0.89247235358E+01 -0.19932226743E+02  0.26079118966E+02  0.00000000000E+00 0. -1.
       -4    1    5    5    0  501 -0.60269990820E+02  0.76782982408E+02 -0.28093280209E+02  0.10157426137E+03  0.00000000000E+00 0.  1.
</event>
<event>
 9   1  0.7570500E-01  0.2499825E+03  0.7546771E-02  0.1113316E+00
       21   -1    0    0  503  502  0.00000000000E+00  0.00000000000E+00  0.35786034499E+02  0.35786034499E+02  0.00000000000E+00 0. -1.
       21   -1    0    0  502  503 -0.00000000000E+00 -0.00000000000E+00 -0.43656181030E+03  0.43656181030E+03  0.00000000000E+00 0. -1.
       25    2    1    2    0    0  0.71054273576E-14 -0.35527136788E-14 -0.40077577580E+03  0.47234784480E+03  0.24998252742E+03 0.  0.
       24    2    3    3    0    0  0.58986254385E+02  0.19726176506E+02 -0.33982278363E+03  0.35454067404E+03  0.79693569556E+02 0.  0.
      -24    2    3    3    0    0 -0.58986254385E+02 -0.19726176506E+02 -0.60952992171E+02  0.11780717076E+03  0.79339536056E+02 0.  0.
      -13    1    4    4    0    0 -0.14012653171E+02  0.70579283615E+01 -0.14924827617E+03  0.15007070581E+03  0.00000000000E+00 0.  1.
       14    1    4    4    0    0  0.72998907556E+02  0.12668248144E+02 -0.19057450746E+03  0.20446996823E+03  0.00000000000E+00 0. -1.
        3    1    5    5  501    0 -0.55066276056E+02  0.11148524528E+02 -0.65565396444E+02  0.86344690449E+02  0.00000000000E+00 0. -1.
       -4    1    5    5    0  501 -0.39199783288E+01 -0.30874701034E+02  0.46124042735E+01  0.31462480309E+02  0.00000000000E+00 0.  1.
</event>
<event>
 9   1  0.7570500E-01  0.2500048E+03  0.7546771E-02  0.1113302E+00
       21   -1    0    0  503  502  0.00000000000E+00  0.00000000000E+00  0.81372566754E+03  0.81372566754E+03  0.00000000000E+00 0.  1.
       21   -1    0    0  502  503 -0.00000000000E+00 -0.00000000000E+00 -0.19202542951E+02  0.19202542951E+02  0.00000000000E+00 0.  1.
       25    2    1    2    0    0  0.71054273576E-14 -0.14210854715E-13  0.79452312459E+03  0.83292821049E+03  0.25000481660E+03 0.  0.
       24    2    3    3    0    0  0.39176890512E+02 -0.85944960450E+02  0.42533501356E+03  0.44301460773E+03  0.80191669949E+02 0.  0.
      -24    2    3    3    0    0 -0.39176890512E+02  0.85944960450E+02  0.36918811104E+03  0.38991360276E+03  0.82531153584E+02 0.  0.
      -13    1    4    4    0    0  0.39972005610E+02 -0.22049155208E+02  0.28732560975E+03  0.29092942872E+03  0.00000000000E+00 0.  1.
       14    1    4    4    0    0 -0.79511509778E+00 -0.63895805241E+02  0.13800940381E+03  0.15208517901E+03  0.00000000000E+00 0. -1.
        3    1    5    5  501    0 -0.45235966177E+02  0.91575184726E+02  0.36755520718E+03  0.38148281405E+03  0.00000000000E+00 0. -1.
       -4    1    5    5    0  501  0.60590756649E+01 -0.56302242767E+01  0.16329038622E+01  0.84307887141E+01  0.00000000000E+00 0.  1.
</event>
<event>
 9   1  0.7570500E-01  0.2500549E+03  0.7546771E-02  0.1113270E+00
       21   -1    0    0  503  502  0.00000000000E+00  0.00000000000E+00  0.27430041255E+02  0.27430041255E+02  0.00000000000E+00 0.  1.
       21   -1    0    0  502  503 -0.00000000000E+00 -0.00000000000E+00 -0.56988097834E+03  0.56988097834E+03  0.00000000000E+00 0.  1.
       25    2    1    2    0    0  0.35527136788E-14  0.00000000000E+00 -0.54245093708E+03  0.59731101959E+03  0.25005486395E+03 0.  0.
       24    2    3    3    0    0  0.17472560606E+02 -0.40555634886E+02 -0.69971820728E+02  0.11578461686E+03  0.80993653517E+02 0.  0.
      -24    2    3    3    0    0 -0.17472560606E+02  0.40555634886E+02 -0.47247911635E+03  0.48152640273E+03  0.81738064839E+02 0.  0.
      -13    1    4    4    0    0 -0.45347004303E+01 -0.41586538822E+02  0.61698629630E+00  0.41837595429E+02  0.00000000000E+00 0.  1.
       14    1    4    4    0    0  0.22007261036E+02  0.10309039362E+01 -0.70588807025E+02  0.73947021430E+02  0.00000000000E+00 0. -1.
        1    1    5    5  501    0 -0.36317921239E+02  0.20496697813E+02 -0.10441770894E+03  0.11243737797E+03  0.00000000000E+00 0. -1.
       -2    1    5    5    0  501  0.18845360633E+02  0.20058937073E+02 -0.36806140741E+03  0.36908902476E+03  0.00000000000E+00 0.  1.
</event>
<event>
 9   1  0.7570500E-01  0.2499985E+03  0.7546771E-02  0.1113306E+00
       21   -1    0    0  503  502  0.00000000000E+00  0.00000000000E+00  0.29665232574E+02  0.29665232574E+02  0.00000000000E+00 0. -1.
       21   -1    0    0  502  503 -0.00000000000E+00 -0.00000000000E+00 -0.52670453581E+03  0.52670453581E+03  0.00000000000E+00 0. -1.
       25    2    1    2    0    0  0.17763568394E-14  0.00000000000E+00 -0.49703930323E+03  0.55636976838E+03  0.24999850041E+03 0.  0.
       24    2    3    3    0    0 -0.10767355503E+02  0.80060361600E+02 -0.14853672420E+03  0.18854105446E+03  0.83420461142E+02 0.  0.
      -24    2    3    3    0    0  0.10767355503E+02 -0.80060361600E+02 -0.34850257903E+03  0.36782871392E+03  0.85547166799E+02 0.  0.
      -13    1    4    4    0    0 -0.21706108065E+02  0.74651342292E+00 -0.23249234348E+01  0.21843023569E+02  0.00000000000E+00 0.  1.
       14    1    4    4    0    0  0.10938752562E+02  0.79313848177E+02 -0.14621180077E+03  0.16669803089E+03  0.00000000000E+00 0. -1.
        3    1    5    5  501    0  0.20411443326E+02 -0.95967865893E+02 -0.30819162285E+03  0.32343242679E+03  0.00000000000E+00 0. -1.
       -4    1    5    5    0  501 -0.96440878226E+01  0.15907504293E+02 -0.40310956179E+02  0.44396287129E+02  0.00000000000E+00 0.  1.
</event>
<event>
 9   1  0.7570500E-01  0.2499939E+03  0.7546771E-02  0.1113309E+00
       21   -1    0    0  503  502  0.00000000000E+00  0.00000000000E+00  0.50100719863E+02  0.50100719863E+02  0.00000000000E+00 0. -1.
       21   -1    0    0  502  503 -0.00000000000E+00 -0.00000000000E+00 -0.31185650839E+03  0.31185650839E+03  0.00000000000E+00 0. -1.
       25    2    1    2    0    0  0.00000000000E+00  0.00000000000E+00 -0.26175578853E+03  0.36195722826E+03  0.24999388444E+03 0.  0.
       24    2    3    3    0    0 -0.44456676000E+02  0.60381871911E+02 -0.20879327225E+03  0.23615200899E+03  0.80936853893E+02 0.  0.
      -24    2    3    3    0    0  0.44456676000E+02 -0.60381871911E+02 -0.52962516280E+02  0.12580521926E+03  0.86020686853E+02 0.  0.
      -13    1    4    4    0    0 -0.46266890451E+01  0.45866491270E+01 -0.13601506068E+03  0.13617099667E+03  0.00000000000E+00 0.  1.
       14    1    4    4    0    0 -0.39829986954E+02  0.55795222784E+02 -0.72778211572E+02  0.99981012327E+02  0.00000000000E+00 0. -1.
        3    1    5    5  501    0  0.52041406323E+02 -0.18576187229E+00 -0.14708774606E+02  0.54080408005E+02  0.00000000000E+00 0. -1.
       -4    1    5    5    0  501 -0.75847303238E+01 -0.60196110039E+02 -0.38253741674E+02  0.71724811258E+02  0.00000000000E+00 0.  1.
</event>
<event>
 9   1  0.7570500E-01  0.2499987E+03  0.7546771E-02  0.1113306E+00
       21   -1    0    0  503  502  0.00000000000E+00  0.00000000000E+00  0.89616292719E+01  0.89616292719E+01  0.00000000000E+00 0. -1.
       21   -1    0    0  502  503 -0.00000000000E+00 -0.00000000000E+00 -0.17435261168E+04  0.17435261168E+04  0.00000000000E+00 0. -1.
       25    2    1    2    0    0 -0.71054273576E-14 -0.14210854715E-13 -0.17345644875E+04  0.17524877460E+04  0.24999867747E+03 0.  0.
       24    2    3    3    0    0 -0.28424291636E+02 -0.63668814327E+02 -0.13036492095E+04  0.13086825009E+04  0.91032788316E+02 0.  0.
      -24    2    3    3    0    0  0.28424291636E+02  0.63668814327E+02 -0.43091527799E+03  0.44380524510E+03  0.80084083937E+02 0.  0.
      -13    1    4    4    0    0  0.19492157471E+02 -0.58184524658E+02 -0.91443056236E+03  0.91648711747E+03  0.00000000000E+00 0.  1.
       14    1    4    4    0    0 -0.47916449107E+02 -0.54842896687E+01 -0.38921864714E+03  0.39219538346E+03  0.00000000000E+00 0. -1.
        3    1    5    5  501    0  0.35390980113E+02  0.99217677340E+01 -0.29810543935E+03  0.30036280715E+03  0.00000000000E+00 0. -1.
       -4    1    5    5    0  501 -0.69666884766E+01  0.53747046593E+02 -0.13280983865E+03  0.14344243796E+03  0.00000000000E+00 0.  1.
</event>
<event>
 9   1  0.7570500E-01  0.2499941E+03  0.7546771E-02  0.1113309E+00
       21   -1    0    0  503  502  0.00000000000E+00  0.00000000000E+00  0.16627696317E+03  0.16627696317E+03  0.00000000000E+00 0.  1.
       21   -1    0    0  502  503 -0.00000000000E+00 -0.00000000000E+00 -0.93965256762E+02  0.93965256762E+02  0.00000000000E+00 0.  1.
       25    2    1    2    0    0  0.00000000000E+00  0.00000000000E+00  0.72311706407E+02  0.26024221993E+03  0.24999406023E+03 0.  0.
       24    2    3    3    0    0 -0.52034894166E+02 -0.18765024800E+02 -0.45721752011E+02  0.10735913010E+03  0.79848280140E+02 0.  0.
      -24    2    3    3    0    0  0.52034894166E+02  0.18765024800E+02  0.11803345842E+03  0.15288308984E+03  0.79884826375E+02 0.  0.
      -13    1    4    4    0    0  0.14984554497E+02 -0.45912683686E+01 -0.34568572108E+02  0.37955273629E+02  0.00000000000E+00 0.  1.
       14    1    4    4    0    0 -0.67019448663E+02 -0.14173756432E+02 -0.11153179903E+02  0.69403856467E+02  0.00000000000E+00 0. -1.
        1    1    5    5  501    0  0.71902727035E+02  0.20635202564E+02  0.77552488233E+02  0.10775064812E+03  0.00000000000E+00 0. -1.
       -2    1    5    5    0  501 -0.19867832869E+02 -0.18701777639E+01  0.40480970184E+02  0.45132441711E+02  0.00000000000E+00 0.  1.
</event>
<event>
 9   1  0.7570500E-01  0.2500043E+03  0.7546771E-02  0.1113302E+00
       21   -1    0    0  503  502  0.00000000000E+00  0.00000000000E+00  0.24977554633E+04  0.24977554633E+04  0.00000000000E+00 0. -1.
       21   -1    0    0  502  503 -0.00000000000E+00 -0.00000000000E+00 -0.62558316907E+01  0.62558316907E+01  0.00000000000E+00 0. -1.
       25    2    1    2    0    0 -0.71054273576E-14 -0.71054273576E-14  0.24914996316E+04  0.25040112950E+04  0.25000430222E+03 0.  0.
       24    2    3    3    0    0 -0.14412784346E+02 -0.61293134487E+02  0.19495560233E+04  0.19522154288E+04  0.80073815661E+02 0.  0.
      -24    2    3    3    0    0  0.14412784346E+02  0.61293134487E+02  0.54194360829E+03  0.55179586612E+03  0.82530155808E+02 0.  0.
      -13    1    4    4    0    0  0.20092396210E+02  0.10076287384E+02  0.39353785217E+03  0.39417924482E+03  0.00000000000E+00 0.  1.
       14    1    4    4    0    0 -0.34505180556E+02 -0.71369421872E+02  0.15560181711E+04  0.15580361840E+04  0.00000000000E+00 0. -1.
        1    1    5    5  501    0  0.36280712470E+02  0.21831518600E+02  0.11630683496E+03  0.12377473555E+03  0.00000000000E+00 0. -1.
       -2    1    5    5    0  501 -0.21867928124E+02  0.39461615887E+02  0.42563677333E+03  0.42802113057E+03  0.00000000000E+00 0.  1.
</event>
<event>
 9   1  0.7570500E-01  0.2500008E+03  0.7546771E-02  0.1113304E+00
       21   -1    0    0  503  502  0.00000000000E+00  0.00000000000E+00  0.74513484187E+03  0.74513484187E+03  0.00000000000E+00 0. -1.
       21   -1    0    0  502  503 -0.00000000000E+00 -0.00000000000E+00 -0.20969488887E+02  0.20969488887E+02  0.00000000000E+00 0. -1.
       25    2    1    2    0    0  0.00000000000E+00  0.14210854715E-13  0.72416535298E+03  0.76610433075E+03  0.25000077428E+03 0.  0.
       24    2    3    3    0    0 -0.52551463242E+02 -0.74689299803E+02  0.27158510349E+03  0.29744380112E+03  0.79838578372E+02 0.  0.
      -24    2    3    3    0    0  0.52551463242E+02  0.74689299803E+02  0.45258024949E+03  0.46866052963E+03  0.80459070392E+02 0.  0.
      -13    1    4    4    0    0 -0.17583616311E+02  0.69388990094E+01  0.10400467799E+02  0.21575486379E+02  0.00000000000E+00 0.  1.
       14    1    4    4    0    0 -0.34967846931E+02 -0.81628198812E+02  0.26118463569E+03  0.27586831474E+03  0.00000000000E+00 0. -1.
        1    1    5    5  501    0  0.19651885960E+02  0.84538902479E+02  0.30278625928E+03  0.31498022393E+03  0.00000000000E+00 0. -1.
       -2    1    5    5    0  501  0.32899577282E+02 -0.98496026760E+01  0.14979399021E+03  0.15368030571E+03  0.00000000000E+00 0.  1.
</event>
<event>
 9   1  0.7570500E-01  0.2499953E+03  0.7546771E-02  0.1113308E+00
       21   -1    0    0  503  502  0.00000000000E+00  0.00000000000E+00  0.20660742488E+02  0.20660742488E+02  0.00000000000E+00 0. -1.
       21   -1    0    0  502  503 -0.00000000000E+00 -0.00000000000E+00 -0.75623649410E+03  0.75623649410E+03  0.00000000000E+00 0. -1.
       25    2    1    2    0    0  0.35527136788E-14  0.00000000000E+00 -0.73557575161E+03  0.77689723659E+03  0.24999525967E+03 0.  0.
       24    2    3    3    0    0 -0.18030240069E+02 -0.93875129829E+02 -0.39970181398E+03  0.41871476175E+03  0.80142885233E+02 0.  0.
      -24    2    3    3    0    0  0.18030240069E+02  0.93875129829E+02 -0.33587393763E+03  0.35818247484E+03  0.79660239398E+02 0.  0.
      -13    1    4    4    0    0 -0.33193338182E+02 -0.46710330838E+02 -0.31833931519E+03  0.32345567285E+03  0.00000000000E+00 0.  1.
       14    1    4    4    0    0  0.15163098113E+02 -0.47164798991E+02 -0.81362498791E+02  0.95259088899E+02  0.00000000000E+00 0. -1.
        1    1    5    5  501    0 -0.23254806777E+02  0.75659633923E+02 -0.20522285151E+03  0.21995814380E+03  0.00000000000E+00 0. -1.
       -2    1    5    5    0  501  0.41285046846E+02  0.18215495906E+02 -0.13065108612E+03  0.13822433103E+03  0.00000000000E+00 0.  1.
</event>
<event>
 9   1  0.7570500E-01  0.2499977E+03  0.7546771E-02  0.1113306E+00
       21   -1    0    0  503  502  0.00000000000E+00  0.00000000000E+00  0.16909160245E+03  0.16909160245E+03  0.00000000000E+00 0. -1.
       21   -1    0    0  502  503 -0.00000000000E+00 -0.00000000000E+00 -0.92403807793E+02  0.92403807793E+02  0.00000000000E+00 0. -1.
       25    2    1    2    0    0  0.00000000000E+00  0.00000000000E+00  0.76687794660E+02  0.26149541025E+03  0.24999766345E+03 0.  0.
       24    2    3    3    0    0  0.20846766378E+02  0.85784237276E+02 -0.96934262582E+01  0.11410340239E+03  0.71638682917E+02 0.  0.
      -24    2    3    3    0    0 -0.20846766378E+02 -0.85784237276E+02  0.86381220918E+02  0.14739200786E+03  0.80431123453E+02 0.  0.
      -13    1    4    4    0    0  0.44740648296E+02  0.33832853472E+02 -0.96734532856E+01  0.56920675351E+02  0.00000000000E+00 0.  1.
       14    1    4    4    0    0 -0.23893881917E+02  0.51951383805E+02 -0.19972972563E-01  0.57182727035E+02  0.00000000000E+00 0. -1.
        3    1    5    5  501    0  0.29623968385E+02 -0.45889714144E+02  0.33170982853E+02  0.63904299312E+02  0.00000000000E+00 0. -1.
       -4    1    5    5    0  501 -0.50470734764E+02 -0.39894523133E+02  0.53210238065E+02  0.83487708548E+02  0.00000000000E+00 0.  1.
</event>
<event>
 9   1  0.7570500E-01  0.2499949E+03  0.7546771E-02  0.1113308E+00
       21   -1    0    0  503  502  0.00000000000E+00  0.00000000000E+00  0.22615189283E+02  0.22615189283E+02  0.00000000000E+00 0.  1.
       21   -1    0    0  502  503 -0.00000000000E+00 -0.00000000000E+00 -0.69087911767E+03  0.69087911767E+03  0.00000000000E+00 0.  1.
       25    2    1    2    0    0  0.00000000000E+00 -0.35527136788E-14 -0.66826392839E+03  0.71349430696E+03  0.24999489609E+03 0.  0.
       24    2    3    3    0    0 -0.33337047368E+02  0.14314459050E+02 -0.58452671855E+03  0.59111017689E+03  0.80146703358E+02 0.  0.
      -24    2    3    3    0    0  0.33337047368E+02 -0.14314459050E+02 -0.83737209837E+02  0.12238413006E+03  0.81545646818E+02 0.  0.
      -13    1    4    4    0    0 -0.17255282446E+01 -0.19609629751E+02 -0.39687961579E+02  0.44301798168E+02  0.00000000000E+00 0.  1.
       14    1    4    4    0    0 -0.31611519123E+02  0.33924088800E+02 -0.54483875697E+03  0.54680837872E+03  0.00000000000E+00 0. -1.
        1    1    5    5  501    0  0.22483862146E+02 -0.37296461721E+02 -0.10408829023E+02  0.44776040865E+02  0.00000000000E+00 0. -1.
       -2    1    5    5    0  501  0.10853185222E+02  0.22982002671E+02 -0.73328380814E+02  0.77608089199E+02  0.00000000000E+00 0.  1.
</event>
<event>
 9   1  0.7570500E-01  0.2499956E+03  0.7546771E-02  0.1113308E+00
       21   -1    0    0  503  502  0.00000000000E+00  0.00000000000E+00  0.60374459063E+03  0.60374459063E+03  0.00000000000E+00 0.  1.
       21   -1    0    0  502  503 -0.00000000000E+00 -0.00000000000E+00 -0.25879236718E+02  0.25879236718E+02  0.00000000000E+00 0.  1.
       25    2    1    2    0    0  0.00000000000E+00  0.00000000000E+00  0.57786535391E+03  0.62962382734E+03  0.24999559338E+03 0.  0.
       24    2    3    3    0    0  0.32455991052E+02  0.86595217311E+02  0.18147151788E+03  0.21491831241E+03  0.68599170491E+02 0.  0.
      -24    2    3    3    0    0 -0.32455991052E+02 -0.86595217311E+02  0.39639383603E+03  0.41470551494E+03  0.79375486501E+02 0.  0.
      -13    1    4    4    0    0  0.50232629769E+01  0.71715110526E+02  0.16420249431E+03  0.17925052130E+03  0.00000000000E+00 0.  1.
       14    1    4    4    0    0  0.27432728075E+02  0.14880106784E+02  0.17269023563E+02  0.35667791106E+02  0.00000000000E+00 0. -1.
        1    1    5    5  501    0 -0.40116328252E+02 -0.81818076219E+01  0.10093852506E+03  0.10892588127E+03  0.00000000000E+00 0. -1.
       -2    1    5    5    0  501  0.76603372006E+01 -0.78413409689E+02  0.29545531097E+03  0.30577963367E+03  0.00000000000E+00 0.  1.
</event>
<event>
 9   1  0.7570500E-01  0.2500019E+03  0.7546771E-02  0.1113304E+00
       21   -1    0    0  503  502  0.00000000000E+00  0.00000000000E+00  0.31111648430E+03  0.31111648430E+03  0.00000000000E+00 0. -1.
       21   -1    0    0  502  503 -0.00000000000E+00 -0.00000000000E+00 -0.50223094180E+02  0.50223094180E+02  0.00000000000E+00 0. -1.
       25    2    1    2    0    0  0.00000000000E+00  0.00000000000E+00  0.26089339012E+03  0.36133957849E+03  0.25000185993E+03 0.  0.
       24    2    3    3    0    0  0.64112751775E+02 -0.54991511366E+02  0.65112410272E+02  0.13342826749E+03  0.80180828945E+02 0.  0.
      -24    2    3    3    0    0 -0.64112751775E+02  0.54991511366E+02  0.19578097985E+03  0.22791131100E+03  0.80491380576E+02 0.  0.
      -13    1    4    4    0    0  0.53925695694E+02 -0.29553141668E+02  0.81043031449E+02  0.10173171475E+03  0.00000000000E+00 0.  1.
       14    1    4    4    0    0  0.10187056081E+02 -0.25438369699E+02 -0.15930621177E+02  0.31696552740E+02  0.00000000000E+00 0. -1.
        3    1    5    5  501    0 -0.69906504323E+02  0.51247227901E+02  0.20124047903E+03  0.21911396148E+03  0.00000000000E+00 0. -1.
       -4    1    5    5    0  501  0.57937525478E+01  0.37442834654E+01 -0.54594991807E+01  0.87973495189E+01  0.00000000000E+00 0.  1.
</event>
<event>
 9   1  0.7570500E-01  0.2500620E+03  0.7546771E-02  0.1113266E+00
       21   -1    0    0  503  502  0.00000000000E+00  0.00000000000E+00  0.47448635776E+03  0.47448635776E+03  0.00000000000E+00 0. -1.
       21   -1    0    0  502  503 -0.00000000000E+00 -0.00000000000E+00 -0.32946684689E+02  0.32946684689E+02  0.00000000000E+00 0. -1.
       25    2    1    2    0    0  0.00000000000E+00  0.00000000000E+00  0.44153967307E+03  0.50743304245E+03  0.25006201166E+03 0.  0.
       24    2    3    3    0    0  0.84163280011E+02  0.45889035467E+01  0.32836081006E+03  0.34848230512E+03  0.80712946077E+02 0.  0.
      -24    2    3    3    0    0 -0.84163280011E+02 -0.45889035467E+01  0.11317886301E+03  0.15895073733E+03  0.73153032236E+02 0.  0.
      -13    1    4    4    0    0  0.12636369586E+02  0.26358488607E+02  0.17988259796E+03  0.18224213784E+03  0.00000000000E+00 0.  1.
       14    1    4    4    0    0  0.71526910425E+02 -0.21769585060E+02  0.14847821210E+03  0.16624016728E+03  0.00000000000E+00 0. -1.
        1    1    5    5  501    0 -0.36301374940E+02 -0.32869967122E+02  0.25710522879E+02  0.55310537404E+02  0.00000000000E+00 0. -1.
       -2    1    5    5    0  501 -0.47861905071E+02  0.28281063576E+02  0.87468340134E+02  0.10364019992E+03  0.00000000000E+00 0.  1.
</event>
<event>
 9   1  0.7570500E-01  0.2499988E+03  0.7546771E-02  0.1113306E+00
       21   -1    0    0  503  502  0.00000000000E+00  0.00000000000E+00  0.95911830528E+02  0.95911830528E+02  0.00000000000E+00 0.  1.
       21   -1    0    0  502  503 -0.00000000000E+00 -0.00000000000E+00 -0.16290845257E+03  0.16290845257E+03  0.00000000000E+00 0.  1.
       25    2    1    2    0    0  0.00000000000E+00  0.00000000000E+00 -0.66996622044E+02  0.25882028310E+03  0.24999878315E+03 0.  0.
       24    2    3    3    0    0 -0.15280618643E+02 -0.67649145766E+02  0.32075247555E+02  0.11081125367E+03  0.80252153898E+02 0.  0.
      -24    2    3    3    0    0  0.15280618643E+02  0.67649145766E+02 -0.99071869599E+02  0.14800902943E+03  0.85331900353E+02 0.  0.
      -13    1    4    4    0    0 -0.40478105754E+02 -0.68175052840E+02  0.15902032552E+02  0.80865255298E+02  0.00000000000E+00 0.  1.
       14    1    4    4    0    0  0.25197487111E+02  0.52590707436E+00  0.16173215003E+02  0.29945998372E+02  0.00000000000E+00 0. -1.
        3    1    5    5  501    0  0.34633939951E+01  0.87052350171E+02 -0.75699369159E+02  0.11541447595E+03  0.00000000000E+00 0. -1.
       -4    1    5    5    0  501  0.11817224648E+02 -0.19403204405E+02 -0.23372500440E+02  0.32594553477E+02  0.00000000000E+00 0.  1.
</event>
<event>
 8   1  0.7570500E-01  0.2501385E+03  0.7546771E-02  0.1113217E+00
       21   -1    0    0  503  502  0.00000000000E+00  0.00000000000E+00  0.79328926933E+03  0.79328926933E+03  0.00000000000E+00 0.  1.
       21   -1    0    0  502  503 -0.00000000000E+00 -0.00000000000E+00 -0.19718302921E+02  0.19718302921E+02  0.00000000000E+00 0.  1.
       24    2    1    2    0    0 -0.26217865899E+02  0.92595095645E+02  0.37832850817E+03  0.39838788283E+03  0.79493501998E+02 0.  0.
      -24    2    1    2    0    0  0.26217865899E+02 -0.92595095645E+02  0.39524245824E+03  0.41461968943E+03  0.80197617379E+02 0.  0.
      -13    1    3    3    0    0 -0.28371707231E+02  0.97465452183E+02  0.24827711963E+03  0.26822750842E+03  0.00000000000E+00 0.  1.
       14    1    3    3    0    0  0.21538413318E+01 -0.48703565386E+01  0.13005138853E+03  0.13016037440E+03  0.00000000000E+00 0. -1.
        3    1    4    4  501    0  0.29367266028E+02  0.28061821568E+01  0.81311574532E+02  0.86497879310E+02  0.00000000000E+00 0. -1.
       -4    1    4    4    0  501 -0.31494001285E+01 -0.95401277802E+02  0.31393088371E+03  0.32812181012E+03  0.00000000000E+00 0.  1.
</event>
<event>
 9   1  0.7570500E-01  0.2499991E+03  0.7546771E-02  0.1113305E+00
       21   -1    0    0  503  502  0.00000000000E+00  0.00000000000E+00  0.23458970068E+03  0.23458970068E+03  0.00000000000E+00 0. -1.
       21   -1    0    0  502  503 -0.00000000000E+00 -0.00000000000E+00 -0.66605180298E+02  0.66605180298E+02  0.00000000000E+00 0. -1.
       25    2    1    2    0    0  0.14210854715E-13  0.00000000000E+00  0.16798452039E+03  0.30119488098E+03  0.24999911448E+03 0.  0.
       24    2    3    3    0    0  0.82627172458E+02 -0.52877866184E+02  0.75731093275E+02  0.14273789792E+03  0.70820834883E+02 0.  0.
      -24    2    3    3    0    0 -0.82627172458E+02  0.52877866184E+02  0.92253427112E+02  0.15845698306E+03  0.83514084481E+02 0.  0.
      -13    1    4    4    0    0  0.65170169547E+02 -0.21570360504E+00  0.35555128323E+02  0.74238565968E+02  0.00000000000E+00 0.  1.
       14    1    4    4    0    0  0.17457002911E+02 -0.52662162579E+02  0.40175964952E+02  0.68499331953E+02  0.00000000000E+00 0. -1.
        3    1    5    5  501    0 -0.19588913924E+02  0.25710126280E+02 -0.11280839671E+02  0.34234390395E+02  0.00000000000E+00 0. -1.
       -4    1    5    5    0  501 -0.63038258534E+02  0.27167739905E+02  0.10353426678E+03  0.12422259267E+03  0.00000000000E+00 0.  1.
</event>
<event>
 9   1  0.7570500E-01  0.2500022E+03  0.7546771E-02  0.1113303E+00
       21   -1    0    0  503  502  0.00000000000E+00  0.00000000000E+00  0.46413035931E+03  0.46413035931E+03  0.00000000000E+00 0. -1.
       21   -1    0    0  502  503 -0.00000000000E+00 -0.00000000000E+00 -0.33665709383E+02  0.33665709383E+02  0.00000000000E+00 0. -1.
       25    2    1    2    0    0  0.00000000000E+00  0.00000000000E+00  0.43046464992E+03  0.49779606869E+03  0.25000222233E+03 0.  0.
       24    2    3    3    0    0 -0.78947521582E+02  0.15672207670E+02  0.30418806203E+03  0.32478526139E+03  0.80478318051E+02 0.  0.
      -24    2    3    3    0    0  0.78947521582E+02 -0.15672207670E+02  0.12627658790E+03  0.17301080730E+03  0.86652371783E+02 0.  0.
      -13    1    4    4    0    0 -0.22082905670E+01  0.17953282976E+02  0.16363161765E+03  0.16462837912E+03  0.00000000000E+00 0.  1.
       14    1    4    4    0    0 -0.76739231015E+02 -0.22810753061E+01  0.14055644438E+03  0.16015688227E+03  0.00000000000E+00 0. -1.
        1    1    5    5  501    0  0.26675735127E+02  0.33206983803E+02  0.70119976334E+02  0.82043340369E+02  0.00000000000E+00 0. -1.
       -2    1    5    5    0  501  0.52271786454E+02 -0.48879191472E+02  0.56156611561E+02  0.90967466932E+02  0.00000000000E+00 0.  1.
</event>
<event>
 9   1  0.7570500E-01  0.2500008E+03  0.7546771E-02  0.1113304E+00
       21   -1    0    0  503  502  0.00000000000E+00  0.00000000000E+00  0.91411885029E+02  0.91411885029E+02  0.00000000000E+00 0.  1.
       21   -1    0    0  502  503 -0.00000000000E+00 -0.00000000000E+00 -0.17093073897E+03  0.17093073897E+03  0.00000000000E+00 0.  1.
       25    2    1    2    0    0  0.00000000000E+00  0.00000000000E+00 -0.79518853938E+02  0.26234262400E+03  0.25000080847E+03 0.  0.
       24    2    3    3    0    0 -0.51587593910E+02  0.70930584947E+02  0.10093156141E+01  0.11912271964E+03  0.80602579923E+02 0.  0.
      -24    2    3    3    0    0  0.51587593910E+02 -0.70930584947E+02 -0.80528169553E+02  0.14321990436E+03  0.79590999403E+02 0.  0.
      -13    1    4    4    0    0  0.91988901757E+00  0.65221740309E+02 -0.73773748642E+01  0.65644095428E+02  0.00000000000E+00 0.  1.
       14    1    4    4    0    0 -0.52507482927E+02  0.57088446385E+01  0.83866904783E+01  0.53478624213E+02  0.00000000000E+00 0. -1.
        3    1    5    5  501    0  0.70262827887E+02 -0.44319199992E+02 -0.71167646131E+02  0.10938871206E+03  0.00000000000E+00 0. -1.
       -4    1    5    5    0  501 -0.18675233977E+02 -0.26611384955E+02 -0.93605234216E+01  0.33831192294E+02  0.00000000000E+00 0.  1.
</event>
<event>
 9   1  0.7570500E-01  0.2499992E+03  0.7546771E-02  0.1113305E+00
       21   -1    0    0  503  502  0.00000000000E+00  0.00000000000E+00  0.97774773538E+03  0.97774773538E+03  0.00000000000E+00 0.  1.
       21   -1    0    0  502  503 -0.00000000000E+00 -0.00000000000E+00 -0.15980498262E+02  0.15980498262E+02  0.00000000000E+00 0.  1.
       25    2    1    2    0    0  0.00000000000E+00  0.00000000000E+00  0.96176723712E+03  0.99372823364E+03  0.24999916788E+03 0.  0.
       24    2    3    3    0    0 -0.16914244712E+02  0.45085980148E+02  0.81033049545E+03  0.81577188476E+03  0.80804819353E+02 0.  0.
      -24    2    3    3    0    0  0.16914244712E+02 -0.45085980148E+02  0.15143674167E+03  0.17795634888E+03  0.80103296435E+02 0.  0.
      -13    1    4    4    0    0 -0.19237917791E+02 -0.71676442764E+00  0.60817002280E+03  0.60847464028E+03  0.00000000000E+00 0.  1.
       14    1    4    4    0    0  0.23236730782E+01  0.45802744576E+02  0.20216047265E+03  0.20729724448E+03  0.00000000000E+00 0. -1.
        1    1    5    5  501    0  0.29101594757E+02 -0.21799198767E+02  0.14683916265E+03  0.15127408097E+03  0.00000000000E+00 0. -1.
       -2    1    5    5    0  501 -0.12187350045E+02 -0.23286781381E+02  0.45975790176E+01  0.26682267914E+02  0.00000000000E+00 0.  1.
</event>
<event>
 9   1  0.7570500E-01  0.2499929E+03  0.7546771E-02  0.1113309E+00
       21   -1    0    0  503  502  0.00000000000E+00  0.00000000000E+00  0.65507475739E+03  0.65507475739E+03  0.00000000000E+00 0. -1.
       21   -1    0    0  502  503 -0.00000000000E+00 -0.00000000000E+00 -0.23850893654E+02  0.23850893654E+02  0.00000000000E+00 0. -1.
       25    2    1    2    0    0  0.14210854715E-13  0.71054273576E-14  0.63122386373E+03  0.67892565104E+03  0.24999294689E+03 0.  0.
       24    2    3    3    0    0  0.74064025026E+02  0.55983325711E+02  0.25543851600E+03  0.28375406122E+03  0.81534773202E+02 0.  0.
      -24    2    3    3    0    0 -0.74064025026E+02 -0.55983325711E+02  0.37578534773E+03  0.39517158982E+03  0.79538325798E+02 0.  0.
      -13    1    4    4    0    0  0.53620137865E+02 -0.36799865163E+01  0.72500336226E+02  0.90249433452E+02  0.00000000000E+00 0.  1.
       14    1    4    4    0    0  0.20443887160E+02  0.59663312227E+02  0.18293817978E+03  0.19350462777E+03  0.00000000000E+00 0. -1.
        3    1    5    5  501    0 -0.44029406932E+02 -0.17874612020E+02  0.64430486829E+02  0.80058591436E+02  0.00000000000E+00 0. -1.
       -4    1    5    5    0  501 -0.30034618094E+02 -0.38108713691E+02  0.31135486090E+03  0.31511299838E+03  0.00000000000E+00 0.  1.
</event>
<event>
 9   1  0.7570500E-01  0.2499967E+03  0.7546771E-02  0.1113307E+00
       21   -1    0    0  503  502  0.00000000000E+00  0.00000000000E+00  0.10853436814E+02  0.10853436814E+02  0.00000000000E+00 0.  1.
       21   -1    0    0  502  503 -0.00000000000E+00 -0.00000000000E+00 -0.14395979466E+04  0.14395979466E+04  0.00000000000E+00 0.  1.
       25    2    1    2    0    0  0.00000000000E+00  0.00000000000E+00 -0.14287445098E+04  0.14504513834E+04  0.24999668278E+03 0.  0.
       24    2    3    3    0    0  0.48213656796E+02 -0.76193008602E+01 -0.22533151467E+03  0.24398364373E+03  0.79819273709E+02 0.  0.
      -24    2    3    3    0    0 -0.48213656796E+02  0.76193008602E+01 -0.12034129951E+04  0.12064677397E+04  0.70561743492E+02 0.  0.
      -13    1    4    4    0    0  0.35600606250E+02 -0.35064040488E+02 -0.71595914448E+02  0.87309020532E+02  0.00000000000E+00 0.  1.
       14    1    4    4    0    0  0.12613050546E+02  0.27444739628E+02 -0.15373560023E+03  0.15667462320E+03  0.00000000000E+00 0. -1.
        3    1    5    5  501    0 -0.29756170641E+02 -0.21005808255E+02 -0.95917173937E+03  0.95986306277E+03  0.00000000000E+00 0. -1.
       -4    1    5    5    0  501 -0.18457486155E+02  0.28625109116E+02 -0.24424125572E+03  0.24660467689E+03  0.00000000000E+00 0.  1.
</event>
<event>
 9   1  0.7570500E-01  0.2499685E+03  0.7546771E-02  0.1113325E+00
       21   -1    0    0  503  502  0.00000000000E+00  0.00000000000E+00  0.25801352284E+03  0.25801352284E+03  0.00000000000E+00 0.  1.
       21   -1    0    0  502  503 -0.00000000000E+00 -0.00000000000E+00 -0.60543582972E+02  0.60543582972E+02  0.00000000000E+00 0.  1.
       25    2    1    2    0    0 -0.14210854715E-13  0.00000000000E+00  0.19746993987E+03  0.31855710581E+03  0.24996850304E+03 0.  0.
       24    2    3    3    0    0 -0.73569551596E+02  0.58194142363E+02  0.12812106586E+03  0.17723049895E+03  0.78718518240E+02 0.  0.
      -24    2    3    3    0    0  0.73569551596E+02 -0.58194142363E+02  0.69348874004E+02  0.14132660686E+03  0.79780363202E+02 0.  0.
      -13    1    4    4    0    0 -0.51445182288E+02 -0.64597974083E+01  0.72436045750E+02  0.89080393393E+02  0.00000000000E+00 0.  1.
       14    1    4    4    0    0 -0.22124369308E+02  0.64653939772E+02  0.55685020112E+02  0.88150105559E+02  0.00000000000E+00 0. -1.
        3    1    5    5  501    0  0.73152030360E+02 -0.24967436171E+02  0.74905815200E+02  0.10763583774E+03  0.00000000000E+00 0. -1.
       -4    1    5    5    0  501  0.41752123562E+00 -0.33226706192E+02 -0.55569411959E+01  0.33690769119E+02  0.00000000000E+00 0.  1.
</event>
<event>
 9   1  0.7570500E-01  0.2499986E+03  0.7546771E-02  0.1113306E+00
       21   -1    0    0  503  502  0.00000000000E+00  0.00000000000E+00  0.34857833356E+02  0.34857833356E+02  0.00000000000E+00 0.  1.
       21   -1    0    0  502  503 -0.00000000000E+00 -0.00000000000E+00 -0.44824412435E+03  0.44824412435E+03  0.00000000000E+00 0.  1.
       25    2    1    2    0    0  0.00000000000E+00  0.00000000000E+00 -0.41338629099E+03  0.48310195770E+03  0.24999855191E+03 0.  0.
       24    2    3    3    0    0  0.61493586647E+01 -0.85129029868E+02 -0.12456281644E+03  0.17105405994E+03  0.80366845435E+02 0.  0.
      -24    2    3    3    0    0 -0.61493586647E+01  0.85129029868E+02 -0.28882347455E+03  0.31204789776E+03  0.81670831430E+02 0.  0.
      -13    1    4    4    0    0  0.32257880371E+02 -0.41615421885E+02 -0.22875680116E+02  0.57408282726E+02  0.00000000000E+00 0.  1.
       14    1    4    4    0    0 -0.26108521707E+02 -0.43513607983E+02 -0.10168713633E+03  0.11364577722E+03  0.00000000000E+00 0. -1.
        3    1    5    5  501    0  0.20458589830E+02  0.88423560584E+02 -0.20945502396E+03  0.22827327269E+03  0.00000000000E+00 0. -1.
       -4    1    5    5    0  501 -0.26607948495E+02 -0.32945307161E+01 -0.79368450593E+02  0.83774625068E+02  0.00000000000E+00 0.  1.
</event>
<event>
 9   1  0.7570500E-01  0.2500494E+03  0.7546771E-02  0.1113274E+00
       21   -1    0    0  503  502  0.00000000000E+00  0.00000000000E+00  0.18203213016E+02  0.18203213016E+02  0.00000000000E+00 0. -1.
       21   -1    0    0  502  503 -0.00000000000E+00 -0.00000000000E+00 -0.85870395810E+03  0.85870395810E+03  0.00000000000E+00 0. -1.
       25    2    1    2    0    0 -0.14210854715E-13  0.00000000000E+00 -0.84050074508E+03  0.87690717111E+03  0.25004936366E+03 0.  0.
       24    2    3    3    0    0  0.97063075786E+02 -0.69791850640E+01 -0.43063851103E+03  0.44752349043E+03  0.73196978089E+02 0.  0.
      -24    2    3    3    0    0 -0.97063075786E+02  0.69791850640E+01 -0.40986223406E+03  0.42938368069E+03  0.83146525051E+02 0.  0.
      -13    1    4    4    0    0  0.38000529482E+02 -0.31575679788E+02 -0.11032557421E+03  0.12088339886E+03  0.00000000000E+00 0.  1.
       14    1    4    4    0    0  0.59062546304E+02  0.24596494724E+02 -0.32031293682E+03  0.32664009157E+03  0.00000000000E+00 0. -1.
        1    1    5    5  501    0 -0.24930039957E+02 -0.25327840433E+02 -0.52581900250E+02  0.63465444355E+02  0.00000000000E+00 0. -1.
       -2    1    5    5    0  501 -0.72133035829E+02  0.32307025497E+02 -0.35728033381E+03  0.36591823633E+03  0.00000000000E+00 0.  1.
</event>
<event>
 9   1  0.7570500E-01  0.2499965E+03  0.7546771E-02  0.1113307E+00
       21   -1    0    0  503  502  0.00000000000E+00  0.00000000000E+00  0.16772707348E+04  0.16772707348E+04  0.00000000000E+00 0. -1.
       21   -1    0    0  502  503 -0.00000000000E+00 -0.00000000000E+00 -0.93154690593E+01  0.93154690593E+01  0.00000000000E+00 0. -1.
       25    2    1    2    0    0 -0.35527136788E-14  0.00000000000E+00  0.16679552658E+04  0.16865862039E+04  0.24999650905E+03 0.  0.
       24    2    3    3    0    0  0.28017818302E+01 -0.72032134851E+02  0.12521965472E+04  0.12568802452E+04  0.80964681028E+02 0.  0.
      -24    2    3    3    0    0 -0.28017818302E+01  0.72032134851E+02  0.41575871857E+03  0.42970595867E+03  0.81212193758E+02 0.  0.
      -13    1    4    4    0    0  0.36517358499E+02 -0.61739126450E+02  0.92960186469E+03  0.93236519886E+03  0.00000000000E+00 0.  1.
       14    1    4    4    0    0 -0.33715576669E+02 -0.10293008401E+02  0.32259468250E+03  0.32451504636E+03  0.00000000000E+00 0. -1.
        1    1    5    5  501    0 -0.26868986184E+02  0.78945631084E+02  0.30967656220E+03  0.32070847862E+03  0.00000000000E+00 0. -1.
       -2    1    5    5    0  501  0.24067204354E+02 -0.69134962332E+01  0.10608215637E+03  0.10899748004E+03  0.00000000000E+00 0.  1.
</event>
<event>
 9   1  0.7570500E-01  0.2500030E+03  0.7546771E-02  0.1113303E+00
       21   -1    0    0  503  502  0.00000000000E+00  0.00000000000E+00  0.17093865482E+02  0.17093865482E+02  0.00000000000E+00 0. -1.
       21   -1    0    0  502  503 -0.00000000000E+00 -0.00000000000E+00 -0.91409222150E+03  0.91409222150E+03  0.00000000000E+00 0. -1.
       25    2    1    2    0    0 -0.71054273576E-14  0.00000000000E+00 -0.89699835602E+03  0.93118608698E+03  0.25000295577E+03 0.  0.
       24    2    3    3    0    0  0.62854243052E+02 -0.21295361464E+02 -0.18784818372E+03  0.21437915011E+03  0.79166480193E+02 0.  0.
      -24    2    3    3    0    0 -0.62854243052E+02  0.21295361464E+02 -0.70915017230E+03  0.71680693687E+03  0.80709786192E+02 0.  0.
      -13    1    4    4    0    0 -0.31639740679E-01 -0.16986509777E+02 -0.81072996301E+00  0.17005875413E+02  0.00000000000E+00 0.  1.
       14    1    4    4    0    0  0.62885882792E+02 -0.43088516868E+01 -0.18703745376E+03  0.19737327470E+03  0.00000000000E+00 0. -1.
        3    1    5    5  501    0 -0.16968726084E+02  0.21567535616E+02 -0.59336950910E+02  0.65375607078E+02  0.00000000000E+00 0. -1.
       -4    1    5    5    0  501 -0.45885516968E+02 -0.27217415254E+00 -0.64981322139E+03  0.65143132979E+03  0.00000000000E+00 0.  1.
</event>
<event>
 9   1  0.7570500E-01  0.2500023E+03  0.7546771E-02  0.1113303E+00
       21   -1    0    0  503  502  0.00000000000E+00  0.00000000000E+00  0.31437661343E+02  0.31437661343E+02  0.00000000000E+00 0. -1.
       21   -1    0    0  502  503 -0.00000000000E+00 -0.00000000000E+00 -0.49702448040E+03  0.49702448040E+03  0.00000000000E+00 0. -1.
       25    2    1    2    0    0  0.00000000000E+00 -0.14210854715E-13 -0.46558681905E+03  0.52846214174E+03  0.25000229834E+03 0.  0.
       24    2    3    3    0    0  0.48414239625E+02 -0.80475153569E+02 -0.27388249993E+03  0.30039857805E+03  0.80046817485E+02 0.  0.
      -24    2    3    3    0    0 -0.48414239625E+02  0.80475153569E+02 -0.19170431913E+03  0.22806356369E+03  0.80263654101E+02 0.  0.
      -13    1    4    4    0    0  0.26838154953E+02 -0.82064349238E+02 -0.13785759081E+03  0.16266394598E+03  0.00000000000E+00 0.  1.
       14    1    4    4    0    0  0.21576084672E+02  0.15891956688E+01 -0.13602490911E+03  0.13773463207E+03  0.00000000000E+00 0. -1.
        1    1    5    5  501    0 -0.14992246683E+02  0.73764294398E+02 -0.74127834367E+02  0.10564503972E+03  0.00000000000E+00 0. -1.
       -2    1    5    5    0  501 -0.33421992942E+02  0.67108591717E+01 -0.11757648476E+03  0.12241852397E+03  0.00000000000E+00 0.  1.
</event>
<event>
 9   1  0.7570500E-01  0.2500044E+03  0.7546771E-02  0.1113302E+00
       21   -1    0    0  503  502  0.00000000000E+00  0.00000000000E+00  0.62043562322E+02  0.62043562322E+02  0.00000000000E+00 0. -1.
       21   -1    0    0  502  503 -0.00000000000E+00 -0.00000000000E+00 -0.25184801648E+03  0.25184801648E+03  0.00000000000E+00 0. -1.
       25    2    1    2    0    0  0.00000000000E+00  0.71054273576E-14 -0.18980445416E+03  0.31389157880E+03  0.25000438481E+03 0.  0.
       24    2    3    3    0    0 -0.79535964332E+02 -0.53871011782E+02 -0.83299713774E+02  0.14936312240E+03  0.78373748708E+02 0.  0.
      -24    2    3    3    0    0  0.79535964332E+02  0.53871011782E+02 -0.10650474038E+03  0.16452845640E+03  0.80612019627E+02 0.  0.
      -13    1    4    4    0    0 -0.17134439286E+02 -0.25529515097E+02 -0.74083207780E+02  0.80210141664E+02  0.00000000000E+00 0.  1.
       14    1    4    4    0    0 -0.62401525046E+02 -0.28341496685E+02 -0.92165059939E+01  0.69152980739E+02  0.00000000000E+00 0. -1.
        1    1    5    5  501    0  0.34633553210E+02 -0.17693764890E+02 -0.20477967737E+02  0.43953378557E+02  0.00000000000E+00 0. -1.
       -2    1    5    5    0  501  0.44902411122E+02  0.71564776672E+02 -0.86026772648E+02  0.12057507784E+03  0.00000000000E+00 0.  1.
</event>
<event>
 9   1  0.7570500E-01  0.2499996E+03  0.7546771E-02  0.1113305E+00
       21   -1    0    0  503  502  0.00000000000E+00  0.00000000000E+00  0.28991531206E+03  0.28991531206E+03  0.00000000000E+00 0.  1.
       21   -1    0    0  502  503 -0.00000000000E+00 -0.00000000000E+00 -0.53894887984E+02  0.53894887984E+02  0.00000000000E+00 0.  1.
       25    2    1    2    0    0 -0.14210854715E-13  0.00000000000E+00  0.23602042408E+03  0.34381020005E+03  0.24999962615E+03 0.  0.
       24    2    3    3    0    0 -0.68558193696E+02 -0.51132329645E+02  0.18136336517E+03  0.21603679917E+03  0.80402035503E+02 0.  0.
      -24    2    3    3    0    0  0.68558193696E+02  0.51132329645E+02  0.54657058905E+02  0.12777340087E+03  0.77613831398E+02 0.  0.
      -13    1    4    4    0    0 -0.21608803566E+02  0.10792674477E+02  0.10254483920E+03  0.10535115690E+03  0.00000000000E+00 0.  1.
       14    1    4    4    0    0 -0.46949390129E+02 -0.61925004122E+02  0.78818525976E+02  0.11068564228E+03  0.00000000000E+00 0. -1.
        1    1    5    5  501    0  0.23058811405E+02  0.22675013612E+02 -0.18335335471E+02  0.37175927057E+02  0.00000000000E+00 0. -1.
       -2    1    5    5    0  501  0.45499382290E+02  0.28457316033E+02  0.72992394377E+02  0.90597473814E+02  0.00000000000E+00 0.  1.
</event>
<event>
 9   1  0.7570500E-01  0.2499986E+03  0.7546771E-02  0.1113306E+00
       21   -1    0    0  503  502  0.00000000000E+00  0.00000000000E+00  0.15080696837E+03  0.15080696837E+03  0.00000000000E+00 0.  1.
       21   -1    0    0  502  503 -0.00000000000E+00 -0.00000000000E+00 -0.10360809234E+03  0.10360809234E+03  0.00000000000E+00 0.  1.
       25    2    1    2    0    0  0.71054273576E-14  0.00000000000E+00  0.47198876026E+02  0.25441506071E+03  0.24999857843E+03 0.  0.
       24    2    3    3    0    0 -0.29105214232E+02 -0.78753630195E+02 -0.22973616015E+02  0.11679014922E+03  0.77864652816E+02 0.  0.
      -24    2    3    3    0    0  0.29105214232E+02  0.78753630195E+02  0.70172492040E+02  0.13762491149E+03  0.83469694257E+02 0.  0.
      -13    1    4    4    0    0 -0.50260467822E+02 -0.57684989779E+02 -0.35583970555E+02  0.84379450294E+02  0.00000000000E+00 0.  1.
       14    1    4    4    0    0  0.21155253589E+02 -0.21068640415E+02  0.12610354540E+02  0.32410698928E+02  0.00000000000E+00 0. -1.
        3    1    5    5  501    0 -0.21275437207E+01 -0.40819207593E+01  0.45487386723E+02  0.45719698930E+02  0.00000000000E+00 0. -1.
       -4    1    5    5    0  501  0.31232757953E+02  0.82835550954E+02  0.24685105317E+02  0.91905212560E+02  0.00000000000E+00 0.  1.
</event>
<event>
 9   1  0.7570500E-01  0.2499999E+03  0.7546771E-02  0.1113305E+00
       21   -1    0    0  503  502  0.00000000000E+00  0.00000000000E+00  0.15247857954E+02  0.15247857954E+02  0.00000000000E+00 0.  1.
       21   -1    0    0  502  503 -0.00000000000E+00 -0.00000000000E+00 -0.10247334526E+04  0.10247334526E+04  0.00000000000E+00 0.  1.
       25    2    1    2    0    0  0.14210854715E-13  0.00000000000E+00 -0.10094855947E+04  0.10399813106E+04  0.24999992101E+03 0.  0.
       24    2    3    3    0    0  0.66416495232E+02 -0.66601079027E+02 -0.57537641379E+03  0.58861060920E+03  0.80978868558E+02 0.  0.
      -24    2    3    3    0    0 -0.66416495232E+02  0.66601079027E+02 -0.43410918091E+03  0.45137070140E+03  0.80236366882E+02 0.  0.
      -13    1    4    4    0    0  0.79290982629E+02 -0.69571204496E+02 -0.54974769653E+03  0.55977651100E+03  0.00000000000E+00 0.  1.
       14    1    4    4    0    0 -0.12874487396E+02  0.29701254688E+01 -0.25628717255E+02  0.28834098203E+02  0.00000000000E+00 0. -1.
        3    1    5    5  501    0 -0.72859035505E+02  0.55887553274E+02 -0.42745895611E+03  0.43721049487E+03  0.00000000000E+00 0. -1.
       -4    1    5    5    0  501  0.64425402729E+01  0.10713525753E+02 -0.66502247985E+01  0.14160206534E+02  0.00000000000E+00 0.  1.
</event>
<event>
 9   1  0.7570500E-01  0.2500013E+03  0.7546771E-02  0.1113304E+00
       21   -1    0    0  503  502  0.00000000000E+00  0.00000000000E+00  0.23357979810E+02  0.23357979810E+02  0.00000000000E+00 0.  1.
       21   -1    0    0  502  503 -0.00000000000E+00 -0.00000000000E+00 -0.66894312524E+03  0.66894312524E+03  0.00000000000E+00 0.  1.
       25    2    1    2    0    0  0.00000000000E+00 -0.71054273576E-14 -0.64558514542E+03  0.69230110505E+03  0.25000128010E+03 0.  0.
       24    2    3    3    0    0 -0.72705256637E+02  0.47443319392E+02 -0.42751526905E+03  0.44379154647E+03  0.81515081764E+02 0.  0.
      -24    2    3    3    0    0  0.72705256637E+02 -0.47443319392E+02 -0.21806987638E+03  0.24850955857E+03  0.81643167632E+02 0.  0.
      -13    1    4    4    0    0 -0.84928212575E+02  0.20974553976E+02 -0.35535076138E+03  0.36596023939E+03  0.00000000000E+00 0.  1.
       14    1    4    4    0    0  0.12222955938E+02  0.26468765415E+02 -0.72164507669E+02  0.77831307079E+02  0.00000000000E+00 0. -1.
        3    1    5    5  501    0  0.13731840244E+02 -0.49558281234E+02 -0.14920906347E+03  0.15782246766E+03  0.00000000000E+00 0. -1.
       -4    1    5    5    0  501  0.58973416393E+02  0.21149618417E+01 -0.68860812908E+02  0.90687090917E+02  0.00000000000E+00 0.  1.
</event>
<event>
 9   1  0.7570500E-01  0.2499990E+03  0.7546771E-02  0.1113305E+00
       21   -1    0    0  503  502  0.00000000000E+00  0.00000000000E+00  0.36471745035E+02  0.36471745035E+02  0.00000000000E+00 0.  1.
       21   -1    0    0  502  503 -0.00000000000E+00 -0.00000000000E+00 -0.42841046139E+03  0.42841046139E+03  0.00000000000E+00 0.  1.
       25    2    1    2    0    0  0.35527136788E-14  0.14210854715E-13 -0.39193871636E+03  0.46488220643E+03  0.24999901695E+03 0.  0.
       24    2    3    3    0    0 -0.14521969626E+02 -0.66578730322E+02 -0.72969354822E+02  0.12951385413E+03  0.82496646805E+02 0.  0.
      -24    2    3    3    0    0  0.14521969626E+02  0.66578730322E+02 -0.31896936154E+03  0.33536835230E+03  0.78018351652E+02 0.  0.
      -13    1    4    4    0    0  0.32966182695E+02 -0.40137498551E+02 -0.43103041693E+02  0.67495630930E+02  0.00000000000E+00 0.  1.
       14    1    4    4    0    0 -0.47488152321E+02 -0.26441231771E+02 -0.29866313128E+02  0.62018223195E+02  0.00000000000E+00 0. -1.
        3    1    5    5  501    0 -0.10830768924E+01  0.81340704840E+02 -0.23444424923E+03  0.24815638077E+03  0.00000000000E+00 0. -1.
       -4    1    5    5    0  501  0.15605046518E+02 -0.14761974517E+02 -0.84525112304E+02  0.87211971532E+02  0.00000000000E+00 0.  1.
</event>
<event>
 9   1  0.7570500E-01  0.2499927E+03  0.7546771E-02  0.1113309E+00
       21   -1    0    0  503  502  0.00000000000E+00  0.00000000000E+00  0.45385569799E+02  0.45385569799E+02  0.00000000000E+00 0.  1.
       21   -1    0    0  502  503 -0.00000000000E+00 -0.00000000000E+00 -0.34425237704E+03  0.34425237704E+03  0.00000000000E+00 0.  1.
       25    2    1    2    0    0 -0.14210854715E-13  0.00000000000E+00 -0.29886680724E+03  0.38963794684E+03  0.24999272218E+03 0.  0.
       24    2    3    3    0    0  0.89685215435E+02  0.30250624879E+02 -0.17300851515E+03  0.21251727896E+03  0.79202963135E+02 0.  0.
      -24    2    3    3    0    0 -0.89685215435E+02 -0.30250624879E+02 -0.12585829209E+03  0.17712066788E+03  0.81073319457E+02 0.  0.
      -13    1    4    4    0    0  0.36620694287E+02  0.30925777947E+02 -0.14457026459E+03  0.15230902927E+03  0.00000000000E+00 0.  1.
       14    1    4    4    0    0  0.53064521149E+02 -0.67515306789E+00 -0.28438250554E+02  0.60208249692E+02  0.00000000000E+00 0. -1.
        1    1    5    5  501    0 -0.50698048111E+02 -0.33606318819E-01 -0.11630967856E+03  0.12687881832E+03  0.00000000000E+00 0. -1.
       -2    1    5    5    0  501 -0.38987167325E+02 -0.30217018560E+02 -0.95486135330E+01  0.50241849558E+02  0.00000000000E+00 0.  1.
</event>
<event>
 9   1  0.7570500E-01  0.2500018E+03  0.7546771E-02  0.1113304E+00
       21   -1    0    0  503  502  0.00000000000E+00  0.00000000000E+00  0.53191213467E+03  0.53191213467E+03  0.00000000000E+00 0.  1.
       21   -1    0    0  502  503 -0.00000000000E+00 -0.00000000000E+00 -0.29375571178E+02  0.29375571178E+02  0.00000000000E+00 0.  1.
       25    2    1    2    0    0  0.00000000000E+00 -0.35527136788E-14  0.50253656350E+03  0.56128770585E+03  0.25000178217E+03 0.  0.
       24    2    3    3    0    0 -0.89939023470E+02 -0.21893815968E+02  0.30946847755E+03  0.33264056848E+03  0.79439549876E+02 0.  0.
      -24    2    3    3    0    0  0.89939023470E+02  0.21893815968E+02  0.19306808595E+03  0.22864713737E+03  0.80223815010E+02 0.  0.
      -13    1    4    4    0    0 -0.80310939890E+01 -0.43041235034E+01  0.16785975319E+03  0.16810687282E+03  0.00000000000E+00 0.  1.
       14    1    4    4    0    0 -0.81907929481E+02 -0.17589692464E+02  0.14160872436E+03  0.16453369566E+03  0.00000000000E+00 0. -1.
        3    1    5    5  501    0  0.10344963895E+03  0.14634406168E+02  0.18154786149E+03  0.20946507979E+03  0.00000000000E+00 0. -1.
       -4    1    5    5    0  501 -0.13510615477E+02  0.72594097999E+01  0.11520224462E+02  0.19182057577E+02  0.00000000000E+00 0.  1.
</event>
<event>
 9   1  0.7570500E-01  0.2500082E+03  0.7546771E-02  0.1113300E+00
       21   -1    0    0  503  502  0.00000000000E+00  0.00000000000E+00  0.29048439922E+03  0.29048439922E+03  0.00000000000E+00 0.  1.
       21   -1    0    0  502  503 -0.00000000000E+00 -0.00000000000E+00 -0.53792971025E+02  0.53792971025E+02  0.00000000000E+00 0.  1.
       25    2    1    2    0    0  0.00000000000E+00 -0.71054273576E-14  0.23669142819E+03  0.34427737024E+03  0.25000815083E+03 0.  0.
       24    2    3    3    0    0 -0.24953899625E+02 -0.33810458299E+02 -0.17466664561E+00  0.90621740064E+02  0.80289632375E+02 0.  0.
      -24    2    3    3    0    0  0.24953899625E+02  0.33810458299E+02  0.23686609484E+03  0.25365563018E+03  0.80434990151E+02 0.  0.
      -13    1    4    4    0    0  0.26198041623E+02 -0.19249744869E+02  0.14280906462E+02  0.35508229353E+02  0.00000000000E+00 0.  1.
       14    1    4    4    0    0 -0.51151941248E+02 -0.14560713430E+02 -0.14455573108E+02  0.55113510711E+02  0.00000000000E+00 0. -1.
        1    1    5    5  501    0  0.12898173646E+02  0.52200840958E+02  0.87658035194E+02  0.10283589750E+03  0.00000000000E+00 0. -1.
       -2    1    5    5    0  501  0.12055725979E+02 -0.18390382658E+02  0.14920805965E+03  0.15081973268E+03  0.00000000000E+00 0.  1.
</event>
<event>
 9   1  0.7570500E-01  0.2499989E+03  0.7546771E-02  0.1113306E+00
       21   -1    0    0  503  502  0.00000000000E+00  0.00000000000E+00  0.10699261519E+02  0.10699261519E+02  0.00000000000E+00 0. -1.
       21   -1    0    0  502  503 -0.00000000000E+00 -0.00000000000E+00 -0.14603684123E+04  0.14603684123E+04  0.00000000000E+00 0. -1.
       25    2    1    2    0    0  0.17763568394E-14  0.00000000000E+00 -0.14496691508E+04  0.14710676738E+04  0.24999890846E+03 0.  0.
       24    2    3    3    0    0 -0.15795988143E+02  0.76216156107E+02 -0.10564128692E+04  0.10623123640E+04  0.80255795283E+02 0.  0.
      -24    2    3    3    0    0  0.15795988143E+02 -0.76216156107E+02 -0.39325628155E+03  0.40875530984E+03  0.79824712072E+02 0.  0.
      -13    1    4    4    0    0 -0.10223577024E+02  0.79307340703E+02 -0.54265030835E+03  0.54851028520E+03  0.00000000000E+00 0.  1.
       14    1    4    4    0    0 -0.55724111189E+01 -0.30911845965E+01 -0.51376256090E+03  0.51380207879E+03  0.00000000000E+00 0. -1.
        3    1    5    5  501    0  0.97487489540E+01  0.16177102706E+02 -0.69026321793E+02  0.71563746817E+02  0.00000000000E+00 0. -1.
       -4    1    5    5    0  501  0.60472391892E+01 -0.92393258812E+02 -0.32422995975E+03  0.33719156303E+03  0.00000000000E+00 0.  1.
</event>
<event>
 9   1  0.7570500E-01  0.2499990E+03  0.7546771E-02  0.1113305E+00
       21   -1    0    0  503  502  0.00000000000E+00  0.00000000000E+00  0.61960309204E+03  0.61960309204E+03  0.00000000000E+00 0. -1.
       21   -1    0    0  502  503 -0.00000000000E+00 -0.00000000000E+00 -0.25217562739E+02  0.25217562739E+02  0.00000000000E+00 0. -1.
       25    2    1    2    0    0  0.00000000000E+00  0.71054273576E-14  0.59438552931E+03  0.64482065478E+03  0.24999903877E+03 0.  0.
       24    2    3    3    0    0 -0.59689321310E+02  0.63630567265E+02  0.20447820098E+03  0.23663924572E+03  0.81087198574E+02 0.  0.
      -24    2    3    3    0    0  0.59689321310E+02 -0.63630567265E+02  0.38990732833E+03  0.40818140906E+03  0.83502537986E+02 0.  0.
      -13    1    4    4    0    0 -0.74490305281E+02  0.37263485296E+02  0.11360055179E+03  0.14086326094E+03  0.00000000000E+00 0.  1.
       14    1    4    4    0    0  0.14800983972E+02  0.26367081969E+02  0.90877649193E+02  0.95775984782E+02  0.00000000000E+00 0. -1.
        1    1    5    5  501    0  0.18751916939E+02 -0.33053945869E+02  0.42402016848E+02  0.56939694056E+02  0.00000000000E+00 0. -1.
       -2    1    5    5    0  501  0.40937404371E+02 -0.30576621395E+02  0.34750531148E+03  0.35124171500E+03  0.00000000000E+00 0.  1.
</event>
<event>
 9   1  0.7570500E-01  0.2499958E+03  0.7546771E-02  0.1113307E+00
       21   -1    0    0  503  502  0.00000000000E+00  0.00000000000E+00  0.44447672220E+02  0.44447672220E+02  0.00000000000E+00 0. -1.
       21   -1    0    0  502  503 -0.00000000000E+00 -0.00000000000E+00 -0.35152512432E+03  0.35152512432E+03  0.00000000000E+00 0. -1.
       25    2    1    2    0    0  0.71054273576E-14  0.00000000000E+00 -0.30707745210E+03  0.39597279654E+03  0.24999578798E+03 0.  0.
       24    2    3    3    0    0 -0.46899228873E+02  0.45893204141E+02 -0.26239660950E+03  0.28229257691E+03  0.80817043066E+02 0.  0.
      -24    2    3    3    0    0  0.46899228873E+02 -0.45893204141E+02 -0.44680842600E+02  0.11368021962E+03  0.81370085306E+02 0.  0.
      -13    1    4    4    0    0 -0.62663735515E+02  0.35460076517E+02 -0.24879389068E+03  0.25900301313E+03  0.00000000000E+00 0.  1.
       14    1    4    4    0    0  0.15764506642E+02  0.10433127624E+02 -0.13602718820E+02  0.23289563779E+02  0.00000000000E+00 0. -1.
        1    1    5    5  501    0 -0.12520698719E+02 -0.43042784407E+02 -0.15595186585E+02  0.47462185269E+02  0.00000000000E+00 0. -1.
       -2    1    5    5    0  501  0.59419927592E+02 -0.28504197340E+01 -0.29085656015E+02  0.66218034352E+02  0.00000000000E+00 0.  1.
</event>
<event>
 9   1  0.7570500E-01  0.2500018E+03  0.7546771E-02  0.1113304E+00
       21   -1    0    0  503  502  0.00000000000E+00  0.00000000000E+00  0.12455103718E+04  0.12455103718E+04  0.00000000000E+00 0. -1.
       21   -1    0    0  502  503 -0.00000000000E+00 -0.00000000000E+00 -0.12545233830E+02  0.12545233830E+02  0.00000000000E+00 0. -1.
       25    2    1    2    0    0 -0.71054273576E-14  0.00000000000E+00  0.12329651380E+04  0.12580556057E+04  0.25000175082E+03 0.  0.
       24    2    3    3    0    0  0.34717577147E+02  0.84830995809E+02  0.50926442949E+03  0.52415274000E+03  0.83571691912E+02 0.  0.
      -24    2    3    3    0    0 -0.34717577147E+02 -0.84830995809E+02  0.72370070852E+03  0.73390286568E+03  0.80430670269E+02 0.  0.
      -13    1    4    4    0    0  0.34105156966E+02  0.98084984562E+01  0.29512373164E+03  0.29724970202E+03  0.00000000000E+00 0.  1.
       14    1    4    4    0    0  0.61242018090E+00  0.75022497353E+02  0.21414069786E+03  0.22690303798E+03  0.00000000000E+00 0. -1.
        1    1    5    5  501    0  0.25939348327E+02 -0.20628728419E+02  0.16977257369E+03  0.17297722684E+03  0.00000000000E+00 0. -1.
       -2    1    5    5    0  501 -0.60656925474E+02 -0.64202267390E+02  0.55392813483E+03  0.56092563884E+03  0.00000000000E+00 0.  1.
</event>
<event>
 9   1  0.7570500E-01  0.2500015E+03  0.7546771E-02  0.1113304E+00
       21   -1    0    0  503  502  0.00000000000E+00  0.00000000000E+00  0.22632656716E+03  0.22632656716E+03  0.00000000000E+00 0. -1.
       21   -1    0    0  502  503 -0.00000000000E+00 -0.00000000000E+00 -0.69038222809E+02  0.69038222809E+02  0.00000000000E+00 0. -1.
       25    2    1    2    0    0  0.00000000000E+00  0.71054273576E-14  0.15728834435E+03  0.29536478997E+03  0.25000147176E+03 0.  0.
       24    2    3    3    0    0  0.39424715126E+02 -0.46874474780E+02  0.16725178446E+03  0.19614302910E+03  0.82142582813E+02 0.  0.
      -24    2    3    3    0    0 -0.39424715126E+02  0.46874474780E+02 -0.99634401147E+01  0.99221760863E+02  0.77421980994E+02 0.  0.
      -13    1    4    4    0    0  0.53426436378E+02 -0.40495529431E+02  0.67223308669E+02  0.94938112665E+02  0.00000000000E+00 0.  1.
       14    1    4    4    0    0 -0.14001721251E+02 -0.63789453493E+01  0.10002847579E+03  0.10120491644E+03  0.00000000000E+00 0. -1.
        1    1    5    5  501    0 -0.35465290743E+02  0.54586979848E+02  0.19944136662E+02  0.68082992029E+02  0.00000000000E+00 0. -1.
       -2    1    5    5    0  501 -0.39594243831E+01 -0.77125050676E+01 -0.29907576776E+02  0.31138768834E+02  0.00000000000E+00 0.  1.
</event>
<event>
 9   1  0.7570500E-01  0.2500092E+03  0.7546771E-02  0.1113299E+00
       21   -1    0    0  503  502  0.00000000000E+00  0.00000000000E+00  0.28926380327E+04  0.28926380327E+04  0.00000000000E+00 0.  1.
       21   -1    0    0  502  503 -0.00000000000E+00 -0.00000000000E+00 -0.54020423315E+01  0.54020423315E+01  0.00000000000E+00 0.  1.
       25    2    1    2    0    0  0.00000000000E+00  0.35527136788E-14  0.28872359904E+04  0.28980400751E+04  0.25000922465E+03 0.  0.
       24    2    3    3    0    0  0.90480961022E+02 -0.16726946644E+02  0.11295158991E+04  0.11362209089E+04  0.82007271164E+02 0.  0.
      -24    2    3    3    0    0 -0.90480961022E+02  0.16726946644E+02  0.17577200913E+04  0.17618191661E+04  0.77202718439E+02 0.  0.
      -13    1    4    4    0    0  0.61881960078E+02 -0.46916683841E+02  0.58716305116E+03  0.59227611876E+03  0.00000000000E+00 0.  1.
       14    1    4    4    0    0  0.28599000945E+02  0.30189737197E+02  0.54235284795E+03  0.54394479018E+03  0.00000000000E+00 0. -1.
        3    1    5    5  501    0 -0.59707899619E+01 -0.25096794100E+02  0.36409300191E+03  0.36500577180E+03  0.00000000000E+00 0. -1.
       -4    1    5    5    0  501 -0.84510171061E+02  0.41823740744E+02  0.13936270894E+04  0.13968133943E+04  0.00000000000E+00 0.  1.
</event>
<event>
 9   1  0.7570500E-01  0.2499974E+03  0.7546771E-02  0.1113306E+00
       21   -1    0    0  503  502  0.00000000000E+00  0.00000000000E+00  0.74487166094E+02  0.74487166094E+02  0.00000000000E+00 0. -1.
       21   -1    0    0  502  503 -0.00000000000E+00 -0.00000000000E+00 -0.20976328917E+03  0.20976328917E+03  0.00000000000E+00 0. -1.
       25    2    1    2    0    0  0.00000000000E+00  0.00000000000E+00 -0.13527612308E+03  0.28425045527E+03  0.24999738367E+03 0.  0.
       24    2    3    3    0    0 -0.63166456724E+01 -0.82615431159E+02 -0.15325922230E+02  0.11749567264E+03  0.81884917536E+02 0.  0.
      -24    2    3    3    0    0  0.63166456724E+01  0.82615431159E+02 -0.11995020085E+03  0.16675478262E+03  0.80956144704E+02 0.  0.
      -13    1    4    4    0    0 -0.10314481705E+02 -0.95704919088E+02 -0.26485412549E+02  0.99836351838E+02  0.00000000000E+00 0.  1.
       14    1    4    4    0    0  0.39978360322E+01  0.13089487929E+02  0.11159490318E+02  0.17659320807E+02  0.00000000000E+00 0. -1.
        3    1    5    5  501    0 -0.64324194773E+01  0.23408744596E+02 -0.10012910948E+03  0.10303001460E+03  0.00000000000E+00 0. -1.
       -4    1    5    5    0  501  0.12749065150E+02  0.59206686563E+02 -0.19821091369E+02  0.63724768018E+02  0.00000000000E+00 0.  1.
</event>
<event>
 9   1  0.7570500E-01  0.2499938E+03  0.7546771E-02  0.1113309E+00
       21   -1    0    0  503  502  0.00000000000E+00  0.00000000000E+00  0.62081374243E+02  0.62081374243E+02  0.00000000000E+00 0. -1.
       21   -1    0    0  502  503 -0.00000000000E+00 -0.00000000000E+00 -0.25167334184E+03  0.25167334184E+03  0.00000000000E+00 0. -1.
       25    2    1    2    0    0  0.00000000000E+00  0.00000000000E+00 -0.18959196760E+03  0.31375471608E+03  0.24999381530E+03 0.  0.
       24    2    3    3    0    0 -0.80375435471E+02  0.41127838893E+02 -0.39613597125E+02  0.12853325750E+03  0.82461211768E+02 0.  0.
      -24    2    3    3    0    0  0.80375435471E+02 -0.41127838893E+02 -0.14997837047E+03  0.18522145858E+03  0.60512538800E+02 0.  0.
      -13    1    4    4    0    0 -0.25890384770E+02  0.24365319063E+02 -0.58521157262E+02  0.68474131202E+02  0.00000000000E+00 0.  1.
       14    1    4    4    0    0 -0.54485050701E+02  0.16762519830E+02  0.18907560136E+02  0.60059126295E+02  0.00000000000E+00 0. -1.
        1    1    5    5  501    0  0.14738634671E+02  0.32041644582E+01 -0.73807255177E+02  0.75332628645E+02  0.00000000000E+00 0. -1.
       -2    1    5    5    0  501  0.65636800800E+02 -0.44332003352E+02 -0.76171115294E+02  0.10988882994E+03  0.00000000000E+00 0.  1.
</event>
<event>
 9   1  0.7570500E-01  0.2499996E+03  0.7546771E-02  0.1113305E+00
       21   -1    0    0  503  502  0.00000000000E+00  0.00000000000E+00  0.60697274976E+02  0.60697274976E+02  0.00000000000E+00 0. -1.
       21   -1    0    0  502  503 -0.00000000000E+00 -0.00000000000E+00 -0.25742421626E+03  0.25742421626E+03  0.00000000000E+00 0. -1.
       25    2    1    2    0    0  0.00000000000E+00  0.71054273576E-14 -0.19672694128E+03  0.31812149123E+03  0.24999958752E+03 0.  0.
       24    2    3    3    0    0  0.86578207106E+02 -0.51414965674E+01 -0.16142092594E+03  0.19751939329E+03  0.73722279264E+02 0.  0.
      -24    2    3    3    0    0 -0.86578207106E+02  0.51414965674E+01 -0.35306015339E+02  0.12060209795E+03  0.76000857742E+02 0.  0.
      -13    1    4    4    0    0  0.65267014243E+02 -0.37345967543E+02 -0.10820869537E+03  0.13177111290E+03  0.00000000000E+00 0.  1.
       14    1    4    4    0    0  0.21311192863E+02  0.32204470975E+02 -0.53212230569E+02  0.65748280390E+02  0.00000000000E+00 0. -1.
        3    1    5    5  501    0 -0.92860273807E+02 -0.10801377296E+02 -0.41630002811E+02  0.10233649074E+03  0.00000000000E+00 0. -1.
       -4    1    5    5    0  501  0.62820667014E+01  0.15942873864E+02  0.63239874720E+01  0.18265607207E+02  0.00000000000E+00 0.  1.
</event>
<event>
 9   1  0.7570500E-01  0.2499711E+03  0.7546771E-02  0.1113323E+00
       21   -1    0    0  503  502  0.00000000000E+00  0.00000000000E+00  0.51827948813E+03  0.51827948813E+03  0.00000000000E+00 0. -1.
       21   -1    0    0  502  503 -0.00000000000E+00 -0.00000000000E+00 -0.30140855684E+02  0.30140855684E+02  0.00000000000E+00 0. -1.
       25    2    1    2    0    0  0.00000000000E+00  0.00000000000E+00  0.48813863245E+03  0.54842034382E+03  0.24997109637E+03 0.  0.
       24    2    3    3    0    0  0.45846461006E+02  0.55903904388E+02  0.37510138830E+03  0.39042509983E+03  0.80644668526E+02 0.  0.
      -24    2    3    3    0    0 -0.45846461006E+02 -0.55903904388E+02  0.11303724415E+03  0.15799524398E+03  0.83414231664E+02 0.  0.
      -13    1    4    4    0    0  0.76395427059E+01  0.39759436006E+02  0.58650532101E+02  0.71267526125E+02  0.00000000000E+00 0.  1.
       14    1    4    4    0    0  0.38206918300E+02  0.16144468382E+02  0.31645085620E+03  0.31915757371E+03  0.00000000000E+00 0. -1.
        3    1    5    5  501    0 -0.45098125244E+02 -0.19799660137E+02  0.11993483946E+02  0.50692317951E+02  0.00000000000E+00 0. -1.
       -4    1    5    5    0  501 -0.74833576232E+00 -0.36104244251E+02  0.10104376020E+03  0.10730292603E+03  0.00000000000E+00 0.  1.
</event>
<event>
 9   1  0.7570500E-01  0.2500510E+03  0.7546771E-02  0.1113273E+00
       21   -1    0    0  503  502  0.00000000000E+00  0.00000000000E+00  0.26646377182E+03  0.26646377182E+03  0.00000000000E+00 0. -1.
       21   -1    0    0  502  503 -0.00000000000E+00 -0.00000000000E+00 -0.58662271962E+02  0.58662271962E+02  0.00000000000E+00 0. -1.
       25    2    1    2    0    0  0.00000000000E+00  0.00000000000E+00  0.20780149986E+03  0.32512604378E+03  0.25005095681E+03 0.  0.
       24    2    3    3    0    0  0.35494906093E+02  0.84052287143E+02  0.68188917581E+02  0.13986870942E+03  0.81171744229E+02 0.  0.
      -24    2    3    3    0    0 -0.35494906093E+02 -0.84052287143E+02  0.13961258228E+03  0.18525733437E+03  0.80646955755E+02 0.  0.
      -13    1    4    4    0    0 -0.89647372397E+01  0.45340365221E+02  0.66385434299E+02  0.80889684875E+02  0.00000000000E+00 0.  1.
       14    1    4    4    0    0  0.44459643333E+02  0.38711921923E+02  0.18034832814E+01  0.58979024544E+02  0.00000000000E+00 0. -1.
        1    1    5    5  501    0 -0.29445419653E+02 -0.53913338335E+02  0.24541554998E+02  0.66151105135E+02  0.00000000000E+00 0. -1.
       -2    1    5    5    0  501 -0.60494864404E+01 -0.30138948809E+02  0.11507102728E+03  0.11910622923E+03  0.00000000000E+00 0.  1.
</event>
<event>
 9   1  0.7570500E-01  0.2500003E+03  0.7546771E-02  0.1113305E+00
       21   -1    0    0  503  502  0.00000000000E+00  0.00000000000E+00  0.11436982579E+03  0.11436982579E+03  0.00000000000E+00 0.  1.
       21   -1    0    0  502  503 -0.00000000000E+00 -0.00000000000E+00 -0.13661857534E+03  0.13661857534E+03  0.00000000000E+00 0.  1.
       25    2    1    2    0    0  0.14210854715E-13 -0.17763568394E-14 -0.22248749550E+02  0.25098840114E+03  0.25000034130E+03 0.  0.
       24    2    3    3    0    0  0.60643975277E+02 -0.69245995809E+01 -0.86910658477E+02  0.13109243495E+03  0.76851298810E+02 0.  0.
      -24    2    3    3    0    0 -0.60643975277E+02  0.69245995809E+01  0.64661908926E+02  0.11989596618E+03  0.80425359337E+02 0.  0.
      -13    1    4    4    0    0 -0.11873088508E+02 -0.80746406544E+01 -0.45203594334E+02  0.47429263047E+02  0.00000000000E+00 0.  1.
       14    1    4    4    0    0  0.72517063784E+02  0.11500410736E+01 -0.41707064142E+02  0.83663171908E+02  0.00000000000E+00 0. -1.
        1    1    5    5  501    0 -0.65245826926E+02 -0.24096664424E+02  0.42796975938E+02  0.81665465878E+02  0.00000000000E+00 0. -1.
       -2    1    5    5    0  501  0.46018516496E+01  0.31021264005E+02  0.21864932989E+02  0.38230500306E+02  0.00000000000E+00 0.  1.
</event>
<event>
 9   1  0.7570500E-01  0.2499805E+03  0.7546771E-02  0.1113317E+00
       21   -1    0    0  503  502  0.00000000000E+00  0.00000000000E+00  0.61025474975E+03  0.61025474975E+03  0.00000000000E+00 0.  1.
       21   -1    0    0  502  503 -0.00000000000E+00 -0.00000000000E+00 -0.25600064752E+02  0.25600064752E+02  0.00000000000E+00 0.  1.
       25    2    1    2    0    0 -0.28421709430E-13  0.35527136788E-14  0.58465468500E+03  0.63585481450E+03  0.24998048811E+03 0.  0.
       24    2    3    3    0    0  0.86315091550E+02  0.14150272150E+02  0.19433379957E+03  0.22762553821E+03  0.79982715374E+02 0.  0.
      -24    2    3    3    0    0 -0.86315091550E+02 -0.14150272150E+02  0.39032088543E+03  0.40822927629E+03  0.81548900606E+02 0.  0.
      -13    1    4    4    0    0  0.43702119135E+01 -0.15444896353E+02  0.16208083696E+01  0.16132904118E+02  0.00000000000E+00 0.  1.
       14    1    4    4    0    0  0.81944879637E+02  0.29595168503E+02  0.19271299120E+03  0.21149263409E+03  0.00000000000E+00 0. -1.
        3    1    5    5  501    0 -0.19872371125E+02 -0.42031850300E+02  0.12759970504E+03  0.13580600981E+03  0.00000000000E+00 0. -1.
       -4    1    5    5    0  501 -0.66442720426E+02  0.27881578150E+02  0.26272118038E+03  0.27242326648E+03  0.00000000000E+00 0.  1.
</event>
<event>
 9   1  0.7570500E-01  0.2500093E+03  0.7546771E-02  0.1113299E+00
       21   -1    0    0  503  502  0.00000000000E+00  0.00000000000E+00  0.12109331692E+03  0.12109331692E+03  0.00000000000E+00 0. -1.
       21   -1    0    0  502  503 -0.00000000000E+00 -0.00000000000E+00 -0.12904235823E+03  0.12904235823E+03  0.00000000000E+00 0. -1.
       25    2    1    2    0    0  0.71054273576E-14  0.00000000000E+00 -0.79490413150E+01  0.25013567515E+03  0.25000933728E+03 0.  0.
       24    2    3    3    0    0 -0.31285607098E+02  0.30182391636E+02 -0.91567903487E+02  0.12671703405E+03  0.76044459324E+02 0.  0.
      -24    2    3    3    0    0  0.31285607098E+02 -0.30182391636E+02  0.83618862172E+02  0.12341864110E+03  0.79688649656E+02 0.  0.
      -13    1    4    4    0    0  0.14723752881E+02  0.18889787785E+02 -0.71252413252E+02  0.75169936648E+02  0.00000000000E+00 0.  1.
       14    1    4    4    0    0 -0.46009359979E+02  0.11292603851E+02 -0.20315490235E+02  0.51547097405E+02  0.00000000000E+00 0. -1.
        3    1    5    5  501    0 -0.18614151820E+02  0.68656981198E+01  0.47640154672E+02  0.51606286399E+02  0.00000000000E+00 0. -1.
       -4    1    5    5    0  501  0.49899758918E+02 -0.37048089756E+02  0.35978707499E+02  0.71812354703E+02  0.00000000000E+00 0.  1.
</event>
<event>
 9   1  0.7570500E-01  0.2499952E+03  0.7546771E-02  0.1113308E+00
       21   -1    0    0  503  502  0.00000000000E+00  0.00000000000E+00  0.58797150567E+03  0.58797150567E+03  0.00000000000E+00 0.  1.
       21   -1    0    0  502  503 -0.00000000000E+00 -0.00000000000E+00 -0.26573393605E+02  0.26573393605E+02  0.00000000000E+00 0.  1.
       25    2    1    2    0    0  0.35527136788E-14  0.00000000000E+00  0.56139811206E+03  0.61454489927E+03  0.24999518594E+03 0.  0.
       24    2    3    3    0    0 -0.29365687276E+02 -0.24757897268E+01  0.57348275983E+02  0.10353176876E+03  0.81003266973E+02 0.  0.
      -24    2    3    3    0    0  0.29365687276E+02  0.24757897268E+01  0.50404983608E+03  0.51101313051E+03  0.78738232022E+02 0.  0.
      -13    1    4    4    0    0  0.12833940149E+02 -0.30098031179E+02  0.36327238781E+02  0.48890385334E+02  0.00000000000E+00 0.  1.
       14    1    4    4    0    0 -0.42199627425E+02  0.27622241452E+02  0.21021037202E+02  0.54641383426E+02  0.00000000000E+00 0. -1.
        1    1    5    5  501    0  0.45725906042E+02 -0.22666550284E+02  0.24688879611E+03  0.25210852550E+03  0.00000000000E+00 0. -1.
       -2    1    5    5    0  501 -0.16360218765E+02  0.25142340011E+02  0.25716103997E+03  0.25890460501E+03  0.00000000000E+00 0.  1.
</event>
<event>
 9   1  0.7570500E-01  0.2499984E+03  0.7546771E-02  0.1113306E+00
       21   -1    0    0  503  502  0.00000000000E+00  0.00000000000E+00  0.13051043207E+04  0.13051043207E+04  0.00000000000E+00 0.  1.
       21   -1    0    0  502  503 -0.00000000000E+00 -0.00000000000E+00 -0.11972072758E+02  0.11972072758E+02  0.00000000000E+00 0.  1.
       25    2    1    2    0    0  0.14210854715E-13  0.00000000000E+00  0.12931322479E+04  0.13170763934E+04  0.24999843106E+03 0.  0.
       24    2    3    3    0    0 -0.63608200584E+02  0.62589845740E+02  0.81597597383E+03  0.82486465251E+03  0.81372065984E+02 0.  0.
      -24    2    3    3    0    0  0.63608200584E+02 -0.62589845740E+02  0.47715627407E+03  0.49221174090E+03  0.81429699916E+02 0.  0.
      -13    1    4    4    0    0 -0.80128713664E+02  0.41022942740E+02  0.52889443049E+03  0.53650052301E+03  0.00000000000E+00 0.  1.
       14    1    4    4    0    0  0.16520513080E+02  0.21566902999E+02  0.28708154334E+03  0.28836412950E+03  0.00000000000E+00 0. -1.
        3    1    5    5  501    0  0.35505829124E+02 -0.53495321298E+02  0.14300196122E+03  0.15675450302E+03  0.00000000000E+00 0. -1.
       -4    1    5    5    0  501  0.28102371460E+02 -0.90945244410E+01  0.33415431285E+03  0.33545723789E+03  0.00000000000E+00 0.  1.
</event>
<event>
 9   1  0.7570500E-01  0.2499988E+03  0.7546771E-02  0.1113306E+00
       21   -1    0    0  503  502  0.00000000000E+00  0.00000000000E+00  0.39705072738E+03  0.39705072738E+03  0.00000000000E+00 0. -1.
       21   -1    0    0  502  503 -0.00000000000E+00 -0.00000000000E+00 -0.39352290760E+02  0.39352290760E+02  0.00000000000E+00 0. -1.
       25    2    1    2    0    0  0.35527136788E-14  0.28421709430E-13  0.35769843662E+03  0.43640301814E+03  0.24999884536E+03 0.  0.
       24    2    3    3    0    0  0.12179655566E+02  0.94486807692E+02  0.20982188148E+03  0.24236568325E+03  0.75098612729E+02 0.  0.
      -24    2    3    3    0    0 -0.12179655566E+02 -0.94486807692E+02  0.14787655514E+03  0.19403733489E+03  0.81895732077E+02 0.  0.
      -13    1    4    4    0    0  0.43631940033E+02  0.50341736783E+02  0.10481497217E+03  0.12419426333E+03  0.00000000000E+00 0.  1.
       14    1    4    4    0    0 -0.31452284467E+02  0.44145070909E+02  0.10500690931E+03  0.11817141992E+03  0.00000000000E+00 0. -1.
        1    1    5    5  501    0  0.20663892417E+02 -0.90155803969E+02  0.10989725014E+03  0.14364007459E+03  0.00000000000E+00 0. -1.
       -2    1    5    5    0  501 -0.32843547983E+02 -0.43310037225E+01  0.37979305001E+02  0.50397260300E+02  0.00000000000E+00 0.  1.
</event>
<event>
 9   1  0.7570500E-01  0.2499886E+03  0.7546771E-02  0.1113312E+00
       21   -1    0    0  503  502  0.00000000000E+00  0.00000000000E+00  0.18436542797E+03  0.18436542797E+03  0.00000000000E+00 0.  1.
       21   -1    0    0  502  503 -0.00000000000E+00 -0.00000000000E+00 -0.84742443151E+02  0.84742443151E+02  0.00000000000E+00 0.  1.
       25    2    1    2    0    0  0.00000000000E+00  0.00000000000E+00  0.99622984817E+02  0.26910787112E+03  0.24998861413E+03 0.  0.
       24    2    3    3    0    0  0.35806061714E+02  0.24136539698E+02 -0.43479722697E+02  0.10109406736E+03  0.80404462353E+02 0.  0.
      -24    2    3    3    0    0 -0.35806061714E+02 -0.24136539698E+02  0.14310270751E+03  0.16801380375E+03  0.76717708193E+02 0.  0.
      -13    1    4    4    0    0  0.17313015907E+02 -0.24798271652E+02 -0.37894882423E+02  0.48484192378E+02  0.00000000000E+00 0.  1.
       14    1    4    4    0    0  0.18493045808E+02  0.48934811350E+02 -0.55848402736E+01  0.52609874986E+02  0.00000000000E+00 0. -1.
        3    1    5    5  501    0 -0.50807776485E+02 -0.40970723257E+02  0.10102080323E+03  0.12027149704E+03  0.00000000000E+00 0. -1.
       -4    1    5    5    0  501  0.15001714770E+02  0.16834183559E+02  0.42081904285E+02  0.47742306714E+02  0.00000000000E+00 0.  1.
</event>
<event>
 9   1  0.7570500E-01  0.2499995E+03  0.7546771E-02  0.1113305E+00
       21   -1    0    0  503  502  0.00000000000E+00  0.00000000000E+00  0.27818470852E+02  0.27818470852E+02  0.00000000000E+00 0. -1.
       21   -1    0    0  502  503 -0.00000000000E+00 -0.00000000000E+00 -0.56167494059E+03  0.56167494059E+03  0.00000000000E+00 0. -1.
       25    2    1    2    0    0 -0.35527136788E-14  0.14210854715E-13 -0.53385646973E+03  0.58949341144E+03  0.24999950371E+03 0.  0.
       24    2    3    3    0    0 -0.30028015550E+02 -0.74338784785E+02 -0.42286932408E+03  0.43832074936E+03  0.82937792572E+02 0.  0.
      -24    2    3    3    0    0  0.30028015550E+02  0.74338784785E+02 -0.11098714566E+03  0.15117266208E+03  0.64086586869E+02 0.  0.
      -13    1    4    4    0    0 -0.12439053625E+02 -0.90318154302E+02 -0.31937499395E+03  0.33213323503E+03  0.00000000000E+00 0.  1.
       14    1    4    4    0    0 -0.17588961926E+02  0.15979369518E+02 -0.10349433013E+03  0.10618751434E+03  0.00000000000E+00 0. -1.
        1    1    5    5  501    0  0.14857122336E+02  0.40238381022E+02 -0.10761078366E+02  0.44222869638E+02  0.00000000000E+00 0. -1.
       -2    1    5    5    0  501  0.15170893214E+02  0.34100403762E+02 -0.10022606729E+03  0.10694979244E+03  0.00000000000E+00 0.  1.
</event>
<event>
 9   1  0.7570500E-01  0.2500028E+03  0.7546771E-02  0.1113303E+00
       21   -1    0    0  503  502  0.00000000000E+00  0.00000000000E+00  0.36734171558E+03  0.36734171558E+03  0.00000000000E+00 0.  1.
       21   -1    0    0  502  503 -0.00000000000E+00 -0.00000000000E+00 -0.42536267014E+02  0.42536267014E+02  0.00000000000E+00 0.  1.
       25    2    1    2    0    0 -0.14210854715E-13  0.35527136788E-14  0.32480544857E+03  0.40987798260E+03  0.25000276238E+03 0.  0.
       24    2    3    3    0    0 -0.88134561512E+02  0.20417548929E+02  0.21276942385E+03  0.24383413685E+03  0.77457609883E+02 0.  0.
      -24    2    3    3    0    0  0.88134561512E+02 -0.20417548929E+02  0.11203602472E+03  0.16604384575E+03  0.82667470263E+02 0.  0.
      -13    1    4    4    0    0 -0.30350686972E+02  0.12255514306E+02  0.16558113220E+03  0.16878528719E+03  0.00000000000E+00 0.  1.
       14    1    4    4    0    0 -0.57783874539E+02  0.81620346229E+01  0.47188291649E+02  0.75048849656E+02  0.00000000000E+00 0. -1.
        3    1    5    5  501    0  0.21081166144E+02 -0.20278467499E+02  0.91278463592E+02  0.95850872326E+02  0.00000000000E+00 0. -1.
       -4    1    5    5    0  501  0.67053395368E+02 -0.13908142982E+00  0.20757561124E+02  0.70192973422E+02  0.00000000000E+00 0.  1.
</event>
<event>
 9   1  0.7570500E-01  0.2500008E+03  0.7546771E-02  0.1113304E+00
       21   -1    0    0  503  502  0.00000000000E+00  0.00000000000E+00  0.19152548188E+03  0.19152548188E+03  0.00000000000E+00 0. -1.
       21   -1    0    0  502  503 -0.00000000000E+00 -0.00000000000E+00 -0.81582328287E+02  0.81582328287E+02  0.00000000000E+00 0. -1.
       25    2    1    2    0    0  0.00000000000E+00  0.71054273576E-14  0.10994315359E+03  0.27310781017E+03  0.25000075790E+03 0.  0.
       24    2    3    3    0    0  0.72249379848E+02 -0.63471644544E+02  0.64631395188E+02  0.14031497532E+03  0.79135658878E+02 0.  0.
      -24    2    3    3    0    0 -0.72249379848E+02  0.63471644544E+02  0.45311758405E+02  0.13279283485E+03  0.79574864039E+02 0.  0.
      -13    1    4    4    0    0  0.44758431898E+02 -0.78893321892E+02  0.59238325623E+02  0.10833583289E+03  0.00000000000E+00 0.  1.
       14    1    4    4    0    0  0.27490947950E+02  0.15421677348E+02  0.53930695652E+01  0.31979142433E+02  0.00000000000E+00 0. -1.
        1    1    5    5  501    0 -0.14985311448E+02 -0.18610721749E+02  0.15032627844E+02  0.28229389351E+02  0.00000000000E+00 0. -1.
       -2    1    5    5    0  501 -0.57264068401E+02  0.82082366294E+02  0.30279130561E+02  0.10456344549E+03  0.00000000000E+00 0.  1.
</event>
<event>
 9   1  0.7570500E-01  0.2499989E+03  0.7546771E-02  0.1113306E+00
       21   -1    0    0  503  502  0.00000000000E+00  0.00000000000E+00  0.90038389220E+02  0.90038389220E+02  0.00000000000E+00 0. -1.
       21   -1    0    0  502  503 -0.00000000000E+00 -0.00000000000E+00 -0.17353554843E+03  0.17353554843E+03  0.00000000000E+00 0. -1.
       25    2    1    2    0    0  0.00000000000E+00  0.00000000000E+00 -0.83497159208E+02  0.26357393765E+03  0.24999889002E+03 0.  0.
       24    2    3    3    0    0  0.47668460244E+02 -0.55141054023E+02  0.25841245642E+02  0.11195127832E+03  0.80947518801E+02 0.  0.
      -24    2    3    3    0    0 -0.47668460244E+02  0.55141054023E+02 -0.10933840485E+03  0.15162265933E+03  0.75642092157E+02 0.  0.
      -13    1    4    4    0    0 -0.87583545019E+01  0.15882094789E+02  0.59306457313E+01  0.19081988032E+02  0.00000000000E+00 0.  1.
       14    1    4    4    0    0  0.56426814745E+02 -0.71023148812E+02  0.19910599911E+02  0.92869290287E+02  0.00000000000E+00 0. -1.
        3    1    5    5  501    0  0.31332740913E+01  0.53361644111E+02 -0.46929145545E+02  0.71131056300E+02  0.00000000000E+00 0. -1.
       -4    1    5    5    0  501 -0.50801734335E+02  0.17794099119E+01 -0.62409259305E+02  0.80491603029E+02  0.00000000000E+00 0.  1.
</event>
<event>
 9   1  0.7570500E-01  0.2499990E+03  0.7546771E-02  0.1113305E+00
       21   -1    0    0  503  502  0.00000000000E+00  0.00000000000E+00  0.95656401243E+02  0.95656401243E+02  0.00000000000E+00 0. -1.
       21   -1    0    0  502  503 -0.00000000000E+00 -0.00000000000E+00 -0.16334369637E+03  0.16334369637E+03  0.00000000000E+00 0. -1.
       25    2    1    2    0    0 -0.71054273576E-14  0.14210854715E-13 -0.67687295127E+02  0.25900009761E+03  0.24999896128E+03 0.  0.
       24    2    3    3    0    0  0.42108081252E+02 -0.74597753212E+02  0.10502314480E+02  0.11808245762E+03  0.80593131822E+02 0.  0.
      -24    2    3    3    0    0 -0.42108081252E+02  0.74597753212E+02 -0.78189609607E+02  0.14091763999E+03  0.80039058716E+02 0.  0.
      -13    1    4    4    0    0  0.51697077625E+02 -0.12269042859E+02 -0.42992422824E+01  0.53306666861E+02  0.00000000000E+00 0.  1.
       14    1    4    4    0    0 -0.95889963733E+01 -0.62328710353E+02  0.14801556763E+02  0.64775790758E+02  0.00000000000E+00 0. -1.
        1    1    5    5  501    0  0.18884924794E+02  0.21709172363E+01 -0.27740675595E+02  0.33628832103E+02  0.00000000000E+00 0. -1.
       -2    1    5    5    0  501 -0.60993006045E+02  0.72426835976E+02 -0.50448934012E+02  0.10728880789E+03  0.00000000000E+00 0.  1.
</event>
<event>
 9   1  0.7570500E-01  0.2500077E+03  0.7546771E-02  0.1113300E+00
       21   -1    0    0  503  502  0.00000000000E+00  0.00000000000E+00  0.15940490059E+02  0.15940490059E+02  0.00000000000E+00 0.  1.
       21   -1    0    0  502  503 -0.00000000000E+00 -0.00000000000E+00 -0.98026856006E+03  0.98026856006E+03  0.00000000000E+00 0.  1.
       25    2    1    2    0    0  0.00000000000E+00  0.00000000000E+00 -0.96432807000E+03  0.99620905012E+03  0.25000768978E+03 0.  0.
       24    2    3    3    0    0  0.34944224995E+02  0.17449444990E+02 -0.82846355941E+03  0.83337881050E+03  0.81503316071E+02 0.  0.
      -24    2    3    3    0    0 -0.34944224995E+02 -0.17449444990E+02 -0.13586451059E+03  0.16283023961E+03  0.80801854587E+02 0.  0.
      -13    1    4    4    0    0  0.21784057198E+02  0.42391329845E+02 -0.26791585150E+03  0.27212216646E+03  0.00000000000E+00 0.  1.
       14    1    4    4    0    0  0.13160167797E+02 -0.24941884856E+02 -0.56054770791E+03  0.56125664404E+03  0.00000000000E+00 0. -1.
        3    1    5    5  501    0 -0.51887561804E+02  0.10884703893E+02 -0.10504925650E+03  0.11766963134E+03  0.00000000000E+00 0. -1.
       -4    1    5    5    0  501  0.16943336809E+02 -0.28334148882E+02 -0.30815254087E+02  0.45160608273E+02  0.00000000000E+00 0.  1.
</event>
<event>
 9   1  0.7570500E-01  0.2499986E+03  0.7546771E-02  0.1113306E+00
       21   -1    0    0  503  502  0.00000000000E+00  0.00000000000E+00  0.12535400648E+02  0.12535400648E+02  0.00000000000E+00 0. -1.
       21   -1    0    0  502  503 -0.00000000000E+00 -0.00000000000E+00 -0.12464556793E+04  0.12464556793E+04  0.00000000000E+00 0. -1.
       25    2    1    2    0    0  0.71054273576E-14 -0.71054273576E-14 -0.12339202786E+04  0.12589910799E+04  0.24999857064E+03 0.  0.
       24    2    3    3    0    0 -0.49144341335E+02  0.56925472052E+02 -0.31075481260E+03  0.32948067818E+03  0.79581958298E+02 0.  0.
      -24    2    3    3    0    0  0.49144341335E+02 -0.56925472052E+02 -0.92316546604E+03  0.92951040175E+03  0.78098870865E+02 0.  0.
      -13    1    4    4    0    0 -0.33922899266E+02 -0.82427904753E+01 -0.17102530341E+03  0.17455188655E+03  0.00000000000E+00 0.  1.
       14    1    4    4    0    0 -0.15221442069E+02  0.65168262527E+02 -0.13972950919E+03  0.15492879163E+03  0.00000000000E+00 0. -1.
        3    1    5    5  501    0  0.99546431207E+00 -0.40815211429E+02 -0.67340574795E+03  0.67464225617E+03  0.00000000000E+00 0. -1.
       -4    1    5    5    0  501  0.48148877023E+02 -0.16110260623E+02 -0.24975971809E+03  0.25486814558E+03  0.00000000000E+00 0.  1.
</event>
<event>
 9   1  0.7570500E-01  0.2499999E+03  0.7546771E-02  0.1113305E+00
       21   -1    0    0  503  502  0.00000000000E+00  0.00000000000E+00  0.86208110722E+03  0.86208110722E+03  0.00000000000E+00 0. -1.
       21   -1    0    0  502  503 -0.00000000000E+00 -0.00000000000E+00 -0.18124731007E+02  0.18124731007E+02  0.00000000000E+00 0. -1.
       25    2    1    2    0    0  0.00000000000E+00 -0.71054273576E-14  0.84395637621E+03  0.88020583822E+03  0.24999990540E+03 0.  0.
       24    2    3    3    0    0  0.78466981174E+02  0.26340563316E+02  0.63089716707E+03  0.64169686667E+03  0.83022532220E+02 0.  0.
      -24    2    3    3    0    0 -0.78466981174E+02 -0.26340563316E+02  0.21305920914E+03  0.23850897156E+03  0.68127898145E+02 0.  0.
      -13    1    4    4    0    0  0.66026459926E+02  0.50844106740E+02  0.36545254631E+03  0.37483353666E+03  0.00000000000E+00 0.  1.
       14    1    4    4    0    0  0.12440521248E+02 -0.24503543424E+02  0.26544462077E+03  0.26686333001E+03  0.00000000000E+00 0. -1.
        1    1    5    5  501    0 -0.28561411793E+02  0.27496824333E+01  0.15365252721E+02  0.32548517451E+02  0.00000000000E+00 0. -1.
       -2    1    5    5    0  501 -0.49905569382E+02 -0.29090245749E+02  0.19769395642E+03  0.20596045411E+03  0.00000000000E+00 0.  1.
</event>
<event>
 9   1  0.7570500E-01  0.2499987E+03  0.7546771E-02  0.1113306E+00
       21   -1    0    0  503  502  0.00000000000E+00  0.00000000000E+00  0.31379926894E+02  0.31379926894E+02  0.00000000000E+00 0.  1.
       21   -1    0    0  502  503 -0.00000000000E+00 -0.00000000000E+00 -0.49792476324E+03  0.49792476324E+03  0.00000000000E+00 0.  1.
       25    2    1    2    0    0  0.00000000000E+00  0.00000000000E+00 -0.46654483634E+03  0.52930469013E+03  0.24999874135E+03 0.  0.
       24    2    3    3    0    0 -0.24136107230E+02 -0.59683726080E+01 -0.36442876417E+02  0.90771647399E+02  0.79329916086E+02 0.  0.
      -24    2    3    3    0    0  0.24136107230E+02  0.59683726080E+01 -0.43010195993E+03  0.43853304273E+03  0.81886265585E+02 0.  0.
      -13    1    4    4    0    0  0.27782927613E+02 -0.10350367838E+02 -0.54440475348E+01  0.30143968463E+02  0.00000000000E+00 0.  1.
       14    1    4    4    0    0 -0.51919034842E+02  0.43819952297E+01 -0.30998828883E+02  0.60627678937E+02  0.00000000000E+00 0. -1.
        1    1    5    5  501    0  0.27039489584E+02  0.30103060222E+02 -0.10505420246E+03  0.11257758963E+03  0.00000000000E+00 0. -1.
       -2    1    5    5    0  501 -0.29033823544E+01 -0.24134687614E+02 -0.32504775746E+03  0.32595545310E+03  0.00000000000E+00 0.  1.
</event>
<event>
 9   1  0.7570500E-01  0.2500021E+03  0.7546771E-02  0.1113303E+00
       21   -1    0    0  503  502  0.00000000000E+00  0.00000000000E+00  0.42636983816E+03  0.42636983816E+03  0.00000000000E+00 0. -1.
       21   -1    0    0  502  503 -0.00000000000E+00 -0.00000000000E+00 -0.36647206867E+02  0.36647206867E+02  0.00000000000E+00 0. -1.
       25    2    1    2    0    0  0.00000000000E+00 -0.17763568394E-14  0.38972263130E+03  0.46301704503E+03  0.25000210928E+03 0.  0.
       24    2    3    3    0    0 -0.49343466175E+02  0.96520142854E+01  0.45348159070E+02  0.10510651046E+03  0.80392686091E+02 0.  0.
      -24    2    3    3    0    0  0.49343466175E+02 -0.96520142854E+01  0.34437447223E+03  0.35791053457E+03  0.83535828229E+02 0.  0.
      -13    1    4    4    0    0  0.20175878860E+02  0.14627930174E+02  0.15016068255E+02  0.29095098123E+02  0.00000000000E+00 0.  1.
       14    1    4    4    0    0 -0.69519345034E+02 -0.49759158885E+01  0.30332090815E+02  0.76011412341E+02  0.00000000000E+00 0. -1.
        1    1    5    5  501    0  0.65061523869E+02 -0.24284605284E+02  0.19493054241E+03  0.20693153531E+03  0.00000000000E+00 0. -1.
       -2    1    5    5    0  501 -0.15718057694E+02  0.14632590998E+02  0.14944392981E+03  0.15097899925E+03  0.00000000000E+00 0.  1.
</event>
<event>
 9   1  0.7570500E-01  0.2499939E+03  0.7546771E-02  0.1113309E+00
       21   -1    0    0  503  502  0.00000000000E+00  0.00000000000E+00  0.59601458315E+03  0.59601458315E+03  0.00000000000E+00 0.  1.
       21   -1    0    0  502  503 -0.00000000000E+00 -0.00000000000E+00 -0.26214519276E+02  0.26214519276E+02  0.00000000000E+00 0.  1.
       25    2    1    2    0    0 -0.71054273576E-14  0.71054273576E-14  0.56980006387E+03  0.62222910242E+03  0.24999388615E+03 0.  0.
       24    2    3    3    0    0  0.31978091047E+02 -0.36332343236E+02  0.49234207545E+03  0.50116094792E+03  0.80118281264E+02 0.  0.
      -24    2    3    3    0    0 -0.31978091047E+02  0.36332343236E+02  0.77457988426E+02  0.12106815450E+03  0.79467733025E+02 0.  0.
      -13    1    4    4    0    0  0.26036555649E+02 -0.24680638398E+01  0.41790751135E+02  0.49299700299E+02  0.00000000000E+00 0.  1.
       14    1    4    4    0    0  0.59415353973E+01 -0.33864279396E+02  0.45055132431E+03  0.45186124762E+03  0.00000000000E+00 0. -1.
        3    1    5    5  501    0  0.24589313036E+02  0.20088684986E+02  0.14565483497E+02  0.34933406498E+02  0.00000000000E+00 0. -1.
       -4    1    5    5    0  501 -0.56567404082E+02  0.16243658250E+02  0.62892504930E+02  0.86134748007E+02  0.00000000000E+00 0.  1.
</event>
<event>
 9   1  0.7570500E-01  0.2500015E+03  0.7546771E-02  0.1113304E+00
       21   -1    0    0  503  502  0.00000000000E+00  0.00000000000E+00  0.17864136646E+03  0.17864136646E+03  0.00000000000E+00 0.  1.
       21   -1    0    0  502  503 -0.00000000000E+00 -0.00000000000E+00 -0.87466783570E+02  0.87466783570E+02  0.00000000000E+00 0.  1.
       25    2    1    2    0    0  0.35527136788E-14  0.00000000000E+00  0.91174582894E+02  0.26610815003E+03  0.25000148589E+03 0.  0.
       24    2    3    3    0    0 -0.21127515664E+02  0.17808969845E+02  0.14329271853E+03  0.16627462448E+03  0.79692636029E+02 0.  0.
      -24    2    3    3    0    0  0.21127515664E+02 -0.17808969845E+02 -0.52118135635E+02  0.99833525554E+02  0.80541302680E+02 0.  0.
      -13    1    4    4    0    0 -0.45723465348E+02  0.17503483008E+02  0.50741130692E+02  0.70510066974E+02  0.00000000000E+00 0.  1.
       14    1    4    4    0    0  0.24595949684E+02  0.30548683754E+00  0.92551587837E+02  0.95764557505E+02  0.00000000000E+00 0. -1.
        3    1    5    5  501    0  0.75982197356E+01  0.29589088959E+02 -0.37560506193E+01  0.30779133270E+02  0.00000000000E+00 0. -1.
       -4    1    5    5    0  501  0.13529295928E+02 -0.47398058804E+02 -0.48362085016E+02  0.69054392285E+02  0.00000000000E+00 0.  1.
</event>
<event>
 8   1  0.7570500E-01  0.2501366E+03  0.7546771E-02  0.1113219E+00
       21   -1    0    0  503  502  0.00000000000E+00  0.00000000000E+00  0.33827860414E+03  0.33827860414E+03  0.00000000000E+00 0.  1.
       21   -1    0    0  502  503 -0.00000000000E+00 -0.00000000000E+00 -0.46240234519E+02  0.46240234519E+02  0.00000000000E+00 0.  1.
       24    2    1    2    0    0  0.15548557882E+02 -0.47245986743E+02  0.21876371436E+02  0.97953975608E+02  0.81501317748E+02 0.  0.
      -24    2    1    2    0    0 -0.15548557882E+02  0.47245986743E+02  0.27016199819E+03  0.28656486305E+03  0.81596412645E+02 0.  0.
      -13    1    3    3    0    0 -0.20657409890E+02 -0.54705266847E+02  0.12056883006E+02  0.59705638193E+02  0.00000000000E+00 0.  1.
       14    1    3    3    0    0  0.36205967772E+02  0.74592801043E+01  0.98194884299E+01  0.38248337415E+02  0.00000000000E+00 0. -1.
        3    1    4    4  501    0 -0.43142385984E+02  0.49967681828E+02  0.16268841904E+03  0.17557208316E+03  0.00000000000E+00 0. -1.
       -4    1    4    4    0  501  0.27593828102E+02 -0.27216950855E+01  0.10747357915E+03  0.11099277990E+03  0.00000000000E+00 0.  1.
</event>
<event>
 9   1  0.7570500E-01  0.2499770E+03  0.7546771E-02  0.1113319E+00
       21   -1    0    0  503  502  0.00000000000E+00  0.00000000000E+00  0.32908289217E+02  0.32908289217E+02  0.00000000000E+00 0.  1.
       21   -1    0    0  502  503 -0.00000000000E+00 -0.00000000000E+00 -0.47471704573E+03  0.47471704573E+03  0.00000000000E+00 0.  1.
       25    2    1    2    0    0  0.00000000000E+00  0.00000000000E+00 -0.44180875651E+03  0.50762533494E+03  0.24997700564E+03 0.  0.
       24    2    3    3    0    0 -0.42744287677E+02 -0.51447650902E+02 -0.11227374045E+03  0.15377021484E+03  0.81030557612E+02 0.  0.
      -24    2    3    3    0    0  0.42744287677E+02  0.51447650902E+02 -0.32953501606E+03  0.35385512010E+03  0.11020972869E+03 0.  0.
      -13    1    4    4    0    0 -0.40169999016E+01  0.35957996434E+01 -0.78105577768E+02  0.78291425724E+02  0.00000000000E+00 0.  1.
       14    1    4    4    0    0 -0.38727287775E+02 -0.55043450545E+02 -0.34168162679E+02  0.75478789121E+02  0.00000000000E+00 0. -1.
        3    1    5    5  501    0 -0.46126599009E+01  0.67138369234E+02 -0.25806470584E+03  0.26669501243E+03  0.00000000000E+00 0. -1.
       -4    1    5    5    0  501  0.47356947578E+02 -0.15690718332E+02 -0.71470310220E+02  0.87160107667E+02  0.00000000000E+00 0.  1.
</event>
<event>
 9   1  0.7570500E-01  0.2500018E+03  0.7546771E-02  0.1113304E+00
       21   -1    0    0  503  502  0.00000000000E+00  0.00000000000E+00  0.19379773864E+03  0.19379773864E+03  0.00000000000E+00 0. -1.
       21   -1    0    0  502  503 -0.00000000000E+00 -0.00000000000E+00 -0.80626443915E+02  0.80626443915E+02  0.00000000000E+00 0. -1.
       25    2    1    2    0    0  0.71054273576E-14 -0.14210854715E-13  0.11317129473E+03  0.27442418256E+03  0.25000178004E+03 0.  0.
       24    2    3    3    0    0  0.37994739446E+02 -0.90025187758E+02  0.70423990350E+02  0.14310768569E+03  0.77279600348E+02 0.  0.
      -24    2    3    3    0    0 -0.37994739446E+02  0.90025187758E+02  0.42747304377E+02  0.13131649687E+03  0.76606498821E+02 0.  0.
      -13    1    4    4    0    0  0.43867807922E+02 -0.39134332151E+02  0.35866696246E+01  0.58896050154E+02  0.00000000000E+00 0.  1.
       14    1    4    4    0    0 -0.58730684758E+01 -0.50890855607E+02  0.66837320725E+02  0.84211635535E+02  0.00000000000E+00 0. -1.
        3    1    5    5  501    0  0.33860955954E+01  0.40496864480E+02 -0.16352887111E+02  0.43805006482E+02  0.00000000000E+00 0. -1.
       -4    1    5    5    0  501 -0.41380835041E+02  0.49528323279E+02  0.59100191488E+02  0.87511490385E+02  0.00000000000E+00 0.  1.
</event>
<event>
 9   1  0.7570500E-01  0.2500047E+03  0.7546771E-02  0.1113302E+00
       21   -1    0    0  503  502  0.00000000000E+00  0.00000000000E+00  0.89335323879E+02  0.89335323879E+02  0.00000000000E+00 0.  1.
       21   -1    0    0  502  503 -0.00000000000E+00 -0.00000000000E+00 -0.17490933829E+03  0.17490933829E+03  0.00000000000E+00 0.  1.
       25    2    1    2    0    0  0.17763568394E-14  0.00000000000E+00 -0.85574014413E+02  0.26424466217E+03  0.25000465904E+03 0.  0.
       24    2    3    3    0    0 -0.15379089512E+02  0.17453468748E+02 -0.14085679123E+03  0.16427051107E+03  0.81259000773E+02 0.  0.
      -24    2    3    3    0    0  0.15379089512E+02 -0.17453468748E+02  0.55282776818E+02  0.99974151098E+02  0.79984407915E+02 0.  0.
      -13    1    4    4    0    0 -0.46090799862E+02 -0.34616225974E+01 -0.91276707300E+02  0.10231217894E+03  0.00000000000E+00 0.  1.
       14    1    4    4    0    0  0.30711710351E+02  0.20915091346E+02 -0.49580083930E+02  0.61958332137E+02  0.00000000000E+00 0. -1.
        3    1    5    5  501    0  0.30373604517E+02 -0.72196220103E+01 -0.95498607162E+01  0.32647796756E+02  0.00000000000E+00 0. -1.
       -4    1    5    5    0  501 -0.14994515006E+02 -0.10233846738E+02  0.64832637534E+02  0.67326354341E+02  0.00000000000E+00 0.  1.
</event>
<event>
 9   1  0.7570500E-01  0.2500007E+03  0.7546771E-02  0.1113304E+00
       21   -1    0    0  503  502  0.00000000000E+00  0.00000000000E+00  0.14792036509E+03  0.14792036509E+03  0.00000000000E+00 0.  1.
       21   -1    0    0  502  503 -0.00000000000E+00 -0.00000000000E+00 -0.10563172505E+03  0.10563172505E+03  0.00000000000E+00 0.  1.
       25    2    1    2    0    0  0.00000000000E+00  0.00000000000E+00  0.42288640038E+02  0.25355209014E+03  0.25000066668E+03 0.  0.
       24    2    3    3    0    0  0.87028397278E+02 -0.41181205151E+02  0.17023242785E+02  0.12605935709E+03  0.79569699793E+02 0.  0.
      -24    2    3    3    0    0 -0.87028397278E+02  0.41181205151E+02  0.25265397253E+02  0.12749273305E+03  0.79663185302E+02 0.  0.
      -13    1    4    4    0    0  0.63368088767E+02 -0.17129172730E+02 -0.26672184271E+02  0.70854277543E+02  0.00000000000E+00 0.  1.
       14    1    4    4    0    0  0.23660308511E+02 -0.24052032421E+02  0.43695427056E+02  0.55205079549E+02  0.00000000000E+00 0. -1.
        3    1    5    5  501    0 -0.31429290705E+02  0.58768907965E+02  0.14011285632E+02  0.68102136403E+02  0.00000000000E+00 0. -1.
       -4    1    5    5    0  501 -0.55599106573E+02 -0.17587702814E+02  0.11254111622E+02  0.59390596649E+02  0.00000000000E+00 0.  1.
</event>
<event>
 9   1  0.7570500E-01  0.2499876E+03  0.7546771E-02  0.1113313E+00
       21   -1    0    0  503  502  0.00000000000E+00  0.00000000000E+00  0.68469158178E+03  0.68469158178E+03  0.00000000000E+00 0. -1.
       21   -1    0    0  502  503 -0.00000000000E+00 -0.00000000000E+00 -0.22818225152E+02  0.22818225152E+02  0.00000000000E+00 0. -1.
       25    2    1    2    0    0  0.00000000000E+00  0.00000000000E+00  0.66187335663E+03  0.70750980693E+03  0.24998757307E+03 0.  0.
       24    2    3    3    0    0 -0.24183121372E+02 -0.38990887345E+02  0.56518058282E+03  0.57287976111E+03  0.81590543769E+02 0.  0.
      -24    2    3    3    0    0  0.24183121372E+02  0.38990887345E+02  0.96692773806E+02  0.13463004582E+03  0.81674011026E+02 0.  0.
      -13    1    4    4    0    0 -0.88194496754E+01 -0.44084046218E+02  0.54571581890E+03  0.54756455402E+03  0.00000000000E+00 0.  1.
       14    1    4    4    0    0 -0.15363671697E+02  0.50931588731E+01  0.19464763927E+02  0.25315207091E+02  0.00000000000E+00 0. -1.
        3    1    5    5  501    0  0.23296665159E+02 -0.12880841709E+02  0.72797714652E+02  0.77512308372E+02  0.00000000000E+00 0. -1.
       -4    1    5    5    0  501  0.88645621327E+00  0.51871729053E+02  0.23895059154E+02  0.57117737452E+02  0.00000000000E+00 0.  1.
</event>
<event>
 9   1  0.7570500E-01  0.2499997E+03  0.7546771E-02  0.1113305E+00
       21   -1    0    0  503  502  0.00000000000E+00  0.00000000000E+00  0.69725056924E+02  0.69725056924E+02  0.00000000000E+00 0. -1.
       21   -1    0    0  502  503 -0.00000000000E+00 -0.00000000000E+00 -0.22409392307E+03  0.22409392307E+03  0.00000000000E+00 0. -1.
       25    2    1    2    0    0  0.14210854715E-13 -0.71054273576E-14 -0.15436886614E+03  0.29381897999E+03  0.24999969234E+03 0.  0.
       24    2    3    3    0    0 -0.76899229259E+02  0.46932207496E+02 -0.51250173838E+02  0.13420965980E+03  0.85261532384E+02 0.  0.
      -24    2    3    3    0    0  0.76899229259E+02 -0.46932207496E+02 -0.10311869231E+03  0.15960932019E+03  0.82009431334E+02 0.  0.
      -13    1    4    4    0    0 -0.84503894680E+01  0.40467250844E+02 -0.50747065204E+02  0.65454351268E+02  0.00000000000E+00 0.  1.
       14    1    4    4    0    0 -0.68448839791E+02  0.64649566523E+01 -0.50310863331E+00  0.68755308534E+02  0.00000000000E+00 0. -1.
        3    1    5    5  501    0  0.90577337878E+02 -0.29954020994E+02 -0.64175039459E+02  0.11497796833E+03  0.00000000000E+00 0. -1.
       -4    1    5    5    0  501 -0.13678108618E+02 -0.16978186502E+02 -0.38943652847E+02  0.44631351866E+02  0.00000000000E+00 0.  1.
</event>
<event>
 8   1  0.7570500E-01  0.2498962E+03  0.7546771E-02  0.1113370E+00
       21   -1    0    0  503  502  0.00000000000E+00  0.00000000000E+00  0.26242422940E+02  0.26242422940E+02  0.00000000000E+00 0.  1.
       21   -1    0    0  502  503 -0.00000000000E+00 -0.00000000000E+00 -0.59491578528E+03  0.59491578528E+03  0.00000000000E+00 0.  1.
       24    2    1    2    0    0  0.11708983841E+02 -0.70017311378E+02 -0.12348133073E+03  0.16314021134E+03  0.79545995000E+02 0.  0.
      -24    2    1    2    0    0 -0.11708983841E+02  0.70017311378E+02 -0.44519203161E+03  0.45801799688E+03  0.80901274815E+02 0.  0.
      -13    1    3    3    0    0  0.40713417453E+02 -0.35203772352E+02 -0.36402121588E+02  0.64976937483E+02  0.00000000000E+00 0.  1.
       14    1    3    3    0    0 -0.29004433612E+02 -0.34813539026E+02 -0.87079209143E+02  0.98163273853E+02  0.00000000000E+00 0. -1.
        3    1    4    4  501    0 -0.18765877809E+01 -0.63205026790E+01 -0.21881006221E+03  0.21890937317E+03  0.00000000000E+00 0. -1.
       -4    1    4    4    0  501 -0.98323960604E+01  0.76337814057E+02 -0.22638196940E+03  0.23910862372E+03  0.00000000000E+00 0.  1.
</event>
<event>
 9   1  0.7570500E-01  0.2499855E+03  0.7546771E-02  0.1113314E+00
       21   -1    0    0  503  502  0.00000000000E+00  0.00000000000E+00  0.13007954369E+04  0.13007954369E+04  0.00000000000E+00 0.  1.
       21   -1    0    0  502  503 -0.00000000000E+00 -0.00000000000E+00 -0.12010483845E+02  0.12010483845E+02  0.00000000000E+00 0.  1.
       25    2    1    2    0    0  0.17763568394E-14  0.00000000000E+00  0.12887849531E+04  0.13128059207E+04  0.24998546022E+03 0.  0.
       24    2    3    3    0    0 -0.10596147178E+02 -0.38560059065E+02  0.19171056117E+03  0.21215748718E+03  0.81600879958E+02 0.  0.
      -24    2    3    3    0    0  0.10596147178E+02  0.38560059065E+02  0.10970743919E+04  0.11006484336E+04  0.79092328963E+02 0.  0.
      -13    1    4    4    0    0  0.21724080392E+02 -0.51433048712E+02  0.12564833006E+03  0.13749471632E+03  0.00000000000E+00 0.  1.
       14    1    4    4    0    0 -0.32320227570E+02  0.12872989647E+02  0.66062231111E+02  0.74662770856E+02  0.00000000000E+00 0. -1.
        3    1    5    5  501    0  0.78378366758E+01  0.53071565423E+02  0.41992626400E+03  0.42333921380E+03  0.00000000000E+00 0. -1.
       -4    1    5    5    0  501  0.27583105021E+01 -0.14511506357E+02  0.67714812788E+03  0.67730921977E+03  0.00000000000E+00 0.  1.
</event>
<event>
 9   1  0.7570500E-01  0.2499985E+03  0.7546771E-02  0.1113306E+00
       21   -1    0    0  503  502  0.00000000000E+00  0.00000000000E+00  0.87501263506E+02  0.87501263506E+02  0.00000000000E+00 0. -1.
       21   -1    0    0  502  503 -0.00000000000E+00 -0.00000000000E+00 -0.17856666936E+03  0.17856666936E+03  0.00000000000E+00 0. -1.
       25    2    1    2    0    0  0.71054273576E-14  0.00000000000E+00 -0.91065405852E+02  0.26606793286E+03  0.24999847351E+03 0.  0.
       24    2    3    3    0    0  0.29213704062E+02  0.88803550256E+02 -0.20122877743E+02  0.12430429418E+03  0.79417355148E+02 0.  0.
      -24    2    3    3    0    0 -0.29213704062E+02 -0.88803550256E+02 -0.70942528109E+02  0.14176363869E+03  0.79527202370E+02 0.  0.
      -13    1    4    4    0    0  0.46269437889E+02  0.72564534657E+02  0.93623303174E+01  0.86568619034E+02  0.00000000000E+00 0.  1.
       14    1    4    4    0    0 -0.17055733827E+02  0.16239015599E+02 -0.29485208060E+02  0.37735675141E+02  0.00000000000E+00 0. -1.
        3    1    5    5  501    0  0.24711158756E+02 -0.30120660912E+02 -0.69950654415E+01  0.39583159568E+02  0.00000000000E+00 0. -1.
       -4    1    5    5    0  501 -0.53924862818E+02 -0.58682889343E+02 -0.63947462668E+02  0.10218047912E+03  0.00000000000E+00 0.  1.
</event>
<event>
 9   1  0.7570500E-01  0.2499498E+03  0.7546771E-02  0.1113337E+00
       21   -1    0    0  503  502  0.00000000000E+00  0.00000000000E+00  0.30201489592E+03  0.30201489592E+03  0.00000000000E+00 0. -1.
       21   -1    0    0  502  503 -0.00000000000E+00 -0.00000000000E+00 -0.51715071925E+02  0.51715071925E+02  0.00000000000E+00 0. -1.
       25    2    1    2    0    0  0.17763568394E-14 -0.14210854715E-13  0.25029982400E+03  0.35372996785E+03  0.24994977147E+03 0.  0.
       24    2    3    3    0    0  0.10796815044E+02  0.94500018259E+02  0.13634954235E+03  0.18439139385E+03  0.79763172965E+02 0.  0.
      -24    2    3    3    0    0 -0.10796815044E+02 -0.94500018259E+02  0.11395028165E+03  0.16933857399E+03  0.81511111447E+02 0.  0.
      -13    1    4    4    0    0 -0.31138924828E+02  0.15787646558E+02  0.36437978556E+02  0.50463934691E+02  0.00000000000E+00 0.  1.
       14    1    4    4    0    0  0.41935739872E+02  0.78712371701E+02  0.99911563793E+02  0.13392745916E+03  0.00000000000E+00 0. -1.
        1    1    5    5  501    0 -0.22509867585E+02 -0.10621206897E+03  0.96183849485E+02  0.14504837343E+03  0.00000000000E+00 0. -1.
       -2    1    5    5    0  501  0.11713052542E+02  0.11712050710E+02  0.17766432161E+02  0.24290200563E+02  0.00000000000E+00 0.  1.
</event>
<event>
 9   1  0.7570500E-01  0.2500024E+03  0.7546771E-02  0.1113303E+00
       21   -1    0    0  503  502  0.00000000000E+00  0.00000000000E+00  0.12018721425E+03  0.12018721425E+03  0.00000000000E+00 0. -1.
       21   -1    0    0  502  503 -0.00000000000E+00 -0.00000000000E+00 -0.13000804846E+03  0.13000804846E+03  0.00000000000E+00 0. -1.
       25    2    1    2    0    0  0.71054273576E-14  0.71054273576E-14 -0.98208342058E+01  0.25019526272E+03  0.25000244139E+03 0.  0.
       24    2    3    3    0    0 -0.31627988229E+02  0.51131071415E+02 -0.78915026321E+02  0.12868573246E+03  0.81961699935E+02 0.  0.
      -24    2    3    3    0    0  0.31627988229E+02 -0.51131071415E+02  0.69094192115E+02  0.12150953025E+03  0.79848872598E+02 0.  0.
      -13    1    4    4    0    0 -0.38135997721E+02 -0.92265869965E+01 -0.19792652993E+02  0.43945800053E+02  0.00000000000E+00 0.  1.
       14    1    4    4    0    0  0.65080094927E+01  0.60357658412E+02 -0.59122373328E+02  0.84739932408E+02  0.00000000000E+00 0. -1.
        3    1    5    5  501    0 -0.69647750365E+01 -0.12554097792E+02 -0.15319071331E+02  0.20994937702E+02  0.00000000000E+00 0. -1.
       -4    1    5    5    0  501  0.38592763265E+02 -0.38576973623E+02  0.84413263446E+02  0.10051459255E+03  0.00000000000E+00 0.  1.
</event>
<event>
 9   1  0.7570500E-01  0.2500013E+03  0.7546771E-02  0.1113304E+00
       21   -1    0    0  503  502  0.00000000000E+00  0.00000000000E+00  0.79151226879E+02  0.79151226879E+02  0.00000000000E+00 0. -1.
       21   -1    0    0  502  503 -0.00000000000E+00 -0.00000000000E+00 -0.19740891364E+03  0.19740891364E+03  0.00000000000E+00 0. -1.
       25    2    1    2    0    0 -0.71054273576E-14 -0.71054273576E-14 -0.11825768676E+03  0.27656014052E+03  0.25000126169E+03 0.  0.
       24    2    3    3    0    0 -0.41962305873E+02  0.21452696131E+02  0.35774937485E+02  0.97187999467E+02  0.77101282757E+02 0.  0.
      -24    2    3    3    0    0  0.41962305873E+02 -0.21452696131E+02 -0.15403262425E+03  0.17937214105E+03  0.78913005062E+02 0.  0.
      -13    1    4    4    0    0 -0.50209716163E-01 -0.19761700569E+02 -0.10499432895E+02  0.22377788575E+02  0.00000000000E+00 0.  1.
       14    1    4    4    0    0 -0.41912096156E+02  0.41214396700E+02  0.46274370380E+02  0.74810210892E+02  0.00000000000E+00 0. -1.
        3    1    5    5  501    0  0.13675546359E+02 -0.46702727535E+02 -0.55597615340E+02  0.73886806393E+02  0.00000000000E+00 0. -1.
       -4    1    5    5    0  501  0.28286759514E+02  0.25250031404E+02 -0.98435008910E+02  0.10548533466E+03  0.00000000000E+00 0.  1.
</event>
<event>
 9   1  0.7570500E-01  0.2499263E+03  0.7546771E-02  0.1113351E+00
       21   -1    0    0  503  502  0.00000000000E+00  0.00000000000E+00  0.87774077160E+02  0.87774077160E+02  0.00000000000E+00 0.  1.
       21   -1    0    0  502  503 -0.00000000000E+00 -0.00000000000E+00 -0.17790887248E+03  0.17790887248E+03  0.00000000000E+00 0.  1.
       25    2    1    2    0    0  0.00000000000E+00  0.00000000000E+00 -0.90134795324E+02  0.26568294964E+03  0.24992628594E+03 0.  0.
       24    2    3    3    0    0 -0.93342089244E+02  0.13328392924E+01 -0.61463430759E+02  0.13785048955E+03  0.80687558297E+02 0.  0.
      -24    2    3    3    0    0  0.93342089244E+02 -0.13328392924E+01 -0.28671364565E+02  0.12783246009E+03  0.82489809201E+02 0.  0.
      -13    1    4    4    0    0 -0.73165813919E+01 -0.19344975164E+02 -0.42644742923E+02  0.47395511669E+02  0.00000000000E+00 0.  1.
       14    1    4    4    0    0 -0.86025507853E+02  0.20677814457E+02 -0.18818687837E+02  0.90454977883E+02  0.00000000000E+00 0. -1.
        1    1    5    5  501    0 -0.72414530859E+01  0.19052964314E+02  0.25939724512E+01  0.20547087020E+02  0.00000000000E+00 0. -1.
       -2    1    5    5    0  501  0.10058354233E+03 -0.20385803606E+02 -0.31265337016E+02  0.10728537307E+03  0.00000000000E+00 0.  1.
</event>
<event>
 9   1  0.7570500E-01  0.2500020E+03  0.7546771E-02  0.1113304E+00
       21   -1    0    0  503  502  0.00000000000E+00  0.00000000000E+00  0.30174756789E+02  0.30174756789E+02  0.00000000000E+00 0.  1.
       21   -1    0    0  502  503 -0.00000000000E+00 -0.00000000000E+00 -0.51782530230E+03  0.51782530230E+03  0.00000000000E+00 0.  1.
       25    2    1    2    0    0  0.00000000000E+00  0.00000000000E+00 -0.48765054551E+03  0.54800005909E+03  0.25000202044E+03 0.  0.
       24    2    3    3    0    0 -0.74039296039E+02 -0.22554886277E+02 -0.36909212876E+03  0.38536559651E+03  0.79291255580E+02 0.  0.
      -24    2    3    3    0    0  0.74039296039E+02  0.22554886277E+02 -0.11855841676E+03  0.16263446258E+03  0.80020809681E+02 0.  0.
      -13    1    4    4    0    0 -0.35947857117E+02 -0.95676425458E+01 -0.31875517177E+03  0.32091844407E+03  0.00000000000E+00 0.  1.
       14    1    4    4    0    0 -0.38091438922E+02 -0.12987243731E+02 -0.50336956984E+02  0.64447152437E+02  0.00000000000E+00 0. -1.
        1    1    5    5  501    0  0.14182325139E+02 -0.26802346899E+02 -0.53003797091E+02  0.61064774230E+02  0.00000000000E+00 0. -1.
       -2    1    5    5    0  501  0.59856970899E+02  0.49357233176E+02 -0.65554619666E+02  0.10156968835E+03  0.00000000000E+00 0.  1.
</event>
<event>
 9   1  0.7570500E-01  0.2500042E+03  0.7546771E-02  0.1113302E+00
       21   -1    0    0  503  502  0.00000000000E+00  0.00000000000E+00  0.62428055793E+03  0.62428055793E+03  0.00000000000E+00 0. -1.
       21   -1    0    0  502  503 -0.00000000000E+00 -0.00000000000E+00 -0.25029642894E+02  0.25029642894E+02  0.00000000000E+00 0. -1.
       25    2    1    2    0    0  0.71054273576E-14  0.14210854715E-13  0.59925091504E+03  0.64931020083E+03  0.25000415541E+03 0.  0.
       24    2    3    3    0    0  0.32194087720E+02  0.64200436558E+02  0.10428224190E+03  0.14295549065E+03  0.66357599359E+02 0.  0.
      -24    2    3    3    0    0 -0.32194087720E+02 -0.64200436558E+02  0.49496867313E+03  0.50635471017E+03  0.79012339503E+02 0.  0.
      -13    1    4    4    0    0  0.44788288007E+02  0.17460625227E+02  0.63601317765E+02  0.79724474269E+02  0.00000000000E+00 0.  1.
       14    1    4    4    0    0 -0.12594200287E+02  0.46739811330E+02  0.40680924140E+02  0.63231016384E+02  0.00000000000E+00 0. -1.
        3    1    5    5  501    0 -0.21597658912E+02 -0.79438767744E+02  0.32058112811E+03  0.33098222973E+03  0.00000000000E+00 0. -1.
       -4    1    5    5    0  501 -0.10596428807E+02  0.15238331186E+02  0.17438754502E+03  0.17537248045E+03  0.00000000000E+00 0.  1.
</event>
</LesHouchesEvents>
