<LesHouchesEvents version="3.0">
<header>
<!--
#*********************************************************************
#                                                                    *
#                        MadGraph5_aMC@NLO                           *
#                                                                    *
#                           Going Beyond                             *
#                                                                    *
#                   http://madgraph.hep.uiuc.edu                     *
#                   http://madgraph.phys.ucl.ac.be                   *
#                   http://amcatnlo.cern.ch                          *
#                                                                    *
#                     The MadGraph5_aMC@NLO team                     *
#                                                                    *
#....................................................................*
#                                                                    *
# This file contains all the information necessary to reproduce      *
# the events generated:                                              *
#                                                                    *
# 1. software version                                                *
# 2. proc_card          : code generation info including model       *
# 3. param_card         : model primary parameters in the LH format  *
# 4. run_card           : running parameters (collider and cuts)     *
# 5. pythia_card        : present only if pythia has been run        *
# 6. pgs_card           : present only if pgs has been run           *
# 7. delphes_cards      : present only if delphes has been run       *
#                                                                    *
#                                                                    *
#*********************************************************************
-->
<MGVersion>
2.4.2
</MGVersion>
<MG5ProcCard>
#************************************************************
#*                     MadGraph5_aMC@NLO                    *
#*                                                          *
#*                *                       *                 *
#*                  *        * *        *                   *
#*                    * * * * 5 * * * *                     *
#*                  *        * *        *                   *
#*                *                       *                 *
#*                                                          *
#*                                                          *
#*         VERSION 2.4.2                 2016-06-10         *
#*                                                          *
#*    The MadGraph5_aMC@NLO Development Team - Find us at   *
#*    https://server06.fynu.ucl.ac.be/projects/madgraph     *
#*                                                          *
#************************************************************
#*                                                          *
#*               Command File for MadGraph5_aMC@NLO         *
#*                                                          *
#*     run as ./bin/mg5_aMC  filename                       *
#*                                                          *
#************************************************************
set group_subprocesses Auto
set ignore_six_quark_processes False
set loop_optimized_output True
set loop_color_flows False
set gauge unitary
set complex_mass_scheme False
set max_npoint_for_channel 0
import model sm
define p = g u c d s u~ c~ d~ s~
define j = g u c d s u~ c~ d~ s~
define l+ = e+ mu+
define l- = e- mu-
define vl = ve vm vt
define vl~ = ve~ vm~ vt~
import model RS
generate p p > y > w+ w- , w+ > mu+ vm , w- > j j
output ppyww
</MG5ProcCard>
<MGProcCard>
#*********************************************************************
#                        MadGraph/MadEvent                           *
#                   http://madgraph.hep.uiuc.edu                     *
#                                                                    *
#                          proc_card.dat                             *
#*********************************************************************
#                                                                    *
#            This Files is generated by MADGRAPH 5                   *
#                                                                    *
# WARNING: This Files is generated for MADEVENT (compatibility issue)*
#          This files is NOT a valid MG4 proc_card.dat               *
#          Running this in MG4 will NEVER reproduce the result of MG5*
#                                                                    *
#*********************************************************************
#*********************************************************************
# Process(es) requested : mg2 input                                  *
#*********************************************************************
# Begin PROCESS # This is TAG. Do not modify this line
p p > y > w+ w- , w+ > mu+ vm , w- > j j           #Process
# Be carefull the coupling are here in MG5 convention
          
end_coup           # End the couplings input

done               # this tells MG there are no more procs
# End PROCESS  # This is TAG. Do not modify this line
#*********************************************************************
# Model information                                                  *
#*********************************************************************
# Begin MODEL  # This is TAG. Do not modify this line
RS
# End   MODEL  # This is TAG. Do not modify this line
#*********************************************************************
# Start multiparticle definitions                                    *
#*********************************************************************
# Begin MULTIPARTICLES # This is TAG. Do not modify this line

# End  MULTIPARTICLES # This is TAG. Do not modify this line
</MGProcCard>
<MGRunCard>
#*********************************************************************
#                       MadGraph5_aMC@NLO                            *
#                                                                    *
#                     run_card.dat MadEvent                          *
#                                                                    *
#  This file is used to set the parameters of the run.               *
#                                                                    *
#  Some notation/conventions:                                        *
#                                                                    *
#   Lines starting with a '# ' are info or comments                  *
#                                                                    *
#   mind the format:   value    = variable     ! comment             *
#*********************************************************************
#
#*******************                                                 
# Running parameters
#*******************                                                 
#                                                                    
#*********************************************************************
# Tag name for the run (one word)                                    *
#*********************************************************************
  tag_1     = run_tag ! name of the run 
#*********************************************************************
# Run to generate the grid pack                                      *
#*********************************************************************
  False     = gridpack  !True = setting up the grid pack
#*********************************************************************
# Number of events and rnd seed                                      *
# Warning: Do not generate more than 1M events in a single run       *
# If you want to run Pythia, avoid more than 50k events in a run.    *
#*********************************************************************
  2000 = nevents ! Number of unweighted events requested 
 21 = iseed   ! rnd seed (0=assigned automatically=default))
#*********************************************************************
# Collider type and energy                                           *
# lpp: 0=No PDF, 1=proton, -1=antiproton, 2=photon from proton,      *
#                                         3=photon from electron     *
#*********************************************************************
     1        = lpp1    ! beam 1 type 
     1        = lpp2    ! beam 2 type
     6500.0     = ebeam1  ! beam 1 total energy in GeV
     6500.0     = ebeam2  ! beam 2 total energy in GeV
#*********************************************************************
# Beam polarization from -100 (left-handed) to 100 (right-handed)    *
#*********************************************************************
     0.0     = polbeam1 ! beam polarization for beam 1
     0.0     = polbeam2 ! beam polarization for beam 2
#*********************************************************************
# PDF CHOICE: this automatically fixes also alpha_s and its evol.    *
#*********************************************************************
     nn23lo1    = pdlabel     ! PDF set                                     
     230000    = lhaid     ! if pdlabel=lhapdf, this is the lhapdf number
#*********************************************************************
# Renormalization and factorization scales                           *
#*********************************************************************
 False = fixed_ren_scale  ! if .true. use fixed ren scale
 False        = fixed_fac_scale  ! if .true. use fixed fac scale
 91.188  = scale            ! fixed ren scale
 91.188  = dsqrt_q2fact1    ! fixed fact scale for pdf1
 91.188  = dsqrt_q2fact2    ! fixed fact scale for pdf2
 -1 = dynamical_scale_choice ! Choose one of the preselected dynamical choices
 1.0  = scalefact        ! scale factor for event-by-event scales
#*********************************************************************
# Time of flight information. (-1 means not run)
#*********************************************************************
 -1.0 = time_of_flight ! threshold below which info is not written
#*********************************************************************
# Matching - Warning! ickkw > 1 is still beta
#*********************************************************************
 0 = ickkw            ! 0 no matching, 1 MLM, 2 CKKW matching
 1 = highestmult      ! for ickkw=2, highest mult group
 1 = ktscheme         ! for ickkw=1, 1 Durham kT, 2 Pythia pTE
 1.0 = alpsfact         ! scale factor for QCD emission vx
 False = chcluster        ! cluster only according to channel diag
 True = pdfwgt           ! for ickkw=1, perform pdf reweighting
 4 = asrwgtflavor     ! highest quark flavor for a_s reweight
 True = clusinfo         ! include clustering tag in output
 3.0 = lhe_version       ! Change the way clustering information pass to shower.        
#*********************************************************************
#**********************************************************
#
#**********************************************************
# Automatic ptj and mjj cuts if xqcut > 0
# (turn off for VBF and single top processes)
#**********************************************************
   True  = auto_ptj_mjj  ! Automatic setting of ptj and mjj
#**********************************************************
#                                                                    
#**********************************
# BW cutoff (M+/-bwcutoff*Gamma)
#**********************************
  15.0  = bwcutoff      ! (M+/-bwcutoff*Gamma)
#**********************************************************
# Apply pt/E/eta/dr/mij/kt_durham cuts on decay products or not
# (note that etmiss/ptll/ptheavy/ht/sorted cuts always apply)
#*************************************************************
   False  = cut_decays    ! Cut decay products 
#*************************************************************
# Number of helicities to sum per event (0 = all helicities)
# 0 gives more stable result, but longer run time (needed for
# long decay chains e.g.).
# Use >=2 if most helicities contribute, e.g. pure QCD.
#*************************************************************
   0  = nhel          ! Number of helicities used per event
#*******************                                                 
# Standard Cuts
#*******************                                                 
#                                                                    
#*********************************************************************
# Minimum and maximum pt's (for max, -1 means no cut)                *
#*********************************************************************
 20.0  = ptj       ! minimum pt for the jets 
 0.0  = ptb       ! minimum pt for the b 
 10.0  = pta       ! minimum pt for the photons 
 10.0  = ptl       ! minimum pt for the charged leptons 
 0.0  = misset    ! minimum missing Et (sum of neutrino's momenta)
 0.0  = ptheavy   ! minimum pt for one heavy final state
 -1.0  = ptjmax    ! maximum pt for the jets
 -1.0  = ptbmax    ! maximum pt for the b
 -1.0  = ptamax    ! maximum pt for the photons
 -1.0  = ptlmax    ! maximum pt for the charged leptons
 -1.0  = missetmax ! maximum missing Et (sum of neutrino's momenta)
#*********************************************************************
# Minimum and maximum E's (in the center of mass frame)              *
#*********************************************************************
  0.0  = ej     ! minimum E for the jets 
  0.0  = eb     ! minimum E for the b 
  0.0  = ea     ! minimum E for the photons 
  0.0  = el     ! minimum E for the charged leptons 
  -1.0   = ejmax ! maximum E for the jets
 -1.0   = ebmax ! maximum E for the b
 -1.0   = eamax ! maximum E for the photons
 -1.0   = elmax ! maximum E for the charged leptons
#*********************************************************************
# Maximum and minimum absolute rapidity (for max, -1 means no cut)   *
#*********************************************************************
  5.0 = etaj    ! max rap for the jets 
  -1.0  = etab    ! max rap for the b
 2.5  = etaa    ! max rap for the photons 
 2.5  = etal    ! max rap for the charged leptons 
 0.0  = etajmin ! min rap for the jets
 0.0  = etabmin ! min rap for the b
 0.0  = etaamin ! min rap for the photons
 0.0  = etalmin ! main rap for the charged leptons
#*********************************************************************
# Minimum and maximum DeltaR distance                                *
#*********************************************************************
 0.4 = drjj    ! min distance between jets 
 0.0   = drbb    ! min distance between b's 
 0.4 = drll    ! min distance between leptons 
 0.4 = draa    ! min distance between gammas 
 0.0   = drbj    ! min distance between b and jet 
 0.4 = draj    ! min distance between gamma and jet 
 0.4 = drjl    ! min distance between jet and lepton 
 0.0   = drab    ! min distance between gamma and b 
 0.0   = drbl    ! min distance between b and lepton 
 0.4 = dral    ! min distance between gamma and lepton 
 -1.0  = drjjmax ! max distance between jets
 -1.0  = drbbmax ! max distance between b's
 -1.0  = drllmax ! max distance between leptons
 -1.0  = draamax ! max distance between gammas
 -1.0  = drbjmax ! max distance between b and jet
 -1.0  = drajmax ! max distance between gamma and jet
 -1.0  = drjlmax ! max distance between jet and lepton
 -1.0  = drabmax ! max distance between gamma and b
 -1.0  = drblmax ! max distance between b and lepton
 -1.0  = dralmax ! maxdistance between gamma and lepton
#*********************************************************************
# Minimum and maximum invariant mass for pairs                       *
# WARNING: for four lepton final state mmll cut require to have      *
#          different lepton masses for each flavor!                  *           
#*********************************************************************
 0.0   = mmjj    ! min invariant mass of a jet pair 
 0.0   = mmbb    ! min invariant mass of a b pair 
 0.0   = mmaa    ! min invariant mass of gamma gamma pair
 0.0   = mmll    ! min invariant mass of l+l- (same flavour) lepton pair
 -1.0  = mmjjmax ! max invariant mass of a jet pair
 -1.0  = mmbbmax ! max invariant mass of a b pair
 -1.0  = mmaamax ! max invariant mass of gamma gamma pair
 -1.0  = mmllmax ! max invariant mass of l+l- (same flavour) lepton pair
#*********************************************************************
# Minimum and maximum invariant mass for all letpons                 *
#*********************************************************************
 0.0   = mmnl    ! min invariant mass for all letpons (l+- and vl) 
 -1.0  = mmnlmax ! max invariant mass for all letpons (l+- and vl) 
#*********************************************************************
# Minimum and maximum pt for 4-momenta sum of leptons                *
#*********************************************************************
 0.0   = ptllmin  ! Minimum pt for 4-momenta sum of leptons(l and vl)
 -1.0  = ptllmax  ! Maximum pt for 4-momenta sum of leptons(l and vl)
#*********************************************************************
# Inclusive cuts                                                     *
#*********************************************************************
 0.0  = xptj ! minimum pt for at least one jet  
 0.0  = xptb ! minimum pt for at least one b 
 0.0  = xpta ! minimum pt for at least one photon 
 0.0  = xptl ! minimum pt for at least one charged lepton 
#*********************************************************************
# Control the pt's of the jets sorted by pt                          *
#*********************************************************************
 0.0   = ptj1min ! minimum pt for the leading jet in pt
 0.0   = ptj2min ! minimum pt for the second jet in pt
 0.0   = ptj3min ! minimum pt for the third jet in pt
 0.0   = ptj4min ! minimum pt for the fourth jet in pt
 -1.0  = ptj1max ! maximum pt for the leading jet in pt 
 -1.0  = ptj2max ! maximum pt for the second jet in pt
 -1.0  = ptj3max ! maximum pt for the third jet in pt
 -1.0  = ptj4max ! maximum pt for the fourth jet in pt
 0   = cutuse  ! reject event if fails any (0) / all (1) jet pt cuts
#*********************************************************************
# Control the pt's of leptons sorted by pt                           *
#*********************************************************************
 0.0   = ptl1min ! minimum pt for the leading lepton in pt
 0.0   = ptl2min ! minimum pt for the second lepton in pt
 0.0   = ptl3min ! minimum pt for the third lepton in pt
 0.0   = ptl4min ! minimum pt for the fourth lepton in pt
 -1.0  = ptl1max ! maximum pt for the leading lepton in pt 
 -1.0  = ptl2max ! maximum pt for the second lepton in pt
 -1.0  = ptl3max ! maximum pt for the third lepton in pt
 -1.0  = ptl4max ! maximum pt for the fourth lepton in pt
#*********************************************************************
# Control the Ht(k)=Sum of k leading jets                            *
#*********************************************************************
 0.0   = htjmin ! minimum jet HT=Sum(jet pt)
 -1.0  = htjmax ! maximum jet HT=Sum(jet pt)
 0.0   = ihtmin  !inclusive Ht for all partons (including b)
 -1.0  = ihtmax  !inclusive Ht for all partons (including b)
 0.0   = ht2min ! minimum Ht for the two leading jets
 0.0   = ht3min ! minimum Ht for the three leading jets
 0.0   = ht4min ! minimum Ht for the four leading jets
 -1.0  = ht2max ! maximum Ht for the two leading jets
 -1.0  = ht3max ! maximum Ht for the three leading jets
 -1.0  = ht4max ! maximum Ht for the four leading jets
#***********************************************************************
# Photon-isolation cuts, according to hep-ph/9801442                   *
# When ptgmin=0, all the other parameters are ignored                  *
# When ptgmin>0, pta and draj are not going to be used                 *
#***********************************************************************
 0.0 = ptgmin ! Min photon transverse momentum
 0.4 = R0gamma ! Radius of isolation code
 1.0 = xn ! n parameter of eq.(3.4) in hep-ph/9801442
 1.0 = epsgamma ! epsilon_gamma parameter of eq.(3.4) in hep-ph/9801442
 True = isoEM ! isolate photons from EM energy (photons and leptons)
#*********************************************************************
# WBF cuts                                                           *
#*********************************************************************
 0.0   = xetamin ! minimum rapidity for two jets in the WBF case  
 0.0   = deltaeta ! minimum rapidity for two jets in the WBF case 
#*********************************************************************
# KT DURHAM CUT                                                      *
#*********************************************************************
 -1.0    =  ktdurham        
 0.4  =  dparameter 
#*********************************************************************
# maximal pdg code for quark to be considered as a light jet         *
# (otherwise b cuts are applied)                                     *
#*********************************************************************
 4 = maxjetflavor    ! Maximum jet pdg code
#*********************************************************************
# Jet measure cuts                                                   *
#*********************************************************************
 0.0   = xqcut   ! minimum kt jet measure between partons
#*********************************************************************
#
#*********************************************************************
# Store info for systematics studies                                 *
# WARNING: If use_syst is T, matched Pythia output is                *
#          meaningful ONLY if plotted taking matchscale              *
#          reweighting into account!                                 *
#*********************************************************************
   False  = use_syst      ! Enable systematics studies
#
#**************************************
# Parameter of the systematics study
#  will be used by SysCalc (if installed)
#**************************************                                  
#
0.5 1 2 = sys_scalefact  # factorization/renormalization scale factor
None = sys_alpsfact  # \alpha_s emission scale factors
30 50 = sys_matchscale # variation of merging scale
# PDF sets and number of members (0 or none for all members).
NNPDF23_lo_as_0130_qed = sys_pdf # matching scales
# MSTW2008nlo68cl.LHgrid 1  = sys_pdf
</MGRunCard>
<slha>
######################################################################
## PARAM_CARD AUTOMATICALY GENERATED BY MG5 FOLLOWING UFO MODEL   ####
######################################################################
##                                                                  ##
##  Width set on Auto will be computed following the information    ##
##        present in the decay.py files of the model.               ##
##        See  arXiv:1402.1178 for more details.                    ##
##                                                                  ##
######################################################################

###################################
## INFORMATION FOR CKMBLOCK
###################################
Block ckmblock 
    1 4.880000e-01 # cabi 

###################################
## INFORMATION FOR FRBLOCK
###################################
Block frblock 
    1 3.000000e+03 # LRS 
    2 2.312000e-01 # sw2 

###################################
## INFORMATION FOR MASS
###################################
Block mass 
    4 1.420000e+00 # MC 
    5 4.200000e+00 # MB 
    6 1.743000e+02 # MT 
   15 1.777000e+00 # MTA 
   23 9.154450e+01 # MZ 
   24 8.026736e+01 # MW 
   25 1.250000e+02 # MH 
   39 1.000000e+03 # MGr 
## Dependent parameters, given by model restrictions.
## Those values should be edited following the 
## analytical expression. MG5 ignores those values 
## but they are important for interfacing the output of MG5
## to external program such as Pythia.
  1 0.000000 # d : 0.0 
  2 0.000000 # u : 0.0 
  3 0.000000 # s : 0.0 
  11 0.000000 # e- : 0.0 
  12 0.000000 # ve : 0.0 
  13 0.000000 # mu- : 0.0 
  14 0.000000 # vm : 0.0 
  16 0.000000 # vt : 0.0 
  21 0.000000 # g : 0.0 
  22 0.000000 # a : 0.0 

###################################
## INFORMATION FOR SMINPUTS
###################################
Block sminputs 
    1 1.279000e+02 # aEWM1 
    2 1.166000e-05 # Gf 
    3 1.180000e-01 # aS 

###################################
## INFORMATION FOR YUKAWA
###################################
Block yukawa 
    4 1.420000e+00 # ymc 
    5 4.200000e+00 # ymb 
    6 1.743000e+02 # ymt 
   15 1.777000e+00 # ymtau 

###################################
## INFORMATION FOR DECAY
###################################
DECAY   6 1.510135e+00 # WT 
DECAY  23 2.446400e+00 # WZ 
DECAY  24 2.035356e+00 # WW 
DECAY  25 6.382339e-03 # WH 
DECAY  39 1.066890e+01 # WGr 
## Dependent parameters, given by model restrictions.
## Those values should be edited following the 
## analytical expression. MG5 ignores those values 
## but they are important for interfacing the output of MG5
## to external program such as Pythia.
DECAY  1 0.000000 # d : 0.0 
DECAY  2 0.000000 # u : 0.0 
DECAY  3 0.000000 # s : 0.0 
DECAY  4 0.000000 # c : 0.0 
DECAY  5 0.000000 # b : 0.0 
DECAY  11 0.000000 # e- : 0.0 
DECAY  12 0.000000 # ve : 0.0 
DECAY  13 0.000000 # mu- : 0.0 
DECAY  14 0.000000 # vm : 0.0 
DECAY  15 0.000000 # ta- : 0.0 
DECAY  16 0.000000 # vt : 0.0 
DECAY  21 0.000000 # g : 0.0 
DECAY  22 0.000000 # a : 0.0 
#===========================================================
# QUANTUM NUMBERS OF NEW STATE(S) (NON SM PDG CODE)
#===========================================================

Block QNUMBERS 39  # y 
        1 0  # 3 times electric charge
        2 5  # number of spin states (2S+1)
        3 1  # colour rep (1: singlet, 3: triplet, 8: octet)
        4 0  # Particle/Antiparticle distinction (0=own anti)
</slha>
## END BANNER##
<MGGenerationInfo>
#  Number of Events        :         2000
#  Integrated weight (pb)  :  0.14670E+00
#  Truncated wgt (pb)      :  0.00000E+00
#  Unit wgt                :  0.73350E-04
</MGGenerationInfo>
</header>
<init>
     2212     2212  0.65000000000E+04  0.65000000000E+04 0 0  247000  247000  3   1
  0.14668603147E+00  0.67371584379E-03  0.73350000000E-04   1
<generator name='MadGraph5_aMC@NLO' version='2.4.2'>please cite 1405.0301 </generator>
</init>
<event>
 9   1  0.7335000E-04  0.9796546E+03  0.7818608E-02  0.9331145E-01
       21   -1    0    0  503  502  0.00000000000E+00  0.00000000000E+00  0.55031068667E+03  0.55031068667E+03  0.00000000000E+00 0.  1.
       21   -1    0    0  502  503 -0.00000000000E+00 -0.00000000000E+00 -0.43599154615E+03  0.43599154615E+03  0.00000000000E+00 0. -1.
       39    2    1    2    0    0  0.00000000000E+00 -0.71054273576E-14  0.11431914052E+03  0.98630223282E+03  0.97965464760E+03 0.  0.
       24    2    3    3    0    0  0.14461937352E+03 -0.35151810792E+02  0.52031026070E+03  0.54653307699E+03  0.76323154107E+02 0.  0.
      -24    2    3    3    0    0 -0.14461937352E+03  0.35151810792E+02 -0.40599112017E+03  0.43976915583E+03  0.80110597068E+02 0.  0.
      -13    1    4    4    0    0  0.15109709946E+03 -0.32724246805E+02  0.51529917184E+03  0.53799112101E+03  0.00000000000E+00 0.  1.
       14    1    4    4    0    0 -0.64777259392E+01 -0.24275639870E+01  0.50110888612E+01  0.85419559721E+01  0.00000000000E+00 0. -1.
        1    1    5    5  501    0 -0.66125292036E+02 -0.12445517054E+02 -0.10179025520E+03  0.12201926567E+03  0.00000000000E+00 0. -1.
       -2    1    5    5    0  501 -0.78494081483E+02  0.47597327846E+02 -0.30420086497E+03  0.31774989016E+03  0.00000000000E+00 0.  1.
</event>
<event>
 9   1  0.7335000E-04  0.9965777E+03  0.7818608E-02  0.9312306E-01
       21   -1    0    0  503  502  0.00000000000E+00  0.00000000000E+00  0.15989128574E+03  0.15989128574E+03  0.00000000000E+00 0.  1.
       21   -1    0    0  502  503 -0.00000000000E+00 -0.00000000000E+00 -0.15528786728E+04  0.15528786728E+04  0.00000000000E+00 0. -1.
       39    2    1    2    0    0  0.00000000000E+00 -0.14210854715E-13 -0.13929873871E+04  0.17127699586E+04  0.99657767905E+03 0.  0.
       24    2    3    3    0    0  0.19519313510E+03 -0.10961270649E+03 -0.14492816671E+04  0.14686177029E+04  0.79405925790E+02 0.  0.
      -24    2    3    3    0    0 -0.19519313510E+03  0.10961270649E+03  0.56294280037E+02  0.24415225571E+03  0.79535982985E+02 0.  0.
      -13    1    4    4    0    0  0.22841910081E+01 -0.37371928736E+01 -0.22022446481E+01  0.49024504715E+01  0.00000000000E+00 0.  1.
       14    1    4    4    0    0  0.19290894409E+03 -0.10587551361E+03 -0.14470794225E+04  0.14637152524E+04  0.00000000000E+00 0. -1.
        3    1    5    5  501    0 -0.22258684243E+02 -0.12665426842E+02  0.88974842015E+01  0.27111386657E+02  0.00000000000E+00 0. -1.
       -4    1    5    5    0  501 -0.17293445086E+03  0.12227813333E+03  0.47396795835E+02  0.21704086905E+03  0.14200000000E+01 0.  1.
</event>
<event>
 9   1  0.7335000E-04  0.1000194E+04  0.7818608E-02  0.9308332E-01
       21   -1    0    0  503  502  0.00000000000E+00  0.00000000000E+00  0.61408895190E+03  0.61408895190E+03  0.00000000000E+00 0.  1.
       21   -1    0    0  502  503 -0.00000000000E+00 -0.00000000000E+00 -0.40726512038E+03  0.40726512038E+03  0.00000000000E+00 0. -1.
       39    2    1    2    0    0 -0.21316282073E-13  0.00000000000E+00  0.20682383152E+03  0.10213540723E+04  0.10001940030E+04 0.  0.
       24    2    3    3    0    0  0.58822752490E+02  0.31427476484E+02  0.60362963515E+03  0.61094425718E+03  0.66605904112E+02 0.  0.
      -24    2    3    3    0    0 -0.58822752490E+02 -0.31427476484E+02 -0.39680580363E+03  0.41040981510E+03  0.80830489590E+02 0.  0.
      -13    1    4    4    0    0  0.72179778599E+02  0.19438649696E+02  0.43659018024E+03  0.44294330000E+03  0.00000000000E+00 0.  1.
       14    1    4    4    0    0 -0.13357026109E+02  0.11988826788E+02  0.16703945491E+03  0.16800095718E+03  0.00000000000E+00 0. -1.
        1    1    5    5  501    0 -0.54705695639E+02 -0.56139227904E+02 -0.26977163558E+03  0.28092892590E+03  0.00000000000E+00 0. -1.
       -2    1    5    5    0  501 -0.41170568509E+01  0.24711751420E+02 -0.12703416805E+03  0.12948088919E+03  0.00000000000E+00 0.  1.
</event>
<event>
 9   1  0.7335000E-04  0.1004203E+04  0.7818608E-02  0.9303947E-01
       21   -1    0    0  503  502  0.00000000000E+00  0.00000000000E+00  0.12015618793E+03  0.12015618793E+03  0.00000000000E+00 0.  1.
       21   -1    0    0  502  503 -0.00000000000E+00 -0.00000000000E+00 -0.20981535544E+04  0.20981535544E+04  0.00000000000E+00 0. -1.
       39    2    1    2    0    0  0.00000000000E+00  0.00000000000E+00 -0.19779973664E+04  0.22183097423E+04  0.10042034311E+04 0.  0.
       24    2    3    3    0    0 -0.28557088482E+03 -0.12953970681E+03 -0.14253324703E+03  0.35461103233E+03  0.84273316324E+02 0.  0.
      -24    2    3    3    0    0  0.28557088482E+03  0.12953970681E+03 -0.18354641194E+04  0.18636987100E+04  0.78186200660E+02 0.  0.
      -13    1    4    4    0    0 -0.26933141833E+03 -0.98126372350E+02 -0.14039224987E+03  0.31918361749E+03  0.00000000000E+00 0.  1.
       14    1    4    4    0    0 -0.16239466493E+02 -0.31413334457E+02 -0.21409971640E+01  0.35427414844E+02  0.00000000000E+00 0. -1.
        3    1    5    5  501    0  0.21164242109E+03  0.12708786035E+03 -0.13108168200E+04  0.13338607777E+04  0.00000000000E+00 0. -1.
       -4    1    5    5    0  501  0.73928463736E+02  0.24518464571E+01 -0.52464729936E+03  0.52983793223E+03  0.14200000000E+01 0.  1.
</event>
<event>
 9   1  0.7335000E-04  0.1042002E+04  0.7818608E-02  0.9263640E-01
       21   -1    0    0  503  502  0.00000000000E+00  0.00000000000E+00  0.29074130724E+03  0.29074130724E+03  0.00000000000E+00 0. -1.
       21   -1    0    0  502  503 -0.00000000000E+00 -0.00000000000E+00 -0.93362097250E+03  0.93362097250E+03  0.00000000000E+00 0.  1.
       39    2    1    2    0    0  0.00000000000E+00  0.00000000000E+00 -0.64287966526E+03  0.12243622797E+04  0.10420022687E+04 0.  0.
       24    2    3    3    0    0 -0.44194887666E+03  0.22027161615E+03 -0.49272142396E+03  0.70217874378E+03  0.80263267630E+02 0.  0.
      -24    2    3    3    0    0  0.44194887666E+03 -0.22027161615E+03 -0.15015824130E+03  0.52218353596E+03  0.79307965159E+02 0.  0.
      -13    1    4    4    0    0 -0.19479417518E+03  0.13304081219E+03 -0.19998721966E+03  0.30925639269E+03  0.00000000000E+00 0.  1.
       14    1    4    4    0    0 -0.24715470147E+03  0.87230803965E+02 -0.29273420430E+03  0.39292235109E+03  0.00000000000E+00 0. -1.
        1    1    5    5  501    0  0.17308705484E+03 -0.56828377001E+02 -0.84232035768E+02  0.20070781957E+03  0.00000000000E+00 0. -1.
       -2    1    5    5    0  501  0.26886182182E+03 -0.16344323915E+03 -0.65926205529E+02  0.32147571639E+03  0.00000000000E+00 0.  1.
</event>
<event>
 9   1  0.7335000E-04  0.1015433E+04  0.7818608E-02  0.9291778E-01
       21   -1    0    0  503  502  0.00000000000E+00  0.00000000000E+00  0.85091397441E+03  0.85091397441E+03  0.00000000000E+00 0.  1.
       21   -1    0    0  502  503 -0.00000000000E+00 -0.00000000000E+00 -0.30294026290E+03  0.30294026290E+03  0.00000000000E+00 0. -1.
       39    2    1    2    0    0  0.00000000000E+00  0.00000000000E+00  0.54797371151E+03  0.11538542373E+04  0.10154331157E+04 0.  0.
       24    2    3    3    0    0  0.44523695903E+03 -0.20116791903E+03  0.40286696127E+03  0.63812742549E+03  0.78742246277E+02 0.  0.
      -24    2    3    3    0    0 -0.44523695903E+03  0.20116791903E+03  0.14510675023E+03  0.51572681181E+03  0.78826988567E+02 0.  0.
      -13    1    4    4    0    0  0.40779539267E+03 -0.20251261416E+03  0.35505123173E+03  0.57738186526E+03  0.00000000000E+00 0.  1.
       14    1    4    4    0    0  0.37441566366E+02  0.13446951330E+01  0.47815729542E+02  0.60745560237E+02  0.00000000000E+00 0. -1.
        3    1    5    5  501    0 -0.25733639558E+03  0.76637699464E+02  0.62853108105E+02  0.27576415769E+03  0.00000000000E+00 0. -1.
       -4    1    5    5    0  501 -0.18790056346E+03  0.12453021956E+03  0.82253642129E+02  0.23996265413E+03  0.14200000000E+01 0.  1.
</event>
<event>
 9   1  0.7335000E-04  0.1019066E+04  0.7818608E-02  0.9287878E-01
       21   -1    0    0  503  502  0.00000000000E+00  0.00000000000E+00  0.17059427401E+04  0.17059427401E+04  0.00000000000E+00 0. -1.
       21   -1    0    0  502  503 -0.00000000000E+00 -0.00000000000E+00 -0.15218778682E+03  0.15218778682E+03  0.00000000000E+00 0.  1.
       39    2    1    2    0    0  0.00000000000E+00  0.00000000000E+00  0.15537549533E+04  0.18581305270E+04  0.10190655525E+04 0.  0.
       24    2    3    3    0    0 -0.32073245935E+03 -0.36206825676E+02  0.73651497884E+02  0.34109765695E+03  0.82114698642E+02 0.  0.
      -24    2    3    3    0    0  0.32073245935E+03  0.36206825676E+02  0.14801034554E+04  0.15170328700E+04  0.80636500401E+02 0.  0.
      -13    1    4    4    0    0 -0.28535677544E+03 -0.15743874196E+02  0.85922184906E+02  0.29842751335E+03  0.00000000000E+00 0.  1.
       14    1    4    4    0    0 -0.35375683910E+02 -0.20462951480E+02 -0.12270687022E+02  0.42670143606E+02  0.00000000000E+00 0. -1.
        3    1    5    5  501    0  0.32503930967E+03  0.32207345501E+02  0.14514200700E+04  0.14877190883E+04  0.00000000000E+00 0. -1.
       -4    1    5    5    0  501 -0.43068503183E+01  0.39994801747E+01  0.28683385418E+02  0.29313781748E+02  0.14200000000E+01 0.  1.
</event>
<event>
 9   1  0.7335000E-04  0.9919711E+03  0.7818608E-02  0.9317395E-01
       21   -1    0    0  503  502  0.00000000000E+00  0.00000000000E+00  0.11760998552E+04  0.11760998552E+04  0.00000000000E+00 0. -1.
       21   -1    0    0  502  503 -0.00000000000E+00 -0.00000000000E+00 -0.20916732185E+03  0.20916732185E+03  0.00000000000E+00 0.  1.
       39    2    1    2    0    0  0.56843418861E-13 -0.71054273576E-14  0.96693253334E+03  0.13852671770E+04  0.99197108211E+03 0.  0.
       24    2    3    3    0    0  0.44853886233E+03 -0.46332462543E+02  0.75135794916E+03  0.87983656851E+03  0.78992477025E+02 0.  0.
      -24    2    3    3    0    0 -0.44853886233E+03  0.46332462543E+02  0.21557458418E+03  0.50543060852E+03  0.75192357190E+02 0.  0.
      -13    1    4    4    0    0  0.34180579438E+03 -0.11962080575E+02  0.51490590635E+03  0.61814430745E+03  0.00000000000E+00 0.  1.
       14    1    4    4    0    0  0.10673306795E+03 -0.34370381968E+02  0.23645204281E+03  0.26169226106E+03  0.00000000000E+00 0. -1.
        3    1    5    5  501    0 -0.26995638182E+03  0.10475303339E+02  0.16430791406E+03  0.31620131354E+03  0.00000000000E+00 0. -1.
       -4    1    5    5    0  501 -0.17858248051E+03  0.35857159204E+02  0.51266670119E+02  0.18922929498E+03  0.14200000000E+01 0.  1.
</event>
<event>
 9   1  0.7335000E-04  0.9646579E+03  0.7818608E-02  0.9348180E-01
       21   -1    0    0  503  502  0.00000000000E+00  0.00000000000E+00  0.27473493658E+03  0.27473493658E+03  0.00000000000E+00 0.  1.
       21   -1    0    0  502  503 -0.00000000000E+00 -0.00000000000E+00 -0.84678421269E+03  0.84678421269E+03  0.00000000000E+00 0. -1.
       39    2    1    2    0    0  0.28421709430E-13  0.00000000000E+00 -0.57204927611E+03  0.11215191493E+04  0.96465788125E+03 0.  0.
       24    2    3    3    0    0 -0.13850822787E+03 -0.41926080315E+03 -0.49314246442E+03  0.66689706855E+03  0.81228440685E+02 0.  0.
      -24    2    3    3    0    0  0.13850822787E+03  0.41926080315E+03 -0.78906811693E+02  0.45462208072E+03  0.74099939927E+02 0.  0.
      -13    1    4    4    0    0 -0.46857398682E+02 -0.17739987556E+03 -0.14879965938E+03  0.23623647112E+03  0.00000000000E+00 0.  1.
       14    1    4    4    0    0 -0.91650829186E+02 -0.24186092760E+03 -0.34434280504E+03  0.43066059742E+03  0.00000000000E+00 0. -1.
        3    1    5    5  501    0  0.62881951342E+02  0.18849495183E+03 -0.73038022700E+02  0.21170507653E+03  0.00000000000E+00 0. -1.
       -4    1    5    5    0  501  0.75626276526E+02  0.23076585132E+03 -0.58687889931E+01  0.24291700418E+03  0.14200000000E+01 0.  1.
</event>
<event>
 9   1  0.7335000E-04  0.1006088E+04  0.7818608E-02  0.9301893E-01
       21   -1    0    0  503  502  0.00000000000E+00  0.00000000000E+00  0.10150338356E+04  0.10150338356E+04  0.00000000000E+00 0.  1.
       21   -1    0    0  502  503 -0.00000000000E+00 -0.00000000000E+00 -0.24930530334E+03  0.24930530334E+03  0.00000000000E+00 0. -1.
       39    2    1    2    0    0 -0.14210854715E-13  0.00000000000E+00  0.76572853221E+03  0.12643391389E+04  0.10060881040E+04 0.  0.
       24    2    3    3    0    0 -0.97169135750E+02 -0.34385403092E+03  0.81614910078E+03  0.89457180731E+03  0.80510422922E+02 0.  0.
      -24    2    3    3    0    0  0.97169135750E+02  0.34385403092E+03 -0.50420568571E+02  0.36976733159E+03  0.80673479251E+02 0.  0.
      -13    1    4    4    0    0 -0.87413851381E+02 -0.20567912576E+03  0.56790951552E+03  0.61030017369E+03  0.00000000000E+00 0.  1.
       14    1    4    4    0    0 -0.97552843693E+01 -0.13817490516E+03  0.24823958527E+03  0.28427163362E+03  0.00000000000E+00 0. -1.
        1    1    5    5  501    0  0.66265602199E+02  0.22388794196E+03 -0.71311232610E+02  0.24413568458E+03  0.00000000000E+00 0. -1.
       -2    1    5    5    0  501  0.30903533551E+02  0.11996608896E+03  0.20890664038E+02  0.12563164701E+03  0.00000000000E+00 0.  1.
</event>
<event>
 9   1  0.7335000E-04  0.9740265E+03  0.7818608E-02  0.9337500E-01
       21   -1    0    0  503  502  0.00000000000E+00  0.00000000000E+00  0.64761138982E+03  0.64761138982E+03  0.00000000000E+00 0. -1.
       21   -1    0    0  502  503 -0.00000000000E+00 -0.00000000000E+00 -0.36624109570E+03  0.36624109570E+03  0.00000000000E+00 0.  1.
       39    2    1    2    0    0  0.00000000000E+00  0.71054273576E-14  0.28137029412E+03  0.10138524855E+04  0.97402649860E+03 0.  0.
       24    2    3    3    0    0 -0.15923620698E+03 -0.59712587319E+02  0.60855517773E+03  0.63680575441E+03  0.79122700986E+02 0.  0.
      -24    2    3    3    0    0  0.15923620698E+03  0.59712587319E+02 -0.32718488361E+03  0.37704673111E+03  0.78692608768E+02 0.  0.
      -13    1    4    4    0    0 -0.23834859823E+02  0.23407939994E+01  0.20943338899E+03  0.21079830237E+03  0.00000000000E+00 0.  1.
       14    1    4    4    0    0 -0.13540134716E+03 -0.62053381318E+02  0.39912178874E+03  0.42600745204E+03  0.00000000000E+00 0. -1.
        1    1    5    5  501    0  0.44361708168E+02 -0.13857741265E+02 -0.12298156894E+03  0.13147039379E+03  0.00000000000E+00 0. -1.
       -2    1    5    5    0  501  0.11487449882E+03  0.73570328584E+02 -0.20420331467E+03  0.24557633731E+03  0.00000000000E+00 0.  1.
</event>
<event>
 9   1  0.7335000E-04  0.1015195E+04  0.7818608E-02  0.9292035E-01
       -1   -1    0    0    0  501 -0.00000000000E+00  0.00000000000E+00  0.23954007657E+03  0.23954007657E+03  0.00000000000E+00 0.  1.
        1   -1    0    0  501    0  0.00000000000E+00 -0.00000000000E+00 -0.10756243719E+04  0.10756243719E+04  0.00000000000E+00 0. -1.
       39    2    1    2    0    0  0.00000000000E+00  0.56843418861E-13 -0.83608429534E+03  0.13151644485E+04  0.10151948471E+04 0.  0.
       24    2    3    3    0    0  0.28159908097E+03  0.39439444258E+03 -0.25227546926E+03  0.55228938492E+03  0.80843265395E+02 0.  0.
      -24    2    3    3    0    0 -0.28159908097E+03 -0.39439444258E+03 -0.58380882608E+03  0.76287506356E+03  0.79376309162E+02 0.  0.
      -13    1    4    4    0    0  0.18300944561E+03  0.28314839266E+03 -0.13588331912E+03  0.36349655551E+03  0.00000000000E+00 0.  1.
       14    1    4    4    0    0  0.98589635356E+02  0.11124604992E+03 -0.11639215014E+03  0.18879282941E+03  0.00000000000E+00 0. -1.
        3    1    5    5  502    0 -0.16322933657E+03 -0.25960188282E+03 -0.31425340362E+03  0.43908103531E+03  0.00000000000E+00 0. -1.
       -4    1    5    5    0  502 -0.11836974440E+03 -0.13479255976E+03 -0.26955542246E+03  0.32379402825E+03  0.14200000000E+01 0.  1.
</event>
<event>
 9   1  0.7335000E-04  0.9974014E+03  0.7818608E-02  0.9311400E-01
       21   -1    0    0  503  502  0.00000000000E+00  0.00000000000E+00  0.17561669658E+04  0.17561669658E+04  0.00000000000E+00 0. -1.
       21   -1    0    0  502  503 -0.00000000000E+00 -0.00000000000E+00 -0.14161659343E+03  0.14161659343E+03  0.00000000000E+00 0.  1.
       39    2    1    2    0    0  0.00000000000E+00  0.00000000000E+00  0.16145503724E+04  0.18977835593E+04  0.99740139000E+03 0.  0.
       24    2    3    3    0    0 -0.52490412502E+02  0.93604119240E+02 -0.10554388139E+03  0.17235332717E+03  0.83959418432E+02 0.  0.
      -24    2    3    3    0    0  0.52490412502E+02 -0.93604119240E+02  0.17200942538E+04  0.17254302321E+04  0.82875022362E+02 0.  0.
      -13    1    4    4    0    0 -0.40597086836E+02  0.10672988514E+03 -0.10420526328E+03  0.15459019613E+03  0.00000000000E+00 0.  1.
       14    1    4    4    0    0 -0.11893325666E+02 -0.13125765903E+02 -0.13386181048E+01  0.17763131041E+02  0.00000000000E+00 0. -1.
        1    1    5    5  501    0  0.31167462930E+02 -0.59646671997E+01  0.18606295813E+03  0.18874960236E+03  0.00000000000E+00 0. -1.
       -2    1    5    5    0  501  0.21322949571E+02 -0.87639452040E+02  0.15340312957E+04  0.15366806298E+04  0.00000000000E+00 0.  1.
</event>
<event>
 9   1  0.7335000E-04  0.1010155E+04  0.7818608E-02  0.9297477E-01
       21   -1    0    0  503  502  0.00000000000E+00  0.00000000000E+00  0.79730796717E+03  0.79730796717E+03  0.00000000000E+00 0.  1.
       21   -1    0    0  502  503 -0.00000000000E+00 -0.00000000000E+00 -0.31995573325E+03  0.31995573325E+03  0.00000000000E+00 0. -1.
       39    2    1    2    0    0  0.00000000000E+00 -0.35527136788E-14  0.47735223392E+03  0.11172637004E+04  0.10101549490E+04 0.  0.
       24    2    3    3    0    0 -0.14160812743E+03 -0.17708112735E+02 -0.28940873317E+03  0.33359064790E+03  0.84610085207E+02 0.  0.
      -24    2    3    3    0    0  0.14160812743E+03  0.17708112735E+02  0.76676096709E+03  0.78367305252E+03  0.76515577334E+02 0.  0.
      -13    1    4    4    0    0 -0.30655224512E+01  0.21307266811E+02 -0.29950322406E+02  0.36883856348E+02  0.00000000000E+00 0.  1.
       14    1    4    4    0    0 -0.13854260498E+03 -0.39015379546E+02 -0.25945841076E+03  0.29670679155E+03  0.00000000000E+00 0. -1.
        3    1    5    5  501    0  0.44087786487E+02  0.32802602207E+02  0.16598953099E+03  0.17484927231E+03  0.00000000000E+00 0. -1.
       -4    1    5    5    0  501  0.97520340946E+02 -0.15094489472E+02  0.60077143611E+03  0.60882378021E+03  0.14200000000E+01 0.  1.
</event>
<event>
 9   1  0.7335000E-04  0.9995883E+03  0.7818608E-02  0.9308996E-01
       21   -1    0    0  503  502  0.00000000000E+00  0.00000000000E+00  0.82953118198E+03  0.82953118198E+03  0.00000000000E+00 0. -1.
       21   -1    0    0  502  503 -0.00000000000E+00 -0.00000000000E+00 -0.30112694231E+03  0.30112694231E+03  0.00000000000E+00 0.  1.
       39    2    1    2    0    0  0.71054273576E-14  0.00000000000E+00  0.52840423967E+03  0.11306581243E+04  0.99958829200E+03 0.  0.
       24    2    3    3    0    0  0.62366673155E+02  0.39014736434E+03 -0.69707369478E+02  0.40940647589E+03  0.81547393094E+02 0.  0.
      -24    2    3    3    0    0 -0.62366673155E+02 -0.39014736434E+03  0.59811160915E+03  0.72125164839E+03  0.79761365914E+02 0.  0.
      -13    1    4    4    0    0  0.11306855954E+02  0.60089755504E+02 -0.42197524403E+02  0.74291687111E+02  0.00000000000E+00 0.  1.
       14    1    4    4    0    0  0.51059817200E+02  0.33005760883E+03 -0.27509845075E+02  0.33511478878E+03  0.00000000000E+00 0. -1.
        3    1    5    5  501    0 -0.72030758746E+02 -0.36747123979E+03  0.58096916971E+03  0.69119369097E+03  0.00000000000E+00 0. -1.
       -4    1    5    5    0  501  0.96640855907E+01 -0.22676124546E+02  0.17142439438E+02  0.30057957426E+02  0.14200000000E+01 0.  1.
</event>
<event>
 9   1  0.7335000E-04  0.9984683E+03  0.7818608E-02  0.9310226E-01
       21   -1    0    0  503  502  0.00000000000E+00  0.00000000000E+00  0.41458769253E+03  0.41458769253E+03  0.00000000000E+00 0.  1.
       21   -1    0    0  502  503 -0.00000000000E+00 -0.00000000000E+00 -0.60116291751E+03  0.60116291751E+03  0.00000000000E+00 0. -1.
       39    2    1    2    0    0  0.00000000000E+00 -0.14210854715E-13 -0.18657522498E+03  0.10157506100E+04  0.99846832060E+03 0.  0.
       24    2    3    3    0    0  0.31725310894E+03  0.12250049607E+03  0.26965003025E+03  0.44135373760E+03  0.80162810661E+02 0.  0.
      -24    2    3    3    0    0 -0.31725310894E+03 -0.12250049607E+03 -0.45622525523E+03  0.57439687244E+03  0.78322263086E+02 0.  0.
      -13    1    4    4    0    0  0.27434711246E+03  0.75628478121E+02  0.20520433156E+03  0.35084871741E+03  0.00000000000E+00 0.  1.
       14    1    4    4    0    0  0.42905996483E+02  0.46872017951E+02  0.64445698685E+02  0.90505020192E+02  0.00000000000E+00 0. -1.
        3    1    5    5  501    0 -0.30218788931E+03 -0.13335093696E+03 -0.42937908324E+03  0.54172538242E+03  0.00000000000E+00 0. -1.
       -4    1    5    5    0  501 -0.15065219631E+02  0.10850440888E+02 -0.26846171988E+02  0.32671490024E+02  0.14200000000E+01 0.  1.
</event>
<event>
 9   1  0.7335000E-04  0.9532228E+03  0.7818608E-02  0.9361392E-01
       21   -1    0    0  503  502  0.00000000000E+00  0.00000000000E+00  0.46037189115E+03  0.46037189115E+03  0.00000000000E+00 0.  1.
       21   -1    0    0  502  503 -0.00000000000E+00 -0.00000000000E+00 -0.49342375556E+03  0.49342375556E+03  0.00000000000E+00 0. -1.
       39    2    1    2    0    0  0.56843418861E-13  0.00000000000E+00 -0.33051864409E+02  0.95379564670E+03  0.95322280183E+03 0.  0.
       24    2    3    3    0    0  0.16575395179E+03 -0.12046164436E+03  0.40637821162E+03  0.46238754672E+03  0.81692179461E+02 0.  0.
      -24    2    3    3    0    0 -0.16575395179E+03  0.12046164436E+03 -0.43943007603E+03  0.49140809998E+03  0.79985928193E+02 0.  0.
      -13    1    4    4    0    0  0.16419516037E+03 -0.89769878950E+02  0.31993447085E+03  0.37064369345E+03  0.00000000000E+00 0.  1.
       14    1    4    4    0    0  0.15587914243E+01 -0.30691765407E+02  0.86443740777E+02  0.91743853276E+02  0.00000000000E+00 0. -1.
        3    1    5    5  501    0 -0.15838504267E+03  0.10314744009E+03 -0.43122807301E+03  0.47083210074E+03  0.00000000000E+00 0. -1.
       -4    1    5    5    0  501 -0.73689091231E+01  0.17314204267E+02 -0.82020030231E+01  0.20575999238E+02  0.14200000000E+01 0.  1.
</event>
<event>
 9   1  0.7335000E-04  0.1012616E+04  0.7818608E-02  0.9294815E-01
       21   -1    0    0  503  502  0.00000000000E+00  0.00000000000E+00  0.21748194407E+04  0.21748194407E+04  0.00000000000E+00 0.  1.
       21   -1    0    0  502  503 -0.00000000000E+00 -0.00000000000E+00 -0.11787085727E+03  0.11787085727E+03  0.00000000000E+00 0. -1.
       39    2    1    2    0    0  0.17763568394E-14  0.28421709430E-13  0.20569485834E+04  0.22926902980E+04  0.10126160810E+04 0.  0.
       24    2    3    3    0    0 -0.96891442733E+01 -0.13697857309E+03  0.21166319350E+04  0.21223451347E+04  0.73219624542E+02 0.  0.
      -24    2    3    3    0    0  0.96891442733E+01  0.13697857309E+03 -0.59683351567E+02  0.17034516330E+03  0.81230309630E+02 0.  0.
      -13    1    4    4    0    0 -0.15442236345E+02 -0.14425187391E+03  0.20404267925E+04  0.20455778062E+04  0.00000000000E+00 0.  1.
       14    1    4    4    0    0  0.57530920717E+01  0.72733008222E+01  0.76205142531E+02  0.76767328477E+02  0.00000000000E+00 0. -1.
        3    1    5    5  501    0  0.41380156519E+02  0.10831276783E+03 -0.51230476966E+02  0.12676172450E+03  0.00000000000E+00 0. -1.
       -4    1    5    5    0  501 -0.31691012246E+02  0.28665805261E+02 -0.84528746008E+01  0.43583438798E+02  0.14200000000E+01 0.  1.
</event>
<event>
 9   1  0.7335000E-04  0.9988169E+03  0.7818608E-02  0.9309843E-01
       21   -1    0    0  503  502  0.00000000000E+00  0.00000000000E+00  0.11114005479E+03  0.11114005479E+03  0.00000000000E+00 0. -1.
       21   -1    0    0  502  503 -0.00000000000E+00 -0.00000000000E+00 -0.22440947152E+04  0.22440947152E+04  0.00000000000E+00 0.  1.
       39    2    1    2    0    0  0.00000000000E+00 -0.56843418861E-13 -0.21329546604E+04  0.23552347700E+04  0.99881691934E+03 0.  0.
       24    2    3    3    0    0 -0.71131075626E+01 -0.47615698383E+03 -0.76917533152E+03  0.90840960768E+03  0.82469722644E+02 0.  0.
      -24    2    3    3    0    0  0.71131075626E+01  0.47615698383E+03 -0.13637793289E+04  0.14468251623E+04  0.81442757903E+02 0.  0.
      -13    1    4    4    0    0 -0.17979910545E+02 -0.28527033792E+03 -0.53041469705E+03  0.60252982808E+03  0.00000000000E+00 0.  1.
       14    1    4    4    0    0  0.10866802983E+02 -0.19088664591E+03 -0.23876063447E+03  0.30587977960E+03  0.00000000000E+00 0. -1.
        1    1    5    5  501    0  0.15116872169E+01  0.43612547288E+03 -0.11645596075E+04  0.12435460557E+04  0.00000000000E+00 0. -1.
       -2    1    5    5    0  501  0.56014203456E+01  0.40031510951E+02 -0.19921972143E+03  0.20327910662E+03  0.00000000000E+00 0.  1.
</event>
<event>
 9   1  0.7335000E-04  0.9991716E+03  0.7818608E-02  0.9309454E-01
       21   -1    0    0  503  502  0.00000000000E+00  0.00000000000E+00  0.16652438498E+03  0.16652438498E+03  0.00000000000E+00 0. -1.
       21   -1    0    0  502  503 -0.00000000000E+00 -0.00000000000E+00 -0.14987953943E+04  0.14987953943E+04  0.00000000000E+00 0.  1.
       39    2    1    2    0    0  0.00000000000E+00 -0.14210854715E-13 -0.13322710093E+04  0.16653197793E+04  0.99917161939E+03 0.  0.
       24    2    3    3    0    0 -0.34222643125E+02 -0.35829200942E+02 -0.14838167117E+04  0.14867651598E+04  0.79395751682E+02 0.  0.
      -24    2    3    3    0    0  0.34222643125E+02  0.35829200942E+02  0.15154570239E+03  0.17855461952E+03  0.80378674375E+02 0.  0.
      -13    1    4    4    0    0 -0.14587069490E+02 -0.60395604342E+02 -0.99296722943E+03  0.99490920709E+03  0.00000000000E+00 0.  1.
       14    1    4    4    0    0 -0.19635573634E+02  0.24566403400E+02 -0.49084948231E+03  0.49185595270E+03  0.00000000000E+00 0. -1.
        1    1    5    5  501    0 -0.84214643940E+01  0.35264571767E+02  0.12041129103E+03  0.12575130255E+03  0.00000000000E+00 0. -1.
       -2    1    5    5    0  501  0.42644107519E+02  0.56462917498E+00  0.31134411363E+02  0.52803316970E+02  0.00000000000E+00 0.  1.
</event>
<event>
 9   1  0.7335000E-04  0.9967559E+03  0.7818608E-02  0.9312110E-01
       21   -1    0    0  503  502  0.00000000000E+00  0.00000000000E+00  0.38176768410E+03  0.38176768410E+03  0.00000000000E+00 0.  1.
       21   -1    0    0  502  503 -0.00000000000E+00 -0.00000000000E+00 -0.65060666454E+03  0.65060666454E+03  0.00000000000E+00 0. -1.
       39    2    1    2    0    0  0.00000000000E+00  0.00000000000E+00 -0.26883898043E+03  0.10323743486E+04  0.99675593719E+03 0.  0.
       24    2    3    3    0    0 -0.40761142278E+02 -0.14689244955E+03 -0.61581527924E+03  0.63947433617E+03  0.80374784727E+02 0.  0.
      -24    2    3    3    0    0  0.40761142278E+02  0.14689244955E+03  0.34697629880E+03  0.39290001247E+03  0.10362917261E+03 0.  0.
      -13    1    4    4    0    0  0.87740750634E+01 -0.11259366875E-01 -0.69672217642E+01  0.11203869827E+02  0.00000000000E+00 0.  1.
       14    1    4    4    0    0 -0.49535217341E+02 -0.14688119018E+03 -0.60884805747E+03  0.62827046634E+03  0.00000000000E+00 0. -1.
        1    1    5    5  501    0 -0.32874046159E+02  0.38627760239E+02  0.69066645426E+02  0.85691354770E+02  0.00000000000E+00 0. -1.
       -2    1    5    5    0  501  0.73635188437E+02  0.10826468931E+03  0.27790965338E+03  0.30720865770E+03  0.00000000000E+00 0.  1.
</event>
<event>
 9   1  0.7335000E-04  0.1000045E+04  0.7818608E-02  0.9308495E-01
       21   -1    0    0  503  502  0.00000000000E+00  0.00000000000E+00  0.69555379658E+03  0.69555379658E+03  0.00000000000E+00 0. -1.
       21   -1    0    0  502  503 -0.00000000000E+00 -0.00000000000E+00 -0.35945817162E+03  0.35945817162E+03  0.00000000000E+00 0.  1.
       39    2    1    2    0    0 -0.71054273576E-14  0.00000000000E+00  0.33609562495E+03  0.10550119682E+04  0.10000449910E+04 0.  0.
       24    2    3    3    0    0  0.48457425839E+02 -0.34121008111E+02 -0.34897673401E+03  0.36288812154E+03  0.79941619684E+02 0.  0.
      -24    2    3    3    0    0 -0.48457425839E+02  0.34121008111E+02  0.68507235897E+03  0.69212384666E+03  0.78733200021E+02 0.  0.
      -13    1    4    4    0    0  0.13491587407E+02  0.15897648299E+02 -0.21086844469E+03  0.21189681243E+03  0.00000000000E+00 0.  1.
       14    1    4    4    0    0  0.34965838432E+02 -0.50018656410E+02 -0.13810828932E+03  0.15099130911E+03  0.00000000000E+00 0. -1.
        3    1    5    5  501    0 -0.40875416877E+01 -0.22521293223E+02  0.25970215998E+03  0.26070889617E+03  0.00000000000E+00 0. -1.
       -4    1    5    5    0  501 -0.44369884152E+02  0.56642301334E+02  0.42537019898E+03  0.43141495049E+03  0.14200000000E+01 0.  1.
</event>
<event>
 9   1  0.7335000E-04  0.9966118E+03  0.7818608E-02  0.9312269E-01
       21   -1    0    0  503  502  0.00000000000E+00  0.00000000000E+00  0.23977230994E+03  0.23977230994E+03  0.00000000000E+00 0.  1.
       21   -1    0    0  502  503 -0.00000000000E+00 -0.00000000000E+00 -0.10356024107E+04  0.10356024107E+04  0.00000000000E+00 0. -1.
       39    2    1    2    0    0  0.56843418861E-13 -0.14210854715E-13 -0.79583010071E+03  0.12753747206E+04  0.99661182450E+03 0.  0.
       24    2    3    3    0    0 -0.35891244756E+03  0.70379939575E+02  0.23172466612E+02  0.37542324902E+03  0.81450425331E+02 0.  0.
      -24    2    3    3    0    0  0.35891244756E+03 -0.70379939575E+02 -0.81900256733E+03  0.89995147158E+03  0.73320972482E+02 0.  0.
      -13    1    4    4    0    0 -0.26690981773E+03  0.70427985469E+02  0.47865834827E+02  0.28016439831E+03  0.00000000000E+00 0.  1.
       14    1    4    4    0    0 -0.92002629833E+02 -0.48045893948E-01 -0.24693368216E+02  0.95258850709E+02  0.00000000000E+00 0. -1.
        3    1    5    5  501    0  0.30139232133E+03 -0.57267226651E+02 -0.74212406277E+03  0.80303486297E+03  0.00000000000E+00 0. -1.
       -4    1    5    5    0  501  0.57520126226E+02 -0.13112712924E+02 -0.76878504555E+02  0.96916608607E+02  0.14200000000E+01 0.  1.
</event>
<event>
 9   1  0.7335000E-04  0.1065940E+04  0.7818608E-02  0.9239040E-01
       21   -1    0    0  503  502  0.00000000000E+00  0.00000000000E+00  0.20684372302E+03  0.20684372302E+03  0.00000000000E+00 0.  1.
       21   -1    0    0  502  503 -0.00000000000E+00 -0.00000000000E+00 -0.13732925857E+04  0.13732925857E+04  0.00000000000E+00 0. -1.
       39    2    1    2    0    0 -0.56843418861E-13  0.71054273576E-14 -0.11664488627E+04  0.15801363088E+04  0.10659398693E+04 0.  0.
       24    2    3    3    0    0  0.49496668698E+03 -0.47258266978E+02 -0.32404121099E+03  0.59876391682E+03  0.79310507802E+02 0.  0.
      -24    2    3    3    0    0 -0.49496668698E+03  0.47258266978E+02 -0.84240765173E+03  0.98137239194E+03  0.78840059295E+02 0.  0.
      -13    1    4    4    0    0  0.39891752560E+03 -0.65657320980E+01 -0.26394126120E+03  0.47837567918E+03  0.00000000000E+00 0.  1.
       14    1    4    4    0    0  0.96049161384E+02 -0.40692534880E+02 -0.60099949782E+02  0.12038823764E+03  0.00000000000E+00 0. -1.
        3    1    5    5  501    0 -0.27070118121E+03  0.47664523249E+02 -0.52679848271E+03  0.59419498287E+03  0.00000000000E+00 0. -1.
       -4    1    5    5    0  501 -0.22426550577E+03 -0.40625627103E+00 -0.31560916902E+03  0.38717740907E+03  0.14200000000E+01 0.  1.
</event>
<event>
 9   1  0.7335000E-04  0.1007744E+04  0.7818608E-02  0.9300092E-01
       21   -1    0    0  503  502  0.00000000000E+00  0.00000000000E+00  0.39655493644E+03  0.39655493644E+03  0.00000000000E+00 0. -1.
       21   -1    0    0  502  503 -0.00000000000E+00 -0.00000000000E+00 -0.64023132225E+03  0.64023132225E+03  0.00000000000E+00 0.  1.
       39    2    1    2    0    0  0.00000000000E+00  0.00000000000E+00 -0.24367638581E+03  0.10367862587E+04  0.10077437994E+04 0.  0.
       24    2    3    3    0    0  0.13756974680E+03 -0.79930460633E+02  0.36335151660E+03  0.40432050424E+03  0.78335379988E+02 0.  0.
      -24    2    3    3    0    0 -0.13756974680E+03  0.79930460633E+02 -0.60702790242E+03  0.63246575445E+03  0.78839980113E+02 0.  0.
      -13    1    4    4    0    0  0.30942443796E+02 -0.23571408426E+02  0.27962266713E+02  0.47905474457E+02  0.00000000000E+00 0.  1.
       14    1    4    4    0    0  0.10662730300E+03 -0.56359052208E+02  0.33538924989E+03  0.35641502978E+03  0.00000000000E+00 0. -1.
        1    1    5    5  501    0 -0.17000142733E+01  0.17240990053E+02 -0.16267054018E+03  0.16359048392E+03  0.00000000000E+00 0. -1.
       -2    1    5    5    0  501 -0.13586973253E+03  0.62689470580E+02 -0.44435736223E+03  0.46887527053E+03  0.00000000000E+00 0.  1.
</event>
<event>
 9   1  0.7335000E-04  0.1045780E+04  0.7818608E-02  0.9259712E-01
       -2   -1    0    0    0  501 -0.00000000000E+00  0.00000000000E+00  0.43025404199E+03  0.43025404199E+03  0.00000000000E+00 0.  1.
        2   -1    0    0  501    0  0.00000000000E+00 -0.00000000000E+00 -0.63547094745E+03  0.63547094745E+03  0.00000000000E+00 0. -1.
       39    2    1    2    0    0  0.11368683772E-12  0.71054273576E-14 -0.20521690546E+03  0.10657249894E+04  0.10457799840E+04 0.  0.
       24    2    3    3    0    0  0.47108345257E+03  0.58151035018E+02  0.10495984433E+03  0.49304597573E+03  0.82320125718E+02 0.  0.
      -24    2    3    3    0    0 -0.47108345257E+03 -0.58151035018E+02 -0.31017674979E+03  0.57267901372E+03  0.80314845980E+02 0.  0.
      -13    1    4    4    0    0  0.39139180441E+03  0.72454576545E+02  0.67066814440E+02  0.40365228579E+03  0.00000000000E+00 0.  1.
       14    1    4    4    0    0  0.79691648163E+02 -0.14303541527E+02  0.37893029889E+02  0.89393689941E+02  0.00000000000E+00 0. -1.
        3    1    5    5  502    0 -0.40492073145E+03 -0.52140820334E+02 -0.29717728787E+03  0.50496911225E+03  0.00000000000E+00 0. -1.
       -4    1    5    5    0  502 -0.66162721120E+02 -0.60102146842E+01 -0.12999461922E+02  0.67709901468E+02  0.14200000000E+01 0.  1.
</event>
<event>
 9   1  0.7335000E-04  0.1020637E+04  0.7818608E-02  0.9286196E-01
       -2   -1    0    0    0  501 -0.00000000000E+00  0.00000000000E+00  0.44069891787E+03  0.44069891787E+03  0.00000000000E+00 0.  1.
        2   -1    0    0  501    0  0.00000000000E+00 -0.00000000000E+00 -0.59093633302E+03  0.59093633302E+03  0.00000000000E+00 0. -1.
       39    2    1    2    0    0  0.14210854715E-13  0.00000000000E+00 -0.15023741515E+03  0.10316352509E+04  0.10206370608E+04 0.  0.
       24    2    3    3    0    0  0.38003992652E+02 -0.47072032463E+03 -0.25208602136E+03  0.54160972347E+03  0.82290964969E+02 0.  0.
      -24    2    3    3    0    0 -0.38003992652E+02  0.47072032463E+03  0.10184860621E+03  0.49002552741E+03  0.82036281298E+02 0.  0.
      -13    1    4    4    0    0  0.36065959616E+02 -0.82903922905E+02 -0.33404904405E+02  0.96383097659E+02  0.00000000000E+00 0.  1.
       14    1    4    4    0    0  0.19380330364E+01 -0.38781640173E+03 -0.21868111695E+03  0.44522662581E+03  0.00000000000E+00 0. -1.
        1    1    5    5  502    0 -0.13005624219E+02  0.12779515156E+02  0.14181213578E+02  0.23099114431E+02  0.00000000000E+00 0. -1.
       -2    1    5    5    0  502 -0.24998368433E+02  0.45794080948E+03  0.87667392628E+02  0.46692641298E+03  0.00000000000E+00 0.  1.
</event>
<event>
 9   1  0.7335000E-04  0.1006749E+04  0.7818608E-02  0.9301174E-01
       21   -1    0    0  503  502  0.00000000000E+00  0.00000000000E+00  0.85218807385E+03  0.85218807385E+03  0.00000000000E+00 0.  1.
       21   -1    0    0  502  503 -0.00000000000E+00 -0.00000000000E+00 -0.29733537746E+03  0.29733537746E+03  0.00000000000E+00 0. -1.
       39    2    1    2    0    0  0.00000000000E+00  0.00000000000E+00  0.55485269639E+03  0.11495234513E+04  0.10067485537E+04 0.  0.
       24    2    3    3    0    0 -0.36237766144E+03 -0.23623151532E+02  0.66505327977E+03  0.76174244800E+03  0.77974799444E+02 0.  0.
      -24    2    3    3    0    0  0.36237766144E+03  0.23623151532E+02 -0.11020058339E+03  0.38778100330E+03  0.79713958280E+02 0.  0.
      -13    1    4    4    0    0 -0.22130766351E+03 -0.10271232135E+02  0.48005964491E+03  0.52871527575E+03  0.00000000000E+00 0.  1.
       14    1    4    4    0    0 -0.14106999793E+03 -0.13351919398E+02  0.18499363486E+03  0.23302717225E+03  0.00000000000E+00 0. -1.
        1    1    5    5  501    0  0.16882652700E+03  0.26436156480E+02 -0.90063136722E+02  0.19316478764E+03  0.00000000000E+00 0. -1.
       -2    1    5    5    0  501  0.19355113445E+03 -0.28130049477E+01 -0.20137446663E+02  0.19461621567E+03  0.00000000000E+00 0.  1.
</event>
<event>
 9   1  0.7335000E-04  0.1001456E+04  0.7818608E-02  0.9306949E-01
       21   -1    0    0  503  502  0.00000000000E+00  0.00000000000E+00  0.67556104349E+03  0.67556104349E+03  0.00000000000E+00 0.  1.
       21   -1    0    0  502  503 -0.00000000000E+00 -0.00000000000E+00 -0.37114122567E+03  0.37114122567E+03  0.00000000000E+00 0. -1.
       39    2    1    2    0    0 -0.56843418861E-13 -0.14210854715E-13  0.30441981783E+03  0.10467022692E+04  0.10014560474E+04 0.  0.
       24    2    3    3    0    0  0.39187408910E+03 -0.12604405525E+03 -0.13405442108E+03  0.44010137069E+03  0.79159478895E+02 0.  0.
      -24    2    3    3    0    0 -0.39187408910E+03  0.12604405525E+03  0.43847423891E+03  0.60660089847E+03  0.79073296748E+02 0.  0.
      -13    1    4    4    0    0  0.73408194846E+02 -0.55850354254E+01 -0.51215800672E+02  0.89682851926E+02  0.00000000000E+00 0.  1.
       14    1    4    4    0    0  0.31846589426E+03 -0.12045901983E+03 -0.82838620413E+02  0.35041851877E+03  0.00000000000E+00 0. -1.
        3    1    5    5  501    0 -0.17914688440E+02  0.12866308923E+02  0.42334271204E+01  0.22458848421E+02  0.00000000000E+00 0. -1.
       -4    1    5    5    0  501 -0.37395940066E+03  0.11317774633E+03  0.43424081179E+03  0.58414205005E+03  0.14200000000E+01 0.  1.
</event>
<event>
 9   1  0.7335000E-04  0.9696984E+03  0.7818608E-02  0.9342418E-01
       21   -1    0    0  503  502  0.00000000000E+00  0.00000000000E+00  0.17526253356E+04  0.17526253356E+04  0.00000000000E+00 0.  1.
       21   -1    0    0  502  503 -0.00000000000E+00 -0.00000000000E+00 -0.13412949087E+03  0.13412949087E+03  0.00000000000E+00 0. -1.
       39    2    1    2    0    0 -0.11368683772E-12  0.00000000000E+00  0.16184958447E+04  0.18867548265E+04  0.96969839425E+03 0.  0.
       24    2    3    3    0    0 -0.40753242590E+03 -0.16332886647E+02  0.32386216810E+03  0.52695378288E+03  0.80275425994E+02 0.  0.
      -24    2    3    3    0    0  0.40753242590E+03  0.16332886647E+02  0.12946336766E+04  0.13598010436E+04  0.81443723779E+02 0.  0.
      -13    1    4    4    0    0 -0.69439757531E+02  0.26400811732E+02  0.47296588957E+02  0.88067304449E+02  0.00000000000E+00 0.  1.
       14    1    4    4    0    0 -0.33809266837E+03 -0.42733698379E+02  0.27656557914E+03  0.43888647843E+03  0.00000000000E+00 0. -1.
        3    1    5    5  501    0  0.31424016598E+02  0.10727929678E+02  0.53951322376E+02  0.63350631255E+02  0.00000000000E+00 0. -1.
       -4    1    5    5    0  501  0.37610840930E+03  0.56049569688E+01  0.12406823543E+04  0.12964504124E+04  0.14200000000E+01 0.  1.
</event>
<event>
 9   1  0.7335000E-04  0.1018443E+04  0.7818608E-02  0.9288545E-01
       21   -1    0    0  503  502  0.00000000000E+00  0.00000000000E+00  0.68504716203E+03  0.68504716203E+03  0.00000000000E+00 0. -1.
       21   -1    0    0  502  503 -0.00000000000E+00 -0.00000000000E+00 -0.37852389859E+03  0.37852389859E+03  0.00000000000E+00 0.  1.
       39    2    1    2    0    0 -0.28421709430E-13 -0.28421709430E-13  0.30652326344E+03  0.10635710606E+04  0.10184433661E+04 0.  0.
       24    2    3    3    0    0  0.15162672586E+03  0.18205701899E+03  0.61656904456E+03  0.66506758112E+03  0.77602052817E+02 0.  0.
      -24    2    3    3    0    0 -0.15162672586E+03 -0.18205701899E+03 -0.31004578112E+03  0.39850347950E+03  0.80877775885E+02 0.  0.
      -13    1    4    4    0    0  0.62052930363E+02  0.10361069579E+03  0.21951310427E+03  0.25054290130E+03  0.00000000000E+00 0.  1.
       14    1    4    4    0    0  0.89573795494E+02  0.78446323200E+02  0.39705594029E+03  0.41452467982E+03  0.00000000000E+00 0. -1.
        1    1    5    5  501    0 -0.13017581943E+02  0.78128196836E+01 -0.21459377647E+02  0.26286926029E+02  0.00000000000E+00 0. -1.
       -2    1    5    5    0  501 -0.13860914391E+03 -0.18986983867E+03 -0.28858640347E+03  0.37221655348E+03  0.00000000000E+00 0.  1.
</event>
<event>
 9   1  0.7335000E-04  0.1001372E+04  0.7818608E-02  0.9307042E-01
       21   -1    0    0  503  502  0.00000000000E+00  0.00000000000E+00  0.45850776178E+03  0.45850776178E+03  0.00000000000E+00 0.  1.
       21   -1    0    0  502  503 -0.00000000000E+00 -0.00000000000E+00 -0.54674377384E+03  0.54674377384E+03  0.00000000000E+00 0. -1.
       39    2    1    2    0    0  0.00000000000E+00  0.00000000000E+00 -0.88236012063E+02  0.10052515356E+04  0.10013715874E+04 0.  0.
       24    2    3    3    0    0  0.40842674272E+02 -0.42899701930E+03 -0.28723101659E+03  0.52395287284E+03  0.79488297614E+02 0.  0.
      -24    2    3    3    0    0 -0.40842674272E+02  0.42899701930E+03  0.19899500452E+03  0.48129866278E+03  0.79641850590E+02 0.  0.
      -13    1    4    4    0    0  0.45346442864E+02 -0.21839119262E+03 -0.18508217911E+03  0.28983862047E+03  0.00000000000E+00 0.  1.
       14    1    4    4    0    0 -0.45037685918E+01 -0.21060582668E+03 -0.10214883748E+03  0.23411425236E+03  0.00000000000E+00 0. -1.
        3    1    5    5  501    0  0.94492106925E+01  0.24609665964E+03  0.13649479104E+03  0.28157358089E+03  0.00000000000E+00 0. -1.
       -4    1    5    5    0  501 -0.50291884965E+02  0.18290035965E+03  0.62500213479E+02  0.19972508190E+03  0.14200000000E+01 0.  1.
</event>
<event>
 8   1  0.7335000E-04  0.1173421E+04  0.7818608E-02  0.9136445E-01
       21   -1    0    0  503  502  0.00000000000E+00  0.00000000000E+00  0.29845320770E+03  0.29845320770E+03  0.00000000000E+00 0. -1.
       21   -1    0    0  502  503 -0.00000000000E+00 -0.00000000000E+00 -0.11533766515E+04  0.11533766515E+04  0.00000000000E+00 0.  1.
       24    2    1    2    0    0 -0.28916690933E+03 -0.36101987537E+03 -0.86266199082E+03  0.98210778689E+03  0.79982140426E+02 0.  0.
      -24    2    1    2    0    0  0.28916690933E+03  0.36101987537E+03  0.77385469782E+01  0.46972207236E+03  0.81400788012E+02 0.  0.
      -13    1    3    3    0    0 -0.18895993533E+03 -0.17506418194E+03 -0.49828905664E+03  0.56093253509E+03  0.00000000000E+00 0.  1.
       14    1    3    3    0    0 -0.10020697399E+03 -0.18595569343E+03 -0.36437293419E+03  0.42117525180E+03  0.00000000000E+00 0. -1.
        1    1    4    4  501    0  0.11040803691E+03  0.20224178346E+03 -0.21272435687E+01  0.23042612429E+03  0.00000000000E+00 0. -1.
       -2    1    4    4    0  501  0.17875887241E+03  0.15877809192E+03  0.98657905469E+01  0.23929594807E+03  0.00000000000E+00 0.  1.
</event>
<event>
 9   1  0.7335000E-04  0.1001523E+04  0.7818608E-02  0.9306876E-01
       21   -1    0    0  503  502  0.00000000000E+00  0.00000000000E+00  0.19251899940E+03  0.19251899940E+03  0.00000000000E+00 0. -1.
       21   -1    0    0  502  503 -0.00000000000E+00 -0.00000000000E+00 -0.13025305874E+04  0.13025305874E+04  0.00000000000E+00 0.  1.
       39    2    1    2    0    0  0.00000000000E+00 -0.35527136788E-14 -0.11100115880E+04  0.14950495868E+04  0.10015226116E+04 0.  0.
       24    2    3    3    0    0  0.18636912141E+03  0.21112412712E+02  0.12732691305E+03  0.24102323613E+03  0.81858867488E+02 0.  0.
      -24    2    3    3    0    0 -0.18636912141E+03 -0.21112412712E+02 -0.12373385010E+04  0.12540263506E+04  0.79977112970E+02 0.  0.
      -13    1    4    4    0    0 -0.37015216390E+00  0.16309894682E+02  0.28844651531E+01  0.16567130602E+02  0.00000000000E+00 0.  1.
       14    1    4    4    0    0  0.18673927357E+03  0.48025180300E+01  0.12444244789E+03  0.22445610553E+03  0.00000000000E+00 0. -1.
        3    1    5    5  501    0 -0.34892540910E+02 -0.80785335096E+01 -0.93462954679E+02  0.10009033926E+03  0.00000000000E+00 0. -1.
       -4    1    5    5    0  501 -0.15147658050E+03 -0.13033879202E+02 -0.11438755463E+04  0.11539360114E+04  0.14200000000E+01 0.  1.
</event>
<event>
 9   1  0.7335000E-04  0.9983944E+03  0.7818608E-02  0.9310308E-01
       21   -1    0    0  503  502  0.00000000000E+00  0.00000000000E+00  0.24356899706E+03  0.24356899706E+03  0.00000000000E+00 0. -1.
       21   -1    0    0  502  503 -0.00000000000E+00 -0.00000000000E+00 -0.10231098479E+04  0.10231098479E+04  0.00000000000E+00 0.  1.
       39    2    1    2    0    0  0.00000000000E+00  0.00000000000E+00 -0.77954085087E+03  0.12666788450E+04  0.99839439008E+03 0.  0.
       24    2    3    3    0    0 -0.37400945732E+03 -0.54912337332E+01 -0.79678330283E+03  0.88385488751E+03  0.80141142329E+02 0.  0.
      -24    2    3    3    0    0  0.37400945732E+03  0.54912337332E+01  0.17242451964E+02  0.38282395747E+03  0.79647049226E+02 0.  0.
      -13    1    4    4    0    0 -0.26194219567E+03  0.70444144374E+01 -0.46929096727E+03  0.53749172050E+03  0.00000000000E+00 0.  1.
       14    1    4    4    0    0 -0.11206726165E+03 -0.12535648171E+02 -0.32749233556E+03  0.34636316701E+03  0.00000000000E+00 0. -1.
        3    1    5    5  501    0  0.21239735419E+03  0.25831647796E+02 -0.22530479937E+02  0.21514537555E+03  0.00000000000E+00 0. -1.
       -4    1    5    5    0  501  0.16161210313E+03 -0.20340414063E+02  0.39772931901E+02  0.16767858192E+03  0.14200000000E+01 0.  1.
</event>
<event>
 9   1  0.7335000E-04  0.9895334E+03  0.7818608E-02  0.9320099E-01
       21   -1    0    0  503  502  0.00000000000E+00  0.00000000000E+00  0.21130600253E+03  0.21130600253E+03  0.00000000000E+00 0.  1.
       21   -1    0    0  502  503 -0.00000000000E+00 -0.00000000000E+00 -0.11584815479E+04  0.11584815479E+04  0.00000000000E+00 0. -1.
       39    2    1    2    0    0 -0.56843418861E-13  0.14210854715E-13 -0.94717554540E+03  0.13697875505E+04  0.98953343531E+03 0.  0.
       24    2    3    3    0    0  0.31884782493E+03  0.84371092753E+02 -0.97163172746E+03  0.10293792641E+04  0.82286322587E+02 0.  0.
      -24    2    3    3    0    0 -0.31884782493E+03 -0.84371092753E+02  0.24456182065E+02  0.34040828631E+03  0.80605705713E+02 0.  0.
      -13    1    4    4    0    0  0.12572676239E+02 -0.13452745641E+02 -0.52507558583E+02  0.55642540034E+02  0.00000000000E+00 0.  1.
       14    1    4    4    0    0  0.30627514869E+03  0.97823838394E+02 -0.91912416888E+03  0.97373672411E+03  0.00000000000E+00 0. -1.
        3    1    5    5  501    0 -0.14441558158E+03 -0.73981215500E+02  0.32462604375E+02  0.16547779650E+03  0.00000000000E+00 0. -1.
       -4    1    5    5    0  501 -0.17443224335E+03 -0.10389877253E+02 -0.80064223099E+01  0.17493048982E+03  0.14200000000E+01 0.  1.
</event>
<event>
 9   1  0.7335000E-04  0.9906733E+03  0.7818608E-02  0.9318834E-01
       21   -1    0    0  503  502  0.00000000000E+00  0.00000000000E+00  0.86815840176E+03  0.86815840176E+03  0.00000000000E+00 0. -1.
       21   -1    0    0  502  503 -0.00000000000E+00 -0.00000000000E+00 -0.28261939943E+03  0.28261939943E+03  0.00000000000E+00 0.  1.
       39    2    1    2    0    0  0.00000000000E+00  0.56843418861E-13  0.58553900233E+03  0.11507778012E+04  0.99067331873E+03 0.  0.
       24    2    3    3    0    0 -0.19561828378E+02  0.43956637323E+03  0.54063608494E+03  0.70169105827E+03  0.80509026254E+02 0.  0.
      -24    2    3    3    0    0  0.19561828378E+02 -0.43956637323E+03  0.44902917389E+02  0.44908674291E+03  0.77854794749E+02 0.  0.
      -13    1    4    4    0    0  0.26421050521E+02  0.12896451455E+03  0.13282842038E+03  0.18701151618E+03  0.00000000000E+00 0.  1.
       14    1    4    4    0    0 -0.45982878899E+02  0.31060185868E+03  0.40780766457E+03  0.51467954209E+03  0.00000000000E+00 0. -1.
        1    1    5    5  501    0  0.18873067760E+02 -0.21880353876E+02 -0.80558429292E+00  0.28906600258E+02  0.00000000000E+00 0. -1.
       -2    1    5    5    0  501  0.68876061797E+00 -0.41768601935E+03  0.45708501682E+02  0.42018014265E+03  0.00000000000E+00 0.  1.
</event>
<event>
 9   1  0.7335000E-04  0.1001440E+04  0.7818608E-02  0.9306967E-01
       21   -1    0    0  503  502  0.00000000000E+00  0.00000000000E+00  0.81510482724E+03  0.81510482724E+03  0.00000000000E+00 0.  1.
       21   -1    0    0  502  503 -0.00000000000E+00 -0.00000000000E+00 -0.30759287193E+03  0.30759287193E+03  0.00000000000E+00 0. -1.
       39    2    1    2    0    0 -0.56843418861E-13  0.28421709430E-13  0.50751195531E+03  0.11226976992E+04  0.10014398329E+04 0.  0.
       24    2    3    3    0    0  0.32290549291E+03 -0.23824006316E+03 -0.68724475445E+02  0.41582926866E+03  0.84644208926E+02 0.  0.
      -24    2    3    3    0    0 -0.32290549291E+03  0.23824006316E+03  0.57623643075E+03  0.70686843051E+03  0.81168151884E+02 0.  0.
      -13    1    4    4    0    0  0.82200231385E+02 -0.37513475128E+02  0.14594178155E+02  0.91526656729E+02  0.00000000000E+00 0.  1.
       14    1    4    4    0    0  0.24070526152E+03 -0.20072658804E+03 -0.83318653599E+02  0.32430261193E+03  0.00000000000E+00 0. -1.
        1    1    5    5  501    0 -0.15663863751E+02 -0.28847736994E+01  0.93613337237E+01  0.18474661458E+02  0.00000000000E+00 0. -1.
       -2    1    5    5    0  501 -0.30724162915E+03  0.24112483686E+03  0.56687509703E+03  0.68839376905E+03  0.00000000000E+00 0.  1.
</event>
<event>
 9   1  0.7335000E-04  0.9965287E+03  0.7818608E-02  0.9312360E-01
       21   -1    0    0  503  502  0.00000000000E+00  0.00000000000E+00  0.10204477394E+04  0.10204477394E+04  0.00000000000E+00 0. -1.
       21   -1    0    0  502  503 -0.00000000000E+00 -0.00000000000E+00 -0.24329256484E+03  0.24329256484E+03  0.00000000000E+00 0.  1.
       39    2    1    2    0    0 -0.28421709430E-13  0.00000000000E+00  0.77715517452E+03  0.12637403042E+04  0.99652867053E+03 0.  0.
       24    2    3    3    0    0 -0.24209511267E+03  0.40293876587E+03  0.20419215150E+03  0.51830227671E+03  0.77285979871E+02 0.  0.
      -24    2    3    3    0    0  0.24209511267E+03 -0.40293876587E+03  0.57296302302E+03  0.74543802750E+03  0.80134477464E+02 0.  0.
      -13    1    4    4    0    0 -0.16409156828E+02  0.29780175899E+02  0.39558400006E+02  0.52163074252E+02  0.00000000000E+00 0.  1.
       14    1    4    4    0    0 -0.22568595584E+03  0.37315858997E+03  0.16463375150E+03  0.46613920245E+03  0.00000000000E+00 0. -1.
        1    1    5    5  501    0 -0.16998350860E+01  0.56709482465E+00 -0.14707181447E+01  0.23181992410E+01  0.00000000000E+00 0. -1.
       -2    1    5    5    0  501  0.24379494776E+03 -0.40350586069E+03  0.57443374117E+03  0.74311982826E+03  0.00000000000E+00 0.  1.
</event>
<event>
 9   1  0.7335000E-04  0.9944429E+03  0.7818608E-02  0.9314661E-01
       21   -1    0    0  503  502  0.00000000000E+00  0.00000000000E+00  0.93368917598E+03  0.93368917598E+03  0.00000000000E+00 0.  1.
       21   -1    0    0  502  503 -0.00000000000E+00 -0.00000000000E+00 -0.26478745017E+03  0.26478745017E+03  0.00000000000E+00 0. -1.
       39    2    1    2    0    0 -0.71054273576E-14  0.00000000000E+00  0.66890172581E+03  0.11984766262E+04  0.99444291171E+03 0.  0.
       24    2    3    3    0    0  0.23480995224E+02  0.75157738638E+02  0.91824294868E+03  0.92546955633E+03  0.84402275368E+02 0.  0.
      -24    2    3    3    0    0 -0.23480995224E+02 -0.75157738638E+02 -0.24934122287E+03  0.27300706982E+03  0.78496954967E+02 0.  0.
      -13    1    4    4    0    0 -0.20394731635E+01  0.51778650450E+02  0.81366108307E+03  0.81530947879E+03  0.00000000000E+00 0.  1.
       14    1    4    4    0    0  0.25520468388E+02  0.23379088188E+02  0.10458186560E+03  0.11016007754E+03  0.00000000000E+00 0. -1.
        1    1    5    5  501    0 -0.31219633103E+02 -0.31528202486E+02 -0.20706027480E+03  0.21176083312E+03  0.00000000000E+00 0. -1.
       -2    1    5    5    0  501  0.77386378790E+01 -0.43629536152E+02 -0.42280948068E+02  0.61246236705E+02  0.00000000000E+00 0.  1.
</event>
<event>
 9   1  0.7335000E-04  0.9969584E+03  0.7818608E-02  0.9311887E-01
       21   -1    0    0  503  502  0.00000000000E+00  0.00000000000E+00  0.20396363170E+04  0.20396363170E+04  0.00000000000E+00 0.  1.
       21   -1    0    0  502  503 -0.00000000000E+00 -0.00000000000E+00 -0.12182639276E+03  0.12182639276E+03  0.00000000000E+00 0. -1.
       39    2    1    2    0    0  0.00000000000E+00  0.00000000000E+00  0.19178099242E+04  0.21614627098E+04  0.99695844456E+03 0.  0.
       24    2    3    3    0    0  0.21435855967E+03  0.35442646258E+03  0.15343675327E+04  0.15913464699E+04  0.80821733510E+02 0.  0.
      -24    2    3    3    0    0 -0.21435855967E+03 -0.35442646258E+03  0.38344239158E+03  0.57011623983E+03  0.80229357320E+02 0.  0.
      -13    1    4    4    0    0  0.83931759178E+02  0.12009418725E+03  0.69110838625E+03  0.70646865150E+03  0.00000000000E+00 0.  1.
       14    1    4    4    0    0  0.13042680050E+03  0.23433227533E+03  0.84325914641E+03  0.88487781843E+03  0.00000000000E+00 0. -1.
        1    1    5    5  501    0 -0.20027155737E+03 -0.33968928442E+03  0.38301414072E+03  0.54972478445E+03  0.00000000000E+00 0. -1.
       -2    1    5    5    0  501 -0.14087002304E+02 -0.14737178160E+02  0.42825086249E+00  0.20391455388E+02  0.00000000000E+00 0.  1.
</event>
<event>
 9   1  0.7335000E-04  0.9956599E+03  0.7818608E-02  0.9313318E-01
       21   -1    0    0  503  502  0.00000000000E+00  0.00000000000E+00  0.19005932538E+04  0.19005932538E+04  0.00000000000E+00 0.  1.
       21   -1    0    0  502  503 -0.00000000000E+00 -0.00000000000E+00 -0.13039859143E+03  0.13039859143E+03  0.00000000000E+00 0. -1.
       39    2    1    2    0    0 -0.28421709430E-13 -0.71054273576E-14  0.17701946624E+04  0.20309918452E+04  0.99565994833E+03 0.  0.
       24    2    3    3    0    0 -0.23137323180E+03 -0.54240755411E+02  0.14214594873E+02  0.25721171855E+03  0.97366223668E+02 0.  0.
      -24    2    3    3    0    0  0.23137323180E+03  0.54240755411E+02  0.17559800675E+04  0.17737801267E+04  0.79713916163E+02 0.  0.
      -13    1    4    4    0    0 -0.10521125053E+03 -0.52134399706E+02  0.47582767769E+02  0.12669460391E+03  0.00000000000E+00 0.  1.
       14    1    4    4    0    0 -0.12616198127E+03 -0.21063557048E+01 -0.33368172896E+02  0.13051711464E+03  0.00000000000E+00 0. -1.
        3    1    5    5  501    0  0.35935470229E+02  0.35033727508E+02  0.24467701659E+03  0.24977102020E+03  0.00000000000E+00 0. -1.
       -4    1    5    5    0  501  0.19543776157E+03  0.19207027904E+02  0.15113030509E+04  0.15240091065E+04  0.14200000000E+01 0.  1.
</event>
<event>
 9   1  0.7335000E-04  0.9899625E+03  0.7818608E-02  0.9319623E-01
       21   -1    0    0  503  502  0.00000000000E+00  0.00000000000E+00  0.49022714601E+03  0.49022714601E+03  0.00000000000E+00 0.  1.
       21   -1    0    0  502  503 -0.00000000000E+00 -0.00000000000E+00 -0.49978140789E+03  0.49978140789E+03  0.00000000000E+00 0. -1.
       39    2    1    2    0    0  0.00000000000E+00  0.00000000000E+00 -0.95542618816E+01  0.99000855390E+03  0.98996245023E+03 0.  0.
       24    2    3    3    0    0  0.20487850758E+03 -0.12507184399E+03 -0.43043576256E+03  0.49894319800E+03  0.77789460138E+02 0.  0.
      -24    2    3    3    0    0 -0.20487850758E+03  0.12507184399E+03  0.42088150068E+03  0.49106535590E+03  0.79911057578E+02 0.  0.
      -13    1    4    4    0    0  0.72940600220E+02 -0.86331214677E+02 -0.22408780481E+03  0.25097560450E+03  0.00000000000E+00 0.  1.
       14    1    4    4    0    0  0.13193790736E+03 -0.38740629316E+02 -0.20634795775E+03  0.24796759350E+03  0.00000000000E+00 0. -1.
        3    1    5    5  501    0 -0.11655349041E+03  0.34855458567E+02  0.25560094435E+03  0.28307501104E+03  0.00000000000E+00 0. -1.
       -4    1    5    5    0  501 -0.88325017171E+02  0.90216385425E+02  0.16528055633E+03  0.20799034487E+03  0.14200000000E+01 0.  1.
</event>
<event>
 9   1  0.7335000E-04  0.9899733E+03  0.7818608E-02  0.9319611E-01
       21   -1    0    0  503  502  0.00000000000E+00  0.00000000000E+00  0.22086491823E+03  0.22086491823E+03  0.00000000000E+00 0.  1.
       21   -1    0    0  502  503 -0.00000000000E+00 -0.00000000000E+00 -0.11093285513E+04  0.11093285513E+04  0.00000000000E+00 0. -1.
       39    2    1    2    0    0  0.11368683772E-12 -0.28421709430E-13 -0.88846363304E+03  0.13301934695E+04  0.98997325168E+03 0.  0.
       24    2    3    3    0    0 -0.43831827439E+03  0.15513763705E+03 -0.64563904353E+03  0.79927120471E+03  0.76118907315E+02 0.  0.
      -24    2    3    3    0    0  0.43831827439E+03 -0.15513763705E+03 -0.24282458951E+03  0.53092226479E+03  0.82000450513E+02 0.  0.
      -13    1    4    4    0    0 -0.87616174582E+01 -0.46149051558E+01 -0.31219019673E+02  0.32751953826E+02  0.00000000000E+00 0.  1.
       14    1    4    4    0    0 -0.42955665693E+03  0.15975254221E+03 -0.61442002386E+03  0.76651925088E+03  0.00000000000E+00 0. -1.
        1    1    5    5  501    0  0.16629319506E+02 -0.25655778857E+02 -0.21624394028E+02  0.37448199864E+02  0.00000000000E+00 0. -1.
       -2    1    5    5    0  501  0.42168895488E+03 -0.12948185820E+03 -0.22120019549E+03  0.49347406493E+03  0.00000000000E+00 0.  1.
</event>
<event>
 9   1  0.7335000E-04  0.9788459E+03  0.7818608E-02  0.9332055E-01
       21   -1    0    0  503  502  0.00000000000E+00  0.00000000000E+00  0.72738663563E+03  0.72738663563E+03  0.00000000000E+00 0. -1.
       21   -1    0    0  502  503 -0.00000000000E+00 -0.00000000000E+00 -0.32930880877E+03  0.32930880877E+03  0.00000000000E+00 0.  1.
       39    2    1    2    0    0  0.00000000000E+00 -0.14210854715E-13  0.39807782685E+03  0.10566954444E+04  0.97884590513E+03 0.  0.
       24    2    3    3    0    0  0.22926768303E+03  0.10434040116E+03  0.64364306867E+03  0.69583161786E+03  0.80340841295E+02 0.  0.
      -24    2    3    3    0    0 -0.22926768303E+03 -0.10434040116E+03 -0.24556524181E+03  0.36086382654E+03  0.80435213164E+02 0.  0.
      -13    1    4    4    0    0  0.12353466407E+03  0.17305477693E+02  0.25750324123E+03  0.28612621695E+03  0.00000000000E+00 0.  1.
       14    1    4    4    0    0  0.10573301897E+03  0.87034923472E+02  0.38613982744E+03  0.40970540092E+03  0.00000000000E+00 0. -1.
        1    1    5    5  501    0 -0.18201744533E+02 -0.86967522717E+01  0.37186241064E+01  0.20512561258E+02  0.00000000000E+00 0. -1.
       -2    1    5    5    0  501 -0.21106593850E+03 -0.95643648893E+02 -0.24928386592E+03  0.34035126528E+03  0.00000000000E+00 0.  1.
</event>
<event>
 9   1  0.7335000E-04  0.1016328E+04  0.7818608E-02  0.9290816E-01
       21   -1    0    0  503  502  0.00000000000E+00  0.00000000000E+00  0.74054715464E+03  0.74054715464E+03  0.00000000000E+00 0.  1.
       21   -1    0    0  502  503 -0.00000000000E+00 -0.00000000000E+00 -0.34870254015E+03  0.34870254015E+03  0.00000000000E+00 0. -1.
       39    2    1    2    0    0  0.56843418861E-13  0.00000000000E+00  0.39184461449E+03  0.10892496948E+04  0.10163280453E+04 0.  0.
       24    2    3    3    0    0 -0.30865883614E+03 -0.26726905573E+03  0.50797356822E+03  0.65718405431E+03  0.84561870572E+02 0.  0.
      -24    2    3    3    0    0  0.30865883614E+03  0.26726905573E+03 -0.11612895373E+03  0.43206564047E+03  0.80571449701E+02 0.  0.
      -13    1    4    4    0    0 -0.31244019667E+03 -0.25316116286E+03  0.49386517465E+03  0.63687695955E+03  0.00000000000E+00 0.  1.
       14    1    4    4    0    0  0.37813605253E+01 -0.14107892866E+02  0.14108393573E+02  0.20307094764E+02  0.00000000000E+00 0. -1.
        3    1    5    5  501    0  0.15980929944E+03  0.16807552726E+03 -0.99664227180E+02  0.25243088803E+03  0.00000000000E+00 0. -1.
       -4    1    5    5    0  501  0.14884953670E+03  0.99193528464E+02 -0.16464726548E+02  0.17963475244E+03  0.14200000000E+01 0.  1.
</event>
<event>
 9   1  0.7335000E-04  0.1107453E+04  0.7818608E-02  0.9197958E-01
       21   -1    0    0  503  502  0.00000000000E+00  0.00000000000E+00  0.10950724010E+04  0.10950724010E+04  0.00000000000E+00 0.  1.
       21   -1    0    0  502  503 -0.00000000000E+00 -0.00000000000E+00 -0.27999346489E+03  0.27999346489E+03  0.00000000000E+00 0. -1.
       39    2    1    2    0    0  0.00000000000E+00  0.00000000000E+00  0.81507893612E+03  0.13750658659E+04  0.11074531428E+04 0.  0.
       24    2    3    3    0    0 -0.20024857937E+03 -0.39270484131E+02 -0.22304601605E+03  0.31398042998E+03  0.84808729932E+02 0.  0.
      -24    2    3    3    0    0  0.20024857937E+03  0.39270484131E+02  0.10381249522E+04  0.10610854359E+04  0.80976672631E+02 0.  0.
      -13    1    4    4    0    0 -0.36068903441E+02  0.25706369196E+02 -0.40615944196E+02  0.60095242205E+02  0.00000000000E+00 0.  1.
       14    1    4    4    0    0 -0.16417967593E+03 -0.64976853327E+02 -0.18243007186E+03  0.25388518778E+03  0.00000000000E+00 0. -1.
        1    1    5    5  501    0  0.13866763740E+03  0.51256502067E+02  0.57369197203E+03  0.59243431825E+03  0.00000000000E+00 0. -1.
       -2    1    5    5    0  501  0.61580941965E+02 -0.11986017936E+02  0.46443298015E+03  0.46865111767E+03  0.00000000000E+00 0.  1.
</event>
<event>
 9   1  0.7335000E-04  0.9914460E+03  0.7818608E-02  0.9317977E-01
        1   -1    0    0  501    0  0.00000000000E+00  0.00000000000E+00  0.62487199290E+03  0.62487199290E+03  0.00000000000E+00 0. -1.
       -1   -1    0    0    0  501 -0.00000000000E+00 -0.00000000000E+00 -0.39326663932E+03  0.39326663932E+03  0.00000000000E+00 0.  1.
       39    2    1    2    0    0 -0.56843418861E-13  0.00000000000E+00  0.23160535358E+03  0.10181386322E+04  0.99144603213E+03 0.  0.
       24    2    3    3    0    0 -0.36483619661E+03 -0.27840762879E+03 -0.57808931445E+02  0.46951408448E+03  0.80531638769E+02 0.  0.
      -24    2    3    3    0    0  0.36483619661E+03  0.27840762879E+03  0.28941428503E+03  0.54862454775E+03  0.81314253935E+02 0.  0.
      -13    1    4    4    0    0 -0.26530701706E+02 -0.38592498222E+01 -0.17379862788E+02  0.31950454970E+02  0.00000000000E+00 0.  1.
       14    1    4    4    0    0 -0.33830549490E+03 -0.27454837897E+03 -0.40429068657E+02  0.43756362951E+03  0.00000000000E+00 0. -1.
        3    1    5    5  502    0  0.64834257479E+02  0.35347111643E+02  0.16128203999E+02  0.75584510374E+02  0.00000000000E+00 0. -1.
       -4    1    5    5    0  502  0.30000193913E+03  0.24306051715E+03  0.27328608103E+03  0.47304003738E+03  0.14200000000E+01 0.  1.
</event>
<event>
 9   1  0.7335000E-04  0.9968472E+03  0.7818608E-02  0.9312009E-01
       21   -1    0    0  503  502  0.00000000000E+00  0.00000000000E+00  0.26992605193E+03  0.26992605193E+03  0.00000000000E+00 0.  1.
       21   -1    0    0  502  503 -0.00000000000E+00 -0.00000000000E+00 -0.92034875565E+03  0.92034875565E+03  0.00000000000E+00 0. -1.
       39    2    1    2    0    0  0.00000000000E+00  0.00000000000E+00 -0.65042270371E+03  0.11902748076E+04  0.99684724209E+03 0.  0.
       24    2    3    3    0    0  0.35736395606E+03  0.15572235046E+03 -0.68315900323E+03  0.79103272465E+03  0.84071994506E+02 0.  0.
      -24    2    3    3    0    0 -0.35736395606E+03 -0.15572235046E+03  0.32736299516E+02  0.39924208293E+03  0.79775484662E+02 0.  0.
      -13    1    4    4    0    0  0.39592122556E+02 -0.74207399263E+01 -0.90337123569E+02  0.98911068361E+02  0.00000000000E+00 0.  1.
       14    1    4    4    0    0  0.31777183350E+03  0.16314309039E+03 -0.59282187966E+03  0.69212165629E+03  0.00000000000E+00 0. -1.
        3    1    5    5  501    0 -0.70445715352E+02 -0.36734790386E+02  0.39127207338E+02  0.88560611957E+02  0.00000000000E+00 0. -1.
       -4    1    5    5    0  501 -0.28691824071E+03 -0.11898756007E+03 -0.63909078223E+01  0.31068147097E+03  0.14200000000E+01 0.  1.
</event>
<event>
 9   1  0.7335000E-04  0.9964314E+03  0.7818608E-02  0.9312468E-01
       21   -1    0    0  503  502  0.00000000000E+00  0.00000000000E+00  0.18508570275E+03  0.18508570275E+03  0.00000000000E+00 0.  1.
       21   -1    0    0  502  503 -0.00000000000E+00 -0.00000000000E+00 -0.13411022918E+04  0.13411022918E+04  0.00000000000E+00 0. -1.
       39    2    1    2    0    0  0.28421709430E-13  0.00000000000E+00 -0.11560165891E+04  0.15261879946E+04  0.99643135265E+03 0.  0.
       24    2    3    3    0    0 -0.15183300564E+03  0.27111605366E+03  0.71926345150E+01  0.31948312067E+03  0.73895563102E+02 0.  0.
      -24    2    3    3    0    0  0.15183300564E+03 -0.27111605366E+03 -0.11632092236E+04  0.12067048739E+04  0.80769912026E+02 0.  0.
      -13    1    4    4    0    0 -0.15248910834E+03  0.21737428712E+03  0.25748402989E+01  0.26553933544E+03  0.00000000000E+00 0.  1.
       14    1    4    4    0    0  0.65610269334E+00  0.53741766541E+02  0.46177942162E+01  0.53943785232E+02  0.00000000000E+00 0. -1.
        3    1    5    5  501    0  0.10925268737E+03 -0.24898283742E+03 -0.10223510953E+04  0.10578895807E+04  0.00000000000E+00 0. -1.
       -4    1    5    5    0  501  0.42580318270E+02 -0.22133216235E+02 -0.14085812832E+03  0.14881529316E+03  0.14200000000E+01 0.  1.
</event>
<event>
 9   1  0.7335000E-04  0.1082798E+04  0.7818608E-02  0.9222122E-01
        2   -1    0    0  501    0  0.00000000000E+00  0.00000000000E+00  0.88042569025E+03  0.88042569025E+03  0.00000000000E+00 0.  1.
       -2   -1    0    0    0  501 -0.00000000000E+00 -0.00000000000E+00 -0.33292189073E+03  0.33292189073E+03  0.00000000000E+00 0. -1.
       39    2    1    2    0    0  0.00000000000E+00  0.56843418861E-13  0.54750379952E+03  0.12133475810E+04  0.10827981999E+04 0.  0.
       24    2    3    3    0    0 -0.30953418732E+03  0.43538127234E+03  0.31529358875E+03  0.62544218757E+03  0.79997609091E+02 0.  0.
      -24    2    3    3    0    0  0.30953418732E+03 -0.43538127234E+03  0.23221021077E+03  0.58790539341E+03  0.79642351696E+02 0.  0.
      -13    1    4    4    0    0 -0.10655037559E+03  0.11972868239E+03  0.58086562338E+02  0.17047577144E+03  0.00000000000E+00 0.  1.
       14    1    4    4    0    0 -0.20298381173E+03  0.31565258995E+03  0.25720702641E+03  0.45496641613E+03  0.00000000000E+00 0. -1.
        3    1    5    5  502    0  0.14653804607E+03 -0.27199098597E+03  0.12235998771E+03  0.33230176345E+03  0.00000000000E+00 0. -1.
       -4    1    5    5    0  502  0.16299614125E+03 -0.16339028637E+03  0.10985022306E+03  0.25560362996E+03  0.14200000000E+01 0.  1.
</event>
<event>
 9   1  0.7335000E-04  0.9987561E+03  0.7818608E-02  0.9309910E-01
       21   -1    0    0  503  502  0.00000000000E+00  0.00000000000E+00  0.22753415711E+03  0.22753415711E+03  0.00000000000E+00 0. -1.
       21   -1    0    0  502  503 -0.00000000000E+00 -0.00000000000E+00 -0.10960043776E+04  0.10960043776E+04  0.00000000000E+00 0.  1.
       39    2    1    2    0    0 -0.88817841970E-15 -0.28421709430E-13 -0.86847022049E+03  0.13235385347E+04  0.99875609084E+03 0.  0.
       24    2    3    3    0    0  0.17424708884E+01  0.22095640971E+03 -0.10218704150E+04  0.10483956902E+04  0.78035934031E+02 0.  0.
      -24    2    3    3    0    0 -0.17424708884E+01 -0.22095640971E+03  0.15340019454E+03  0.27514284447E+03  0.57854939144E+02 0.  0.
      -13    1    4    4    0    0  0.14940512633E+02  0.20385627367E+03 -0.80863793102E+03  0.83407188102E+03  0.00000000000E+00 0.  1.
       14    1    4    4    0    0 -0.13198041745E+02  0.17100136039E+02 -0.21323248402E+03  0.21432380922E+03  0.00000000000E+00 0. -1.
        1    1    5    5  501    0 -0.27199395187E+00 -0.22275780770E+03  0.14351116541E+03  0.26498409286E+03  0.00000000000E+00 0. -1.
       -2    1    5    5    0  501 -0.14704769366E+01  0.18013979931E+01  0.98890291291E+01  0.10158751610E+02  0.00000000000E+00 0.  1.
</event>
<event>
 9   1  0.7335000E-04  0.9916105E+03  0.7818608E-02  0.9317794E-01
       21   -1    0    0  503  502  0.00000000000E+00  0.00000000000E+00  0.40441019340E+03  0.40441019340E+03  0.00000000000E+00 0. -1.
       21   -1    0    0  502  503 -0.00000000000E+00 -0.00000000000E+00 -0.60785523292E+03  0.60785523292E+03  0.00000000000E+00 0.  1.
       39    2    1    2    0    0 -0.56843418861E-13 -0.28421709430E-13 -0.20344503952E+03  0.10122654263E+04  0.99161051286E+03 0.  0.
       24    2    3    3    0    0 -0.42426924758E+03 -0.21534373468E+03  0.18581953858E+02  0.48105564542E+03  0.68497638440E+02 0.  0.
      -24    2    3    3    0    0  0.42426924758E+03  0.21534373468E+03 -0.22202699338E+03  0.53120978090E+03  0.80687836922E+02 0.  0.
      -13    1    4    4    0    0 -0.77823303699E+02 -0.11582791318E+02 -0.43023566161E+00  0.78681718055E+02  0.00000000000E+00 0.  1.
       14    1    4    4    0    0 -0.34644594388E+03 -0.20376094337E+03  0.19012189520E+02  0.40237392736E+03  0.00000000000E+00 0. -1.
        3    1    5    5  501    0  0.34198300779E+02  0.21643681928E+02 -0.46509510017E+02  0.61653120486E+02  0.00000000000E+00 0. -1.
       -4    1    5    5    0  501  0.39007094680E+03  0.19370005276E+03 -0.17551748336E+03  0.46955666041E+03  0.14200000000E+01 0.  1.
</event>
<event>
 9   1  0.7335000E-04  0.1005086E+04  0.7818608E-02  0.9302984E-01
       21   -1    0    0  503  502  0.00000000000E+00  0.00000000000E+00  0.60436409035E+03  0.60436409035E+03  0.00000000000E+00 0. -1.
       21   -1    0    0  502  503 -0.00000000000E+00 -0.00000000000E+00 -0.41787645232E+03  0.41787645232E+03  0.00000000000E+00 0.  1.
       39    2    1    2    0    0  0.00000000000E+00  0.00000000000E+00  0.18648763803E+03  0.10222405427E+04  0.10050861097E+04 0.  0.
       24    2    3    3    0    0  0.14314823985E+03 -0.40743282716E+03 -0.15253242993E+03  0.46730065250E+03  0.92794560329E+02 0.  0.
      -24    2    3    3    0    0 -0.14314823985E+03  0.40743282716E+03  0.33902006797E+03  0.55493989018E+03  0.80813043562E+02 0.  0.
      -13    1    4    4    0    0  0.15141910745E+03 -0.40599105086E+03 -0.14948656712E+03  0.45836962512E+03  0.00000000000E+00 0.  1.
       14    1    4    4    0    0 -0.82708676025E+01 -0.14417762949E+01 -0.30458628169E+01  0.89310273811E+01  0.00000000000E+00 0. -1.
        1    1    5    5  501    0 -0.10555130748E+03  0.22073107680E+03  0.22832365248E+03  0.33465650607E+03  0.00000000000E+00 0. -1.
       -2    1    5    5    0  501 -0.37596932365E+02  0.18670175036E+03  0.11069641549E+03  0.22028338410E+03  0.00000000000E+00 0.  1.
</event>
<event>
 9   1  0.7335000E-04  0.9988678E+03  0.7818608E-02  0.9309787E-01
       21   -1    0    0  503  502  0.00000000000E+00  0.00000000000E+00  0.11918234094E+04  0.11918234094E+04  0.00000000000E+00 0.  1.
       21   -1    0    0  502  503 -0.00000000000E+00 -0.00000000000E+00 -0.20928790329E+03  0.20928790329E+03  0.00000000000E+00 0. -1.
       39    2    1    2    0    0  0.00000000000E+00 -0.14210854715E-13  0.98253550607E+03  0.14011113126E+04  0.99886780393E+03 0.  0.
       24    2    3    3    0    0  0.42243759326E+03  0.99634353783E+02  0.15918647966E+03  0.46709299866E+03  0.66745857123E+02 0.  0.
      -24    2    3    3    0    0 -0.42243759326E+03 -0.99634353783E+02  0.82334902641E+03  0.93401831398E+03  0.78141326476E+02 0.  0.
      -13    1    4    4    0    0  0.13517621852E+03  0.30255910328E+02  0.84575306075E+02  0.16229914528E+03  0.00000000000E+00 0.  1.
       14    1    4    4    0    0  0.28726137474E+03  0.69378443455E+02  0.74611173585E+02  0.30479385338E+03  0.00000000000E+00 0. -1.
        1    1    5    5  501    0 -0.38403186092E+01 -0.73084547495E+01  0.37007785214E+01  0.90475034960E+01  0.00000000000E+00 0. -1.
       -2    1    5    5    0  501 -0.41859727465E+03 -0.92325899033E+02  0.81964824789E+03  0.92497081048E+03  0.00000000000E+00 0.  1.
</event>
<event>
 9   1  0.7335000E-04  0.9944058E+03  0.7818608E-02  0.9314702E-01
        1   -1    0    0  501    0  0.00000000000E+00  0.00000000000E+00  0.12779484004E+04  0.12779484004E+04  0.00000000000E+00 0. -1.
       -1   -1    0    0    0  501 -0.00000000000E+00 -0.00000000000E+00 -0.19344343479E+03  0.19344343479E+03  0.00000000000E+00 0.  1.
       39    2    1    2    0    0  0.00000000000E+00  0.56843418861E-13  0.10845049657E+04  0.14713918352E+04  0.99440580863E+03 0.  0.
       24    2    3    3    0    0  0.52848766791E+02 -0.34300747416E+03  0.10547340514E+04  0.11140960608E+04  0.91098814042E+02 0.  0.
      -24    2    3    3    0    0 -0.52848766791E+02  0.34300747416E+03  0.29770914250E+02  0.35729577447E+03  0.79541458636E+02 0.  0.
      -13    1    4    4    0    0  0.20298731266E+02 -0.73779046680E+01  0.61549732585E+02  0.65229146473E+02  0.00000000000E+00 0.  1.
       14    1    4    4    0    0  0.32550035525E+02 -0.33562956949E+03  0.99318431882E+03  0.10488669143E+04  0.00000000000E+00 0. -1.
        1    1    5    5  502    0  0.19243499828E+02  0.38375602548E+02  0.11742608140E+01  0.42946222709E+02  0.00000000000E+00 0. -1.
       -2    1    5    5    0  502 -0.72092266618E+02  0.30463187161E+03  0.28596653436E+02  0.31434955176E+03  0.00000000000E+00 0.  1.
</event>
<event>
 9   1  0.7335000E-04  0.9859266E+03  0.7818608E-02  0.9324116E-01
       21   -1    0    0  503  502  0.00000000000E+00  0.00000000000E+00  0.29402955711E+03  0.29402955711E+03  0.00000000000E+00 0.  1.
       21   -1    0    0  502  503 -0.00000000000E+00 -0.00000000000E+00 -0.82649118711E+03  0.82649118711E+03  0.00000000000E+00 0. -1.
       39    2    1    2    0    0  0.14210854715E-13  0.00000000000E+00 -0.53246163000E+03  0.11205207442E+04  0.98592664576E+03 0.  0.
       24    2    3    3    0    0 -0.93350899319E+02  0.46817278193E+03 -0.37309470043E+03  0.61117640321E+03  0.80229646715E+02 0.  0.
      -24    2    3    3    0    0  0.93350899319E+02 -0.46817278193E+03 -0.15936692958E+03  0.50934434101E+03  0.78317912005E+02 0.  0.
      -13    1    4    4    0    0 -0.57133361753E+02  0.19582383583E+03 -0.11476552869E+03  0.23405623743E+03  0.00000000000E+00 0.  1.
       14    1    4    4    0    0 -0.36217537565E+02  0.27234894610E+03 -0.25832917173E+03  0.37712016578E+03  0.00000000000E+00 0. -1.
        1    1    5    5  501    0  0.69143954816E+02 -0.20769937339E+03 -0.10213785616E+03  0.24156170610E+03  0.00000000000E+00 0. -1.
       -2    1    5    5    0  501  0.24206944502E+02 -0.26047340853E+03 -0.57229073417E+02  0.26778263491E+03  0.00000000000E+00 0.  1.
</event>
<event>
 8   1  0.7335000E-04  0.1188808E+04  0.7818608E-02  0.9122709E-01
       -2   -1    0    0    0  501 -0.00000000000E+00  0.00000000000E+00  0.18484307692E+03  0.18484307692E+03  0.00000000000E+00 0. -1.
        2   -1    0    0  501    0  0.00000000000E+00 -0.00000000000E+00 -0.19114397850E+04  0.19114397850E+04  0.00000000000E+00 0.  1.
       24    2    1    2    0    0 -0.24752048528E+03  0.47575765482E+03 -0.12929711855E+04  0.14020741695E+04  0.80160797925E+02 0.  0.
      -24    2    1    2    0    0  0.24752048528E+03 -0.47575765482E+03 -0.43362552263E+03  0.69420869246E+03  0.79264607762E+02 0.  0.
      -13    1    3    3    0    0 -0.24183344128E+03  0.41325815523E+03 -0.11643687584E+04  0.12589759020E+04  0.00000000000E+00 0.  1.
       14    1    3    3    0    0 -0.56870440014E+01  0.62499499598E+02 -0.12860242701E+03  0.14309826747E+03  0.00000000000E+00 0. -1.
        1    1    4    4  502    0  0.24006295106E+03 -0.41396561587E+03 -0.39853232842E+03  0.62275658839E+03  0.00000000000E+00 0. -1.
       -2    1    4    4    0  502  0.74575342286E+01 -0.61792038956E+02 -0.35093194218E+02  0.71452104067E+02  0.00000000000E+00 0.  1.
</event>
<event>
 9   1  0.7335000E-04  0.9985899E+03  0.7818608E-02  0.9310093E-01
       21   -1    0    0  503  502  0.00000000000E+00  0.00000000000E+00  0.13737074021E+03  0.13737074021E+03  0.00000000000E+00 0. -1.
       21   -1    0    0  502  503 -0.00000000000E+00 -0.00000000000E+00 -0.18147638046E+04  0.18147638046E+04  0.00000000000E+00 0.  1.
       39    2    1    2    0    0  0.00000000000E+00  0.00000000000E+00 -0.16773930644E+04  0.19521345448E+04  0.99858990010E+03 0.  0.
       24    2    3    3    0    0  0.12005388127E+03 -0.21895761415E+03 -0.91092591490E+01  0.26316845311E+03  0.82578961666E+02 0.  0.
      -24    2    3    3    0    0 -0.12005388127E+03  0.21895761415E+03 -0.16682838053E+04  0.16889660917E+04  0.84144119676E+02 0.  0.
      -13    1    4    4    0    0  0.33169578300E+02 -0.13937916782E+03 -0.20783298539E+02  0.14477126388E+03  0.00000000000E+00 0.  1.
       14    1    4    4    0    0  0.86884302968E+02 -0.79578446323E+02  0.11674039390E+02  0.11839718923E+03  0.00000000000E+00 0. -1.
        1    1    5    5  501    0 -0.58343940742E+02  0.51194446229E+02 -0.34245098045E+03  0.35113752400E+03  0.00000000000E+00 0. -1.
       -2    1    5    5    0  501 -0.61709940525E+02  0.16776316792E+03 -0.13258328248E+04  0.13378285677E+04  0.00000000000E+00 0.  1.
</event>
<event>
 9   1  0.7335000E-04  0.9981272E+03  0.7818608E-02  0.9310601E-01
       21   -1    0    0  503  502  0.00000000000E+00  0.00000000000E+00  0.13012568736E+03  0.13012568736E+03  0.00000000000E+00 0. -1.
       21   -1    0    0  502  503 -0.00000000000E+00 -0.00000000000E+00 -0.19140301532E+04  0.19140301532E+04  0.00000000000E+00 0.  1.
       39    2    1    2    0    0  0.00000000000E+00  0.00000000000E+00 -0.17839044658E+04  0.20441558405E+04  0.99812722498E+03 0.  0.
       24    2    3    3    0    0  0.11719516647E+03 -0.36279322833E+03 -0.25351863268E+03  0.46492175448E+03  0.80789275959E+02 0.  0.
      -24    2    3    3    0    0 -0.11719516647E+03  0.36279322833E+03 -0.15303858331E+04  0.15792340860E+04  0.80906530892E+02 0.  0.
      -13    1    4    4    0    0  0.14603001681E+02 -0.71996176516E+02 -0.89044597963E+02  0.11543672517E+03  0.00000000000E+00 0.  1.
       14    1    4    4    0    0  0.10259216479E+03 -0.29079705181E+03 -0.16447403472E+03  0.34948502931E+03  0.00000000000E+00 0. -1.
        1    1    5    5  501    0 -0.68971076032E+02  0.10229440782E+03 -0.55158149216E+03  0.56521084357E+03  0.00000000000E+00 0. -1.
       -2    1    5    5    0  501 -0.48224090442E+02  0.26049882051E+03 -0.97880434096E+03  0.10140232425E+04  0.00000000000E+00 0.  1.
</event>
<event>
 9   1  0.7335000E-04  0.9904310E+03  0.7818608E-02  0.9319103E-01
       21   -1    0    0  503  502  0.00000000000E+00  0.00000000000E+00  0.62634850531E+03  0.62634850531E+03  0.00000000000E+00 0.  1.
       21   -1    0    0  502  503 -0.00000000000E+00 -0.00000000000E+00 -0.39153666712E+03  0.39153666712E+03  0.00000000000E+00 0. -1.
       39    2    1    2    0    0  0.00000000000E+00  0.00000000000E+00  0.23481183819E+03  0.10178851724E+04  0.99043102986E+03 0.  0.
       24    2    3    3    0    0 -0.14500927767E+03 -0.16575928429E+03 -0.33103625187E+03  0.40546337737E+03  0.79446330272E+02 0.  0.
      -24    2    3    3    0    0  0.14500927767E+03  0.16575928429E+03  0.56584809006E+03  0.61242179507E+03  0.79828335288E+02 0.  0.
      -13    1    4    4    0    0 -0.68093162023E+02 -0.31635710404E+02 -0.14727809155E+03  0.16531283416E+03  0.00000000000E+00 0.  1.
       14    1    4    4    0    0 -0.76916115646E+02 -0.13412357389E+03 -0.18375816032E+03  0.24015054321E+03  0.00000000000E+00 0. -1.
        3    1    5    5  501    0  0.14323925244E+03  0.16253517557E+03  0.48163979423E+03  0.52812125324E+03  0.00000000000E+00 0. -1.
       -4    1    5    5    0  501  0.17700252308E+01  0.32241087163E+01  0.84208295834E+02  0.84300541834E+02  0.14200000000E+01 0.  1.
</event>
<event>
 9   1  0.7335000E-04  0.1017255E+04  0.7818608E-02  0.9289820E-01
       21   -1    0    0  503  502  0.00000000000E+00  0.00000000000E+00  0.12929612620E+04  0.12929612620E+04  0.00000000000E+00 0.  1.
       21   -1    0    0  502  503 -0.00000000000E+00 -0.00000000000E+00 -0.20008474529E+03  0.20008474529E+03  0.00000000000E+00 0. -1.
       39    2    1    2    0    0  0.00000000000E+00  0.00000000000E+00  0.10928765167E+04  0.14930460073E+04  0.10172547857E+04 0.  0.
       24    2    3    3    0    0  0.34110710093E+03 -0.34138577224E+03  0.34182546790E+03  0.59668306646E+03  0.79295217441E+02 0.  0.
      -24    2    3    3    0    0 -0.34110710093E+03  0.34138577224E+03  0.75105104884E+03  0.89636294085E+03  0.80563912353E+02 0.  0.
      -13    1    4    4    0    0  0.11519800378E+03 -0.66644843876E+02  0.84071196726E+02  0.15741690319E+03  0.00000000000E+00 0.  1.
       14    1    4    4    0    0  0.22590909715E+03 -0.27474092836E+03  0.25775427117E+03  0.43926616328E+03  0.00000000000E+00 0. -1.
        3    1    5    5  501    0 -0.14815385866E+03  0.20052280974E+03  0.41287237531E+03  0.48230961151E+03  0.00000000000E+00 0. -1.
       -4    1    5    5    0  501 -0.19295324227E+03  0.14086296250E+03  0.33817867353E+03  0.41405332934E+03  0.14200000000E+01 0.  1.
</event>
<event>
 9   1  0.7335000E-04  0.9995577E+03  0.7818608E-02  0.9309030E-01
       21   -1    0    0  503  502  0.00000000000E+00  0.00000000000E+00  0.10281244855E+04  0.10281244855E+04  0.00000000000E+00 0.  1.
       21   -1    0    0  502  503 -0.00000000000E+00 -0.00000000000E+00 -0.24294618468E+03  0.24294618468E+03  0.00000000000E+00 0. -1.
       39    2    1    2    0    0  0.00000000000E+00  0.28421709430E-13  0.78517830081E+03  0.12710706702E+04  0.99955774447E+03 0.  0.
       24    2    3    3    0    0 -0.22088575915E+03  0.25274606424E+03  0.85325705893E+03  0.92100428532E+03  0.86776686813E+02 0.  0.
      -24    2    3    3    0    0  0.22088575915E+03 -0.25274606424E+03 -0.68078758126E+02  0.35006638486E+03  0.72392436870E+02 0.  0.
      -13    1    4    4    0    0 -0.14098020384E+02  0.64536223595E+02  0.13670062367E+03  0.15182469775E+03  0.00000000000E+00 0.  1.
       14    1    4    4    0    0 -0.20678773876E+03  0.18820984065E+03  0.71655643526E+03  0.76917958757E+03  0.00000000000E+00 0. -1.
        3    1    5    5  501    0  0.21430633625E+03 -0.21092518377E+03 -0.54568091074E+02  0.30560483548E+03  0.00000000000E+00 0. -1.
       -4    1    5    5    0  501  0.65794228999E+01 -0.41820880470E+02 -0.13510667052E+02  0.44461549379E+02  0.14200000000E+01 0.  1.
</event>
<event>
 9   1  0.7335000E-04  0.9930230E+03  0.7818608E-02  0.9316230E-01
       21   -1    0    0  503  502  0.00000000000E+00  0.00000000000E+00  0.56045779228E+03  0.56045779228E+03  0.00000000000E+00 0.  1.
       21   -1    0    0  502  503 -0.00000000000E+00 -0.00000000000E+00 -0.43986121694E+03  0.43986121694E+03  0.00000000000E+00 0. -1.
       39    2    1    2    0    0  0.00000000000E+00  0.00000000000E+00  0.12059657534E+03  0.10003190092E+04  0.99302295353E+03 0.  0.
       24    2    3    3    0    0 -0.26081045771E+03 -0.26130548502E+03 -0.26396815444E+03  0.46090624423E+03  0.80328874388E+02 0.  0.
      -24    2    3    3    0    0  0.26081045771E+03  0.26130548502E+03  0.38456472978E+03  0.53941276499E+03  0.82300961679E+02 0.  0.
      -13    1    4    4    0    0 -0.10885843843E+03 -0.14962495089E+03 -0.96428461199E+02  0.20865338165E+03  0.00000000000E+00 0.  1.
       14    1    4    4    0    0 -0.15195201928E+03 -0.11168053413E+03 -0.16753969324E+03  0.25225286258E+03  0.00000000000E+00 0. -1.
        1    1    5    5  501    0  0.18230614612E+03  0.12776617207E+03  0.24309899964E+03  0.32963138392E+03  0.00000000000E+00 0. -1.
       -2    1    5    5    0  501  0.78504311591E+02  0.13353931295E+03  0.14146573014E+03  0.20978138107E+03  0.00000000000E+00 0.  1.
</event>
<event>
 9   1  0.7335000E-04  0.1033799E+04  0.7818608E-02  0.9272233E-01
       21   -1    0    0  503  502  0.00000000000E+00  0.00000000000E+00  0.23035374560E+03  0.23035374560E+03  0.00000000000E+00 0.  1.
       21   -1    0    0  502  503 -0.00000000000E+00 -0.00000000000E+00 -0.11598897232E+04  0.11598897232E+04  0.00000000000E+00 0. -1.
       39    2    1    2    0    0  0.00000000000E+00  0.00000000000E+00 -0.92953597759E+03  0.13902434688E+04  0.10337987081E+04 0.  0.
       24    2    3    3    0    0 -0.35470539758E+02 -0.16635306133E+03 -0.11114429628E+04  0.11275102212E+04  0.83918646203E+02 0.  0.
      -24    2    3    3    0    0  0.35470539758E+02  0.16635306133E+03  0.18190698524E+03  0.26273324753E+03  0.83708469546E+02 0.  0.
      -13    1    4    4    0    0 -0.12079055495E+01 -0.10996300636E+03 -0.47054043083E+03  0.48322005220E+03  0.00000000000E+00 0.  1.
       14    1    4    4    0    0 -0.34262634209E+02 -0.56390054980E+02 -0.64090253200E+03  0.64429016904E+03  0.00000000000E+00 0. -1.
        3    1    5    5  501    0  0.46017544646E+01  0.31638038155E+02 -0.27390635339E+01  0.32088067432E+02  0.00000000000E+00 0. -1.
       -4    1    5    5    0  501  0.30868785293E+02  0.13471502318E+03  0.18464604878E+03  0.23064518010E+03  0.14200000000E+01 0.  1.
</event>
<event>
 9   1  0.7335000E-04  0.1056029E+04  0.7818608E-02  0.9249141E-01
       21   -1    0    0  503  502  0.00000000000E+00  0.00000000000E+00  0.31839516472E+03  0.31839516472E+03  0.00000000000E+00 0. -1.
       21   -1    0    0  502  503 -0.00000000000E+00 -0.00000000000E+00 -0.87563999824E+03  0.87563999824E+03  0.00000000000E+00 0.  1.
       39    2    1    2    0    0 -0.56843418861E-13  0.00000000000E+00 -0.55724483352E+03  0.11940351630E+04  0.10560294342E+04 0.  0.
       24    2    3    3    0    0  0.41575436265E+03  0.83535899230E+02 -0.62241789200E+03  0.75696662304E+03  0.75924301695E+02 0.  0.
      -24    2    3    3    0    0 -0.41575436265E+03 -0.83535899230E+02  0.65173058485E+02  0.43706853992E+03  0.83375323178E+02 0.  0.
      -13    1    4    4    0    0  0.39972776483E+03  0.67615590797E+02 -0.60574372928E+03  0.72888930549E+03  0.00000000000E+00 0.  1.
       14    1    4    4    0    0  0.16026597824E+02  0.15920308433E+02 -0.16674162722E+02  0.28077317552E+02  0.00000000000E+00 0. -1.
        3    1    5    5  501    0 -0.34821228352E+03 -0.71200030230E+02  0.22311780064E+02  0.35611663009E+03  0.00000000000E+00 0. -1.
       -4    1    5    5    0  501 -0.67542079130E+02 -0.12335869001E+02  0.42861278421E+02  0.80951909830E+02  0.14200000000E+01 0.  1.
</event>
<event>
 9   1  0.7335000E-04  0.1001491E+04  0.7818608E-02  0.9306911E-01
       21   -1    0    0  503  502  0.00000000000E+00  0.00000000000E+00  0.31049411656E+03  0.31049411656E+03  0.00000000000E+00 0.  1.
       21   -1    0    0  502  503 -0.00000000000E+00 -0.00000000000E+00 -0.80757078402E+03  0.80757078402E+03  0.00000000000E+00 0. -1.
       39    2    1    2    0    0  0.56843418861E-13  0.00000000000E+00 -0.49707666746E+03  0.11180649006E+04  0.10014908430E+04 0.  0.
       24    2    3    3    0    0 -0.29011009033E+03 -0.39864012826E+03 -0.22050721942E+03  0.54826595459E+03  0.94309632498E+02 0.  0.
      -24    2    3    3    0    0  0.29011009033E+03  0.39864012826E+03 -0.27656944804E+03  0.56979894598E+03  0.71430825902E+02 0.  0.
      -13    1    4    4    0    0 -0.48255871594E+02 -0.24005122454E+02 -0.40351318081E+02  0.67328329240E+02  0.00000000000E+00 0.  1.
       14    1    4    4    0    0 -0.24185421873E+03 -0.37463500580E+03 -0.18015590134E+03  0.48093762535E+03  0.00000000000E+00 0. -1.
        1    1    5    5  501    0  0.93371341363E+02  0.18787215548E+03 -0.11212828247E+03  0.23788002422E+03  0.00000000000E+00 0. -1.
       -2    1    5    5    0  501  0.19673874896E+03  0.21076797278E+03 -0.16444116557E+03  0.33191892177E+03  0.00000000000E+00 0.  1.
</event>
<event>
 9   1  0.7335000E-04  0.9993176E+03  0.7818608E-02  0.9309294E-01
       21   -1    0    0  503  502  0.00000000000E+00  0.00000000000E+00  0.10206765362E+03  0.10206765362E+03  0.00000000000E+00 0. -1.
       21   -1    0    0  502  503 -0.00000000000E+00 -0.00000000000E+00 -0.24460138428E+04  0.24460138428E+04  0.00000000000E+00 0.  1.
       39    2    1    2    0    0  0.00000000000E+00  0.00000000000E+00 -0.23439461892E+04  0.25480814965E+04  0.99931755447E+03 0.  0.
       24    2    3    3    0    0 -0.47068087130E+02 -0.13525883003E+03 -0.23750848939E+04  0.23807952288E+04  0.81531049500E+02 0.  0.
      -24    2    3    3    0    0  0.47068087130E+02  0.13525883003E+03  0.31138704706E+02  0.16728626770E+03  0.80651847489E+02 0.  0.
      -13    1    4    4    0    0 -0.63726152468E+02 -0.12649177412E+03 -0.18684365963E+04  0.18737973492E+04  0.00000000000E+00 0.  1.
       14    1    4    4    0    0  0.16658065338E+02 -0.87670559114E+01 -0.50664829757E+03  0.50699787952E+03  0.00000000000E+00 0. -1.
        3    1    5    5  501    0  0.41243915742E+02  0.13899734319E+03  0.44931053506E+02  0.15178972814E+03  0.00000000000E+00 0. -1.
       -4    1    5    5    0  501  0.58241713885E+01 -0.37385131575E+01 -0.13792348801E+02  0.15496539563E+02  0.14200000000E+01 0.  1.
</event>
<event>
 9   1  0.7335000E-04  0.1001920E+04  0.7818608E-02  0.9306442E-01
       21   -1    0    0  503  502  0.00000000000E+00  0.00000000000E+00  0.26989824483E+03  0.26989824483E+03  0.00000000000E+00 0. -1.
       21   -1    0    0  502  503 -0.00000000000E+00 -0.00000000000E+00 -0.92983503203E+03  0.92983503203E+03  0.00000000000E+00 0.  1.
       39    2    1    2    0    0  0.56843418861E-13 -0.28421709430E-13 -0.65993678720E+03  0.11997332769E+04  0.10019198433E+04 0.  0.
       24    2    3    3    0    0  0.24511911470E+03 -0.22328473053E+03  0.10999385931E+03  0.35771948607E+03  0.76974868298E+02 0.  0.
      -24    2    3    3    0    0 -0.24511911470E+03  0.22328473053E+03 -0.76993064651E+03  0.84201379078E+03  0.79085853031E+02 0.  0.
      -13    1    4    4    0    0  0.45964574731E+02 -0.26064539563E+02 -0.83147277455E+01  0.53490532343E+02  0.00000000000E+00 0.  1.
       14    1    4    4    0    0  0.19915453997E+03 -0.19722019097E+03  0.11830858705E+03  0.30422895373E+03  0.00000000000E+00 0. -1.
        1    1    5    5  501    0 -0.70785755731E+01  0.11611765315E+01 -0.66549248061E+02  0.66934721786E+02  0.00000000000E+00 0. -1.
       -2    1    5    5    0  501 -0.23804053913E+03  0.22212355400E+03 -0.70338139845E+03  0.77507906900E+03  0.00000000000E+00 0.  1.
</event>
<event>
 9   1  0.7335000E-04  0.9995292E+03  0.7818608E-02  0.9309061E-01
       21   -1    0    0  503  502  0.00000000000E+00  0.00000000000E+00  0.61929324884E+03  0.61929324884E+03  0.00000000000E+00 0. -1.
       21   -1    0    0  502  503 -0.00000000000E+00 -0.00000000000E+00 -0.40330593265E+03  0.40330593265E+03  0.00000000000E+00 0.  1.
       39    2    1    2    0    0  0.00000000000E+00  0.00000000000E+00  0.21598731619E+03  0.10225991815E+04  0.99952917178E+03 0.  0.
       24    2    3    3    0    0 -0.41309142324E+03 -0.26227957212E+03  0.15665704021E+03  0.52016092774E+03  0.81184140032E+02 0.  0.
      -24    2    3    3    0    0  0.41309142324E+03  0.26227957212E+03  0.59330275982E+02  0.50243825375E+03  0.97411597242E+02 0.  0.
      -13    1    4    4    0    0 -0.23990174131E+03 -0.15783228146E+03  0.49905473859E+02  0.29146943387E+03  0.00000000000E+00 0.  1.
       14    1    4    4    0    0 -0.17318968193E+03 -0.10444729066E+03  0.10675156635E+03  0.22869149387E+03  0.00000000000E+00 0. -1.
        3    1    5    5  501    0  0.25636239347E+03  0.12722118990E+03  0.72134245219E+02  0.29514446849E+03  0.00000000000E+00 0. -1.
       -4    1    5    5    0  501  0.15672902977E+03  0.13505838222E+03 -0.12803969237E+02  0.20729378526E+03  0.14200000000E+01 0.  1.
</event>
<event>
 9   1  0.7335000E-04  0.9985356E+03  0.7818608E-02  0.9310152E-01
       21   -1    0    0  503  502  0.00000000000E+00  0.00000000000E+00  0.34859902503E+03  0.34859902503E+03  0.00000000000E+00 0. -1.
       21   -1    0    0  502  503 -0.00000000000E+00 -0.00000000000E+00 -0.71505752354E+03  0.71505752354E+03  0.00000000000E+00 0.  1.
       39    2    1    2    0    0  0.00000000000E+00 -0.56843418861E-13 -0.36645849851E+03  0.10636565486E+04  0.99853563891E+03 0.  0.
       24    2    3    3    0    0  0.97658487646E+02  0.34740752760E+03  0.17272050174E+03  0.40981131264E+03  0.88790595222E+02 0.  0.
      -24    2    3    3    0    0 -0.97658487646E+02 -0.34740752760E+03 -0.53917900025E+03  0.65384523593E+03  0.81058175353E+02 0.  0.
      -13    1    4    4    0    0  0.21132205581E+02  0.52494932991E+02  0.66100843100E+02  0.87014996184E+02  0.00000000000E+00 0.  1.
       14    1    4    4    0    0  0.76526282065E+02  0.29491259461E+03  0.10661965864E+03  0.32279631645E+03  0.00000000000E+00 0. -1.
        1    1    5    5  501    0 -0.21930068373E+02 -0.18111210380E+02 -0.70870708163E+02  0.76364920715E+02  0.00000000000E+00 0. -1.
       -2    1    5    5    0  501 -0.75728419272E+02 -0.32929631722E+03 -0.46830829209E+03  0.57748031521E+03  0.00000000000E+00 0.  1.
</event>
<event>
 9   1  0.7335000E-04  0.9984619E+03  0.7818608E-02  0.9310233E-01
       21   -1    0    0  503  502  0.00000000000E+00  0.00000000000E+00  0.32918693262E+04  0.32918693262E+04  0.00000000000E+00 0. -1.
       21   -1    0    0  502  503 -0.00000000000E+00 -0.00000000000E+00 -0.75711251664E+02  0.75711251664E+02  0.00000000000E+00 0.  1.
       39    2    1    2    0    0  0.00000000000E+00  0.28421709430E-13  0.32161580745E+04  0.33675805779E+04  0.99846191114E+03 0.  0.
       24    2    3    3    0    0  0.24560598351E+03 -0.24205942637E+03  0.42358510116E+03  0.55261294824E+03  0.83914644733E+02 0.  0.
      -24    2    3    3    0    0 -0.24560598351E+03  0.24205942637E+03  0.27925729734E+04  0.28149676296E+04  0.81632586733E+02 0.  0.
      -13    1    4    4    0    0  0.24277080092E+03 -0.20974366671E+03  0.39854603851E+03  0.51163367004E+03  0.00000000000E+00 0.  1.
       14    1    4    4    0    0  0.28351825819E+01 -0.32315759665E+02  0.25039062652E+02  0.40979278196E+02  0.00000000000E+00 0. -1.
        3    1    5    5  501    0 -0.20673854874E+03  0.19210948385E+03  0.24830752409E+04  0.24990617306E+04  0.00000000000E+00 0. -1.
       -4    1    5    5    0  501 -0.38867434763E+02  0.49949942520E+02  0.30949773249E+03  0.31590589906E+03  0.14200000000E+01 0.  1.
</event>
<event>
 9   1  0.7335000E-04  0.9953874E+03  0.7818608E-02  0.9313618E-01
       21   -1    0    0  503  502  0.00000000000E+00  0.00000000000E+00  0.61017745814E+03  0.61017745814E+03  0.00000000000E+00 0.  1.
       21   -1    0    0  502  503 -0.00000000000E+00 -0.00000000000E+00 -0.40594584449E+03  0.40594584449E+03  0.00000000000E+00 0. -1.
       39    2    1    2    0    0 -0.56843418861E-13  0.00000000000E+00  0.20423161365E+03  0.10161233026E+04  0.99538736888E+03 0.  0.
       24    2    3    3    0    0 -0.40284220674E+03 -0.20951412042E+03 -0.89145390069E+02  0.46973708027E+03  0.80796125065E+02 0.  0.
      -24    2    3    3    0    0  0.40284220674E+03  0.20951412042E+03  0.29337700372E+03  0.54638622236E+03  0.79308432635E+02 0.  0.
      -13    1    4    4    0    0 -0.54382940774E+02 -0.15913142197E+02  0.13197518341E+02  0.58179952150E+02  0.00000000000E+00 0.  1.
       14    1    4    4    0    0 -0.34845926596E+03 -0.19360097822E+03 -0.10234290841E+03  0.41155712812E+03  0.00000000000E+00 0. -1.
        1    1    5    5  501    0  0.88497177549E+02  0.84931255930E+02  0.71951006029E+02  0.14220413474E+03  0.00000000000E+00 0. -1.
       -2    1    5    5    0  501  0.31434502919E+03  0.12458286449E+03  0.22142599769E+03  0.40418208762E+03  0.00000000000E+00 0.  1.
</event>
<event>
 9   1  0.7335000E-04  0.9968751E+03  0.7818608E-02  0.9311979E-01
       21   -1    0    0  503  502  0.00000000000E+00  0.00000000000E+00  0.95585610650E+02  0.95585610650E+02  0.00000000000E+00 0.  1.
       21   -1    0    0  502  503 -0.00000000000E+00 -0.00000000000E+00 -0.25991359562E+04  0.25991359562E+04  0.00000000000E+00 0. -1.
       39    2    1    2    0    0  0.00000000000E+00 -0.71054273576E-14 -0.25035503455E+04  0.26947215668E+04  0.99687511261E+03 0.  0.
       24    2    3    3    0    0 -0.47191887654E+03 -0.60971942245E+02 -0.15915761246E+04  0.16628763557E+04  0.74954718999E+02 0.  0.
      -24    2    3    3    0    0  0.47191887654E+03  0.60971942245E+02 -0.91197422089E+03  0.10318452112E+04  0.81132955546E+02 0.  0.
      -13    1    4    4    0    0 -0.19571499702E+03  0.78168461186E+01 -0.70706882159E+03  0.73369733652E+03  0.00000000000E+00 0.  1.
       14    1    4    4    0    0 -0.27620387953E+03 -0.68788788363E+02 -0.88450730304E+03  0.92917901914E+03  0.00000000000E+00 0. -1.
        1    1    5    5  501    0  0.12350869221E+02 -0.52498455758E+01 -0.60815894299E+02  0.62279032174E+02  0.00000000000E+00 0. -1.
       -2    1    5    5    0  501  0.45956800732E+03  0.66221787821E+02 -0.85115832660E+03  0.96956617900E+03  0.00000000000E+00 0.  1.
</event>
<event>
 9   1  0.7335000E-04  0.1005285E+04  0.7818608E-02  0.9302767E-01
       21   -1    0    0  503  502  0.00000000000E+00  0.00000000000E+00  0.19692285642E+03  0.19692285642E+03  0.00000000000E+00 0. -1.
       21   -1    0    0  502  503 -0.00000000000E+00 -0.00000000000E+00 -0.12829875986E+04  0.12829875986E+04  0.00000000000E+00 0.  1.
       39    2    1    2    0    0 -0.71054273576E-14 -0.35527136788E-14 -0.10860647422E+04  0.14799104550E+04  0.10052851987E+04 0.  0.
       24    2    3    3    0    0 -0.43736332943E+02 -0.26082553018E+02 -0.12688672026E+04  0.12724408769E+04  0.80552101659E+02 0.  0.
      -24    2    3    3    0    0  0.43736332943E+02  0.26082553018E+02  0.18280246039E+03  0.20746957810E+03  0.83867275641E+02 0.  0.
      -13    1    4    4    0    0 -0.10967606807E+02 -0.16877194264E+02 -0.10996615871E+04  0.10998457775E+04  0.00000000000E+00 0.  1.
       14    1    4    4    0    0 -0.32768726136E+02 -0.92053587539E+01 -0.16920561545E+03  0.17259509942E+03  0.00000000000E+00 0. -1.
        3    1    5    5  501    0  0.54350155572E+02  0.48472149004E+02  0.14477926119E+03  0.16206333055E+03  0.00000000000E+00 0. -1.
       -4    1    5    5    0  501 -0.10613822629E+02 -0.22389595987E+02  0.38023199200E+02  0.45406247551E+02  0.14200000000E+01 0.  1.
</event>
<event>
 9   1  0.7335000E-04  0.9700698E+03  0.7818608E-02  0.9341995E-01
       21   -1    0    0  503  502  0.00000000000E+00  0.00000000000E+00  0.14051022476E+03  0.14051022476E+03  0.00000000000E+00 0. -1.
       21   -1    0    0  502  503 -0.00000000000E+00 -0.00000000000E+00 -0.16743182249E+04  0.16743182249E+04  0.00000000000E+00 0.  1.
       39    2    1    2    0    0 -0.28421709430E-13  0.00000000000E+00 -0.15338080001E+04  0.18148284496E+04  0.97006975026E+03 0.  0.
       24    2    3    3    0    0  0.19562440740E+03  0.41108752559E+03 -0.10438650743E+04  0.11414135259E+04  0.76867946710E+02 0.  0.
      -24    2    3    3    0    0 -0.19562440740E+03 -0.41108752559E+03 -0.48994292582E+03  0.67341492376E+03  0.78623956354E+02 0.  0.
      -13    1    4    4    0    0  0.14169374474E+03  0.21076536091E+03 -0.59433394816E+03  0.64632189859E+03  0.00000000000E+00 0.  1.
       14    1    4    4    0    0  0.53930662657E+02  0.20032216469E+03 -0.44953112612E+03  0.49509162727E+03  0.00000000000E+00 0. -1.
        1    1    5    5  501    0 -0.76713795198E+02 -0.23619823971E+03 -0.23192686614E+03  0.33980095063E+03  0.00000000000E+00 0. -1.
       -2    1    5    5    0  501 -0.11891061220E+03 -0.17488928589E+03 -0.25801605968E+03  0.33361397313E+03  0.00000000000E+00 0.  1.
</event>
<event>
 9   1  0.7335000E-04  0.1010673E+04  0.7818608E-02  0.9296915E-01
        1   -1    0    0  501    0  0.00000000000E+00  0.00000000000E+00  0.13020124778E+04  0.13020124778E+04  0.00000000000E+00 0. -1.
       -1   -1    0    0    0  501 -0.00000000000E+00 -0.00000000000E+00 -0.19613115780E+03  0.19613115780E+03  0.00000000000E+00 0.  1.
       39    2    1    2    0    0  0.71054273576E-14  0.00000000000E+00  0.11058813200E+04  0.14981436356E+04  0.10106734680E+04 0.  0.
       24    2    3    3    0    0  0.17060524101E+02  0.49468908882E+03  0.46630580155E+03  0.68540607701E+03  0.85627295681E+02 0.  0.
      -24    2    3    3    0    0 -0.17060524101E+02 -0.49468908882E+03  0.63957551844E+03  0.81273755858E+03  0.80480676308E+02 0.  0.
      -13    1    4    4    0    0 -0.20181402326E+02  0.15762380914E+03  0.10842499603E+03  0.19237602234E+03  0.00000000000E+00 0.  1.
       14    1    4    4    0    0  0.37241926428E+02  0.33706527968E+03  0.35788080552E+03  0.49303005467E+03  0.00000000000E+00 0. -1.
        1    1    5    5  502    0 -0.18092444240E+02 -0.14826995037E+03  0.13941182456E+03  0.20432075653E+03  0.00000000000E+00 0. -1.
       -2    1    5    5    0  502  0.10319201388E+01 -0.34641913845E+03  0.50016369388E+03  0.60841680205E+03  0.00000000000E+00 0.  1.
</event>
<event>
 9   1  0.7335000E-04  0.1003072E+04  0.7818608E-02  0.9305182E-01
       21   -1    0    0  503  502  0.00000000000E+00  0.00000000000E+00  0.59780100000E+03  0.59780100000E+03  0.00000000000E+00 0. -1.
       21   -1    0    0  502  503 -0.00000000000E+00 -0.00000000000E+00 -0.42077298955E+03  0.42077298955E+03  0.00000000000E+00 0.  1.
       39    2    1    2    0    0  0.56843418861E-13  0.00000000000E+00  0.17702801045E+03  0.10185739895E+04  0.10030723083E+04 0.  0.
       24    2    3    3    0    0  0.38207674679E+03  0.11172059218E+03 -0.21063345821E+03  0.45744433864E+03  0.80154463930E+02 0.  0.
      -24    2    3    3    0    0 -0.38207674679E+03 -0.11172059218E+03  0.38766146865E+03  0.56112965090E+03  0.78236434559E+02 0.  0.
      -13    1    4    4    0    0  0.24596413306E+03  0.10297048291E+03 -0.11246167716E+03  0.28939402885E+03  0.00000000000E+00 0.  1.
       14    1    4    4    0    0  0.13611261373E+03  0.87501092629E+01 -0.98171781049E+02  0.16805030980E+03  0.00000000000E+00 0. -1.
        1    1    5    5  501    0 -0.37299937446E+03 -0.92833419927E+02  0.37254659423E+03  0.53529201570E+03  0.00000000000E+00 0. -1.
       -2    1    5    5    0  501 -0.90773723276E+01 -0.18887172249E+02  0.15114874426E+02  0.25837635202E+02  0.00000000000E+00 0.  1.
</event>
<event>
 9   1  0.7335000E-04  0.9989669E+03  0.7818608E-02  0.9309679E-01
       21   -1    0    0  503  502  0.00000000000E+00  0.00000000000E+00  0.16000072063E+03  0.16000072063E+03  0.00000000000E+00 0.  1.
       21   -1    0    0  502  503 -0.00000000000E+00 -0.00000000000E+00 -0.15592663321E+04  0.15592663321E+04  0.00000000000E+00 0. -1.
       39    2    1    2    0    0  0.14210854715E-13 -0.56843418861E-13 -0.13992656115E+04  0.17192670528E+04  0.99896693998E+03 0.  0.
       24    2    3    3    0    0 -0.93892207466E+02 -0.43201628971E+03 -0.32556397748E+03  0.55528678120E+03  0.83052301256E+02 0.  0.
      -24    2    3    3    0    0  0.93892207466E+02  0.43201628971E+03 -0.10737016340E+04  0.11639802716E+04  0.81000323969E+02 0.  0.
      -13    1    4    4    0    0 -0.97136614177E+02 -0.40429515973E+03 -0.27811570585E+03  0.50023838701E+03  0.00000000000E+00 0.  1.
       14    1    4    4    0    0  0.32444067112E+01 -0.27721129982E+02 -0.47448271637E+02  0.55048394198E+02  0.00000000000E+00 0. -1.
        3    1    5    5  501    0  0.16966454603E+02  0.10141203420E+03 -0.34696863623E+03  0.36188326266E+03  0.00000000000E+00 0. -1.
       -4    1    5    5    0  501  0.76925752862E+02  0.33060425551E+03 -0.72673299778E+03  0.80209700889E+03  0.14200000000E+01 0.  1.
</event>
<event>
 9   1  0.7335000E-04  0.1001559E+04  0.7818608E-02  0.9306837E-01
       21   -1    0    0  503  502  0.00000000000E+00  0.00000000000E+00  0.32508568274E+03  0.32508568274E+03  0.00000000000E+00 0.  1.
       21   -1    0    0  502  503 -0.00000000000E+00 -0.00000000000E+00 -0.77142762468E+03  0.77142762468E+03  0.00000000000E+00 0. -1.
       39    2    1    2    0    0  0.00000000000E+00  0.00000000000E+00 -0.44634194194E+03  0.10965133074E+04  0.10015589370E+04 0.  0.
       24    2    3    3    0    0  0.33465234214E+03 -0.10334437522E+03 -0.60504832001E+03  0.70374211392E+03  0.80605479812E+02 0.  0.
      -24    2    3    3    0    0 -0.33465234214E+03  0.10334437522E+03  0.15870637807E+03  0.39277119350E+03  0.80057766724E+02 0.  0.
      -13    1    4    4    0    0  0.13868566471E+03 -0.18952467715E+02 -0.17879551743E+03  0.22706991585E+03  0.00000000000E+00 0.  1.
       14    1    4    4    0    0  0.19596667742E+03 -0.84391907507E+02 -0.42625280257E+03  0.47667219807E+03  0.00000000000E+00 0. -1.
        1    1    5    5  501    0 -0.63791679248E+02  0.38733268215E+02  0.52213617957E+01  0.74812479086E+02  0.00000000000E+00 0. -1.
       -2    1    5    5    0  501 -0.27086066289E+03  0.64611107007E+02  0.15348501627E+03  0.31795871441E+03  0.00000000000E+00 0.  1.
</event>
<event>
 9   1  0.7335000E-04  0.1003253E+04  0.7818608E-02  0.9304984E-01
       21   -1    0    0  503  502  0.00000000000E+00  0.00000000000E+00  0.15511083748E+04  0.15511083748E+04  0.00000000000E+00 0.  1.
       21   -1    0    0  502  503 -0.00000000000E+00 -0.00000000000E+00 -0.16222539597E+03  0.16222539597E+03  0.00000000000E+00 0. -1.
       39    2    1    2    0    0 -0.28421709430E-13  0.28421709430E-13  0.13888829788E+04  0.17133337708E+04  0.10032530494E+04 0.  0.
       24    2    3    3    0    0  0.19845954322E+03 -0.21420724136E+03  0.11703600821E+02  0.30331267625E+03  0.81182958536E+02 0.  0.
      -24    2    3    3    0    0 -0.19845954322E+03  0.21420724136E+03  0.13771793780E+04  0.14100210945E+04  0.79155007512E+02 0.  0.
      -13    1    4    4    0    0  0.91057473928E+02 -0.79324114132E+02  0.42775534835E+02  0.12811528020E+03  0.00000000000E+00 0.  1.
       14    1    4    4    0    0  0.10740206929E+03 -0.13488312722E+03 -0.31071934014E+02  0.17519739605E+03  0.00000000000E+00 0. -1.
        1    1    5    5  501    0 -0.85717489487E+02  0.14884530236E+03  0.74391520891E+03  0.76348690236E+03  0.00000000000E+00 0. -1.
       -2    1    5    5    0  501 -0.11274205373E+03  0.65361938997E+02  0.63326416910E+03  0.64653419215E+03  0.00000000000E+00 0.  1.
</event>
<event>
 9   1  0.7335000E-04  0.1039597E+04  0.7818608E-02  0.9266151E-01
       21   -1    0    0  503  502  0.00000000000E+00  0.00000000000E+00  0.24578106729E+03  0.24578106729E+03  0.00000000000E+00 0. -1.
       21   -1    0    0  502  503 -0.00000000000E+00 -0.00000000000E+00 -0.10993131651E+04  0.10993131651E+04  0.00000000000E+00 0.  1.
       39    2    1    2    0    0  0.00000000000E+00  0.00000000000E+00 -0.85353209781E+03  0.13450942324E+04  0.10395967738E+04 0.  0.
       24    2    3    3    0    0 -0.37421472472E+03  0.19798200107E+03 -0.51148833507E+02  0.43427966173E+03  0.82152836133E+02 0.  0.
      -24    2    3    3    0    0  0.37421472472E+03 -0.19798200107E+03 -0.80238326431E+03  0.91081457065E+03  0.80813033189E+02 0.  0.
      -13    1    4    4    0    0 -0.12132576242E+03  0.34954178868E+02  0.12037359953E+02  0.12683309222E+03  0.00000000000E+00 0.  1.
       14    1    4    4    0    0 -0.25288896230E+03  0.16302782220E+03 -0.63186193460E+02  0.30744656952E+03  0.00000000000E+00 0. -1.
        1    1    5    5  501    0  0.11336455391E+03 -0.58221508999E+02 -0.16860702160E+03  0.21135182499E+03  0.00000000000E+00 0. -1.
       -2    1    5    5    0  501  0.26085017081E+03 -0.13976049207E+03 -0.63377624271E+03  0.69946274566E+03  0.00000000000E+00 0.  1.
</event>
<event>
 9   1  0.7335000E-04  0.1004337E+04  0.7818608E-02  0.9303801E-01
       21   -1    0    0  503  502  0.00000000000E+00  0.00000000000E+00  0.84238425029E+03  0.84238425029E+03  0.00000000000E+00 0. -1.
       21   -1    0    0  502  503 -0.00000000000E+00 -0.00000000000E+00 -0.29935652481E+03  0.29935652481E+03  0.00000000000E+00 0.  1.
       39    2    1    2    0    0  0.14210854715E-13  0.00000000000E+00  0.54302772548E+03  0.11417407751E+04  0.10043370385E+04 0.  0.
       24    2    3    3    0    0  0.10979694402E+03 -0.19409081347E+02 -0.27716358745E+03  0.31011473568E+03  0.83183013419E+02 0.  0.
      -24    2    3    3    0    0 -0.10979694402E+03  0.19409081347E+02  0.82019131293E+03  0.83162603942E+03  0.80349227001E+02 0.  0.
      -13    1    4    4    0    0  0.10256111733E+03 -0.31445491596E+02 -0.16326560209E+03  0.19535418745E+03  0.00000000000E+00 0.  1.
       14    1    4    4    0    0  0.72358266912E+01  0.12036410249E+02 -0.11389798536E+03  0.11476054823E+03  0.00000000000E+00 0. -1.
        3    1    5    5  501    0 -0.90413841623E+02 -0.16518388202E+02  0.45743538251E+03  0.46657759170E+03  0.00000000000E+00 0. -1.
       -4    1    5    5    0  501 -0.19383102401E+02  0.35927469549E+02  0.36275593042E+03  0.36504844772E+03  0.14200000000E+01 0.  1.
</event>
<event>
 9   1  0.7335000E-04  0.9999827E+03  0.7818608E-02  0.9308564E-01
       21   -1    0    0  503  502  0.00000000000E+00  0.00000000000E+00  0.13814517081E+03  0.13814517081E+03  0.00000000000E+00 0.  1.
       21   -1    0    0  502  503 -0.00000000000E+00 -0.00000000000E+00 -0.18096280192E+04  0.18096280192E+04  0.00000000000E+00 0. -1.
       39    2    1    2    0    0  0.00000000000E+00  0.00000000000E+00 -0.16714828484E+04  0.19477731900E+04  0.99998274347E+03 0.  0.
       24    2    3    3    0    0 -0.21382968364E+03 -0.41129115213E+03 -0.11629227082E+04  0.12546022418E+04  0.82182810441E+02 0.  0.
      -24    2    3    3    0    0  0.21382968364E+03  0.41129115213E+03 -0.50856014019E+03  0.69317094825E+03  0.83480547948E+02 0.  0.
      -13    1    4    4    0    0 -0.65313056634E+02 -0.21446353684E+03 -0.54768244904E+03  0.59179089972E+03  0.00000000000E+00 0.  1.
       14    1    4    4    0    0 -0.14851662700E+03 -0.19682761529E+03 -0.61524025917E+03  0.66281134204E+03  0.00000000000E+00 0. -1.
        1    1    5    5  501    0 -0.63214983803E+01  0.67799625799E+01 -0.18375784547E+02  0.20581513357E+02  0.00000000000E+00 0. -1.
       -2    1    5    5    0  501  0.22015118202E+03  0.40451118955E+03 -0.49018435565E+03  0.67258943490E+03  0.00000000000E+00 0.  1.
</event>
<event>
 9   1  0.7335000E-04  0.9858825E+03  0.7818608E-02  0.9324166E-01
       21   -1    0    0  503  502  0.00000000000E+00  0.00000000000E+00  0.19240902186E+03  0.19240902186E+03  0.00000000000E+00 0.  1.
       21   -1    0    0  502  503 -0.00000000000E+00 -0.00000000000E+00 -0.12628882251E+04  0.12628882251E+04  0.00000000000E+00 0. -1.
       39    2    1    2    0    0  0.00000000000E+00  0.00000000000E+00 -0.10704792032E+04  0.14552972469E+04  0.98588252467E+03 0.  0.
       24    2    3    3    0    0  0.28858860931E+03 -0.11819143392E+03 -0.10861477967E+04  0.11328100537E+04  0.79303095127E+02 0.  0.
      -24    2    3    3    0    0 -0.28858860931E+03  0.11819143392E+03  0.15668593500E+02  0.32248719328E+03  0.80621861366E+02 0.  0.
      -13    1    4    4    0    0  0.12071548856E+03 -0.57951671803E+02 -0.33483575820E+03  0.36061837226E+03  0.00000000000E+00 0.  1.
       14    1    4    4    0    0  0.16787312076E+03 -0.60239762120E+02 -0.75131203851E+03  0.77219168140E+03  0.00000000000E+00 0. -1.
        1    1    5    5  501    0 -0.34890224438E+02  0.30571987404E+02  0.27311425196E+02  0.53832036200E+02  0.00000000000E+00 0. -1.
       -2    1    5    5    0  501 -0.25369838487E+03  0.87619446519E+02 -0.11642831697E+02  0.26865515708E+03  0.00000000000E+00 0.  1.
</event>
<event>
 9   1  0.7335000E-04  0.1015637E+04  0.7818608E-02  0.9291558E-01
       21   -1    0    0  503  502  0.00000000000E+00  0.00000000000E+00  0.56318258309E+03  0.56318258309E+03  0.00000000000E+00 0. -1.
       21   -1    0    0  502  503 -0.00000000000E+00 -0.00000000000E+00 -0.45789728075E+03  0.45789728075E+03  0.00000000000E+00 0.  1.
       39    2    1    2    0    0  0.56843418861E-13  0.00000000000E+00  0.10528530234E+03  0.10210798638E+04  0.10156372844E+04 0.  0.
       24    2    3    3    0    0 -0.24365164854E+03 -0.88482193118E+02  0.48411637605E+03  0.55482469737E+03  0.79161574768E+02 0.  0.
      -24    2    3    3    0    0  0.24365164854E+03  0.88482193118E+02 -0.37883107371E+03  0.46625516646E+03  0.81765967934E+02 0.  0.
      -13    1    4    4    0    0 -0.72563638638E+02 -0.64939774476E+02  0.19742856147E+03  0.22013789507E+03  0.00000000000E+00 0.  1.
       14    1    4    4    0    0 -0.17108800990E+03 -0.23542418642E+02  0.28668781458E+03  0.33468680230E+03  0.00000000000E+00 0. -1.
        3    1    5    5  501    0  0.14574561364E+03  0.14442326103E+02 -0.17377216476E+03  0.22726004912E+03  0.00000000000E+00 0. -1.
       -4    1    5    5    0  501  0.97906034898E+02  0.74039867016E+02 -0.20505890895E+03  0.23899511735E+03  0.14200000000E+01 0.  1.
</event>
<event>
 9   1  0.7335000E-04  0.9998524E+03  0.7818608E-02  0.9308707E-01
       21   -1    0    0  503  502  0.00000000000E+00  0.00000000000E+00  0.16345610886E+03  0.16345610886E+03  0.00000000000E+00 0.  1.
       21   -1    0    0  502  503 -0.00000000000E+00 -0.00000000000E+00 -0.15290112411E+04  0.15290112411E+04  0.00000000000E+00 0. -1.
       39    2    1    2    0    0 -0.56843418861E-13  0.00000000000E+00 -0.13655551323E+04  0.16924673500E+04  0.99985244486E+03 0.  0.
       24    2    3    3    0    0  0.29473089711E+03 -0.20106852870E+03 -0.10584881524E+03  0.38080869809E+03  0.80724456676E+02 0.  0.
      -24    2    3    3    0    0 -0.29473089711E+03  0.20106852870E+03 -0.12597063170E+04  0.13116586519E+04  0.79331954412E+02 0.  0.
      -13    1    4    4    0    0  0.21356992491E+03 -0.17905828369E+03 -0.10148593536E+03  0.29660306279E+03  0.00000000000E+00 0.  1.
       14    1    4    4    0    0  0.81160972201E+02 -0.22010245012E+02 -0.43628798796E+01  0.84205635292E+02  0.00000000000E+00 0. -1.
        3    1    5    5  501    0 -0.20470422732E+03  0.17915518718E+03 -0.97608474799E+03  0.10132827034E+04  0.00000000000E+00 0. -1.
       -4    1    5    5    0  501 -0.90026669791E+02  0.21913341515E+02 -0.28362156903E+03  0.29837594848E+03  0.14200000000E+01 0.  1.
</event>
<event>
 9   1  0.7335000E-04  0.9764448E+03  0.7818608E-02  0.9334764E-01
       21   -1    0    0  503  502  0.00000000000E+00  0.00000000000E+00  0.12917113211E+04  0.12917113211E+04  0.00000000000E+00 0. -1.
       21   -1    0    0  502  503 -0.00000000000E+00 -0.00000000000E+00 -0.18453126010E+03  0.18453126010E+03  0.00000000000E+00 0.  1.
       39    2    1    2    0    0 -0.28421709430E-13  0.00000000000E+00  0.11071800610E+04  0.14762425812E+04  0.97644481209E+03 0.  0.
       24    2    3    3    0    0 -0.19968248214E+03  0.16648563120E+03  0.11662820681E+04  0.11978121724E+04  0.83364135097E+02 0.  0.
      -24    2    3    3    0    0  0.19968248214E+03 -0.16648563120E+03 -0.59102007094E+02  0.27843040876E+03  0.80248901593E+02 0.  0.
      -13    1    4    4    0    0  0.41161293853E+01 -0.79621174066E+00  0.75515874146E+02  0.75632160635E+02  0.00000000000E+00 0.  1.
       14    1    4    4    0    0 -0.20379861153E+03  0.16728184294E+03  0.10907661939E+04  0.11221800118E+04  0.00000000000E+00 0. -1.
        1    1    5    5  501    0  0.90510823422E+02 -0.34567821090E+02  0.11849734638E+01  0.96894517768E+02  0.00000000000E+00 0. -1.
       -2    1    5    5    0  501  0.10917165872E+03 -0.13191781011E+03 -0.60286980558E+02  0.18153589099E+03  0.00000000000E+00 0.  1.
</event>
<event>
 9   1  0.7335000E-04  0.1007477E+04  0.7818608E-02  0.9300382E-01
       21   -1    0    0  503  502  0.00000000000E+00  0.00000000000E+00  0.27615909978E+04  0.27615909978E+04  0.00000000000E+00 0.  1.
       21   -1    0    0  502  503 -0.00000000000E+00 -0.00000000000E+00 -0.91886315871E+02  0.91886315871E+02  0.00000000000E+00 0. -1.
       39    2    1    2    0    0  0.00000000000E+00  0.14210854715E-13  0.26697046820E+04  0.28534773137E+04  0.10074768935E+04 0.  0.
       24    2    3    3    0    0 -0.42707553401E+03 -0.94666222657E+02  0.66474739750E+03  0.79978374551E+03  0.80060799620E+02 0.  0.
      -24    2    3    3    0    0  0.42707553401E+03  0.94666222657E+02  0.20049572845E+04  0.20536935682E+04  0.80301644275E+02 0.  0.
      -13    1    4    4    0    0 -0.67336008846E+02 -0.24977156245E+02  0.16625968776E+03  0.18110847633E+03  0.00000000000E+00 0.  1.
       14    1    4    4    0    0 -0.35973952516E+03 -0.69689066412E+02  0.49848770973E+03  0.61867526918E+03  0.00000000000E+00 0. -1.
        1    1    5    5  501    0  0.19065483582E+03  0.25163892362E+01  0.82096972334E+03  0.84282079073E+03  0.00000000000E+00 0. -1.
       -2    1    5    5    0  501  0.23642069819E+03  0.92149833421E+02  0.11839875611E+04  0.12108727775E+04  0.00000000000E+00 0.  1.
</event>
<event>
 9   1  0.7335000E-04  0.9950176E+03  0.7818608E-02  0.9314026E-01
       21   -1    0    0  503  502  0.00000000000E+00  0.00000000000E+00  0.78575122957E+03  0.78575122957E+03  0.00000000000E+00 0. -1.
       21   -1    0    0  502  503 -0.00000000000E+00 -0.00000000000E+00 -0.31500425826E+03  0.31500425826E+03  0.00000000000E+00 0.  1.
       39    2    1    2    0    0  0.00000000000E+00  0.00000000000E+00  0.47074697131E+03  0.11007554878E+04  0.99501755411E+03 0.  0.
       24    2    3    3    0    0  0.28279490905E+03 -0.18566827996E+02  0.67882738189E+03  0.74041914385E+03  0.84238984354E+02 0.  0.
      -24    2    3    3    0    0 -0.28279490905E+03  0.18566827996E+02 -0.20808041058E+03  0.36033634398E+03  0.78912203370E+02 0.  0.
      -13    1    4    4    0    0  0.10752912686E+03 -0.34777113789E+02  0.19253289032E+03  0.22325069904E+03  0.00000000000E+00 0.  1.
       14    1    4    4    0    0  0.17526578219E+03  0.16210285793E+02  0.48629449158E+03  0.51716844481E+03  0.00000000000E+00 0. -1.
        1    1    5    5  501    0 -0.21055408710E+02 -0.32441109532E+00  0.57490843116E+01  0.21828592463E+02  0.00000000000E+00 0. -1.
       -2    1    5    5    0  501 -0.26173950034E+03  0.18891239091E+02 -0.21382949489E+03  0.33850775152E+03  0.00000000000E+00 0.  1.
</event>
<event>
 9   1  0.7335000E-04  0.9977246E+03  0.7818608E-02  0.9311044E-01
       21   -1    0    0  503  502  0.00000000000E+00  0.00000000000E+00  0.24961649274E+03  0.24961649274E+03  0.00000000000E+00 0. -1.
       21   -1    0    0  502  503 -0.00000000000E+00 -0.00000000000E+00 -0.99698374704E+03  0.99698374704E+03  0.00000000000E+00 0.  1.
       39    2    1    2    0    0 -0.14210854715E-13  0.00000000000E+00 -0.74736725430E+03  0.12466002398E+04  0.99772458376E+03 0.  0.
       24    2    3    3    0    0  0.97419031811E+02 -0.25066265933E+03 -0.88941766880E+03  0.93260941214E+03  0.79839147654E+02 0.  0.
      -24    2    3    3    0    0 -0.97419031811E+02  0.25066265933E+03  0.14205041450E+03  0.31399082765E+03  0.78036421266E+02 0.  0.
      -13    1    4    4    0    0  0.80425356840E+02 -0.13518399731E+03 -0.60634737351E+03  0.62641846118E+03  0.00000000000E+00 0.  1.
       14    1    4    4    0    0  0.16993674970E+02 -0.11547866202E+03 -0.28307029529E+03  0.30619095096E+03  0.00000000000E+00 0. -1.
        3    1    5    5  501    0 -0.96936973905E+02  0.23970130387E+03  0.15129579808E+03  0.29957288012E+03  0.00000000000E+00 0. -1.
       -4    1    5    5    0  501 -0.48205790534E+00  0.10961355460E+02 -0.92453835778E+01  0.14417947525E+02  0.14200000000E+01 0.  1.
</event>
<event>
 9   1  0.7335000E-04  0.1020805E+04  0.7818608E-02  0.9286016E-01
       21   -1    0    0  503  502  0.00000000000E+00  0.00000000000E+00  0.22854419309E+03  0.22854419309E+03  0.00000000000E+00 0.  1.
       21   -1    0    0  502  503 -0.00000000000E+00 -0.00000000000E+00 -0.11398702652E+04  0.11398702652E+04  0.00000000000E+00 0. -1.
       39    2    1    2    0    0 -0.56843418861E-13  0.26645352591E-14 -0.91132607213E+03  0.13684144583E+04  0.10208050352E+04 0.  0.
       24    2    3    3    0    0 -0.37867392381E+03  0.73269728758E+01 -0.10311868412E+02  0.38742070031E+03  0.80875455431E+02 0.  0.
      -24    2    3    3    0    0  0.37867392381E+03 -0.73269728758E+01 -0.90101420372E+03  0.98099375800E+03  0.84110242137E+02 0.  0.
      -13    1    4    4    0    0 -0.36609015664E+03  0.70100236036E+01  0.67480758438E+01  0.36621944206E+03  0.00000000000E+00 0.  1.
       14    1    4    4    0    0 -0.12583767172E+02  0.31694927216E+00 -0.17059944256E+02  0.21201258243E+02  0.00000000000E+00 0. -1.
        3    1    5    5  501    0  0.20189890665E+03 -0.18886185156E+02 -0.57872380005E+03  0.61322189560E+03  0.00000000000E+00 0. -1.
       -4    1    5    5    0  501  0.17677501715E+03  0.11559212281E+02 -0.32229040367E+03  0.36777186240E+03  0.14200000000E+01 0.  1.
</event>
<event>
 9   1  0.7335000E-04  0.1136840E+04  0.7818608E-02  0.9170011E-01
        2   -1    0    0  501    0  0.00000000000E+00  0.00000000000E+00  0.27933234449E+04  0.27933234449E+04  0.00000000000E+00 0.  1.
       -2   -1    0    0    0  501 -0.00000000000E+00 -0.00000000000E+00 -0.11566909866E+03  0.11566909866E+03  0.00000000000E+00 0. -1.
       39    2    1    2    0    0 -0.56843418861E-13 -0.56843418861E-13  0.26776543462E+04  0.29089925435E+04  0.11368398394E+04 0.  0.
       24    2    3    3    0    0  0.38150902880E+03  0.33317735171E+03  0.70781808045E+03  0.87346680889E+03  0.73359010841E+02 0.  0.
      -24    2    3    3    0    0 -0.38150902880E+03 -0.33317735171E+03  0.19698362658E+04  0.20355257346E+04  0.80955640583E+02 0.  0.
      -13    1    4    4    0    0  0.19791431698E+03  0.21907418556E+03  0.39147547178E+03  0.49032297585E+03  0.00000000000E+00 0.  1.
       14    1    4    4    0    0  0.18359471182E+03  0.11410316615E+03  0.31634260867E+03  0.38314383304E+03  0.00000000000E+00 0. -1.
        1    1    5    5  502    0 -0.15382701565E+02 -0.42820594631E+02  0.18963516379E+03  0.19501724585E+03  0.00000000000E+00 0. -1.
       -2    1    5    5    0  502 -0.36612632723E+03 -0.29035675708E+03  0.17802011020E+04  0.18405084888E+04  0.00000000000E+00 0.  1.
</event>
<event>
 9   1  0.7335000E-04  0.9989924E+03  0.7818608E-02  0.9309651E-01
       21   -1    0    0  503  502  0.00000000000E+00  0.00000000000E+00  0.45990326188E+03  0.45990326188E+03  0.00000000000E+00 0.  1.
       21   -1    0    0  502  503 -0.00000000000E+00 -0.00000000000E+00 -0.54249765908E+03  0.54249765908E+03  0.00000000000E+00 0. -1.
       39    2    1    2    0    0  0.00000000000E+00  0.28421709430E-13 -0.82594397200E+02  0.10024009210E+04  0.99899237829E+03 0.  0.
       24    2    3    3    0    0 -0.87074627737E+02  0.17309915320E+03  0.41136661475E+03  0.46171060978E+03  0.80055529607E+02 0.  0.
      -24    2    3    3    0    0  0.87074627737E+02 -0.17309915320E+03 -0.49396101195E+03  0.54069031117E+03  0.10393855702E+03 0.  0.
      -13    1    4    4    0    0 -0.86502019883E+02  0.12966743000E+03  0.37099826182E+03  0.40241266396E+03  0.00000000000E+00 0.  1.
       14    1    4    4    0    0 -0.57260785365E+00  0.43431723199E+02  0.40368352933E+02  0.59297945819E+02  0.00000000000E+00 0. -1.
        3    1    5    5  501    0  0.96239898654E+02 -0.76812020014E+02 -0.27980152184E+03  0.30569772020E+03  0.00000000000E+00 0. -1.
       -4    1    5    5    0  501 -0.91652709168E+01 -0.96287133184E+02 -0.21415949011E+03  0.23499259097E+03  0.14200000000E+01 0.  1.
</event>
<event>
 9   1  0.7335000E-04  0.9994638E+03  0.7818608E-02  0.9309133E-01
       21   -1    0    0  503  502  0.00000000000E+00  0.00000000000E+00  0.12659914034E+04  0.12659914034E+04  0.00000000000E+00 0.  1.
       21   -1    0    0  502  503 -0.00000000000E+00 -0.00000000000E+00 -0.19726199371E+03  0.19726199371E+03  0.00000000000E+00 0. -1.
       39    2    1    2    0    0  0.00000000000E+00  0.00000000000E+00  0.10687294096E+04  0.14632533971E+04  0.99946383275E+03 0.  0.
       24    2    3    3    0    0 -0.17420155885E+03 -0.34872955972E+03  0.92058544083E+02  0.40857350523E+03  0.80616652799E+02 0.  0.
      -24    2    3    3    0    0  0.17420155885E+03  0.34872955972E+03  0.97667086556E+03  0.10546798918E+04  0.80654855215E+02 0.  0.
      -13    1    4    4    0    0 -0.54397760176E+02 -0.12825584328E+03  0.72081617665E+02  0.15685801622E+03  0.00000000000E+00 0.  1.
       14    1    4    4    0    0 -0.11980379867E+03 -0.22047371644E+03  0.19976926417E+02  0.25171548900E+03  0.00000000000E+00 0. -1.
        1    1    5    5  501    0  0.11039407170E+03  0.20963719492E+03  0.48558298147E+03  0.54030124603E+03  0.00000000000E+00 0. -1.
       -2    1    5    5    0  501  0.63807487143E+02  0.13909236480E+03  0.49108788409E+03  0.51437864581E+03  0.00000000000E+00 0.  1.
</event>
<event>
 9   1  0.7335000E-04  0.1003517E+04  0.7818608E-02  0.9304696E-01
       21   -1    0    0  503  502  0.00000000000E+00  0.00000000000E+00  0.13255605401E+04  0.13255605401E+04  0.00000000000E+00 0.  1.
       21   -1    0    0  502  503 -0.00000000000E+00 -0.00000000000E+00 -0.18992837258E+03  0.18992837258E+03  0.00000000000E+00 0. -1.
       39    2    1    2    0    0 -0.56843418861E-13 -0.17763568394E-14  0.11356321675E+04  0.15154889127E+04  0.10035169279E+04 0.  0.
       24    2    3    3    0    0 -0.47929683282E+03  0.61753431757E+01  0.37803707438E+03  0.61545420054E+03  0.78155323207E+02 0.  0.
      -24    2    3    3    0    0  0.47929683282E+03 -0.61753431757E+01  0.75759509311E+03  0.90003471211E+03  0.79677908394E+02 0.  0.
      -13    1    4    4    0    0 -0.15430504697E+03 -0.11640848693E+02  0.16632368025E+03  0.22717641491E+03  0.00000000000E+00 0.  1.
       14    1    4    4    0    0 -0.32499178586E+03  0.17816191869E+02  0.21171339413E+03  0.38827778564E+03  0.00000000000E+00 0. -1.
        1    1    5    5  501    0  0.20957949881E+03 -0.28529415299E+02  0.27760507691E+03  0.34900153665E+03  0.00000000000E+00 0. -1.
       -2    1    5    5    0  501  0.26971733401E+03  0.22354072123E+02  0.47999001620E+03  0.55103317546E+03  0.00000000000E+00 0.  1.
</event>
<event>
 9   1  0.7335000E-04  0.9985926E+03  0.7818608E-02  0.9310090E-01
       21   -1    0    0  503  502  0.00000000000E+00  0.00000000000E+00  0.10927111924E+04  0.10927111924E+04  0.00000000000E+00 0. -1.
       21   -1    0    0  502  503 -0.00000000000E+00 -0.00000000000E+00 -0.22814520249E+03  0.22814520249E+03  0.00000000000E+00 0.  1.
       39    2    1    2    0    0  0.00000000000E+00  0.00000000000E+00  0.86456598993E+03  0.13208563949E+04  0.99859264219E+03 0.  0.
       24    2    3    3    0    0  0.33823799848E+03 -0.25048337202E+03  0.77105668372E+03  0.88211871157E+03  0.80362606454E+02 0.  0.
      -24    2    3    3    0    0 -0.33823799848E+03  0.25048337202E+03  0.93509306216E+02  0.43873768335E+03  0.81239775721E+02 0.  0.
      -13    1    4    4    0    0  0.24841418319E+03 -0.19698971673E+03  0.50515354287E+03  0.59640142252E+03  0.00000000000E+00 0.  1.
       14    1    4    4    0    0  0.89823815299E+02 -0.53493655297E+02  0.26590314085E+03  0.28571728905E+03  0.00000000000E+00 0. -1.
        1    1    5    5  501    0 -0.14048699340E+03  0.14592315976E+03  0.67641633005E+02  0.21355457004E+03  0.00000000000E+00 0. -1.
       -2    1    5    5    0  501 -0.19775100509E+03  0.10456021226E+03  0.25867673211E+02  0.22518311330E+03  0.00000000000E+00 0.  1.
</event>
<event>
 9   1  0.7335000E-04  0.1015891E+04  0.7818608E-02  0.9291286E-01
       21   -1    0    0  503  502  0.00000000000E+00  0.00000000000E+00  0.20321133570E+04  0.20321133570E+04  0.00000000000E+00 0. -1.
       21   -1    0    0  502  503 -0.00000000000E+00 -0.00000000000E+00 -0.12696565526E+03  0.12696565526E+03  0.00000000000E+00 0.  1.
       39    2    1    2    0    0  0.00000000000E+00  0.28421709430E-13  0.19051477017E+04  0.21590790122E+04  0.10158909468E+04 0.  0.
       24    2    3    3    0    0  0.20033614582E+03 -0.22278758920E+03  0.98156060747E+02  0.32564901504E+03  0.81509432029E+02 0.  0.
      -24    2    3    3    0    0 -0.20033614582E+03  0.22278758920E+03  0.18069916410E+04  0.18334299972E+04  0.80485295871E+02 0.  0.
      -13    1    4    4    0    0  0.34269627221E+02 -0.90968176260E+02  0.44674096854E+02  0.10698313592E+03  0.00000000000E+00 0.  1.
       14    1    4    4    0    0  0.16606651860E+03 -0.13181941294E+03  0.53481963893E+02  0.21866587912E+03  0.00000000000E+00 0. -1.
        1    1    5    5  501    0 -0.19013399557E+03  0.17063198927E+03  0.14187296605E+04  0.14415478007E+04  0.00000000000E+00 0. -1.
       -2    1    5    5    0  501 -0.10202150247E+02  0.52155599932E+02  0.38826198047E+03  0.39188219652E+03  0.00000000000E+00 0.  1.
</event>
<event>
 9   1  0.7335000E-04  0.1001854E+04  0.7818608E-02  0.9306514E-01
       21   -1    0    0  503  502  0.00000000000E+00  0.00000000000E+00  0.95235321214E+03  0.95235321214E+03  0.00000000000E+00 0.  1.
       21   -1    0    0  502  503 -0.00000000000E+00 -0.00000000000E+00 -0.26348187806E+03  0.26348187806E+03  0.00000000000E+00 0. -1.
       39    2    1    2    0    0  0.00000000000E+00  0.00000000000E+00  0.68887133408E+03  0.12158350902E+04  0.10018539073E+04 0.  0.
       24    2    3    3    0    0  0.17864361227E+03  0.25563781986E+03 -0.12133215088E+03  0.34417003716E+03  0.80419453456E+02 0.  0.
      -24    2    3    3    0    0 -0.17864361227E+03 -0.25563781986E+03  0.81020348496E+03  0.87166505304E+03  0.78141170351E+02 0.  0.
      -13    1    4    4    0    0  0.80999104128E+02  0.17565374849E+03 -0.52628152864E+02  0.20046150927E+03  0.00000000000E+00 0.  1.
       14    1    4    4    0    0  0.97644508138E+02  0.79984071375E+02 -0.68703998020E+02  0.14370852789E+03  0.00000000000E+00 0. -1.
        1    1    5    5  501    0 -0.80259194693E+02 -0.13001461922E+03  0.29356120062E+03  0.33094337590E+03  0.00000000000E+00 0. -1.
       -2    1    5    5    0  501 -0.98384417574E+02 -0.12562320065E+03  0.51664228434E+03  0.54072167714E+03  0.00000000000E+00 0.  1.
</event>
<event>
 9   1  0.7335000E-04  0.9917455E+03  0.7818608E-02  0.9317645E-01
       21   -1    0    0  503  502  0.00000000000E+00  0.00000000000E+00  0.27698400102E+03  0.27698400102E+03  0.00000000000E+00 0. -1.
       21   -1    0    0  502  503 -0.00000000000E+00 -0.00000000000E+00 -0.88774006094E+03  0.88774006094E+03  0.00000000000E+00 0.  1.
       39    2    1    2    0    0  0.00000000000E+00  0.14210854715E-13 -0.61075605992E+03  0.11647240620E+04  0.99174551966E+03 0.  0.
       24    2    3    3    0    0  0.36723673907E+03  0.12548141467E+03  0.44885909347E+02  0.39853835369E+03  0.78801437535E+02 0.  0.
      -24    2    3    3    0    0 -0.36723673907E+03 -0.12548141467E+03 -0.65564196927E+03  0.76618570826E+03  0.81029252288E+02 0.  0.
      -13    1    4    4    0    0  0.67965831797E+02  0.41864608565E+02  0.36289965656E+02  0.87686722766E+02  0.00000000000E+00 0.  1.
       14    1    4    4    0    0  0.29927090727E+03  0.83616806105E+02  0.85959436908E+01  0.31085163093E+03  0.00000000000E+00 0. -1.
        1    1    5    5  501    0 -0.12903967586E+03 -0.10519701695E+02 -0.25723095163E+03  0.28797511099E+03  0.00000000000E+00 0. -1.
       -2    1    5    5    0  501 -0.23819706321E+03 -0.11496171298E+03 -0.39841101764E+03  0.47821059727E+03  0.00000000000E+00 0.  1.
</event>
<event>
 9   1  0.7335000E-04  0.1001472E+04  0.7818608E-02  0.9306932E-01
       21   -1    0    0  503  502  0.00000000000E+00  0.00000000000E+00  0.18564220454E+03  0.18564220454E+03  0.00000000000E+00 0. -1.
       21   -1    0    0  502  503 -0.00000000000E+00 -0.00000000000E+00 -0.13506437903E+04  0.13506437903E+04  0.00000000000E+00 0.  1.
       39    2    1    2    0    0  0.28421709430E-13  0.00000000000E+00 -0.11650015858E+04  0.15362859948E+04  0.10014718983E+04 0.  0.
       24    2    3    3    0    0 -0.12370186447E+03  0.14521768406E+03  0.11701223941E+03  0.23812431809E+03  0.81369525329E+02 0.  0.
      -24    2    3    3    0    0  0.12370186447E+03 -0.14521768406E+03 -0.12820138252E+04  0.12981616768E+04  0.72622062825E+02 0.  0.
      -13    1    4    4    0    0  0.52444983902E+01  0.35970650397E+02  0.34249673145E+02  0.49944294608E+02  0.00000000000E+00 0.  1.
       14    1    4    4    0    0 -0.12894636287E+03  0.10924703367E+03  0.82762566266E+02  0.18818002348E+03  0.00000000000E+00 0. -1.
        1    1    5    5  501    0  0.73968958763E+02 -0.46252313554E+02 -0.41265847216E+03  0.42177920529E+03  0.00000000000E+00 0. -1.
       -2    1    5    5    0  501  0.49732905712E+02 -0.98965370510E+02 -0.86935535301E+03  0.87638247146E+03  0.00000000000E+00 0.  1.
</event>
<event>
 9   1  0.7335000E-04  0.9988437E+03  0.7818608E-02  0.9309814E-01
       21   -1    0    0  503  502  0.00000000000E+00  0.00000000000E+00  0.22260842893E+03  0.22260842893E+03  0.00000000000E+00 0.  1.
       21   -1    0    0  502  503 -0.00000000000E+00 -0.00000000000E+00 -0.11204524589E+04  0.11204524589E+04  0.00000000000E+00 0. -1.
       39    2    1    2    0    0  0.00000000000E+00 -0.28421709430E-13 -0.89784403000E+03  0.13430608879E+04  0.99884365457E+03 0.  0.
       24    2    3    3    0    0 -0.20295157894E+03  0.24174318651E+03 -0.95785728096E+03  0.10117431588E+04  0.80650709941E+02 0.  0.
      -24    2    3    3    0    0  0.20295157894E+03 -0.24174318651E+03  0.60013250961E+02  0.33131772908E+03  0.80874814993E+02 0.  0.
      -13    1    4    4    0    0 -0.89724404207E+01  0.46440423797E+02 -0.19776716077E+03  0.20334470126E+03  0.00000000000E+00 0.  1.
       14    1    4    4    0    0 -0.19397913851E+03  0.19530276271E+03 -0.76009012019E+03  0.80839845752E+03  0.00000000000E+00 0. -1.
        3    1    5    5  501    0 -0.61366630813E+01  0.32902250554E-01  0.19398415463E+01  0.64360470443E+01  0.00000000000E+00 0. -1.
       -4    1    5    5    0  501  0.20908824202E+03 -0.24177608876E+03  0.58073409415E+02  0.32488168204E+03  0.14200000000E+01 0.  1.
</event>
<event>
 9   1  0.7335000E-04  0.1005367E+04  0.7818608E-02  0.9302678E-01
       21   -1    0    0  503  502  0.00000000000E+00  0.00000000000E+00  0.26400088858E+03  0.26400088858E+03  0.00000000000E+00 0. -1.
       21   -1    0    0  502  503 -0.00000000000E+00 -0.00000000000E+00 -0.95715885038E+03  0.95715885038E+03  0.00000000000E+00 0.  1.
       39    2    1    2    0    0  0.00000000000E+00  0.00000000000E+00 -0.69315796179E+03  0.12211597390E+04  0.10053671708E+04 0.  0.
       24    2    3    3    0    0 -0.32135620677E+03  0.35059107036E+03 -0.17271103754E+03  0.51078228241E+03  0.69896547053E+02 0.  0.
      -24    2    3    3    0    0  0.32135620677E+03 -0.35059107036E+03 -0.52044692425E+03  0.71037745655E+03  0.87104647151E+02 0.  0.
      -13    1    4    4    0    0 -0.15470729655E+03  0.15478968302E+03 -0.43919609637E+02  0.22321094437E+03  0.00000000000E+00 0.  1.
       14    1    4    4    0    0 -0.16664891023E+03  0.19580138734E+03 -0.12879142790E+03  0.28757133804E+03  0.00000000000E+00 0. -1.
        3    1    5    5  501    0  0.10171537551E+03 -0.98246224584E+02 -0.21516429160E+03  0.25747623316E+03  0.00000000000E+00 0. -1.
       -4    1    5    5    0  501  0.21964083127E+03 -0.25234484578E+03 -0.30528263265E+03  0.45290122339E+03  0.14200000000E+01 0.  1.
</event>
<event>
 9   1  0.7335000E-04  0.1007785E+04  0.7818608E-02  0.9300047E-01
       21   -1    0    0  503  502  0.00000000000E+00  0.00000000000E+00  0.36213215460E+03  0.36213215460E+03  0.00000000000E+00 0.  1.
       21   -1    0    0  502  503 -0.00000000000E+00 -0.00000000000E+00 -0.70114700651E+03  0.70114700651E+03  0.00000000000E+00 0. -1.
       39    2    1    2    0    0  0.28421709430E-13  0.00000000000E+00 -0.33901485192E+03  0.10632791611E+04  0.10077854457E+04 0.  0.
       24    2    3    3    0    0  0.20729222204E+03  0.24212085883E+03 -0.57224273431E+03  0.66013621107E+03  0.82009112851E+02 0.  0.
      -24    2    3    3    0    0 -0.20729222204E+03 -0.24212085883E+03  0.23322788239E+03  0.40314295004E+03  0.80848113415E+02 0.  0.
      -13    1    4    4    0    0  0.54892298505E+02  0.67127115117E+02 -0.90057159770E+02  0.12501802288E+03  0.00000000000E+00 0.  1.
       14    1    4    4    0    0  0.15239992354E+03  0.17499374372E+03 -0.48218557454E+03  0.53511818819E+03  0.00000000000E+00 0. -1.
        3    1    5    5  501    0 -0.15289125263E+02 -0.64922503803E+02  0.36093681734E+02  0.75838266808E+02  0.00000000000E+00 0. -1.
       -4    1    5    5    0  501 -0.19200309678E+03 -0.17719835503E+03  0.19713420066E+03  0.32730468323E+03  0.14200000000E+01 0.  1.
</event>
<event>
 9   1  0.7335000E-04  0.1005891E+04  0.7818608E-02  0.9302107E-01
       21   -1    0    0  503  502  0.00000000000E+00  0.00000000000E+00  0.32279503360E+03  0.32279503360E+03  0.00000000000E+00 0.  1.
       21   -1    0    0  502  503 -0.00000000000E+00 -0.00000000000E+00 -0.78363713816E+03  0.78363713816E+03  0.00000000000E+00 0. -1.
       39    2    1    2    0    0  0.00000000000E+00 -0.11368683772E-12 -0.46084210456E+03  0.11064321718E+04  0.10058910007E+04 0.  0.
       24    2    3    3    0    0 -0.20793135818E+03  0.39936315234E+03 -0.46103376999E+03  0.64914472475E+03  0.78168788167E+02 0.  0.
      -24    2    3    3    0    0  0.20793135818E+03 -0.39936315234E+03  0.19166542972E+00  0.45728744701E+03  0.79908668452E+02 0.  0.
      -13    1    4    4    0    0 -0.11445229499E+02  0.30774085223E+01 -0.26780414108E+02  0.29285735457E+02  0.00000000000E+00 0.  1.
       14    1    4    4    0    0 -0.19648612868E+03  0.39628574381E+03 -0.43425335588E+03  0.61985898929E+03  0.00000000000E+00 0. -1.
        1    1    5    5  501    0  0.98281080885E+02 -0.10913425522E+03 -0.57688259325E+01  0.14697869191E+03  0.00000000000E+00 0. -1.
       -2    1    5    5    0  501  0.10965027730E+03 -0.29022889712E+03  0.59604913622E+01  0.31030875510E+03  0.00000000000E+00 0.  1.
</event>
<event>
 9   1  0.7335000E-04  0.1001860E+04  0.7818608E-02  0.9306507E-01
       21   -1    0    0  503  502  0.00000000000E+00  0.00000000000E+00  0.17926551028E+03  0.17926551028E+03  0.00000000000E+00 0. -1.
       21   -1    0    0  502  503 -0.00000000000E+00 -0.00000000000E+00 -0.13997730139E+04  0.13997730139E+04  0.00000000000E+00 0.  1.
       39    2    1    2    0    0  0.56843418861E-13  0.00000000000E+00 -0.12205075037E+04  0.15790385242E+04  0.10018603168E+04 0.  0.
       24    2    3    3    0    0 -0.46491721014E+03 -0.17028354489E+03 -0.65910461426E+03  0.82609221558E+03  0.53525303931E+02 0.  0.
      -24    2    3    3    0    0  0.46491721014E+03  0.17028354489E+03 -0.56140288940E+03  0.75294630864E+03  0.81304621728E+02 0.  0.
      -13    1    4    4    0    0 -0.28425747144E+03 -0.77005766847E+02 -0.37886350881E+03  0.47986431051E+03  0.00000000000E+00 0.  1.
       14    1    4    4    0    0 -0.18065973870E+03 -0.93277778041E+02 -0.28024110545E+03  0.34622790507E+03  0.00000000000E+00 0. -1.
        1    1    5    5  501    0  0.37955966508E+03  0.15214724755E+03 -0.41571680720E+03  0.58312501925E+03  0.00000000000E+00 0. -1.
       -2    1    5    5    0  501  0.85357545068E+02  0.18136297338E+02 -0.14568608220E+03  0.16982128938E+03  0.00000000000E+00 0.  1.
</event>
<event>
 8   1  0.7335000E-04  0.8365466E+03  0.7818608E-02  0.9508574E-01
        2   -1    0    0  501    0  0.00000000000E+00  0.00000000000E+00  0.13349671603E+04  0.13349671603E+04  0.00000000000E+00 0. -1.
       -2   -1    0    0    0  501 -0.00000000000E+00 -0.00000000000E+00 -0.13105382762E+03  0.13105382762E+03  0.00000000000E+00 0.  1.
       24    2    1    2    0    0 -0.10857028832E+03  0.28454118433E+03  0.10838035276E+04  0.11286786713E+04  0.80834791678E+02 0.  0.
      -24    2    1    2    0    0  0.10857028832E+03 -0.28454118433E+03  0.12010980507E+03  0.33734231660E+03  0.81377393746E+02 0.  0.
      -13    1    3    3    0    0 -0.62019117667E+02  0.19304299148E+03  0.57718221062E+03  0.61176079620E+03  0.00000000000E+00 0.  1.
       14    1    3    3    0    0 -0.46551170651E+02  0.91498192845E+02  0.50662131703E+03  0.51691787515E+03  0.00000000000E+00 0. -1.
        1    1    4    4  502    0 -0.39303932164E+01  0.33956070291E+01 -0.10739472704E+01  0.53039137126E+01  0.00000000000E+00 0. -1.
       -2    1    4    4    0  502  0.11250068153E+03 -0.28793679136E+03  0.12118375234E+03  0.33203840289E+03  0.00000000000E+00 0.  1.
</event>
<event>
 9   1  0.7335000E-04  0.9810600E+03  0.7818608E-02  0.9329565E-01
       21   -1    0    0  503  502  0.00000000000E+00  0.00000000000E+00  0.91503913828E+03  0.91503913828E+03  0.00000000000E+00 0.  1.
       21   -1    0    0  502  503 -0.00000000000E+00 -0.00000000000E+00 -0.26296106470E+03  0.26296106470E+03  0.00000000000E+00 0. -1.
       39    2    1    2    0    0  0.28421709430E-13  0.00000000000E+00  0.65207807359E+03  0.11780002030E+04  0.98105996971E+03 0.  0.
       24    2    3    3    0    0  0.23029263800E+03  0.13580111605E+03 -0.15855326212E+03  0.32046769489E+03  0.77998489107E+02 0.  0.
      -24    2    3    3    0    0 -0.23029263800E+03 -0.13580111605E+03  0.81063133571E+03  0.85753250809E+03  0.82232583285E+02 0.  0.
      -13    1    4    4    0    0  0.75478844045E+02  0.26641286670E+02 -0.86358430477E+02  0.11774800452E+03  0.00000000000E+00 0.  1.
       14    1    4    4    0    0  0.15481379395E+03  0.10915982938E+03 -0.72194831645E+02  0.20271969037E+03  0.00000000000E+00 0. -1.
        3    1    5    5  501    0 -0.21184486293E+02  0.10575121041E+02  0.88652271075E+02  0.91759690558E+02  0.00000000000E+00 0. -1.
       -4    1    5    5    0  501 -0.20910815171E+03 -0.14637623709E+03  0.72197906464E+03  0.76577281753E+03  0.14200000000E+01 0.  1.
</event>
<event>
 9   1  0.7335000E-04  0.1005681E+04  0.7818608E-02  0.9302336E-01
       21   -1    0    0  503  502  0.00000000000E+00  0.00000000000E+00  0.35654592012E+03  0.35654592012E+03  0.00000000000E+00 0.  1.
       21   -1    0    0  502  503 -0.00000000000E+00 -0.00000000000E+00 -0.70916150469E+03  0.70916150469E+03  0.00000000000E+00 0. -1.
       39    2    1    2    0    0 -0.71054273576E-14  0.00000000000E+00 -0.35261558457E+03  0.10657074248E+04  0.10056811447E+04 0.  0.
       24    2    3    3    0    0  0.39817911120E+02  0.48217527545E+02  0.34522031023E+03  0.36060167244E+03  0.83343311465E+02 0.  0.
      -24    2    3    3    0    0 -0.39817911120E+02 -0.48217527545E+02 -0.69783589480E+03  0.70510575236E+03  0.79301891089E+02 0.  0.
      -13    1    4    4    0    0  0.38916510626E+02  0.23045433129E+02  0.32545938616E+03  0.32858697301E+03  0.00000000000E+00 0.  1.
       14    1    4    4    0    0  0.90140049396E+00  0.25172094417E+02  0.19760924067E+02  0.32014699439E+02  0.00000000000E+00 0. -1.
        3    1    5    5  501    0 -0.19714401075E+02  0.11189949339E+02 -0.40460308585E+03  0.40523762123E+03  0.00000000000E+00 0. -1.
       -4    1    5    5    0  501 -0.20103510045E+02 -0.59407476884E+02 -0.29323280895E+03  0.29986813114E+03  0.14200000000E+01 0.  1.
</event>
<event>
 9   1  0.7335000E-04  0.9971075E+03  0.7818608E-02  0.9311723E-01
       21   -1    0    0  503  502  0.00000000000E+00  0.00000000000E+00  0.91796443029E+03  0.91796443029E+03  0.00000000000E+00 0.  1.
       21   -1    0    0  502  503 -0.00000000000E+00 -0.00000000000E+00 -0.27076849423E+03  0.27076849423E+03  0.00000000000E+00 0. -1.
       39    2    1    2    0    0  0.00000000000E+00 -0.28421709430E-13  0.64719593606E+03  0.11887329245E+04  0.99710750984E+03 0.  0.
       24    2    3    3    0    0 -0.40971876085E+03 -0.23758809901E+03  0.48181189116E+03  0.67971063814E+03  0.74473386889E+02 0.  0.
      -24    2    3    3    0    0  0.40971876085E+03  0.23758809901E+03  0.16538404491E+03  0.50902228638E+03  0.86222026998E+02 0.  0.
      -13    1    4    4    0    0 -0.17003963561E+02  0.23948801248E+01  0.31171419584E+02  0.35588307440E+02  0.00000000000E+00 0.  1.
       14    1    4    4    0    0 -0.39271479729E+03 -0.23998297913E+03  0.45064047157E+03  0.64412233070E+03  0.00000000000E+00 0. -1.
        1    1    5    5  501    0  0.21818233025E+03  0.15972283109E+03  0.60080460861E+02  0.27699201032E+03  0.00000000000E+00 0. -1.
       -2    1    5    5    0  501  0.19153643060E+03  0.77865267918E+02  0.10530358405E+03  0.23203027606E+03  0.00000000000E+00 0.  1.
</event>
<event>
 9   1  0.7335000E-04  0.1009735E+04  0.7818608E-02  0.9297931E-01
       21   -1    0    0  503  502  0.00000000000E+00  0.00000000000E+00  0.37286241118E+03  0.37286241118E+03  0.00000000000E+00 0. -1.
       21   -1    0    0  502  503 -0.00000000000E+00 -0.00000000000E+00 -0.68360672587E+03  0.68360672587E+03  0.00000000000E+00 0.  1.
       39    2    1    2    0    0  0.00000000000E+00  0.00000000000E+00 -0.31074431468E+03  0.10564691370E+04  0.10097351180E+04 0.  0.
       24    2    3    3    0    0  0.10967631228E+01  0.38294941371E+03 -0.48917218773E+03  0.62628043302E+03  0.79286160132E+02 0.  0.
      -24    2    3    3    0    0 -0.10967631228E+01 -0.38294941371E+03  0.17842787305E+03  0.43018870403E+03  0.81082420088E+02 0.  0.
      -13    1    4    4    0    0  0.20399146573E+02  0.33894754789E+03 -0.39757544038E+03  0.52284586275E+03  0.00000000000E+00 0.  1.
       14    1    4    4    0    0 -0.19302383451E+02  0.44001865819E+02 -0.91596747344E+02  0.10343457027E+03  0.00000000000E+00 0. -1.
        3    1    5    5  501    0 -0.10634639344E+02 -0.27505628738E+03  0.16527895638E+03  0.32107038200E+03  0.00000000000E+00 0. -1.
       -4    1    5    5    0  501  0.95378762210E+01 -0.10789312633E+03  0.13148916669E+02  0.10911832202E+03  0.14200000000E+01 0.  1.
</event>
<event>
 9   1  0.7335000E-04  0.9896721E+03  0.7818608E-02  0.9319945E-01
       21   -1    0    0  503  502  0.00000000000E+00  0.00000000000E+00  0.12649231119E+04  0.12649231119E+04  0.00000000000E+00 0.  1.
       21   -1    0    0  502  503 -0.00000000000E+00 -0.00000000000E+00 -0.19357912573E+03  0.19357912573E+03  0.00000000000E+00 0. -1.
       39    2    1    2    0    0  0.00000000000E+00  0.00000000000E+00  0.10713439862E+04  0.14585022377E+04  0.98967208736E+03 0.  0.
       24    2    3    3    0    0 -0.14393033441E+03  0.23013604116E+03  0.11335964614E+04  0.11684966336E+04  0.81638880608E+02 0.  0.
      -24    2    3    3    0    0  0.14393033441E+03 -0.23013604116E+03 -0.62252475183E+02  0.29000560407E+03  0.80927999611E+02 0.  0.
      -13    1    4    4    0    0 -0.67831264728E+02  0.14628552906E+03  0.80346450570E+03  0.81948505075E+03  0.00000000000E+00 0.  1.
       14    1    4    4    0    0 -0.76099069683E+02  0.83850512107E+02  0.33013195571E+03  0.34901158286E+03  0.00000000000E+00 0. -1.
        1    1    5    5  501    0  0.86469762534E+02 -0.18393148620E+03 -0.72024353224E+02  0.21562773223E+03  0.00000000000E+00 0. -1.
       -2    1    5    5    0  501  0.57460571876E+02 -0.46204554965E+02  0.97718780410E+01  0.74377871846E+02  0.00000000000E+00 0.  1.
</event>
<event>
 9   1  0.7335000E-04  0.9996489E+03  0.7818608E-02  0.9308930E-01
       21   -1    0    0  503  502  0.00000000000E+00  0.00000000000E+00  0.47934774991E+03  0.47934774991E+03  0.00000000000E+00 0.  1.
       21   -1    0    0  502  503 -0.00000000000E+00 -0.00000000000E+00 -0.52117584983E+03  0.52117584983E+03  0.00000000000E+00 0. -1.
       39    2    1    2    0    0  0.00000000000E+00  0.00000000000E+00 -0.41828099926E+02  0.10005235997E+04  0.99964888020E+03 0.  0.
       24    2    3    3    0    0  0.20403255570E+03 -0.44116995477E+03  0.62935736929E+02  0.49676021168E+03  0.80929525832E+02 0.  0.
      -24    2    3    3    0    0 -0.20403255570E+03  0.44116995477E+03 -0.10476383686E+03  0.50376338806E+03  0.80881869805E+02 0.  0.
      -13    1    4    4    0    0  0.81274627733E+01 -0.80193727082E+02 -0.36529933324E+01  0.80687259680E+02  0.00000000000E+00 0.  1.
       14    1    4    4    0    0  0.19590509293E+03 -0.36097622768E+03  0.66588730262E+02  0.41607295200E+03  0.00000000000E+00 0. -1.
        3    1    5    5  501    0 -0.51039264648E+02  0.72390130060E+02 -0.47233898739E+02  0.10038116684E+03  0.00000000000E+00 0. -1.
       -4    1    5    5    0  501 -0.15299329105E+03  0.36877982471E+03 -0.57529938116E+02  0.40338222122E+03  0.14200000000E+01 0.  1.
</event>
<event>
 9   1  0.7335000E-04  0.1004703E+04  0.7818608E-02  0.9303401E-01
       -1   -1    0    0    0  501 -0.00000000000E+00  0.00000000000E+00  0.73832145172E+03  0.73832145172E+03  0.00000000000E+00 0. -1.
        1   -1    0    0  501    0  0.00000000000E+00 -0.00000000000E+00 -0.34179855509E+03  0.34179855509E+03  0.00000000000E+00 0.  1.
       39    2    1    2    0    0  0.00000000000E+00  0.00000000000E+00  0.39652289664E+03  0.10801200068E+04  0.10047033500E+04 0.  0.
       24    2    3    3    0    0  0.41215593489E+03 -0.24234806841E+03  0.33877718698E+03  0.59136930263E+03  0.79640245842E+02 0.  0.
      -24    2    3    3    0    0 -0.41215593489E+03  0.24234806841E+03  0.57745709660E+02  0.48875070418E+03  0.83292154044E+02 0.  0.
      -13    1    4    4    0    0  0.31637221027E+03 -0.17703335752E+03  0.29518660245E+03  0.46751183447E+03  0.00000000000E+00 0.  1.
       14    1    4    4    0    0  0.95783724623E+02 -0.65314710890E+02  0.43590584529E+02  0.12385746817E+03  0.00000000000E+00 0. -1.
        1    1    5    5  502    0 -0.33603082078E+03  0.19456195301E+03  0.13395417914E+02  0.38852349130E+03  0.00000000000E+00 0. -1.
       -2    1    5    5    0  502 -0.76125114113E+02  0.47786115398E+02  0.44350291745E+02  0.10022721288E+03  0.00000000000E+00 0.  1.
</event>
<event>
 9   1  0.7335000E-04  0.1037761E+04  0.7818608E-02  0.9268072E-01
       21   -1    0    0  503  502  0.00000000000E+00  0.00000000000E+00  0.75199951513E+03  0.75199951513E+03  0.00000000000E+00 0. -1.
       21   -1    0    0  502  503 -0.00000000000E+00 -0.00000000000E+00 -0.35802786703E+03  0.35802786703E+03  0.00000000000E+00 0.  1.
       39    2    1    2    0    0 -0.14210854715E-13 -0.56843418861E-13  0.39397164809E+03  0.11100273822E+04  0.10377606322E+04 0.  0.
       24    2    3    3    0    0 -0.96231899220E+02 -0.50208912275E+03  0.23689228174E+03  0.56919406423E+03  0.80683728161E+02 0.  0.
      -24    2    3    3    0    0  0.96231899220E+02  0.50208912275E+03  0.15707936635E+03  0.54083331793E+03  0.80452997658E+02 0.  0.
      -13    1    4    4    0    0 -0.22083051016E+02 -0.17732784767E+03  0.43155959920E+02  0.18383488129E+03  0.00000000000E+00 0.  1.
       14    1    4    4    0    0 -0.74148848205E+02 -0.32476127508E+03  0.19373632182E+03  0.38535918294E+03  0.00000000000E+00 0. -1.
        3    1    5    5  501    0  0.31646650973E+02  0.10755848858E+03  0.68388352617E+02  0.13132899816E+03  0.00000000000E+00 0. -1.
       -4    1    5    5    0  501  0.64585248248E+02  0.39453063418E+03  0.88691013731E+02  0.40950431977E+03  0.14200000000E+01 0.  1.
</event>
<event>
 9   1  0.7335000E-04  0.9435168E+03  0.7818608E-02  0.9372761E-01
        2   -1    0    0  501    0  0.00000000000E+00  0.00000000000E+00  0.48712305118E+03  0.48712305118E+03  0.00000000000E+00 0.  1.
       -2   -1    0    0    0  501 -0.00000000000E+00 -0.00000000000E+00 -0.45687839738E+03  0.45687839738E+03  0.00000000000E+00 0. -1.
       39    2    1    2    0    0  0.00000000000E+00  0.00000000000E+00  0.30244653802E+02  0.94400144856E+03  0.94351682327E+03 0.  0.
       24    2    3    3    0    0 -0.38494244946E+03 -0.10410118803E+03 -0.22436848308E+03  0.46436059593E+03  0.79194697472E+02 0.  0.
      -24    2    3    3    0    0  0.38494244946E+03  0.10410118803E+03  0.25461313688E+03  0.47964085263E+03  0.78801975192E+02 0.  0.
      -13    1    4    4    0    0 -0.75440612109E+02  0.99110218452E+01 -0.52417439330E+02  0.92396440707E+02  0.00000000000E+00 0.  1.
       14    1    4    4    0    0 -0.30950183735E+03 -0.11401220988E+03 -0.17195104375E+03  0.37196415522E+03  0.00000000000E+00 0. -1.
        3    1    5    5  502    0  0.10348340414E+03  0.48853722816E+02  0.10867549105E+03  0.15781591657E+03  0.00000000000E+00 0. -1.
       -4    1    5    5    0  502  0.28145904531E+03  0.55247465217E+02  0.14593764583E+03  0.32182493606E+03  0.14200000000E+01 0.  1.
</event>
<event>
 9   1  0.7335000E-04  0.1007815E+04  0.7818608E-02  0.9300015E-01
       21   -1    0    0  503  502  0.00000000000E+00  0.00000000000E+00  0.14910824929E+04  0.14910824929E+04  0.00000000000E+00 0. -1.
       21   -1    0    0  502  503 -0.00000000000E+00 -0.00000000000E+00 -0.17029413794E+03  0.17029413794E+03  0.00000000000E+00 0.  1.
       39    2    1    2    0    0  0.00000000000E+00 -0.14210854715E-13  0.13207883549E+04  0.16613766308E+04  0.10078146808E+04 0.  0.
       24    2    3    3    0    0 -0.44327292521E+03 -0.10367435052E+03  0.99078231997E+03  0.10934253470E+04  0.81793195270E+02 0.  0.
      -24    2    3    3    0    0  0.44327292521E+03  0.10367435052E+03  0.33000603496E+03  0.56795128377E+03  0.80158720354E+02 0.  0.
      -13    1    4    4    0    0 -0.25781829843E+03 -0.71321854583E+02  0.48721988741E+03  0.55582398350E+03  0.00000000000E+00 0.  1.
       14    1    4    4    0    0 -0.18545462677E+03 -0.32352495942E+02  0.50356243256E+03  0.53760136353E+03  0.00000000000E+00 0. -1.
        3    1    5    5  501    0  0.26658754070E+03  0.45660517750E+02  0.23886831257E+03  0.36084881944E+03  0.00000000000E+00 0. -1.
       -4    1    5    5    0  501  0.17668538451E+03  0.58013832774E+02  0.91137722392E+02  0.20710246434E+03  0.14200000000E+01 0.  1.
</event>
<event>
 9   1  0.7335000E-04  0.1015205E+04  0.7818608E-02  0.9292024E-01
       21   -1    0    0  503  502  0.00000000000E+00  0.00000000000E+00  0.10970846797E+04  0.10970846797E+04  0.00000000000E+00 0. -1.
       21   -1    0    0  502  503 -0.00000000000E+00 -0.00000000000E+00 -0.23485903129E+03  0.23485903129E+03  0.00000000000E+00 0.  1.
       39    2    1    2    0    0  0.00000000000E+00 -0.14210854715E-13  0.86222564839E+03  0.13319437110E+04  0.10152048958E+04 0.  0.
       24    2    3    3    0    0  0.29399078337E+03 -0.83815347384E+02 -0.90074887553E+02  0.32859828616E+03  0.80048454898E+02 0.  0.
      -24    2    3    3    0    0 -0.29399078337E+03  0.83815347384E+02  0.95230053594E+03  0.10033454248E+04  0.79813141527E+02 0.  0.
      -13    1    4    4    0    0  0.27201873146E+03 -0.55400539620E+02 -0.92471725485E+02  0.29259943621E+03  0.00000000000E+00 0.  1.
       14    1    4    4    0    0  0.21972051915E+02 -0.28414807763E+02  0.23968379324E+01  0.35998849949E+02  0.00000000000E+00 0. -1.
        3    1    5    5  501    0 -0.21524750843E+03  0.88835172015E+02  0.63407425351E+03  0.67548007864E+03  0.00000000000E+00 0. -1.
       -4    1    5    5    0  501 -0.78743274940E+02 -0.50198246311E+01  0.31822628243E+03  0.32786534617E+03  0.14200000000E+01 0.  1.
</event>
<event>
 9   1  0.7335000E-04  0.1004295E+04  0.7818608E-02  0.9303847E-01
       21   -1    0    0  503  502  0.00000000000E+00  0.00000000000E+00  0.24280490233E+03  0.24280490233E+03  0.00000000000E+00 0.  1.
       21   -1    0    0  502  503 -0.00000000000E+00 -0.00000000000E+00 -0.10384965098E+04  0.10384965098E+04  0.00000000000E+00 0. -1.
       39    2    1    2    0    0 -0.56843418861E-13  0.28421709430E-13 -0.79569160747E+03  0.12813014121E+04  0.10042948643E+04 0.  0.
       24    2    3    3    0    0  0.28571792632E+03 -0.23340209881E+03 -0.81366868002E+03  0.89844448931E+03  0.95050020456E+02 0.  0.
      -24    2    3    3    0    0 -0.28571792632E+03  0.23340209881E+03  0.17977072552E+02  0.38285692281E+03  0.10072226693E+03 0.  0.
      -13    1    4    4    0    0  0.13952155353E+03 -0.12477097894E+03 -0.30173010257E+03  0.35507057873E+03  0.00000000000E+00 0.  1.
       14    1    4    4    0    0  0.14619637279E+03 -0.10863111987E+03 -0.51193857745E+03  0.54337391058E+03  0.00000000000E+00 0. -1.
        3    1    5    5  501    0  0.50936546279E+01  0.11666837580E+02  0.11406919565E+02  0.17093221772E+02  0.00000000000E+00 0. -1.
       -4    1    5    5    0  501 -0.29081158094E+03  0.22173526123E+03  0.65701529866E+01  0.36576370104E+03  0.14200000000E+01 0.  1.
</event>
<event>
 9   1  0.7335000E-04  0.9964657E+03  0.7818608E-02  0.9312430E-01
       21   -1    0    0  503  502  0.00000000000E+00  0.00000000000E+00  0.43930058202E+03  0.43930058202E+03  0.00000000000E+00 0. -1.
       21   -1    0    0  502  503 -0.00000000000E+00 -0.00000000000E+00 -0.56507086400E+03  0.56507086400E+03  0.00000000000E+00 0.  1.
       39    2    1    2    0    0  0.00000000000E+00  0.00000000000E+00 -0.12577028198E+03  0.10043714460E+04  0.99646567314E+03 0.  0.
       24    2    3    3    0    0  0.13921359553E+03 -0.34372292830E+03 -0.38828994521E+03  0.54293734490E+03  0.80535720783E+02 0.  0.
      -24    2    3    3    0    0 -0.13921359553E+03  0.34372292830E+03  0.26251966323E+03  0.46143410112E+03  0.80492108180E+02 0.  0.
      -13    1    4    4    0    0  0.79637515066E+02 -0.19175129864E+03 -0.27349890897E+03  0.34338367396E+03  0.00000000000E+00 0.  1.
       14    1    4    4    0    0  0.59576080462E+02 -0.15197162966E+03 -0.11479103623E+03  0.19955367094E+03  0.00000000000E+00 0. -1.
        3    1    5    5  501    0 -0.11483870807E+03  0.33205771649E+03  0.25208756420E+03  0.43243311156E+03  0.00000000000E+00 0. -1.
       -4    1    5    5    0  501 -0.24374887460E+02  0.11665211806E+02  0.10432099026E+02  0.29000989557E+02  0.14200000000E+01 0.  1.
</event>
<event>
 9   1  0.7335000E-04  0.9780802E+03  0.7818608E-02  0.9332918E-01
       -2   -1    0    0    0  501 -0.00000000000E+00  0.00000000000E+00  0.17914009078E+03  0.17914009078E+03  0.00000000000E+00 0.  1.
        2   -1    0    0  501    0  0.00000000000E+00 -0.00000000000E+00 -0.13350456758E+04  0.13350456758E+04  0.00000000000E+00 0. -1.
       39    2    1    2    0    0 -0.28421709430E-13  0.56843418861E-13 -0.11559055850E+04  0.15141857666E+04  0.97808016758E+03 0.  0.
       24    2    3    3    0    0  0.20469802204E+03 -0.23761857416E+03 -0.13518715427E+02  0.32657551328E+03  0.90027458011E+02 0.  0.
      -24    2    3    3    0    0 -0.20469802204E+03  0.23761857416E+03 -0.11423868696E+04  0.11876102533E+04  0.83704760352E+02 0.  0.
      -13    1    4    4    0    0  0.21291829995E+03 -0.21806611300E+03 -0.90977982822E+01  0.30490949809E+03  0.00000000000E+00 0.  1.
       14    1    4    4    0    0 -0.82202779009E+01 -0.19552461154E+02 -0.44209171450E+01  0.21666015193E+02  0.00000000000E+00 0. -1.
        1    1    5    5  502    0 -0.18490320774E+03  0.23299409976E+03 -0.11116708455E+04  0.11507769183E+04  0.00000000000E+00 0. -1.
       -2    1    5    5    0  502 -0.19794814304E+02  0.46244743927E+01 -0.30716024031E+02  0.36833335024E+02  0.00000000000E+00 0.  1.
</event>
<event>
 9   1  0.7335000E-04  0.1000623E+04  0.7818608E-02  0.9307861E-01
       21   -1    0    0  503  502  0.00000000000E+00  0.00000000000E+00  0.88955235212E+03  0.88955235212E+03  0.00000000000E+00 0. -1.
       21   -1    0    0  502  503 -0.00000000000E+00 -0.00000000000E+00 -0.28139066904E+03  0.28139066904E+03  0.00000000000E+00 0.  1.
       39    2    1    2    0    0  0.00000000000E+00  0.00000000000E+00  0.60816168308E+03  0.11709430212E+04  0.10006232688E+04 0.  0.
       24    2    3    3    0    0 -0.25819626758E+03 -0.22892627135E+03 -0.10950695329E+03  0.37041362943E+03  0.78370490234E+02 0.  0.
      -24    2    3    3    0    0  0.25819626758E+03  0.22892627135E+03  0.71766863637E+03  0.80052939174E+03  0.82015151636E+02 0.  0.
      -13    1    4    4    0    0 -0.25342457391E+03 -0.23070012100E+03 -0.11632126827E+03  0.36190772020E+03  0.00000000000E+00 0.  1.
       14    1    4    4    0    0 -0.47716936720E+01  0.17738496490E+01  0.68143149812E+01  0.85059092247E+01  0.00000000000E+00 0. -1.
        1    1    5    5  501    0  0.19121730632E+03  0.20937718785E+03  0.54641054964E+03  0.61560324381E+03  0.00000000000E+00 0. -1.
       -2    1    5    5    0  501  0.66978961259E+02  0.19549083497E+02  0.17125808673E+03  0.18492614792E+03  0.00000000000E+00 0.  1.
</event>
<event>
 9   1  0.7335000E-04  0.1003293E+04  0.7818608E-02  0.9304941E-01
       21   -1    0    0  503  502  0.00000000000E+00  0.00000000000E+00  0.55994622932E+03  0.55994622932E+03  0.00000000000E+00 0.  1.
       21   -1    0    0  502  503 -0.00000000000E+00 -0.00000000000E+00 -0.44941645133E+03  0.44941645133E+03  0.00000000000E+00 0. -1.
       39    2    1    2    0    0  0.00000000000E+00  0.28421709430E-13  0.11052977799E+03  0.10093626807E+04  0.10032926738E+04 0.  0.
       24    2    3    3    0    0  0.31340585573E+03  0.13792803719E+03  0.41559043502E+03  0.54392593992E+03  0.76763562902E+02 0.  0.
      -24    2    3    3    0    0 -0.31340585573E+03 -0.13792803719E+03 -0.30506065703E+03  0.46543674074E+03  0.79510888015E+02 0.  0.
      -13    1    4    4    0    0  0.14192550268E+03  0.36298004666E+02  0.13135332217E+03  0.19675896092E+03  0.00000000000E+00 0.  1.
       14    1    4    4    0    0  0.17148035304E+03  0.10163003253E+03  0.28423711284E+03  0.34716697900E+03  0.00000000000E+00 0. -1.
        3    1    5    5  501    0 -0.22558592821E+03 -0.13117184797E+03 -0.25104918277E+03  0.36210600226E+03  0.00000000000E+00 0. -1.
       -4    1    5    5    0  501 -0.87819927513E+02 -0.67561892215E+01 -0.54011474263E+02  0.10333073847E+03  0.14200000000E+01 0.  1.
</event>
<event>
 9   1  0.7335000E-04  0.9997948E+03  0.7818608E-02  0.9308770E-01
       -1   -1    0    0    0  501 -0.00000000000E+00  0.00000000000E+00  0.12926936633E+03  0.12926936633E+03  0.00000000000E+00 0.  1.
        1   -1    0    0  501    0  0.00000000000E+00 -0.00000000000E+00 -0.19331527034E+04  0.19331527034E+04  0.00000000000E+00 0. -1.
       39    2    1    2    0    0  0.71054273576E-14  0.56843418861E-13 -0.18038833370E+04  0.20624220697E+04  0.99979482893E+03 0.  0.
       24    2    3    3    0    0  0.32121539100E+02 -0.31108844319E+03 -0.11545550843E+03  0.34321911553E+03  0.81618466524E+02 0.  0.
      -24    2    3    3    0    0 -0.32121539100E+02  0.31108844319E+03 -0.16884278286E+04  0.17192029542E+04  0.84038398667E+02 0.  0.
      -13    1    4    4    0    0  0.49293178162E+02 -0.29500992325E+03 -0.10142487275E+03  0.31582855641E+03  0.00000000000E+00 0.  1.
       14    1    4    4    0    0 -0.17171639062E+02 -0.16078519941E+02 -0.14030635680E+02  0.27390559124E+02  0.00000000000E+00 0. -1.
        3    1    5    5  502    0 -0.22655480947E+02  0.27298137534E+03 -0.15863284197E+04  0.16098043227E+04  0.00000000000E+00 0. -1.
       -4    1    5    5    0  502 -0.94660581527E+01  0.38107067856E+02 -0.10209940889E+03  0.10939863149E+03  0.14200000000E+01 0.  1.
</event>
<event>
 9   1  0.7335000E-04  0.1007277E+04  0.7818608E-02  0.9300599E-01
       21   -1    0    0  503  502  0.00000000000E+00  0.00000000000E+00  0.12350780411E+04  0.12350780411E+04  0.00000000000E+00 0. -1.
       21   -1    0    0  502  503 -0.00000000000E+00 -0.00000000000E+00 -0.20537312309E+03  0.20537312309E+03  0.00000000000E+00 0.  1.
       39    2    1    2    0    0  0.00000000000E+00  0.28421709430E-13  0.10297049181E+04  0.14404511642E+04  0.10072771904E+04 0.  0.
       24    2    3    3    0    0 -0.10802806312E+03  0.18461731060E+03  0.11569360359E+04  0.11791119276E+04  0.77783885259E+02 0.  0.
      -24    2    3    3    0    0  0.10802806312E+03 -0.18461731060E+03 -0.12723111784E+03  0.26133923665E+03  0.79729702560E+02 0.  0.
      -13    1    4    4    0    0  0.12358558871E+02  0.15532750858E+02  0.88093681722E+02  0.90302254047E+02  0.00000000000E+00 0.  1.
       14    1    4    4    0    0 -0.12038662199E+03  0.16908455975E+03  0.10688423542E+04  0.10888096735E+04  0.00000000000E+00 0. -1.
        1    1    5    5  501    0  0.30719404517E+02 -0.47812113478E+01 -0.28163507719E+02  0.41949075829E+02  0.00000000000E+00 0. -1.
       -2    1    5    5    0  501  0.77308658606E+02 -0.17983609926E+03 -0.99067610123E+02  0.21939016082E+03  0.00000000000E+00 0.  1.
</event>
<event>
 9   1  0.7335000E-04  0.1001284E+04  0.7818608E-02  0.9307138E-01
        1   -1    0    0  501    0  0.00000000000E+00  0.00000000000E+00  0.78693166233E+03  0.78693166233E+03  0.00000000000E+00 0. -1.
       -1   -1    0    0    0  501 -0.00000000000E+00 -0.00000000000E+00 -0.31850565782E+03  0.31850565782E+03  0.00000000000E+00 0.  1.
       39    2    1    2    0    0  0.00000000000E+00 -0.56843418861E-13  0.46842600451E+03  0.11054373202E+04  0.10012835498E+04 0.  0.
       24    2    3    3    0    0 -0.73837675478E+02 -0.40792015204E+03  0.53166122866E+03  0.67880059341E+03  0.79093177959E+02 0.  0.
      -24    2    3    3    0    0  0.73837675478E+02  0.40792015204E+03 -0.63235224151E+02  0.42663672674E+03  0.78545211661E+02 0.  0.
      -13    1    4    4    0    0 -0.55629020776E+01  0.20616433773E+01  0.11880052371E+02  0.13279002119E+02  0.00000000000E+00 0.  1.
       14    1    4    4    0    0 -0.68274773400E+02 -0.40998179541E+03  0.51978117629E+03  0.66552159129E+03  0.00000000000E+00 0. -1.
        1    1    5    5  502    0  0.46159650724E+02  0.82558962264E+02 -0.25244565629E+02  0.97897822748E+02  0.00000000000E+00 0. -1.
       -2    1    5    5    0  502  0.27678024754E+02  0.32536118977E+03 -0.37990658522E+02  0.32873890399E+03  0.00000000000E+00 0.  1.
</event>
<event>
 9   1  0.7335000E-04  0.1005680E+04  0.7818608E-02  0.9302336E-01
       -1   -1    0    0    0  501 -0.00000000000E+00  0.00000000000E+00  0.26604735934E+03  0.26604735934E+03  0.00000000000E+00 0.  1.
        1   -1    0    0  501    0  0.00000000000E+00 -0.00000000000E+00 -0.95038822753E+03  0.95038822753E+03  0.00000000000E+00 0. -1.
       39    2    1    2    0    0  0.00000000000E+00  0.00000000000E+00 -0.68434086820E+03  0.12164355869E+04  0.10056804230E+04 0.  0.
       24    2    3    3    0    0 -0.46492793178E+03  0.15943322065E+03 -0.26943866827E+03  0.56652757635E+03  0.82336900600E+02 0.  0.
      -24    2    3    3    0    0  0.46492793178E+03 -0.15943322065E+03 -0.41490219992E+03  0.64990801052E+03  0.93057256766E+02 0.  0.
      -13    1    4    4    0    0 -0.42110841442E+03  0.13365988699E+03 -0.26570284126E+03  0.51555335509E+03  0.00000000000E+00 0.  1.
       14    1    4    4    0    0 -0.43819517361E+02  0.25773333658E+02 -0.37358270160E+01  0.50974221260E+02  0.00000000000E+00 0. -1.
        3    1    5    5  502    0  0.36864151906E+03 -0.87590263628E+02 -0.33366370315E+03  0.50487631224E+03  0.00000000000E+00 0. -1.
       -4    1    5    5    0  502  0.96286412722E+02 -0.71842957023E+02 -0.81238496771E+02  0.14503169828E+03  0.14200000000E+01 0.  1.
</event>
<event>
 9   1  0.7335000E-04  0.1000549E+04  0.7818608E-02  0.9307943E-01
       21   -1    0    0  503  502  0.00000000000E+00  0.00000000000E+00  0.43174382217E+03  0.43174382217E+03  0.00000000000E+00 0. -1.
       21   -1    0    0  502  503 -0.00000000000E+00 -0.00000000000E+00 -0.57968300479E+03  0.57968300479E+03  0.00000000000E+00 0.  1.
       39    2    1    2    0    0  0.00000000000E+00  0.28421709430E-13 -0.14793918262E+03  0.10114268270E+04  0.10005489616E+04 0.  0.
       24    2    3    3    0    0  0.29335840316E+03 -0.18974651009E+03 -0.42589741978E+03  0.55758265312E+03  0.86295492865E+02 0.  0.
      -24    2    3    3    0    0 -0.29335840316E+03  0.18974651009E+03  0.27795823716E+03  0.45384417384E+03  0.81552815564E+02 0.  0.
      -13    1    4    4    0    0  0.20218096153E+03 -0.13385600647E+03 -0.22901838881E+03  0.33353259824E+03  0.00000000000E+00 0.  1.
       14    1    4    4    0    0  0.91177441622E+02 -0.55890503623E+02 -0.19687903097E+03  0.22405005488E+03  0.00000000000E+00 0. -1.
        3    1    5    5  501    0 -0.29576375662E+03  0.18357250749E+03  0.25950633949E+03  0.43418729308E+03  0.00000000000E+00 0. -1.
       -4    1    5    5    0  501  0.24053534663E+01  0.61740026047E+01  0.18451897672E+02  0.19656880758E+02  0.14200000000E+01 0.  1.
</event>
<event>
 9   1  0.7335000E-04  0.1007168E+04  0.7818608E-02  0.9300718E-01
       21   -1    0    0  503  502  0.00000000000E+00  0.00000000000E+00  0.79951500743E+03  0.79951500743E+03  0.00000000000E+00 0.  1.
       21   -1    0    0  502  503 -0.00000000000E+00 -0.00000000000E+00 -0.31718835484E+03  0.31718835484E+03  0.00000000000E+00 0. -1.
       39    2    1    2    0    0  0.00000000000E+00 -0.11368683772E-12  0.48232665259E+03  0.11167033623E+04  0.10071680096E+04 0.  0.
       24    2    3    3    0    0 -0.27189179792E+03  0.34465550180E+03  0.49770386235E+03  0.66877190815E+03  0.82669013767E+02 0.  0.
      -24    2    3    3    0    0  0.27189179792E+03 -0.34465550180E+03 -0.15377209755E+02  0.44793145411E+03  0.87712965436E+02 0.  0.
      -13    1    4    4    0    0 -0.16978506026E+03  0.15411109185E+03  0.28093983043E+03  0.36263533148E+03  0.00000000000E+00 0.  1.
       14    1    4    4    0    0 -0.10210673766E+03  0.19054440995E+03  0.21676403191E+03  0.30613657666E+03  0.00000000000E+00 0. -1.
        1    1    5    5  501    0  0.27843306223E+03 -0.34032129018E+03 -0.13784087395E+02  0.43992448415E+03  0.00000000000E+00 0. -1.
       -2    1    5    5    0  501 -0.65412643070E+01 -0.43342116240E+01 -0.15931223601E+01  0.80069699631E+01  0.00000000000E+00 0.  1.
</event>
<event>
 8   1  0.7335000E-04  0.1922685E+04  0.7818608E-02  0.8643646E-01
       21   -1    0    0  503  502  0.00000000000E+00  0.00000000000E+00  0.10409893659E+04  0.10409893659E+04  0.00000000000E+00 0.  1.
       21   -1    0    0  502  503 -0.00000000000E+00 -0.00000000000E+00 -0.88778967713E+03  0.88778967713E+03  0.00000000000E+00 0. -1.
       24    2    1    2    0    0  0.27088670283E+03 -0.33929592382E+03  0.93318101167E+03  0.10323500797E+04  0.80115895933E+02 0.  0.
      -24    2    1    2    0    0 -0.27088670283E+03  0.33929592382E+03 -0.77998132289E+03  0.89642896338E+03  0.81931023665E+02 0.  0.
      -13    1    3    3    0    0  0.14829000605E+03 -0.22893806028E+03  0.64490383906E+03  0.70021676856E+03  0.00000000000E+00 0.  1.
       14    1    3    3    0    0  0.12259669678E+03 -0.11035786353E+03  0.28827717261E+03  0.33213331112E+03  0.00000000000E+00 0. -1.
        1    1    4    4  501    0 -0.26208006166E+03  0.33673030046E+03 -0.72956832691E+03  0.84518826163E+03  0.00000000000E+00 0. -1.
       -2    1    4    4    0  501 -0.88066411693E+01  0.25656233539E+01 -0.50412995979E+02  0.51240701747E+02  0.00000000000E+00 0.  1.
</event>
<event>
 9   1  0.7335000E-04  0.1016973E+04  0.7818608E-02  0.9290123E-01
       21   -1    0    0  503  502  0.00000000000E+00  0.00000000000E+00  0.29895634332E+03  0.29895634332E+03  0.00000000000E+00 0. -1.
       21   -1    0    0  502  503 -0.00000000000E+00 -0.00000000000E+00 -0.86487005735E+03  0.86487005735E+03  0.00000000000E+00 0.  1.
       39    2    1    2    0    0 -0.56843418861E-13  0.14210854715E-13 -0.56591371403E+03  0.11638264007E+04  0.10169727426E+04 0.  0.
       24    2    3    3    0    0  0.36636105195E+03 -0.10243633037E+03 -0.65717603997E+03  0.76348604205E+03  0.79479347867E+02 0.  0.
      -24    2    3    3    0    0 -0.36636105195E+03  0.10243633037E+03  0.91262325938E+02  0.40034035861E+03  0.85029221070E+02 0.  0.
      -13    1    4    4    0    0  0.27017655085E+03 -0.10476060517E+03 -0.52964065501E+03  0.60372955573E+03  0.00000000000E+00 0.  1.
       14    1    4    4    0    0  0.96184501103E+02  0.23242748038E+01 -0.12753538496E+03  0.15975648632E+03  0.00000000000E+00 0. -1.
        3    1    5    5  501    0 -0.26528019762E+03  0.33524572588E+02  0.59221255690E+02  0.27386974521E+03  0.00000000000E+00 0. -1.
       -4    1    5    5    0  501 -0.10108085433E+03  0.68911757780E+02  0.32041070248E+02  0.12647061341E+03  0.14200000000E+01 0.  1.
</event>
<event>
 9   1  0.7335000E-04  0.9683346E+03  0.7818608E-02  0.9343973E-01
       21   -1    0    0  503  502  0.00000000000E+00  0.00000000000E+00  0.11572021886E+04  0.11572021886E+04  0.00000000000E+00 0.  1.
       21   -1    0    0  502  503 -0.00000000000E+00 -0.00000000000E+00 -0.20257305412E+03  0.20257305412E+03  0.00000000000E+00 0. -1.
       39    2    1    2    0    0  0.00000000000E+00  0.00000000000E+00  0.95462913451E+03  0.13597752427E+04  0.96833461485E+03 0.  0.
       24    2    3    3    0    0  0.55901391571E+02 -0.19633044548E+03 -0.12861750193E+03  0.25446674687E+03  0.80871837235E+02 0.  0.
      -24    2    3    3    0    0 -0.55901391571E+02  0.19633044548E+03  0.10832466364E+04  0.11053084959E+04  0.81320269703E+02 0.  0.
      -13    1    4    4    0    0  0.30020444528E+02 -0.12705965304E+02 -0.30627204672E+02  0.44729121498E+02  0.00000000000E+00 0.  1.
       14    1    4    4    0    0  0.25880947042E+02 -0.18362448018E+03 -0.97990297262E+02  0.20973762538E+03  0.00000000000E+00 0. -1.
        3    1    5    5  501    0 -0.26239436392E+01 -0.67561328281E+01  0.15459714563E+02  0.17074342897E+02  0.00000000000E+00 0. -1.
       -4    1    5    5    0  501 -0.53277447931E+02  0.20308657831E+03  0.10677869219E+04  0.10882341530E+04  0.14200000000E+01 0.  1.
</event>
<event>
 9   1  0.7335000E-04  0.1003519E+04  0.7818608E-02  0.9304694E-01
       21   -1    0    0  503  502  0.00000000000E+00  0.00000000000E+00  0.51148588516E+03  0.51148588516E+03  0.00000000000E+00 0.  1.
       21   -1    0    0  502  503 -0.00000000000E+00 -0.00000000000E+00 -0.49221778829E+03  0.49221778829E+03  0.00000000000E+00 0. -1.
       39    2    1    2    0    0  0.00000000000E+00  0.00000000000E+00  0.19268096874E+02  0.10037036735E+04  0.10035187116E+04 0.  0.
       24    2    3    3    0    0  0.35991330509E+03 -0.17581667924E+03  0.29952392993E+03  0.50820164180E+03  0.90029063356E+02 0.  0.
      -24    2    3    3    0    0 -0.35991330509E+03  0.17581667924E+03 -0.28025583305E+03  0.49550203165E+03  0.80807422470E+02 0.  0.
      -13    1    4    4    0    0  0.35371371089E+03 -0.17699338179E+03  0.27215063865E+03  0.48011042125E+03  0.00000000000E+00 0.  1.
       14    1    4    4    0    0  0.61995941999E+01  0.11767025457E+01  0.27373291274E+02  0.28091220555E+02  0.00000000000E+00 0. -1.
        1    1    5    5  501    0 -0.26292850342E+03  0.98586723461E+02 -0.22472659899E+03  0.35965648089E+03  0.00000000000E+00 0. -1.
       -2    1    5    5    0  501 -0.96984801674E+02  0.77229955780E+02 -0.55529234065E+02  0.13584555076E+03  0.00000000000E+00 0.  1.
</event>
<event>
 9   1  0.7335000E-04  0.9998493E+03  0.7818608E-02  0.9308710E-01
       21   -1    0    0  503  502  0.00000000000E+00  0.00000000000E+00  0.80450906328E+03  0.80450906328E+03  0.00000000000E+00 0. -1.
       21   -1    0    0  502  503 -0.00000000000E+00 -0.00000000000E+00 -0.31065483955E+03  0.31065483955E+03  0.00000000000E+00 0.  1.
       39    2    1    2    0    0  0.00000000000E+00  0.00000000000E+00  0.49385422373E+03  0.11151639028E+04  0.99984925658E+03 0.  0.
       24    2    3    3    0    0  0.34601214372E+03 -0.24721721405E+03  0.52661562746E+03  0.68201329520E+03  0.83530600490E+02 0.  0.
      -24    2    3    3    0    0 -0.34601214372E+03  0.24721721405E+03 -0.32761403731E+02  0.43315060763E+03  0.75533997585E+02 0.  0.
      -13    1    4    4    0    0  0.31615194401E+02 -0.28727707406E+02  0.20455185580E+02  0.47362604520E+02  0.00000000000E+00 0.  1.
       14    1    4    4    0    0  0.31439694932E+03 -0.21848950664E+03  0.50616044188E+03  0.63465069068E+03  0.00000000000E+00 0. -1.
        1    1    5    5  501    0 -0.19498209242E+03  0.11103272635E+03 -0.47148443487E+02  0.22927986917E+03  0.00000000000E+00 0. -1.
       -2    1    5    5    0  501 -0.15103005130E+03  0.13618448770E+03  0.14387039757E+02  0.20387073846E+03  0.00000000000E+00 0.  1.
</event>
<event>
 8   1  0.7335000E-04  0.7965231E+03  0.7818608E-02  0.9565063E-01
       21   -1    0    0  503  502  0.00000000000E+00  0.00000000000E+00  0.22272892117E+03  0.22272892117E+03  0.00000000000E+00 0.  1.
       21   -1    0    0  502  503 -0.00000000000E+00 -0.00000000000E+00 -0.71213135934E+03  0.71213135934E+03  0.00000000000E+00 0. -1.
       24    2    1    2    0    0  0.16914720745E+03 -0.12554800057E+03 -0.62982915984E+03  0.66908463141E+03  0.81341226712E+02 0.  0.
      -24    2    1    2    0    0 -0.16914720745E+03  0.12554800057E+03  0.14042672167E+03  0.26577564910E+03  0.80894704755E+02 0.  0.
      -13    1    3    3    0    0  0.50902901849E+01  0.90316336260E+01 -0.12140703791E+02  0.15964903654E+02  0.00000000000E+00 0.  1.
       14    1    3    3    0    0  0.16405691727E+03 -0.13457963419E+03 -0.61768845605E+03  0.65311972775E+03  0.00000000000E+00 0. -1.
        1    1    4    4  501    0 -0.80741421524E+02  0.97216235511E+02  0.49179579791E+02  0.13560532683E+03  0.00000000000E+00 0. -1.
       -2    1    4    4    0  501 -0.88405785931E+02  0.28331765056E+02  0.91247141882E+02  0.13017032227E+03  0.00000000000E+00 0.  1.
</event>
<event>
 9   1  0.7335000E-04  0.1030033E+04  0.7818608E-02  0.9276204E-01
       21   -1    0    0  503  502  0.00000000000E+00  0.00000000000E+00  0.33733218258E+03  0.33733218258E+03  0.00000000000E+00 0. -1.
       21   -1    0    0  502  503 -0.00000000000E+00 -0.00000000000E+00 -0.78629390255E+03  0.78629390255E+03  0.00000000000E+00 0.  1.
       39    2    1    2    0    0  0.00000000000E+00  0.00000000000E+00 -0.44896171997E+03  0.11236260851E+04  0.10300334719E+04 0.  0.
       24    2    3    3    0    0  0.14610713243E+03 -0.20421402517E+03  0.25826279023E+03  0.36893475680E+03  0.79765429458E+02 0.  0.
      -24    2    3    3    0    0 -0.14610713243E+03  0.20421402517E+03 -0.70722451020E+03  0.75469132833E+03  0.79635613952E+02 0.  0.
      -13    1    4    4    0    0 -0.93002137220E+01 -0.21513238008E+02  0.26906773770E+02  0.35683159327E+02  0.00000000000E+00 0.  1.
       14    1    4    4    0    0  0.15540734615E+03 -0.18270078716E+03  0.23135601646E+03  0.33325159747E+03  0.00000000000E+00 0. -1.
        1    1    5    5  501    0 -0.52611442373E+01  0.51146677924E+02 -0.19928177395E+03  0.20580789035E+03  0.00000000000E+00 0. -1.
       -2    1    5    5    0  501 -0.14084598820E+03  0.15306734724E+03 -0.50794273625E+03  0.54888343798E+03  0.00000000000E+00 0.  1.
</event>
<event>
 9   1  0.7335000E-04  0.9987296E+03  0.7818608E-02  0.9309939E-01
       21   -1    0    0  503  502  0.00000000000E+00  0.00000000000E+00  0.17658377613E+03  0.17658377613E+03  0.00000000000E+00 0.  1.
       21   -1    0    0  502  503 -0.00000000000E+00 -0.00000000000E+00 -0.14121636583E+04  0.14121636583E+04  0.00000000000E+00 0. -1.
       39    2    1    2    0    0  0.28421709430E-13  0.56843418861E-13 -0.12355798822E+04  0.15887474345E+04  0.99872957562E+03 0.  0.
       24    2    3    3    0    0 -0.22159555821E+03 -0.39792266392E+03 -0.32224181462E+03  0.56510283907E+03  0.89746274343E+02 0.  0.
      -24    2    3    3    0    0  0.22159555821E+03  0.39792266392E+03 -0.91333806760E+03  0.10236445954E+04  0.78833965352E+02 0.  0.
      -13    1    4    4    0    0 -0.17814524346E+03 -0.37198375844E+03 -0.27379518681E+03  0.49504691559E+03  0.00000000000E+00 0.  1.
       14    1    4    4    0    0 -0.43450314750E+02 -0.25938905480E+02 -0.48446627809E+02  0.70055923486E+02  0.00000000000E+00 0. -1.
        1    1    5    5  501    0  0.15704219785E+03  0.25315845158E+03 -0.66985040370E+03  0.73311050794E+03  0.00000000000E+00 0. -1.
       -2    1    5    5    0  501  0.64553360365E+02  0.14476421234E+03 -0.24348766390E+03  0.29053408747E+03  0.00000000000E+00 0.  1.
</event>
<event>
 9   1  0.7335000E-04  0.1000483E+04  0.7818608E-02  0.9308016E-01
        2   -1    0    0  501    0  0.00000000000E+00  0.00000000000E+00  0.16095550375E+04  0.16095550375E+04  0.00000000000E+00 0. -1.
       -2   -1    0    0    0  501 -0.00000000000E+00 -0.00000000000E+00 -0.15547238355E+03  0.15547238355E+03  0.00000000000E+00 0.  1.
       39    2    1    2    0    0  0.00000000000E+00  0.00000000000E+00  0.14540826539E+04  0.17650274210E+04  0.10004825998E+04 0.  0.
       24    2    3    3    0    0 -0.30332083204E+03 -0.13297922693E+03  0.13738993641E+04  0.14154595228E+04  0.78988581401E+02 0.  0.
      -24    2    3    3    0    0  0.30332083204E+03  0.13297922693E+03  0.80183289811E+02  0.34956789824E+03  0.77983033873E+02 0.  0.
      -13    1    4    4    0    0 -0.32732618319E+02  0.14649578851E+01  0.23027568225E+03  0.23259505635E+03  0.00000000000E+00 0.  1.
       14    1    4    4    0    0 -0.27058821372E+03 -0.13444418481E+03  0.11436236819E+04  0.11828644664E+04  0.00000000000E+00 0. -1.
        1    1    5    5  502    0  0.20974867956E+03  0.56301345902E+02  0.69944757617E+02  0.22815919715E+03  0.00000000000E+00 0. -1.
       -2    1    5    5    0  502  0.93572152479E+02  0.76677881025E+02  0.10238532194E+02  0.12140870109E+03  0.00000000000E+00 0.  1.
</event>
<event>
 9   1  0.7335000E-04  0.1000004E+04  0.7818608E-02  0.9308541E-01
       21   -1    0    0  503  502  0.00000000000E+00  0.00000000000E+00  0.14931943937E+04  0.14931943937E+04  0.00000000000E+00 0. -1.
       21   -1    0    0  502  503 -0.00000000000E+00 -0.00000000000E+00 -0.16742753894E+03  0.16742753894E+03  0.00000000000E+00 0.  1.
       39    2    1    2    0    0 -0.11368683772E-12  0.14210854715E-13  0.13257668547E+04  0.16606219326E+04  0.10000037250E+04 0.  0.
       24    2    3    3    0    0  0.31177666478E+03 -0.12792598407E+03  0.12621196294E+04  0.13087066673E+04  0.78723796318E+02 0.  0.
      -24    2    3    3    0    0 -0.31177666478E+03  0.12792598407E+03  0.63647225321E+02  0.35191526526E+03  0.78890040739E+02 0.  0.
      -13    1    4    4    0    0  0.13177722500E+03 -0.96533896788E+02  0.59931170356E+03  0.62117513495E+03  0.00000000000E+00 0.  1.
       14    1    4    4    0    0  0.17999943978E+03 -0.31392087287E+02  0.66280792585E+03  0.68753153240E+03  0.00000000000E+00 0. -1.
        1    1    5    5  501    0 -0.85697351487E+02  0.18568026777E+02 -0.14546674106E+02  0.88884269687E+02  0.00000000000E+00 0. -1.
       -2    1    5    5    0  501 -0.22607931329E+03  0.10935795730E+03  0.78193899428E+02  0.26303099557E+03  0.00000000000E+00 0.  1.
</event>
<event>
 9   1  0.7335000E-04  0.9976409E+03  0.7818608E-02  0.9311136E-01
       21   -1    0    0  503  502  0.00000000000E+00  0.00000000000E+00  0.18844104057E+03  0.18844104057E+03  0.00000000000E+00 0.  1.
       21   -1    0    0  502  503 -0.00000000000E+00 -0.00000000000E+00 -0.13204227247E+04  0.13204227247E+04  0.00000000000E+00 0. -1.
       39    2    1    2    0    0  0.00000000000E+00  0.35527136788E-14 -0.11319816841E+04  0.15088637653E+04  0.99764088175E+03 0.  0.
       24    2    3    3    0    0 -0.34869282539E+03 -0.19374041335E+02 -0.10908435237E+04  0.11479379568E+04  0.76550110828E+02 0.  0.
      -24    2    3    3    0    0  0.34869282539E+03  0.19374041335E+02 -0.41138160429E+02  0.36092580849E+03  0.81320667952E+02 0.  0.
      -13    1    4    4    0    0 -0.10887839199E+03 -0.64146589484E+01 -0.46439077820E+03  0.47702667323E+03  0.00000000000E+00 0.  1.
       14    1    4    4    0    0 -0.23981443340E+03 -0.12959382387E+02 -0.62645274548E+03  0.67091128354E+03  0.00000000000E+00 0. -1.
        1    1    5    5  501    0  0.22471122659E+03  0.15348721818E+02  0.12934389331E+02  0.22560588876E+03  0.00000000000E+00 0. -1.
       -2    1    5    5    0  501  0.12398159880E+03  0.40253195174E+01 -0.54072549759E+02  0.13531991973E+03  0.00000000000E+00 0.  1.
</event>
<event>
 9   1  0.7335000E-04  0.9964248E+03  0.7818608E-02  0.9312475E-01
       21   -1    0    0  503  502  0.00000000000E+00  0.00000000000E+00  0.40260052042E+03  0.40260052042E+03  0.00000000000E+00 0. -1.
       21   -1    0    0  502  503 -0.00000000000E+00 -0.00000000000E+00 -0.61653072731E+03  0.61653072731E+03  0.00000000000E+00 0.  1.
       39    2    1    2    0    0  0.00000000000E+00 -0.28421709430E-13 -0.21393020688E+03  0.10191312477E+04  0.99642479229E+03 0.  0.
       24    2    3    3    0    0  0.45476605866E+03 -0.14870840439E+03  0.87469946705E+01  0.48531908480E+03  0.80819221146E+02 0.  0.
      -24    2    3    3    0    0 -0.45476605866E+03  0.14870840439E+03 -0.22267720155E+03  0.53381216293E+03  0.80274102644E+02 0.  0.
      -13    1    4    4    0    0  0.13242363297E+03 -0.57593920978E+02  0.37259771364E+02  0.14913540447E+03  0.00000000000E+00 0.  1.
       14    1    4    4    0    0  0.32234242569E+03 -0.91114483410E+02 -0.28512776693E+02  0.33618368033E+03  0.00000000000E+00 0. -1.
        1    1    5    5  501    0 -0.31233495816E+02  0.83689528470E+01 -0.40623738739E+02  0.51921660044E+02  0.00000000000E+00 0. -1.
       -2    1    5    5    0  501 -0.42353256285E+03  0.14033945154E+03 -0.18205346281E+03  0.48189050289E+03  0.00000000000E+00 0.  1.
</event>
<event>
 9   1  0.7335000E-04  0.1001045E+04  0.7818608E-02  0.9307400E-01
       -2   -1    0    0    0  501 -0.00000000000E+00  0.00000000000E+00  0.80047417810E+03  0.80047417810E+03  0.00000000000E+00 0. -1.
        2   -1    0    0  501    0  0.00000000000E+00 -0.00000000000E+00 -0.31296789051E+03  0.31296789051E+03  0.00000000000E+00 0.  1.
       39    2    1    2    0    0  0.00000000000E+00 -0.35527136788E-14  0.48750628759E+03  0.11134420686E+04  0.10010448840E+04 0.  0.
       24    2    3    3    0    0  0.49105621323E+03 -0.21332456272E+02  0.18845434561E+03  0.53251979553E+03  0.80442613195E+02 0.  0.
      -24    2    3    3    0    0 -0.49105621323E+03  0.21332456272E+02  0.29905194198E+03  0.58092227308E+03  0.80295361756E+02 0.  0.
      -13    1    4    4    0    0  0.40721864468E+03 -0.90090356034E+01  0.12312126685E+03  0.42551972181E+03  0.00000000000E+00 0.  1.
       14    1    4    4    0    0  0.83837568540E+02 -0.12323420669E+02  0.65333078761E+02  0.10700007372E+03  0.00000000000E+00 0. -1.
        1    1    5    5  502    0 -0.44478675167E+03  0.70698781757E+01  0.24311836102E+03  0.50694356205E+03  0.00000000000E+00 0. -1.
       -2    1    5    5    0  502 -0.46269461555E+02  0.14262578096E+02  0.55933580959E+02  0.73978711028E+02  0.00000000000E+00 0.  1.
</event>
<event>
 9   1  0.7335000E-04  0.9940641E+03  0.7818608E-02  0.9315079E-01
       21   -1    0    0  503  502  0.00000000000E+00  0.00000000000E+00  0.44260795144E+03  0.44260795144E+03  0.00000000000E+00 0. -1.
       21   -1    0    0  502  503 -0.00000000000E+00 -0.00000000000E+00 -0.55814823076E+03  0.55814823076E+03  0.00000000000E+00 0.  1.
       39    2    1    2    0    0 -0.14210854715E-13  0.00000000000E+00 -0.11554027932E+03  0.10007561822E+04  0.99406407241E+03 0.  0.
       24    2    3    3    0    0 -0.88862302813E+02  0.28588429677E+03  0.33376417503E+03  0.45515274870E+03  0.78352792682E+02 0.  0.
      -24    2    3    3    0    0  0.88862302813E+02 -0.28588429677E+03 -0.44930445435E+03  0.54560343349E+03  0.78627437578E+02 0.  0.
      -13    1    4    4    0    0 -0.51805852327E+02  0.20660698018E+03  0.18294139265E+03  0.28078077523E+03  0.00000000000E+00 0.  1.
       14    1    4    4    0    0 -0.37056450486E+02  0.79277316584E+02  0.15082278238E+03  0.17437197348E+03  0.00000000000E+00 0. -1.
        1    1    5    5  501    0  0.21752019079E+02 -0.86663928729E+01 -0.46203383942E+02  0.51797773959E+02  0.00000000000E+00 0. -1.
       -2    1    5    5    0  501  0.67110283734E+02 -0.27721790389E+03 -0.40310107041E+03  0.49380565953E+03  0.00000000000E+00 0.  1.
</event>
<event>
 9   1  0.7335000E-04  0.1003193E+04  0.7818608E-02  0.9305050E-01
       21   -1    0    0  503  502  0.00000000000E+00  0.00000000000E+00  0.24399517330E+03  0.24399517330E+03  0.00000000000E+00 0. -1.
       21   -1    0    0  502  503 -0.00000000000E+00 -0.00000000000E+00 -0.10311633718E+04  0.10311633718E+04  0.00000000000E+00 0.  1.
       39    2    1    2    0    0  0.00000000000E+00  0.14210854715E-13 -0.78716819845E+03  0.12751585450E+04  0.10031926746E+04 0.  0.
       24    2    3    3    0    0 -0.48215679652E+03  0.90475726106E+02 -0.30756003643E+03  0.58448087705E+03  0.79772715825E+02 0.  0.
      -24    2    3    3    0    0  0.48215679652E+03 -0.90475726106E+02 -0.47960816202E+03  0.69067766800E+03  0.79690768255E+02 0.  0.
      -13    1    4    4    0    0 -0.15840346625E+03  0.38143096837E+02 -0.60192331360E+02  0.17369418733E+03  0.00000000000E+00 0.  1.
       14    1    4    4    0    0 -0.32375333027E+03  0.52332629269E+02 -0.24736770507E+03  0.41078668973E+03  0.00000000000E+00 0. -1.
        3    1    5    5  501    0  0.23522638842E+02  0.11856404182E+02 -0.34638339895E+02  0.43516703102E+02  0.00000000000E+00 0. -1.
       -4    1    5    5    0  501  0.45863415767E+03 -0.10233213029E+03 -0.44496982213E+03  0.64716096489E+03  0.14200000000E+01 0.  1.
</event>
<event>
 9   1  0.7335000E-04  0.9998481E+03  0.7818608E-02  0.9308711E-01
       21   -1    0    0  503  502  0.00000000000E+00  0.00000000000E+00  0.70741669347E+03  0.70741669347E+03  0.00000000000E+00 0. -1.
       21   -1    0    0  502  503 -0.00000000000E+00 -0.00000000000E+00 -0.35329115972E+03  0.35329115972E+03  0.00000000000E+00 0.  1.
       39    2    1    2    0    0  0.28421709430E-13  0.00000000000E+00  0.35412553375E+03  0.10607078532E+04  0.99984811655E+03 0.  0.
       24    2    3    3    0    0 -0.19427068769E+03 -0.27781124947E+03  0.55694782319E+03  0.65698639050E+03  0.80746821115E+02 0.  0.
      -24    2    3    3    0    0  0.19427068769E+03  0.27781124947E+03 -0.20282228944E+03  0.40372146269E+03  0.83270330341E+02 0.  0.
      -13    1    4    4    0    0 -0.34702626000E+01 -0.48604661356E+02  0.58534900821E+02  0.76162920389E+02  0.00000000000E+00 0.  1.
       14    1    4    4    0    0 -0.19080042509E+03 -0.22920658812E+03  0.49841292236E+03  0.58082347011E+03  0.00000000000E+00 0. -1.
        1    1    5    5  501    0 -0.16466216168E+01  0.87596261948E+01  0.60604180201E+01  0.10778268896E+02  0.00000000000E+00 0. -1.
       -2    1    5    5    0  501  0.19591730930E+03  0.26905162328E+03 -0.20888270746E+03  0.39294319379E+03  0.00000000000E+00 0.  1.
</event>
<event>
 9   1  0.7335000E-04  0.1018474E+04  0.7818608E-02  0.9288512E-01
        2   -1    0    0  501    0  0.00000000000E+00  0.00000000000E+00  0.16420027454E+04  0.16420027454E+04  0.00000000000E+00 0.  1.
       -2   -1    0    0    0  501 -0.00000000000E+00 -0.00000000000E+00 -0.15793045270E+03  0.15793045270E+03  0.00000000000E+00 0. -1.
       39    2    1    2    0    0  0.14210854715E-13  0.00000000000E+00  0.14840722927E+04  0.17999331981E+04  0.10184738326E+04 0.  0.
       24    2    3    3    0    0  0.98211689949E+02 -0.35742707065E+03  0.14187591127E+03  0.40516702702E+03  0.81436470402E+02 0.  0.
      -24    2    3    3    0    0 -0.98211689949E+02  0.35742707065E+03  0.13421963815E+04  0.13947661711E+04  0.80510240189E+02 0.  0.
      -13    1    4    4    0    0 -0.52638336698E+00  0.29766691079E+01 -0.31142977864E+01  0.43401024331E+01  0.00000000000E+00 0.  1.
       14    1    4    4    0    0  0.98738073316E+02 -0.36040373976E+03  0.14499020906E+03  0.40082692459E+03  0.00000000000E+00 0. -1.
        3    1    5    5  502    0 -0.45196256444E+02  0.18306944504E+03  0.53519023180E+03  0.56743784463E+03  0.00000000000E+00 0. -1.
       -4    1    5    5    0  502 -0.53015433505E+02  0.17435762561E+03  0.80700614967E+03  0.82732832648E+03  0.14200000000E+01 0.  1.
</event>
<event>
 9   1  0.7335000E-04  0.9733868E+03  0.7818608E-02  0.9338225E-01
       -2   -1    0    0    0  501 -0.00000000000E+00  0.00000000000E+00  0.37122007890E+03  0.37122007890E+03  0.00000000000E+00 0.  1.
        2   -1    0    0  501    0  0.00000000000E+00 -0.00000000000E+00 -0.63808640657E+03  0.63808640657E+03  0.00000000000E+00 0. -1.
       39    2    1    2    0    0  0.00000000000E+00  0.00000000000E+00 -0.26686632767E+03  0.10093064855E+04  0.97338684230E+03 0.  0.
       24    2    3    3    0    0  0.11595438829E+03 -0.46583052303E+03 -0.14286983346E+03  0.50710859918E+03  0.79396761259E+02 0.  0.
      -24    2    3    3    0    0 -0.11595438829E+03  0.46583052303E+03 -0.12399649421E+03  0.50219788629E+03  0.79900501012E+02 0.  0.
      -13    1    4    4    0    0  0.12219476403E+03 -0.46372854773E+03 -0.14329809825E+03  0.50050981139E+03  0.00000000000E+00 0.  1.
       14    1    4    4    0    0 -0.62403757406E+01 -0.21019753035E+01  0.42826479593E+00  0.65987877899E+01  0.00000000000E+00 0. -1.
        3    1    5    5  502    0 -0.90377287085E+02  0.38132536555E+03 -0.13202605015E+03  0.41353109478E+03  0.00000000000E+00 0. -1.
       -4    1    5    5    0  502 -0.25577101208E+02  0.84505157481E+02  0.80295559402E+01  0.88666791505E+02  0.14200000000E+01 0.  1.
</event>
<event>
 9   1  0.7335000E-04  0.1034279E+04  0.7818608E-02  0.9271728E-01
       21   -1    0    0  503  502  0.00000000000E+00  0.00000000000E+00  0.14880777169E+04  0.14880777169E+04  0.00000000000E+00 0.  1.
       21   -1    0    0  502  503 -0.00000000000E+00 -0.00000000000E+00 -0.17971712226E+03  0.17971712226E+03  0.00000000000E+00 0. -1.
       39    2    1    2    0    0  0.56843418861E-13  0.00000000000E+00  0.13083605946E+04  0.16677948392E+04  0.10342785795E+04 0.  0.
       24    2    3    3    0    0 -0.50684336745E+03  0.13719618878E+02  0.75479318428E+03  0.91283092187E+03  0.80430801406E+02 0.  0.
      -24    2    3    3    0    0  0.50684336745E+03 -0.13719618878E+02  0.55356741036E+03  0.75496391729E+03  0.80344331010E+02 0.  0.
      -13    1    4    4    0    0 -0.23067560071E+03  0.44871253233E+02  0.36491936919E+03  0.43404009969E+03  0.00000000000E+00 0.  1.
       14    1    4    4    0    0 -0.27616776675E+03 -0.31151634355E+02  0.38987381509E+03  0.47879082218E+03  0.00000000000E+00 0. -1.
        3    1    5    5  501    0  0.22482016445E+03  0.32882775264E+02  0.23254061268E+03  0.32511616355E+03  0.00000000000E+00 0. -1.
       -4    1    5    5    0  501  0.28202320300E+03 -0.46602394142E+02  0.32102679769E+03  0.42984775375E+03  0.14200000000E+01 0.  1.
</event>
<event>
 9   1  0.7335000E-04  0.1001272E+04  0.7818608E-02  0.9307151E-01
        1   -1    0    0  501    0  0.00000000000E+00  0.00000000000E+00  0.18761510690E+03  0.18761510690E+03  0.00000000000E+00 0.  1.
       -1   -1    0    0    0  501 -0.00000000000E+00 -0.00000000000E+00 -0.13359069610E+04  0.13359069610E+04  0.00000000000E+00 0. -1.
       39    2    1    2    0    0  0.00000000000E+00  0.00000000000E+00 -0.11482918541E+04  0.15235220679E+04  0.10012718458E+04 0.  0.
       24    2    3    3    0    0  0.13369410422E+02 -0.22514794254E+03  0.95168062595E+02  0.25711477379E+03  0.78617489144E+02 0.  0.
      -24    2    3    3    0    0 -0.13369410422E+02  0.22514794254E+03 -0.12434599167E+04  0.12664072941E+04  0.82003249738E+02 0.  0.
      -13    1    4    4    0    0 -0.25820231297E+02 -0.63410173207E+02  0.49683184211E+02  0.84592867333E+02  0.00000000000E+00 0.  1.
       14    1    4    4    0    0  0.39189641718E+02 -0.16173776933E+03  0.45484878384E+02  0.17252190646E+03  0.00000000000E+00 0. -1.
        3    1    5    5  502    0  0.32755819437E+02  0.93013446583E+02 -0.58289221548E+03  0.59117491474E+03  0.00000000000E+00 0. -1.
       -4    1    5    5    0  502 -0.46125229859E+02  0.13213449595E+03 -0.66056770120E+03  0.67523237935E+03  0.14200000000E+01 0.  1.
</event>
<event>
 9   1  0.7335000E-04  0.1013031E+04  0.7818608E-02  0.9294367E-01
       21   -1    0    0  503  502  0.00000000000E+00  0.00000000000E+00  0.12561472971E+04  0.12561472971E+04  0.00000000000E+00 0.  1.
       21   -1    0    0  502  503 -0.00000000000E+00 -0.00000000000E+00 -0.20424186743E+03  0.20424186743E+03  0.00000000000E+00 0. -1.
       39    2    1    2    0    0  0.00000000000E+00  0.00000000000E+00  0.10519054297E+04  0.14603891646E+04  0.10130308381E+04 0.  0.
       24    2    3    3    0    0  0.35008835498E+03 -0.17487406036E+03  0.77392579654E+02  0.40695165793E+03  0.80481347048E+02 0.  0.
      -24    2    3    3    0    0 -0.35008835498E+03  0.17487406036E+03  0.97451285006E+03  0.10534375066E+04  0.83141398651E+02 0.  0.
      -13    1    4    4    0    0  0.19766119433E+03 -0.57169178970E+02  0.24360786229E+02  0.20719968792E+03  0.00000000000E+00 0.  1.
       14    1    4    4    0    0  0.15242716065E+03 -0.11770488139E+03  0.53031793425E+02  0.19975197001E+03  0.00000000000E+00 0. -1.
        1    1    5    5  501    0 -0.17291806157E+03  0.93084171828E+02  0.59705120467E+03  0.62851846437E+03  0.00000000000E+00 0. -1.
       -2    1    5    5    0  501 -0.17717029341E+03  0.81789888537E+02  0.37746164539E+03  0.42491904226E+03  0.00000000000E+00 0.  1.
</event>
<event>
 9   1  0.7335000E-04  0.9975349E+03  0.7818608E-02  0.9311253E-01
       21   -1    0    0  503  502  0.00000000000E+00  0.00000000000E+00  0.10473414561E+04  0.10473414561E+04  0.00000000000E+00 0. -1.
       21   -1    0    0  502  503 -0.00000000000E+00 -0.00000000000E+00 -0.23752424706E+03  0.23752424706E+03  0.00000000000E+00 0.  1.
       39    2    1    2    0    0  0.00000000000E+00  0.00000000000E+00  0.80981720899E+03  0.12848657031E+04  0.99753494328E+03 0.  0.
       24    2    3    3    0    0  0.18143872731E+03 -0.44897415809E+03  0.51851132955E+03  0.71393354149E+03  0.79682472351E+02 0.  0.
      -24    2    3    3    0    0 -0.18143872731E+03  0.44897415809E+03  0.29130587944E+03  0.57093216162E+03  0.81281064072E+02 0.  0.
      -13    1    4    4    0    0  0.65217579905E+02 -0.23551650535E+03  0.21840509239E+03  0.32775317146E+03  0.00000000000E+00 0.  1.
       14    1    4    4    0    0  0.11622114740E+03 -0.21345765274E+03  0.30010623716E+03  0.38618037003E+03  0.00000000000E+00 0. -1.
        1    1    5    5  501    0 -0.17212336442E+03  0.35693824802E+03  0.21392031285E+03  0.45032573292E+03  0.00000000000E+00 0. -1.
       -2    1    5    5    0  501 -0.93153628911E+01  0.92035910065E+02  0.77385566587E+02  0.12060642870E+03  0.00000000000E+00 0.  1.
</event>
<event>
 9   1  0.7335000E-04  0.1015445E+04  0.7818608E-02  0.9291765E-01
       21   -1    0    0  503  502  0.00000000000E+00  0.00000000000E+00  0.11714464930E+04  0.11714464930E+04  0.00000000000E+00 0.  1.
       21   -1    0    0  502  503 -0.00000000000E+00 -0.00000000000E+00 -0.22005461925E+03  0.22005461925E+03  0.00000000000E+00 0. -1.
       39    2    1    2    0    0  0.00000000000E+00 -0.71054273576E-14  0.95139187377E+03  0.13915011123E+04  0.10154451477E+04 0.  0.
       24    2    3    3    0    0  0.18359817269E+03 -0.34167531346E+02  0.11132226980E+04  0.11317078386E+04  0.81376577111E+02 0.  0.
      -24    2    3    3    0    0 -0.18359817269E+03  0.34167531346E+02 -0.16183082426E+03  0.25979327368E+03  0.80172440121E+02 0.  0.
      -13    1    4    4    0    0  0.10583856032E+03 -0.51463495732E+02  0.79512599167E+03  0.80378830227E+03  0.00000000000E+00 0.  1.
       14    1    4    4    0    0  0.77759612371E+02  0.17295964387E+02  0.31809670636E+03  0.32791953631E+03  0.00000000000E+00 0. -1.
        1    1    5    5  501    0 -0.17909993412E+03  0.33155594145E+02 -0.17080709467E+03  0.24970210935E+03  0.00000000000E+00 0. -1.
       -2    1    5    5    0  501 -0.44982385612E+01  0.10119372009E+01  0.89762704051E+01  0.10091164325E+02  0.00000000000E+00 0.  1.
</event>
<event>
 9   1  0.7335000E-04  0.1007325E+04  0.7818608E-02  0.9300547E-01
       21   -1    0    0  503  502  0.00000000000E+00  0.00000000000E+00  0.25254189963E+03  0.25254189963E+03  0.00000000000E+00 0.  1.
       21   -1    0    0  502  503 -0.00000000000E+00 -0.00000000000E+00 -0.10044911571E+04  0.10044911571E+04  0.00000000000E+00 0. -1.
       39    2    1    2    0    0  0.00000000000E+00  0.00000000000E+00 -0.75194925745E+03  0.12570330567E+04  0.10073253794E+04 0.  0.
       24    2    3    3    0    0  0.36353792754E+03 -0.32809980955E+03 -0.48252355493E+03  0.69239410628E+03  0.82287955159E+02 0.  0.
      -24    2    3    3    0    0 -0.36353792754E+03  0.32809980955E+03 -0.26942570252E+03  0.56463895044E+03  0.80110082958E+02 0.  0.
      -13    1    4    4    0    0  0.18115078848E+03 -0.13582122918E+03 -0.17319223013E+03  0.28505887644E+03  0.00000000000E+00 0.  1.
       14    1    4    4    0    0  0.18238713906E+03 -0.19227858036E+03 -0.30933132480E+03  0.40733522983E+03  0.00000000000E+00 0. -1.
        1    1    5    5  501    0 -0.23683991496E+03  0.21528767042E+03 -0.21842893958E+03  0.38749597159E+03  0.00000000000E+00 0. -1.
       -2    1    5    5    0  501 -0.12669801257E+03  0.11281213912E+03 -0.50996762945E+02  0.17714297885E+03  0.00000000000E+00 0.  1.
</event>
<event>
 9   1  0.7335000E-04  0.1001070E+04  0.7818608E-02  0.9307372E-01
        2   -1    0    0  501    0  0.00000000000E+00  0.00000000000E+00  0.20302793328E+03  0.20302793328E+03  0.00000000000E+00 0. -1.
       -2   -1    0    0    0  501 -0.00000000000E+00 -0.00000000000E+00 -0.12339943277E+04  0.12339943277E+04  0.00000000000E+00 0.  1.
       39    2    1    2    0    0  0.00000000000E+00  0.00000000000E+00 -0.10309663944E+04  0.14370222610E+04  0.10010700635E+04 0.  0.
       24    2    3    3    0    0  0.32671254589E+03  0.31338760768E+03 -0.23160629001E+03  0.51504226189E+03  0.81695640503E+02 0.  0.
      -24    2    3    3    0    0 -0.32671254589E+03 -0.31338760768E+03 -0.79936010444E+03  0.92197999911E+03  0.78215483742E+02 0.  0.
      -13    1    4    4    0    0  0.94949981975E+02  0.73241503909E+02 -0.10053815004E+03  0.15648557948E+03  0.00000000000E+00 0.  1.
       14    1    4    4    0    0  0.23176256391E+03  0.24014610377E+03 -0.13106813996E+03  0.35855668241E+03  0.00000000000E+00 0. -1.
        1    1    5    5  502    0 -0.17884432111E+03 -0.20228730978E+03 -0.53592150936E+03  0.60009775127E+03  0.00000000000E+00 0. -1.
       -2    1    5    5    0  502 -0.14786822477E+03 -0.11110029790E+03 -0.26343859508E+03  0.32188224783E+03  0.00000000000E+00 0.  1.
</event>
<event>
 9   1  0.7335000E-04  0.1019559E+04  0.7818608E-02  0.9287349E-01
       21   -1    0    0  503  502  0.00000000000E+00  0.00000000000E+00  0.66311389814E+03  0.66311389814E+03  0.00000000000E+00 0. -1.
       21   -1    0    0  502  503 -0.00000000000E+00 -0.00000000000E+00 -0.39190109960E+03  0.39190109960E+03  0.00000000000E+00 0.  1.
       39    2    1    2    0    0  0.00000000000E+00  0.28421709430E-13  0.27121279855E+03  0.10550149977E+04  0.10195588572E+04 0.  0.
       24    2    3    3    0    0 -0.40391577459E+03 -0.18660832205E+03  0.37892406303E+03  0.59036005281E+03  0.83492080977E+02 0.  0.
      -24    2    3    3    0    0  0.40391577459E+03  0.18660832205E+03 -0.10771126448E+03  0.46465494494E+03  0.79573126959E+02 0.  0.
      -13    1    4    4    0    0 -0.25248263788E+03 -0.10331185524E+03  0.17995714721E+03  0.32681094948E+03  0.00000000000E+00 0.  1.
       14    1    4    4    0    0 -0.15143313671E+03 -0.83296466815E+02  0.19896691581E+03  0.26354910333E+03  0.00000000000E+00 0. -1.
        1    1    5    5  501    0  0.22690784506E+03  0.95099288316E+02 -0.19691271719E+02  0.24681732307E+03  0.00000000000E+00 0. -1.
       -2    1    5    5    0  501  0.17700792954E+03  0.91509033735E+02 -0.88019992761E+02  0.21783762186E+03  0.00000000000E+00 0.  1.
</event>
<event>
 9   1  0.7335000E-04  0.9958353E+03  0.7818608E-02  0.9313124E-01
       21   -1    0    0  503  502  0.00000000000E+00  0.00000000000E+00  0.30684027737E+03  0.30684027737E+03  0.00000000000E+00 0. -1.
       21   -1    0    0  502  503 -0.00000000000E+00 -0.00000000000E+00 -0.80798378117E+03  0.80798378117E+03  0.00000000000E+00 0.  1.
       39    2    1    2    0    0  0.00000000000E+00  0.56843418861E-13 -0.50114350379E+03  0.11148240585E+04  0.99583526254E+03 0.  0.
       24    2    3    3    0    0 -0.30229405941E+03 -0.32047755486E+03 -0.63906905421E+01  0.44756468026E+03  0.78649479157E+02 0.  0.
      -24    2    3    3    0    0  0.30229405941E+03  0.32047755486E+03 -0.49475281325E+03  0.66725937828E+03  0.79794549716E+02 0.  0.
      -13    1    4    4    0    0 -0.85616068127E+02 -0.80144228708E+02 -0.35867688196E+02  0.12263645287E+03  0.00000000000E+00 0.  1.
       14    1    4    4    0    0 -0.21667799128E+03 -0.24033332615E+03  0.29476997654E+02  0.32492822739E+03  0.00000000000E+00 0. -1.
        3    1    5    5  501    0  0.18368354683E+02  0.74434736617E+00 -0.10246509173E+02  0.21046174403E+02  0.00000000000E+00 0. -1.
       -4    1    5    5    0  501  0.28392570473E+03  0.31973320749E+03 -0.48450630408E+03  0.64621320388E+03  0.14200000000E+01 0.  1.
</event>
<event>
 9   1  0.7335000E-04  0.1002500E+04  0.7818608E-02  0.9305807E-01
       21   -1    0    0  503  502  0.00000000000E+00  0.00000000000E+00  0.11164626409E+04  0.11164626409E+04  0.00000000000E+00 0. -1.
       21   -1    0    0  502  503 -0.00000000000E+00 -0.00000000000E+00 -0.22504235519E+03  0.22504235519E+03  0.00000000000E+00 0.  1.
       39    2    1    2    0    0  0.00000000000E+00  0.00000000000E+00  0.89142028570E+03  0.13415049961E+04  0.10024996403E+04 0.  0.
       24    2    3    3    0    0 -0.21873839049E+03  0.66876122799E+02 -0.14038290927E+03  0.28166819995E+03  0.85502715596E+02 0.  0.
      -24    2    3    3    0    0  0.21873839049E+03 -0.66876122799E+02  0.10318031950E+04  0.10598367961E+04  0.79481457069E+02 0.  0.
      -13    1    4    4    0    0 -0.21845253447E+03  0.76114957569E+02 -0.12304704819E+03  0.26202208428E+03  0.00000000000E+00 0.  1.
       14    1    4    4    0    0 -0.28585601742E+00 -0.92388347702E+01 -0.17335861077E+02  0.19646115669E+02  0.00000000000E+00 0. -1.
        1    1    5    5  501    0  0.16993602605E+03 -0.50785271810E+02  0.91790296425E+03  0.93488140882E+03  0.00000000000E+00 0. -1.
       -2    1    5    5    0  501  0.48802364441E+02 -0.16090850989E+02  0.11390023072E+03  0.12495538731E+03  0.00000000000E+00 0.  1.
</event>
<event>
 9   1  0.7335000E-04  0.1003972E+04  0.7818608E-02  0.9304199E-01
       21   -1    0    0  503  502  0.00000000000E+00  0.00000000000E+00  0.10102663562E+04  0.10102663562E+04  0.00000000000E+00 0.  1.
       21   -1    0    0  502  503 -0.00000000000E+00 -0.00000000000E+00 -0.24942942978E+03  0.24942942978E+03  0.00000000000E+00 0. -1.
       39    2    1    2    0    0 -0.11368683772E-12  0.00000000000E+00  0.76083692639E+03  0.12596957860E+04  0.10039724322E+04 0.  0.
       24    2    3    3    0    0 -0.47359801912E+03  0.12770521006E+03  0.46190987483E+03  0.67940201332E+03  0.87307839545E+02 0.  0.
      -24    2    3    3    0    0  0.47359801912E+03 -0.12770521006E+03  0.29892705156E+03  0.58029377263E+03  0.82339395275E+02 0.  0.
      -13    1    4    4    0    0 -0.15902777936E+03  0.82759867570E+02  0.18939873900E+03  0.26078901937E+03  0.00000000000E+00 0.  1.
       14    1    4    4    0    0 -0.31457023976E+03  0.44945342495E+02  0.27251113583E+03  0.41861299395E+03  0.00000000000E+00 0. -1.
        3    1    5    5  501    0  0.20930372909E+03 -0.35823659271E+02  0.87881283081E+02  0.22981406722E+03  0.00000000000E+00 0. -1.
       -4    1    5    5    0  501  0.26429429003E+03 -0.91881550793E+02  0.21104576848E+03  0.35047970542E+03  0.14200000000E+01 0.  1.
</event>
<event>
 9   1  0.7335000E-04  0.9938228E+03  0.7818608E-02  0.9315346E-01
       21   -1    0    0  503  502  0.00000000000E+00  0.00000000000E+00  0.30695230666E+03  0.30695230666E+03  0.00000000000E+00 0. -1.
       21   -1    0    0  502  503 -0.00000000000E+00 -0.00000000000E+00 -0.80442777303E+03  0.80442777303E+03  0.00000000000E+00 0.  1.
       39    2    1    2    0    0  0.00000000000E+00 -0.14210854715E-13 -0.49747546637E+03  0.11113800797E+04  0.99382284230E+03 0.  0.
       24    2    3    3    0    0  0.48773731063E+03 -0.41168558280E+02 -0.27979814063E+03  0.56987505305E+03  0.82994230033E+02 0.  0.
      -24    2    3    3    0    0 -0.48773731063E+03  0.41168558280E+02 -0.21767732574E+03  0.54150502664E+03  0.79131165552E+02 0.  0.
      -13    1    4    4    0    0  0.14722873662E+03  0.13643219086E+02 -0.11669036341E+03  0.18835891066E+03  0.00000000000E+00 0.  1.
       14    1    4    4    0    0  0.34050857401E+03 -0.54811777365E+02 -0.16310777722E+03  0.38151614239E+03  0.00000000000E+00 0. -1.
        3    1    5    5  501    0 -0.21155834444E+03  0.37441846183E+02 -0.58309263954E+02  0.22261804781E+03  0.00000000000E+00 0. -1.
       -4    1    5    5    0  501 -0.27617896619E+03  0.37267120965E+01 -0.15936806178E+03  0.31888697882E+03  0.14200000000E+01 0.  1.
</event>
<event>
 9   1  0.7335000E-04  0.1035765E+04  0.7818608E-02  0.9270165E-01
       21   -1    0    0  503  502  0.00000000000E+00  0.00000000000E+00  0.37787948586E+03  0.37787948586E+03  0.00000000000E+00 0. -1.
       21   -1    0    0  502  503 -0.00000000000E+00 -0.00000000000E+00 -0.70975639306E+03  0.70975639306E+03  0.00000000000E+00 0.  1.
       39    2    1    2    0    0  0.28421709430E-13  0.56843418861E-13 -0.33187690721E+03  0.10876358789E+04  0.10357651875E+04 0.  0.
       24    2    3    3    0    0  0.23392964387E+03  0.45469749733E+03 -0.15526972037E+03  0.54047134980E+03  0.80794192464E+02 0.  0.
      -24    2    3    3    0    0 -0.23392964387E+03 -0.45469749733E+03 -0.17660718683E+03  0.54716452912E+03  0.82012384030E+02 0.  0.
      -13    1    4    4    0    0  0.49514155262E+02  0.11257275442E+03 -0.29179928797E+01  0.12301541079E+03  0.00000000000E+00 0.  1.
       14    1    4    4    0    0  0.18441548861E+03  0.34212474291E+03 -0.15235172749E+03  0.41745593901E+03  0.00000000000E+00 0. -1.
        3    1    5    5  501    0 -0.15882007176E+02 -0.21517212579E+02  0.85157190234E+01  0.28066814205E+02  0.00000000000E+00 0. -1.
       -4    1    5    5    0  501 -0.21804763669E+03 -0.43318028475E+03 -0.18512290586E+03  0.51909771492E+03  0.14200000000E+01 0.  1.
</event>
<event>
 9   1  0.7335000E-04  0.1007581E+04  0.7818608E-02  0.9300269E-01
       21   -1    0    0  503  502  0.00000000000E+00  0.00000000000E+00  0.12919641265E+04  0.12919641265E+04  0.00000000000E+00 0. -1.
       21   -1    0    0  502  503 -0.00000000000E+00 -0.00000000000E+00 -0.19644889703E+03  0.19644889703E+03  0.00000000000E+00 0.  1.
       39    2    1    2    0    0  0.00000000000E+00 -0.56843418861E-13  0.10955152295E+04  0.14884130235E+04  0.10075811186E+04 0.  0.
       24    2    3    3    0    0 -0.24947081494E+03 -0.30063799563E+03  0.10021773076E+04  0.10785892887E+04  0.79853652014E+02 0.  0.
      -24    2    3    3    0    0  0.24947081494E+03  0.30063799563E+03  0.93337921807E+02  0.40982373485E+03  0.81391855132E+02 0.  0.
      -13    1    4    4    0    0 -0.10361112107E+03 -0.14933520382E+03  0.36692331010E+03  0.40947403215E+03  0.00000000000E+00 0.  1.
       14    1    4    4    0    0 -0.14585969387E+03 -0.15130279181E+03  0.63525399754E+03  0.66911525651E+03  0.00000000000E+00 0. -1.
        3    1    5    5  501    0 -0.52449187624E+01  0.29634633562E+01  0.58417701434E+01  0.83915175204E+01  0.00000000000E+00 0. -1.
       -4    1    5    5    0  501  0.25471573370E+03  0.29767453227E+03  0.87496151663E+02  0.40143221733E+03  0.14200000000E+01 0.  1.
</event>
<event>
 9   1  0.7335000E-04  0.9891522E+03  0.7818608E-02  0.9320523E-01
       21   -1    0    0  503  502  0.00000000000E+00  0.00000000000E+00  0.86338165664E+03  0.86338165664E+03  0.00000000000E+00 0. -1.
       21   -1    0    0  502  503 -0.00000000000E+00 -0.00000000000E+00 -0.28331102427E+03  0.28331102427E+03  0.00000000000E+00 0.  1.
       39    2    1    2    0    0  0.00000000000E+00  0.00000000000E+00  0.58007063237E+03  0.11466926809E+04  0.98915224607E+03 0.  0.
       24    2    3    3    0    0  0.39154336931E+03 -0.15795106462E+03  0.57377844383E+03  0.71690601424E+03  0.80484668011E+02 0.  0.
      -24    2    3    3    0    0 -0.39154336931E+03  0.15795106462E+03  0.62921885376E+01  0.42978666666E+03  0.80138869076E+02 0.  0.
      -13    1    4    4    0    0  0.64638354020E+02 -0.58152382827E+02  0.13744634763E+03  0.16263860217E+03  0.00000000000E+00 0.  1.
       14    1    4    4    0    0  0.32690501529E+03 -0.99798681793E+02  0.43633209620E+03  0.55426741208E+03  0.00000000000E+00 0. -1.
        1    1    5    5  501    0 -0.15105736104E+03  0.19736854944E+02  0.44340241354E+01  0.15240580808E+03  0.00000000000E+00 0. -1.
       -2    1    5    5    0  501 -0.24048600827E+03  0.13821420968E+03  0.18581644022E+01  0.27738085858E+03  0.00000000000E+00 0.  1.
</event>
<event>
 9   1  0.7335000E-04  0.9989792E+03  0.7818608E-02  0.9309665E-01
       21   -1    0    0  503  502  0.00000000000E+00  0.00000000000E+00  0.22779725969E+03  0.22779725969E+03  0.00000000000E+00 0. -1.
       21   -1    0    0  502  503 -0.00000000000E+00 -0.00000000000E+00 -0.10952275858E+04  0.10952275858E+04  0.00000000000E+00 0.  1.
       39    2    1    2    0    0  0.28421709430E-13  0.00000000000E+00 -0.86743032609E+03  0.13230248455E+04  0.99897916450E+03 0.  0.
       24    2    3    3    0    0 -0.22709791443E+03  0.42584631901E+03 -0.57953426174E+03  0.75884601231E+03  0.84075916378E+02 0.  0.
      -24    2    3    3    0    0  0.22709791443E+03 -0.42584631901E+03 -0.28789606435E+03  0.56417883316E+03  0.49950593268E+02 0.  0.
      -13    1    4    4    0    0 -0.22549338490E+03  0.42066368172E+03 -0.54740817522E+03  0.72626504119E+03  0.00000000000E+00 0.  1.
       14    1    4    4    0    0 -0.16045295338E+01  0.51826372878E+01 -0.32126086517E+02  0.32580971121E+02  0.00000000000E+00 0. -1.
        1    1    5    5  501    0  0.20782202418E+03 -0.36121940653E+03 -0.26003295346E+03  0.49120931412E+03  0.00000000000E+00 0. -1.
       -2    1    5    5    0  501  0.19275890246E+02 -0.64626912478E+02 -0.27863110894E+02  0.72969519047E+02  0.00000000000E+00 0.  1.
</event>
<event>
 9   1  0.7335000E-04  0.1006456E+04  0.7818608E-02  0.9301492E-01
       21   -1    0    0  503  502  0.00000000000E+00  0.00000000000E+00  0.80183883428E+03  0.80183883428E+03  0.00000000000E+00 0.  1.
       21   -1    0    0  502  503 -0.00000000000E+00 -0.00000000000E+00 -0.31582219810E+03  0.31582219810E+03  0.00000000000E+00 0. -1.
       39    2    1    2    0    0  0.00000000000E+00 -0.28421709430E-13  0.48601663618E+03  0.11176610324E+04  0.10064561653E+04 0.  0.
       24    2    3    3    0    0 -0.31506498648E+03  0.13691440335E+03 -0.15649849472E+03  0.38563068945E+03  0.78789277473E+02 0.  0.
      -24    2    3    3    0    0  0.31506498648E+03 -0.13691440335E+03  0.64251513089E+03  0.73203034293E+03  0.70931163735E+02 0.  0.
      -13    1    4    4    0    0 -0.90128110507E+01 -0.24794089070E+01 -0.21133710653E+02  0.23108698742E+02  0.00000000000E+00 0.  1.
       14    1    4    4    0    0 -0.30605217543E+03  0.13939381226E+03 -0.13536478406E+03  0.36252199071E+03  0.00000000000E+00 0. -1.
        1    1    5    5  501    0  0.15023545076E+03 -0.26973222170E+02  0.28171230068E+03  0.32040609504E+03  0.00000000000E+00 0. -1.
       -2    1    5    5    0  501  0.16482953572E+03 -0.10994118118E+03  0.36080283021E+03  0.41162424789E+03  0.00000000000E+00 0.  1.
</event>
<event>
 9   1  0.7335000E-04  0.9994669E+03  0.7818608E-02  0.9309130E-01
       21   -1    0    0  503  502  0.00000000000E+00  0.00000000000E+00  0.55184221264E+03  0.55184221264E+03  0.00000000000E+00 0.  1.
       21   -1    0    0  502  503 -0.00000000000E+00 -0.00000000000E+00 -0.45254515456E+03  0.45254515456E+03  0.00000000000E+00 0. -1.
       39    2    1    2    0    0  0.00000000000E+00  0.00000000000E+00  0.99297058082E+02  0.10043873672E+04  0.99946689673E+03 0.  0.
       24    2    3    3    0    0  0.42685826526E+03 -0.14217263348E+03  0.25326086476E+03  0.52210084138E+03  0.77634957494E+02 0.  0.
      -24    2    3    3    0    0 -0.42685826526E+03  0.14217263348E+03 -0.15396380668E+03  0.48228652582E+03  0.80463674398E+02 0.  0.
      -13    1    4    4    0    0  0.34692488398E+03 -0.12331978761E+03  0.23841972292E+03  0.43864405777E+03  0.00000000000E+00 0.  1.
       14    1    4    4    0    0  0.79933381276E+02 -0.18852845864E+02  0.14841141841E+02  0.83456783610E+02  0.00000000000E+00 0. -1.
        3    1    5    5  501    0 -0.37238522991E+03  0.93594407420E+02 -0.13270884687E+03  0.40625399763E+03  0.00000000000E+00 0. -1.
       -4    1    5    5    0  501 -0.54473035348E+02  0.48578226058E+02 -0.21254959804E+02  0.76032528191E+02  0.14200000000E+01 0.  1.
</event>
<event>
 9   1  0.7335000E-04  0.9973282E+03  0.7818608E-02  0.9311480E-01
       21   -1    0    0  503  502  0.00000000000E+00  0.00000000000E+00  0.53264842665E+03  0.53264842665E+03  0.00000000000E+00 0.  1.
       21   -1    0    0  502  503 -0.00000000000E+00 -0.00000000000E+00 -0.46684810355E+03  0.46684810355E+03  0.00000000000E+00 0. -1.
       39    2    1    2    0    0  0.00000000000E+00  0.14210854715E-13  0.65800323105E+02  0.99949653020E+03  0.99732824655E+03 0.  0.
       24    2    3    3    0    0  0.20092812062E+03  0.69034675556E+02  0.47793746839E+03  0.52913766121E+03  0.80153257764E+02 0.  0.
      -24    2    3    3    0    0 -0.20092812062E+03 -0.69034675556E+02 -0.41213714529E+03  0.47035886899E+03  0.79009765375E+02 0.  0.
      -13    1    4    4    0    0  0.12790689065E+03  0.75871668125E+02  0.26437391641E+03  0.30333191454E+03  0.00000000000E+00 0.  1.
       14    1    4    4    0    0  0.73021229977E+02 -0.68369925688E+01  0.21356355198E+03  0.22580574667E+03  0.00000000000E+00 0. -1.
        3    1    5    5  501    0 -0.11039683187E+03 -0.13222531597E+01 -0.24310098032E+03  0.26699680798E+03  0.00000000000E+00 0. -1.
       -4    1    5    5    0  501 -0.90531288750E+02 -0.67712422396E+02 -0.16903616497E+03  0.20336206101E+03  0.14200000000E+01 0.  1.
</event>
<event>
 9   1  0.7335000E-04  0.9935061E+03  0.7818608E-02  0.9315696E-01
       21   -1    0    0  503  502  0.00000000000E+00  0.00000000000E+00  0.13873092992E+04  0.13873092992E+04  0.00000000000E+00 0. -1.
       21   -1    0    0  502  503 -0.00000000000E+00 -0.00000000000E+00 -0.17787208623E+03  0.17787208623E+03  0.00000000000E+00 0.  1.
       39    2    1    2    0    0 -0.14210854715E-13 -0.56843418861E-13  0.12094372130E+04  0.15651813854E+04  0.99350611330E+03 0.  0.
       24    2    3    3    0    0  0.68992017523E+02  0.18007286300E+03  0.13147033268E+04  0.13311795873E+04  0.80050744515E+02 0.  0.
      -24    2    3    3    0    0 -0.68992017523E+02 -0.18007286300E+03 -0.10526611385E+03  0.23400179809E+03  0.80558998948E+02 0.  0.
      -13    1    4    4    0    0  0.18996942151E+02  0.52008104117E+02  0.18402901792E+03  0.19217805843E+03  0.00000000000E+00 0.  1.
       14    1    4    4    0    0  0.49995075372E+02  0.12806475888E+03  0.11306743089E+04  0.11390015289E+04  0.00000000000E+00 0. -1.
        1    1    5    5  501    0 -0.27037420791E+01 -0.33581719799E+02 -0.56843792901E+02  0.66077673364E+02  0.00000000000E+00 0. -1.
       -2    1    5    5    0  501 -0.66288275444E+02 -0.14649114320E+03 -0.48422320953E+02  0.16792412472E+03  0.00000000000E+00 0.  1.
</event>
<event>
 9   1  0.7335000E-04  0.1002128E+04  0.7818608E-02  0.9306214E-01
       21   -1    0    0  503  502  0.00000000000E+00  0.00000000000E+00  0.70542423846E+03  0.70542423846E+03  0.00000000000E+00 0. -1.
       21   -1    0    0  502  503 -0.00000000000E+00 -0.00000000000E+00 -0.35590670305E+03  0.35590670305E+03  0.00000000000E+00 0.  1.
       39    2    1    2    0    0  0.56843418861E-13  0.14210854715E-13  0.34951753541E+03  0.10613309415E+04  0.10021281654E+04 0.  0.
       24    2    3    3    0    0  0.23661484837E+03  0.11232453779E+03  0.61977098880E+03  0.67629716594E+03  0.68252398059E+02 0.  0.
      -24    2    3    3    0    0 -0.23661484837E+03 -0.11232453779E+03 -0.27025345339E+03  0.38503377557E+03  0.81306155972E+02 0.  0.
      -13    1    4    4    0    0  0.73667588362E+02  0.14165150272E+02  0.11967967254E+03  0.14124726219E+03  0.00000000000E+00 0.  1.
       14    1    4    4    0    0  0.16294726001E+03  0.98159387521E+02  0.50009131626E+03  0.53504990375E+03  0.00000000000E+00 0. -1.
        1    1    5    5  501    0 -0.66349137201E+01  0.11314665176E+02 -0.14109535932E+02  0.19264545993E+02  0.00000000000E+00 0. -1.
       -2    1    5    5    0  501 -0.22997993465E+03 -0.12363920297E+03 -0.25614391746E+03  0.36576922958E+03  0.00000000000E+00 0.  1.
</event>
<event>
 9   1  0.7335000E-04  0.9959942E+03  0.7818608E-02  0.9312949E-01
       21   -1    0    0  503  502  0.00000000000E+00  0.00000000000E+00  0.27764914021E+03  0.27764914021E+03  0.00000000000E+00 0. -1.
       21   -1    0    0  502  503 -0.00000000000E+00 -0.00000000000E+00 -0.89321771259E+03  0.89321771259E+03  0.00000000000E+00 0.  1.
       39    2    1    2    0    0  0.00000000000E+00  0.00000000000E+00 -0.61556857238E+03  0.11708668528E+04  0.99599423678E+03 0.  0.
       24    2    3    3    0    0  0.13871030591E+03 -0.33589942782E+03  0.81323111329E+02  0.38097139006E+03  0.80354072927E+02 0.  0.
      -24    2    3    3    0    0 -0.13871030591E+03  0.33589942782E+03 -0.69689168371E+03  0.78989546274E+03  0.78789902073E+02 0.  0.
      -13    1    4    4    0    0  0.43367073020E+02 -0.82704749012E+02 -0.13349340996E+02  0.94334423390E+02  0.00000000000E+00 0.  1.
       14    1    4    4    0    0  0.95343232895E+02 -0.25319467881E+03  0.94672452325E+02  0.28663696667E+03  0.00000000000E+00 0. -1.
        1    1    5    5  501    0 -0.49924325904E+02  0.43325290447E+02 -0.12535334910E+03  0.14171443554E+03  0.00000000000E+00 0. -1.
       -2    1    5    5    0  501 -0.88785980010E+02  0.29257413737E+03 -0.57153833460E+03  0.64818102720E+03  0.00000000000E+00 0.  1.
</event>
<event>
 9   1  0.7335000E-04  0.9978705E+03  0.7818608E-02  0.9310884E-01
       21   -1    0    0  503  502  0.00000000000E+00  0.00000000000E+00  0.11344051005E+04  0.11344051005E+04  0.00000000000E+00 0.  1.
       21   -1    0    0  502  503 -0.00000000000E+00 -0.00000000000E+00 -0.21944221509E+03  0.21944221509E+03  0.00000000000E+00 0. -1.
       39    2    1    2    0    0 -0.56843418861E-13  0.00000000000E+00  0.91496288536E+03  0.13538473155E+04  0.99787046865E+03 0.  0.
       24    2    3    3    0    0  0.33008412078E+03 -0.22833690862E+03  0.84417716490E+03  0.93835479783E+03  0.82349075530E+02 0.  0.
      -24    2    3    3    0    0 -0.33008412078E+03  0.22833690862E+03  0.70785720463E+02  0.41549251771E+03  0.80809302833E+02 0.  0.
      -13    1    4    4    0    0  0.21480372457E+03 -0.11638136937E+03  0.57675913525E+03  0.62636759440E+03  0.00000000000E+00 0.  1.
       14    1    4    4    0    0  0.11528039621E+03 -0.11195553925E+03  0.26741802965E+03  0.31198720343E+03  0.00000000000E+00 0. -1.
        3    1    5    5  501    0 -0.25744795218E+03  0.20939724798E+03  0.39648193434E+02  0.33421345692E+03  0.00000000000E+00 0. -1.
       -4    1    5    5    0  501 -0.72636168599E+02  0.18939660641E+02  0.31137527028E+02  0.81279060793E+02  0.14200000000E+01 0.  1.
</event>
<event>
 9   1  0.7335000E-04  0.9958758E+03  0.7818608E-02  0.9313080E-01
       21   -1    0    0  503  502  0.00000000000E+00  0.00000000000E+00  0.12926165726E+03  0.12926165726E+03  0.00000000000E+00 0.  1.
       21   -1    0    0  502  503 -0.00000000000E+00 -0.00000000000E+00 -0.19181416381E+04  0.19181416381E+04  0.00000000000E+00 0. -1.
       39    2    1    2    0    0  0.28421709430E-13  0.00000000000E+00 -0.17888799808E+04  0.20474032954E+04  0.99587582961E+03 0.  0.
       24    2    3    3    0    0 -0.21369919697E+03 -0.35165516346E+03 -0.14468492952E+04  0.15064028745E+04  0.80919938036E+02 0.  0.
      -24    2    3    3    0    0  0.21369919697E+03  0.35165516346E+03 -0.34203068561E+03  0.54100042087E+03  0.79798275099E+02 0.  0.
      -13    1    4    4    0    0 -0.47402214465E+02 -0.97699244678E+02 -0.26964377379E+03  0.29068862567E+03  0.00000000000E+00 0.  1.
       14    1    4    4    0    0 -0.16629698251E+03 -0.25395591879E+03 -0.11772055214E+04  0.12157142488E+04  0.00000000000E+00 0. -1.
        1    1    5    5  501    0  0.11536932095E+03  0.19168350964E+03 -0.23670638041E+03  0.32570317563E+03  0.00000000000E+00 0. -1.
       -2    1    5    5    0  501  0.98329876026E+02  0.15997165382E+03 -0.10532430519E+03  0.21529724525E+03  0.00000000000E+00 0.  1.
</event>
<event>
 9   1  0.7335000E-04  0.9083363E+03  0.7818608E-02  0.9415220E-01
       21   -1    0    0  503  502  0.00000000000E+00  0.00000000000E+00  0.30303190116E+03  0.30303190116E+03  0.00000000000E+00 0.  1.
       21   -1    0    0  502  503 -0.00000000000E+00 -0.00000000000E+00 -0.68068320990E+03  0.68068320990E+03  0.00000000000E+00 0. -1.
       39    2    1    2    0    0 -0.28421709430E-13 -0.11368683772E-12 -0.37765130874E+03  0.98371511106E+03  0.90833634120E+03 0.  0.
       24    2    3    3    0    0  0.14439191898E+03  0.31753468950E+03 -0.49168179432E+03  0.60822997765E+03  0.80718111658E+02 0.  0.
      -24    2    3    3    0    0 -0.14439191898E+03 -0.31753468950E+03  0.11403048558E+03  0.37548513341E+03  0.79428133961E+02 0.  0.
      -13    1    4    4    0    0  0.30940563944E+01  0.24941827473E+02 -0.96706172714E+01  0.26929329384E+02  0.00000000000E+00 0.  1.
       14    1    4    4    0    0  0.14129786258E+03  0.29259286203E+03 -0.48201117705E+03  0.58130064827E+03  0.00000000000E+00 0. -1.
        1    1    5    5  501    0  0.34108231458E+01  0.28414717732E+01  0.37906399862E+01  0.58375189828E+01  0.00000000000E+00 0. -1.
       -2    1    5    5    0  501 -0.14780274212E+03 -0.32037616128E+03  0.11023984559E+03  0.36964761442E+03  0.00000000000E+00 0.  1.
</event>
<event>
 9   1  0.7335000E-04  0.1001242E+04  0.7818608E-02  0.9307184E-01
       21   -1    0    0  503  502  0.00000000000E+00  0.00000000000E+00  0.98966181270E+03  0.98966181270E+03  0.00000000000E+00 0. -1.
       21   -1    0    0  502  503 -0.00000000000E+00 -0.00000000000E+00 -0.25323936017E+03  0.25323936017E+03  0.00000000000E+00 0.  1.
       39    2    1    2    0    0  0.00000000000E+00 -0.56843418861E-13  0.73642245253E+03  0.12429011729E+04  0.10012418773E+04 0.  0.
       24    2    3    3    0    0  0.12649376446E+03 -0.47146417452E+03  0.46492193764E+03  0.67881536701E+03  0.79741796295E+02 0.  0.
      -24    2    3    3    0    0 -0.12649376446E+03  0.47146417452E+03  0.27150051488E+03  0.56408580586E+03  0.78747231604E+02 0.  0.
      -13    1    4    4    0    0  0.27048970629E+02 -0.25264044626E+03  0.23016810542E+03  0.34283552712E+03  0.00000000000E+00 0.  1.
       14    1    4    4    0    0  0.99444793831E+02 -0.21882372826E+03  0.23475383222E+03  0.33597983989E+03  0.00000000000E+00 0. -1.
        3    1    5    5  501    0 -0.41044743806E+02  0.80770236089E+02  0.79138106126E+02  0.12029689054E+03  0.00000000000E+00 0. -1.
       -4    1    5    5    0  501 -0.85449020654E+02  0.39069393844E+03  0.19236240876E+03  0.44378891532E+03  0.14200000000E+01 0.  1.
</event>
<event>
 9   1  0.7335000E-04  0.1103314E+04  0.7818608E-02  0.9201968E-01
       21   -1    0    0  503  502  0.00000000000E+00  0.00000000000E+00  0.50395140208E+03  0.50395140208E+03  0.00000000000E+00 0. -1.
       21   -1    0    0  502  503 -0.00000000000E+00 -0.00000000000E+00 -0.60387805790E+03  0.60387805790E+03  0.00000000000E+00 0.  1.
       39    2    1    2    0    0  0.28421709430E-13  0.35527136788E-14 -0.99926655821E+02  0.11078294600E+04  0.11033135438E+04 0.  0.
       24    2    3    3    0    0  0.19336015913E+03 -0.30933866384E+02 -0.56071875154E+03  0.60066733558E+03  0.89725550834E+02 0.  0.
      -24    2    3    3    0    0 -0.19336015913E+03  0.30933866384E+02  0.46079209572E+03  0.50716212440E+03  0.80864143590E+02 0.  0.
      -13    1    4    4    0    0  0.11441959744E+03  0.15340377999E+02 -0.39307556168E+03  0.40967739585E+03  0.00000000000E+00 0.  1.
       14    1    4    4    0    0  0.78940561685E+02 -0.46274244383E+02 -0.16764318986E+03  0.19098993973E+03  0.00000000000E+00 0. -1.
        3    1    5    5  501    0 -0.20032027450E+03  0.32824496383E+02  0.45325270485E+03  0.49663233322E+03  0.00000000000E+00 0. -1.
       -4    1    5    5    0  501  0.69601153683E+01 -0.18906299996E+01  0.75393908674E+01  0.10529791184E+02  0.14200000000E+01 0.  1.
</event>
<event>
 9   1  0.7335000E-04  0.9877289E+03  0.7818608E-02  0.9322107E-01
       21   -1    0    0  503  502  0.00000000000E+00  0.00000000000E+00  0.62584218302E+03  0.62584218302E+03  0.00000000000E+00 0.  1.
       21   -1    0    0  502  503 -0.00000000000E+00 -0.00000000000E+00 -0.38971819870E+03  0.38971819870E+03  0.00000000000E+00 0. -1.
       39    2    1    2    0    0  0.00000000000E+00  0.28421709430E-13  0.23612398432E+03  0.10155603817E+04  0.98772888636E+03 0.  0.
       24    2    3    3    0    0  0.28863740213E+03 -0.94333772954E+02 -0.27422288171E+03  0.41629640759E+03  0.76773038832E+02 0.  0.
      -24    2    3    3    0    0 -0.28863740213E+03  0.94333772954E+02  0.51034686603E+03  0.59926397413E+03  0.80330420090E+02 0.  0.
      -13    1    4    4    0    0  0.40548572392E+02  0.69356362509E+01 -0.62320620944E+02  0.74673620295E+02  0.00000000000E+00 0.  1.
       14    1    4    4    0    0  0.24808882974E+03 -0.10126940921E+03 -0.21190226077E+03  0.34162278730E+03  0.00000000000E+00 0. -1.
        1    1    5    5  501    0 -0.98756593236E+02 -0.65858233706E+01  0.16786240022E+03  0.19486924638E+03  0.00000000000E+00 0. -1.
       -2    1    5    5    0  501 -0.18988080889E+03  0.10091959633E+03  0.34248446581E+03  0.40439472775E+03  0.00000000000E+00 0.  1.
</event>
<event>
 9   1  0.7335000E-04  0.9696158E+03  0.7818608E-02  0.9342512E-01
        1   -1    0    0  501    0  0.00000000000E+00  0.00000000000E+00  0.88729336239E+03  0.88729336239E+03  0.00000000000E+00 0. -1.
       -1   -1    0    0    0  501 -0.00000000000E+00 -0.00000000000E+00 -0.26489401651E+03  0.26489401651E+03  0.00000000000E+00 0.  1.
       39    2    1    2    0    0  0.00000000000E+00  0.00000000000E+00  0.62239934587E+03  0.11521873789E+04  0.96961580554E+03 0.  0.
       24    2    3    3    0    0 -0.12917792101E+02  0.46407781720E+03  0.44670787290E+03  0.64970941516E+03  0.83900599950E+02 0.  0.
      -24    2    3    3    0    0  0.12917792101E+02 -0.46407781720E+03  0.17569147297E+03  0.50247796374E+03  0.77984104820E+02 0.  0.
      -13    1    4    4    0    0 -0.11383963121E+02  0.42806961805E+02  0.78815034014E+02  0.90409292564E+02  0.00000000000E+00 0.  1.
       14    1    4    4    0    0 -0.15338289804E+01  0.42127085539E+03  0.36789283888E+03  0.55930012259E+03  0.00000000000E+00 0. -1.
        1    1    5    5  502    0 -0.62119067890E+00 -0.19532731378E+02  0.27401653245E+02  0.33656560631E+02  0.00000000000E+00 0. -1.
       -2    1    5    5    0  502  0.13538982780E+02 -0.44454508582E+03  0.14828981973E+03  0.46882140311E+03  0.00000000000E+00 0.  1.
</event>
<event>
 9   1  0.7335000E-04  0.9785630E+03  0.7818608E-02  0.9332374E-01
        3   -1    0    0  501    0  0.00000000000E+00  0.00000000000E+00  0.80043309577E+03  0.80043309577E+03  0.00000000000E+00 0. -1.
       -3   -1    0    0    0  501 -0.00000000000E+00 -0.00000000000E+00 -0.29908354488E+03  0.29908354488E+03  0.00000000000E+00 0.  1.
       39    2    1    2    0    0  0.00000000000E+00  0.00000000000E+00  0.50134955089E+03  0.10995166406E+04  0.97856296215E+03 0.  0.
       24    2    3    3    0    0  0.17754427468E+03  0.35237637197E+03 -0.60672591966E+02  0.40749077353E+03  0.81709791966E+02 0.  0.
      -24    2    3    3    0    0 -0.17754427468E+03 -0.35237637197E+03  0.56202214285E+03  0.69202586712E+03  0.85672835290E+02 0.  0.
      -13    1    4    4    0    0  0.26458660538E+02  0.10292337177E+03  0.11965480154E+02  0.10694135724E+03  0.00000000000E+00 0.  1.
       14    1    4    4    0    0  0.15108561414E+03  0.24945300020E+03 -0.72638072120E+02  0.30054941629E+03  0.00000000000E+00 0. -1.
        1    1    5    5  502    0 -0.16749483639E+03 -0.35272938443E+03  0.55830460595E+03  0.68130505053E+03  0.00000000000E+00 0. -1.
       -2    1    5    5    0  502 -0.10049438281E+02  0.35301246054E+00  0.37175369067E+01  0.10720816583E+02  0.00000000000E+00 0.  1.
</event>
<event>
 9   1  0.7335000E-04  0.1000244E+04  0.7818608E-02  0.9308277E-01
       21   -1    0    0  503  502  0.00000000000E+00  0.00000000000E+00  0.31696206125E+03  0.31696206125E+03  0.00000000000E+00 0.  1.
       21   -1    0    0  502  503 -0.00000000000E+00 -0.00000000000E+00 -0.78912287162E+03  0.78912287162E+03  0.00000000000E+00 0. -1.
       39    2    1    2    0    0  0.00000000000E+00  0.00000000000E+00 -0.47216081037E+03  0.11060849329E+04  0.10002439942E+04 0.  0.
       24    2    3    3    0    0 -0.29335547368E+03  0.16393271641E+03 -0.63625667821E+03  0.72380061164E+03  0.78315997044E+02 0.  0.
      -24    2    3    3    0    0  0.29335547368E+03 -0.16393271641E+03  0.16409586784E+03  0.38228432124E+03  0.79262090420E+02 0.  0.
      -13    1    4    4    0    0 -0.14085480910E+03  0.11222922652E+03 -0.38990671197E+03  0.42949123457E+03  0.00000000000E+00 0.  1.
       14    1    4    4    0    0 -0.15250066458E+03  0.51703489888E+02 -0.24634996624E+03  0.29430937707E+03  0.00000000000E+00 0. -1.
        1    1    5    5  501    0  0.17349785963E+03 -0.56625066015E+02  0.67205575284E+02  0.19448520444E+03  0.00000000000E+00 0. -1.
       -2    1    5    5    0  501  0.11985761404E+03 -0.10730765039E+03  0.96890292558E+02  0.18779911680E+03  0.00000000000E+00 0.  1.
</event>
<event>
 9   1  0.7335000E-04  0.9905717E+03  0.7818608E-02  0.9318947E-01
       21   -1    0    0  503  502  0.00000000000E+00  0.00000000000E+00  0.32848445534E+03  0.32848445534E+03  0.00000000000E+00 0. -1.
       21   -1    0    0  502  503 -0.00000000000E+00 -0.00000000000E+00 -0.74678739059E+03  0.74678739059E+03  0.00000000000E+00 0.  1.
       39    2    1    2    0    0 -0.71054273576E-14  0.00000000000E+00 -0.41830293525E+03  0.10752718459E+04  0.99057165163E+03 0.  0.
       24    2    3    3    0    0 -0.63869179340E+02  0.92788780108E+02  0.30725736440E+03  0.33656693380E+03  0.78620500921E+02 0.  0.
      -24    2    3    3    0    0  0.63869179340E+02 -0.92788780108E+02 -0.72556029965E+03  0.73870491213E+03  0.80982522734E+02 0.  0.
      -13    1    4    4    0    0 -0.34697510179E+02 -0.52187284428E+01  0.75762025006E+02  0.83492734847E+02  0.00000000000E+00 0.  1.
       14    1    4    4    0    0 -0.29171669161E+02  0.98007508551E+02  0.23149533940E+03  0.25307419896E+03  0.00000000000E+00 0. -1.
        1    1    5    5  501    0  0.16788111553E+02 -0.22141398982E+02 -0.45126098707E+02  0.52994782978E+02  0.00000000000E+00 0. -1.
       -2    1    5    5    0  501  0.47081067787E+02 -0.70647381126E+02 -0.68043420094E+03  0.68571012915E+03  0.00000000000E+00 0.  1.
</event>
<event>
 9   1  0.7335000E-04  0.9848834E+03  0.7818608E-02  0.9325282E-01
       21   -1    0    0  503  502  0.00000000000E+00  0.00000000000E+00  0.29426660163E+03  0.29426660163E+03  0.00000000000E+00 0.  1.
       21   -1    0    0  502  503 -0.00000000000E+00 -0.00000000000E+00 -0.82407863284E+03  0.82407863284E+03  0.00000000000E+00 0. -1.
       39    2    1    2    0    0  0.00000000000E+00  0.00000000000E+00 -0.52981203121E+03  0.11183452345E+04  0.98488338145E+03 0.  0.
       24    2    3    3    0    0  0.39558206271E+03 -0.28089187346E+03 -0.23502707512E+03  0.54507633475E+03  0.80529943180E+02 0.  0.
      -24    2    3    3    0    0 -0.39558206271E+03  0.28089187346E+03 -0.29478495609E+03  0.57326889972E+03  0.79709774433E+02 0.  0.
      -13    1    4    4    0    0  0.89679744941E+02 -0.10537903939E+03 -0.52816085709E+02  0.14811055839E+03  0.00000000000E+00 0.  1.
       14    1    4    4    0    0  0.30590231777E+03 -0.17551283406E+03 -0.18221098941E+03  0.39696577636E+03  0.00000000000E+00 0. -1.
        1    1    5    5  501    0 -0.31951559451E+03  0.22321771748E+03 -0.27152164597E+03  0.47501617737E+03  0.00000000000E+00 0. -1.
       -2    1    5    5    0  501 -0.76066468202E+02  0.57674155971E+02 -0.23263310117E+02  0.98252722351E+02  0.00000000000E+00 0.  1.
</event>
<event>
 9   1  0.7335000E-04  0.9955968E+03  0.7818608E-02  0.9313387E-01
       21   -1    0    0  503  502  0.00000000000E+00  0.00000000000E+00  0.45082586065E+03  0.45082586065E+03  0.00000000000E+00 0. -1.
       21   -1    0    0  502  503 -0.00000000000E+00 -0.00000000000E+00 -0.54966511930E+03  0.54966511930E+03  0.00000000000E+00 0.  1.
       39    2    1    2    0    0  0.00000000000E+00  0.00000000000E+00 -0.98839258658E+02  0.10004909799E+04  0.99559680690E+03 0.  0.
       24    2    3    3    0    0 -0.23547877089E+03  0.37389157936E+03  0.16612698824E+03  0.47870063018E+03  0.79441503359E+02 0.  0.
      -24    2    3    3    0    0  0.23547877089E+03 -0.37389157936E+03 -0.26496624690E+03  0.52179034977E+03  0.82540247551E+02 0.  0.
      -13    1    4    4    0    0 -0.21332499071E+03  0.29985620556E+03  0.11312229241E+03  0.38499084238E+03  0.00000000000E+00 0.  1.
       14    1    4    4    0    0 -0.22153780178E+02  0.74035373798E+02  0.53004695825E+02  0.93709787798E+02  0.00000000000E+00 0. -1.
        3    1    5    5  501    0  0.85887124038E+02 -0.11172083577E+03 -0.43736471459E+02  0.14755006661E+03  0.00000000000E+00 0. -1.
       -4    1    5    5    0  501  0.14959164685E+03 -0.26217074359E+03 -0.22122977544E+03  0.37424028316E+03  0.14200000000E+01 0.  1.
</event>
<event>
 9   1  0.7335000E-04  0.1000232E+04  0.7818608E-02  0.9308291E-01
        1   -1    0    0  501    0  0.00000000000E+00  0.00000000000E+00  0.18623549227E+04  0.18623549227E+04  0.00000000000E+00 0. -1.
       -1   -1    0    0    0  501 -0.00000000000E+00 -0.00000000000E+00 -0.13430082896E+03  0.13430082896E+03  0.00000000000E+00 0.  1.
       39    2    1    2    0    0  0.00000000000E+00  0.56843418861E-13  0.17280540937E+04  0.19966557517E+04  0.10002315931E+04 0.  0.
       24    2    3    3    0    0 -0.21948681280E+03 -0.44116233531E+03  0.91937056896E+03  0.10462409136E+04  0.81111892286E+02 0.  0.
      -24    2    3    3    0    0  0.21948681280E+03  0.44116233531E+03  0.80868352477E+03  0.95041483808E+03  0.80750567334E+02 0.  0.
      -13    1    4    4    0    0 -0.20775102737E+03 -0.35217893795E+03  0.73121385277E+03  0.83777335371E+03  0.00000000000E+00 0.  1.
       14    1    4    4    0    0 -0.11735785428E+02 -0.88983397351E+02  0.18815671619E+03  0.20846755985E+03  0.00000000000E+00 0. -1.
        3    1    5    5  502    0  0.18503705972E+03  0.34601000616E+03  0.57909163242E+03  0.69950608044E+03  0.00000000000E+00 0. -1.
       -4    1    5    5    0  502  0.34449753085E+02  0.95152329150E+02  0.22959189235E+03  0.25090875764E+03  0.14200000000E+01 0.  1.
</event>
<event>
 9   1  0.7335000E-04  0.9991397E+03  0.7818608E-02  0.9309489E-01
       21   -1    0    0  503  502  0.00000000000E+00  0.00000000000E+00  0.77049120348E+03  0.77049120348E+03  0.00000000000E+00 0. -1.
       21   -1    0    0  502  503 -0.00000000000E+00 -0.00000000000E+00 -0.32391027531E+03  0.32391027531E+03  0.00000000000E+00 0.  1.
       39    2    1    2    0    0  0.00000000000E+00  0.00000000000E+00  0.44658092817E+03  0.10944014788E+04  0.99913966560E+03 0.  0.
       24    2    3    3    0    0  0.15132955055E+03  0.14893655058E+03  0.71038120573E+03  0.74597171938E+03  0.82156069112E+02 0.  0.
      -24    2    3    3    0    0 -0.15132955055E+03 -0.14893655058E+03 -0.26380027755E+03  0.34842975942E+03  0.82036466543E+02 0.  0.
      -13    1    4    4    0    0  0.69499629424E+02  0.35463917670E+02  0.15891111129E+03  0.17703284791E+03  0.00000000000E+00 0.  1.
       14    1    4    4    0    0  0.81829921122E+02  0.11347263291E+03  0.55147009444E+03  0.56893887147E+03  0.00000000000E+00 0. -1.
        1    1    5    5  501    0 -0.91986947520E+01 -0.42618183575E+02 -0.23037137168E+02  0.49311613696E+02  0.00000000000E+00 0. -1.
       -2    1    5    5    0  501 -0.14213085579E+03 -0.10631836700E+03 -0.24076314039E+03  0.29911814572E+03  0.00000000000E+00 0.  1.
</event>
<event>
 9   1  0.7335000E-04  0.1005982E+04  0.7818608E-02  0.9302008E-01
       21   -1    0    0  503  502  0.00000000000E+00  0.00000000000E+00  0.70362479605E+03  0.70362479605E+03  0.00000000000E+00 0. -1.
       21   -1    0    0  502  503 -0.00000000000E+00 -0.00000000000E+00 -0.35956678594E+03  0.35956678594E+03  0.00000000000E+00 0.  1.
       39    2    1    2    0    0  0.00000000000E+00  0.00000000000E+00  0.34405801012E+03  0.10631915820E+04  0.10059823188E+04 0.  0.
       24    2    3    3    0    0 -0.37241230024E+03 -0.22895283701E+03 -0.76858921458E+02  0.45114936145E+03  0.80734934092E+02 0.  0.
      -24    2    3    3    0    0  0.37241230024E+03  0.22895283701E+03  0.42091693158E+03  0.61204222054E+03  0.79462528865E+02 0.  0.
      -13    1    4    4    0    0 -0.28508103538E+03 -0.14533340824E+03 -0.81311985955E+02  0.33015850033E+03  0.00000000000E+00 0.  1.
       14    1    4    4    0    0 -0.87331264865E+02 -0.83619428764E+02  0.44530644970E+01  0.12099086111E+03  0.00000000000E+00 0. -1.
        1    1    5    5  501    0  0.32191263022E+03  0.18891564873E+03  0.31668284048E+03  0.48949452018E+03  0.00000000000E+00 0. -1.
       -2    1    5    5    0  501  0.50499670019E+02  0.40037188272E+02  0.10423409110E+03  0.12254770036E+03  0.00000000000E+00 0.  1.
</event>
<event>
 9   1  0.7335000E-04  0.9969340E+03  0.7818608E-02  0.9311914E-01
       21   -1    0    0  503  502  0.00000000000E+00  0.00000000000E+00  0.29204474552E+03  0.29204474552E+03  0.00000000000E+00 0. -1.
       21   -1    0    0  502  503 -0.00000000000E+00 -0.00000000000E+00 -0.85079209444E+03  0.85079209444E+03  0.00000000000E+00 0.  1.
       39    2    1    2    0    0  0.00000000000E+00  0.56843418861E-13 -0.55874734892E+03  0.11428368400E+04  0.99693402131E+03 0.  0.
       24    2    3    3    0    0 -0.16700592908E+02 -0.48988189132E+03 -0.33028289508E+03  0.59608874043E+03  0.77277541586E+02 0.  0.
      -24    2    3    3    0    0  0.16700592908E+02  0.48988189132E+03 -0.22846445383E+03  0.54674809953E+03  0.80463037649E+02 0.  0.
      -13    1    4    4    0    0  0.44852837323E+01  0.12307472117E+01 -0.31531754866E+01  0.56191658196E+01  0.00000000000E+00 0.  1.
       14    1    4    4    0    0 -0.21185876641E+02 -0.49111263853E+03 -0.32712971960E+03  0.59046957461E+03  0.00000000000E+00 0. -1.
        1    1    5    5  501    0  0.39797547822E+00 -0.23554401986E+01  0.18770803794E+01  0.30380773132E+01  0.00000000000E+00 0. -1.
       -2    1    5    5    0  501  0.16302617430E+02  0.49223733152E+03 -0.23034153421E+03  0.54371002222E+03  0.00000000000E+00 0.  1.
</event>
<event>
 9   1  0.7335000E-04  0.9941326E+03  0.7818608E-02  0.9315004E-01
       21   -1    0    0  503  502  0.00000000000E+00  0.00000000000E+00  0.13484002422E+04  0.13484002422E+04  0.00000000000E+00 0. -1.
       21   -1    0    0  502  503 -0.00000000000E+00 -0.00000000000E+00 -0.18323557027E+03  0.18323557027E+03  0.00000000000E+00 0.  1.
       39    2    1    2    0    0 -0.28421709430E-13 -0.56843418861E-13  0.11651646719E+04  0.15316358125E+04  0.99413256126E+03 0.  0.
       24    2    3    3    0    0  0.17802207720E+03  0.42823937537E+03  0.33627316108E+03  0.57849440505E+03  0.80593518512E+02 0.  0.
      -24    2    3    3    0    0 -0.17802207720E+03 -0.42823937537E+03  0.82889151087E+03  0.95314140744E+03  0.79602658228E+02 0.  0.
      -13    1    4    4    0    0  0.88535472694E+02  0.23511860022E+03  0.13341569830E+03  0.28446271223E+03  0.00000000000E+00 0.  1.
       14    1    4    4    0    0  0.89486604509E+02  0.19312077515E+03  0.20285746278E+03  0.29403169283E+03  0.00000000000E+00 0. -1.
        3    1    5    5  501    0 -0.17340813988E+03 -0.33540285999E+03  0.66756438189E+03  0.76694697694E+03  0.00000000000E+00 0. -1.
       -4    1    5    5    0  501 -0.46139373261E+01 -0.92836515383E+02  0.16132712897E+03  0.18619443050E+03  0.14200000000E+01 0.  1.
</event>
<event>
 9   1  0.7335000E-04  0.1001082E+04  0.7818608E-02  0.9307359E-01
       21   -1    0    0  503  502  0.00000000000E+00  0.00000000000E+00  0.21306162950E+04  0.21306162950E+04  0.00000000000E+00 0. -1.
       21   -1    0    0  502  503 -0.00000000000E+00 -0.00000000000E+00 -0.11759093280E+03  0.11759093280E+03  0.00000000000E+00 0.  1.
       39    2    1    2    0    0 -0.56843418861E-13 -0.71054273576E-14  0.20130253622E+04  0.22482072278E+04  0.10010817301E+04 0.  0.
       24    2    3    3    0    0  0.43141844569E+03  0.43500160927E+02  0.15389054112E+04  0.16008456511E+04  0.80391508968E+02 0.  0.
      -24    2    3    3    0    0 -0.43141844569E+03 -0.43500160927E+02  0.47411995106E+03  0.64736157677E+03  0.79203180470E+02 0.  0.
      -13    1    4    4    0    0  0.27254695636E+03  0.32408550451E+02  0.82744172638E+03  0.87177518209E+03  0.00000000000E+00 0.  1.
       14    1    4    4    0    0  0.15887148934E+03  0.11091610476E+02  0.71146368478E+03  0.72907046896E+03  0.00000000000E+00 0. -1.
        1    1    5    5  501    0 -0.50072960049E+02 -0.31425851714E+02  0.58426204598E+02  0.83117428183E+02  0.00000000000E+00 0. -1.
       -2    1    5    5    0  501 -0.38134548564E+03 -0.12074309213E+02  0.41569374646E+03  0.56424414858E+03  0.00000000000E+00 0.  1.
</event>
<event>
 9   1  0.7335000E-04  0.1081700E+04  0.7818608E-02  0.9223214E-01
       21   -1    0    0  503  502  0.00000000000E+00  0.00000000000E+00  0.10217203461E+04  0.10217203461E+04  0.00000000000E+00 0.  1.
       21   -1    0    0  502  503 -0.00000000000E+00 -0.00000000000E+00 -0.28630014008E+03  0.28630014008E+03  0.00000000000E+00 0. -1.
       39    2    1    2    0    0  0.00000000000E+00  0.14210854715E-13  0.73542020604E+03  0.13080204862E+04  0.10816999181E+04 0.  0.
       24    2    3    3    0    0 -0.46873471836E+03 -0.65101771536E+02  0.66879078052E+03  0.82329569642E+03  0.81143199203E+02 0.  0.
      -24    2    3    3    0    0  0.46873471836E+03  0.65101771536E+02  0.66629425527E+02  0.48472478979E+03  0.81044214090E+02 0.  0.
      -13    1    4    4    0    0 -0.42121870212E+03 -0.32806183286E+02  0.58093488417E+03  0.71832219813E+03  0.00000000000E+00 0.  1.
       14    1    4    4    0    0 -0.47516016244E+02 -0.32295588250E+02  0.87855896344E+02  0.10497349829E+03  0.00000000000E+00 0. -1.
        1    1    5    5  501    0  0.39658951455E+03  0.24650133124E+02  0.52329126355E+02  0.40078574024E+03  0.00000000000E+00 0. -1.
       -2    1    5    5    0  501  0.72145203810E+02  0.40451638412E+02  0.14300299172E+02  0.83939049550E+02  0.00000000000E+00 0.  1.
</event>
<event>
 9   1  0.7335000E-04  0.1001241E+04  0.7818608E-02  0.9307185E-01
       21   -1    0    0  503  502  0.00000000000E+00  0.00000000000E+00  0.58207158208E+03  0.58207158208E+03  0.00000000000E+00 0. -1.
       21   -1    0    0  502  503 -0.00000000000E+00 -0.00000000000E+00 -0.43056683787E+03  0.43056683787E+03  0.00000000000E+00 0.  1.
       39    2    1    2    0    0  0.56843418861E-13  0.71054273576E-14  0.15150474421E+03  0.10126384199E+04  0.10012406714E+04 0.  0.
       24    2    3    3    0    0  0.41736872068E+03  0.56859925346E+02 -0.18664223429E+03  0.46658167225E+03  0.73711825015E+02 0.  0.
      -24    2    3    3    0    0 -0.41736872068E+03 -0.56859925346E+02  0.33814697849E+03  0.54605674769E+03  0.80030572435E+02 0.  0.
      -13    1    4    4    0    0  0.28479117276E+03  0.51288290581E+02 -0.16195191985E+03  0.33160959753E+03  0.00000000000E+00 0.  1.
       14    1    4    4    0    0  0.13257754793E+03  0.55716347648E+01 -0.24690314440E+02  0.13497207472E+03  0.00000000000E+00 0. -1.
        1    1    5    5  501    0 -0.31246197824E+03 -0.14306625229E+02  0.27464845344E+03  0.41625585924E+03  0.00000000000E+00 0. -1.
       -2    1    5    5    0  501 -0.10490674244E+03 -0.42553300117E+02  0.63498525052E+02  0.12980088846E+03  0.00000000000E+00 0.  1.
</event>
<event>
 9   1  0.7335000E-04  0.1000678E+04  0.7818608E-02  0.9307801E-01
       21   -1    0    0  503  502  0.00000000000E+00  0.00000000000E+00  0.43094648896E+03  0.43094648896E+03  0.00000000000E+00 0.  1.
       21   -1    0    0  502  503 -0.00000000000E+00 -0.00000000000E+00 -0.58090558505E+03  0.58090558505E+03  0.00000000000E+00 0. -1.
       39    2    1    2    0    0  0.11368683772E-12  0.00000000000E+00 -0.14995909608E+03  0.10118520740E+04  0.10006782146E+04 0.  0.
       24    2    3    3    0    0 -0.44807805526E+03 -0.75369943137E+01 -0.28462903396E+03  0.53656507386E+03  0.77830852683E+02 0.  0.
      -24    2    3    3    0    0  0.44807805526E+03  0.75369943137E+01  0.13466993787E+03  0.47528700015E+03  0.83252570261E+02 0.  0.
      -13    1    4    4    0    0 -0.69618438102E+02 -0.27205159184E+02 -0.33288905567E+02  0.81822972592E+02  0.00000000000E+00 0.  1.
       14    1    4    4    0    0 -0.37845961715E+03  0.19668164871E+02 -0.25134012839E+03  0.45474210127E+03  0.00000000000E+00 0. -1.
        3    1    5    5  501    0  0.16910664106E+03 -0.37049547641E+02  0.57584958257E+02  0.18244383369E+03  0.00000000000E+00 0. -1.
       -4    1    5    5    0  501  0.27897141419E+03  0.44586541955E+02  0.77084979616E+02  0.29284316646E+03  0.14200000000E+01 0.  1.
</event>
<event>
 9   1  0.7335000E-04  0.9945774E+03  0.7818608E-02  0.9314512E-01
       21   -1    0    0  503  502  0.00000000000E+00  0.00000000000E+00  0.32699392098E+03  0.32699392098E+03  0.00000000000E+00 0. -1.
       21   -1    0    0  502  503 -0.00000000000E+00 -0.00000000000E+00 -0.75627106210E+03  0.75627106210E+03  0.00000000000E+00 0.  1.
       39    2    1    2    0    0  0.00000000000E+00  0.00000000000E+00 -0.42927714112E+03  0.10832649831E+04  0.99457737742E+03 0.  0.
       24    2    3    3    0    0 -0.26626553084E+03  0.30651602775E+02  0.23419568896E+03  0.36322251347E+03  0.72430103551E+02 0.  0.
      -24    2    3    3    0    0  0.26626553084E+03 -0.30651602775E+02 -0.66347283008E+03  0.72004246960E+03  0.80175483206E+02 0.  0.
      -13    1    4    4    0    0 -0.74668485292E+01 -0.95021660228E+01  0.25947271996E+02  0.28623520226E+02  0.00000000000E+00 0.  1.
       14    1    4    4    0    0 -0.25879868231E+03  0.40153768798E+02  0.20824841697E+03  0.33459899325E+03  0.00000000000E+00 0. -1.
        1    1    5    5  501    0  0.46753071565E+01 -0.15509813298E+02 -0.59787086057E+02  0.61942783798E+02  0.00000000000E+00 0. -1.
       -2    1    5    5    0  501  0.26159022368E+03 -0.15141789476E+02 -0.60368574402E+03  0.65809968580E+03  0.00000000000E+00 0.  1.
</event>
<event>
 9   1  0.7335000E-04  0.9947688E+03  0.7818608E-02  0.9314301E-01
       21   -1    0    0  503  502  0.00000000000E+00  0.00000000000E+00  0.16323758329E+04  0.16323758329E+04  0.00000000000E+00 0.  1.
       21   -1    0    0  502  503 -0.00000000000E+00 -0.00000000000E+00 -0.15155286891E+03  0.15155286891E+03  0.00000000000E+00 0. -1.
       39    2    1    2    0    0  0.00000000000E+00  0.00000000000E+00  0.14808229640E+04  0.17839287018E+04  0.99476879850E+03 0.  0.
       24    2    3    3    0    0 -0.19378937236E+02  0.48629470535E+03  0.85233954858E+03  0.98495698962E+03  0.82458969593E+02 0.  0.
      -24    2    3    3    0    0  0.19378937236E+02 -0.48629470535E+03  0.62848341538E+03  0.79897171217E+03  0.80661699600E+02 0.  0.
      -13    1    4    4    0    0 -0.10650549358E+02  0.47961535504E+03  0.81180696562E+03  0.94296069505E+03  0.00000000000E+00 0.  1.
       14    1    4    4    0    0 -0.87283878778E+01  0.66793503071E+01  0.40532582962E+02  0.41996294564E+02  0.00000000000E+00 0. -1.
        1    1    5    5  501    0 -0.73313491740E+01 -0.20634737904E+03  0.32662759064E+03  0.38641761410E+03  0.00000000000E+00 0. -1.
       -2    1    5    5    0  501  0.26710286410E+02 -0.27994732630E+03  0.30185582473E+03  0.41255409807E+03  0.00000000000E+00 0.  1.
</event>
<event>
 9   1  0.7335000E-04  0.1032566E+04  0.7818608E-02  0.9273531E-01
       21   -1    0    0  503  502  0.00000000000E+00  0.00000000000E+00  0.33034415292E+03  0.33034415292E+03  0.00000000000E+00 0. -1.
       21   -1    0    0  502  503 -0.00000000000E+00 -0.00000000000E+00 -0.80687968551E+03  0.80687968551E+03  0.00000000000E+00 0.  1.
       39    2    1    2    0    0  0.00000000000E+00 -0.14210854715E-13 -0.47653553259E+03  0.11372238384E+04  0.10325657097E+04 0.  0.
       24    2    3    3    0    0  0.26170749266E+03 -0.81844037444E+02  0.23611997556E+03  0.37050162290E+03  0.79558478723E+02 0.  0.
      -24    2    3    3    0    0 -0.26170749266E+03  0.81844037444E+02 -0.71265550815E+03  0.76672221552E+03  0.69251890214E+02 0.  0.
      -13    1    4    4    0    0  0.16083878621E+02  0.60488584035E+01  0.41839950910E+02  0.45231198654E+02  0.00000000000E+00 0.  1.
       14    1    4    4    0    0  0.24562361404E+03 -0.87892895847E+02  0.19428002465E+03  0.32527042425E+03  0.00000000000E+00 0. -1.
        3    1    5    5  501    0 -0.28486718177E+02 -0.10716525581E+02 -0.55606690748E+02  0.63391175166E+02  0.00000000000E+00 0. -1.
       -4    1    5    5    0  501 -0.23322077448E+03  0.92560563025E+02 -0.65704881740E+03  0.70333104036E+03  0.14200000000E+01 0.  1.
</event>
<event>
 9   1  0.7335000E-04  0.9967644E+03  0.7818608E-02  0.9312101E-01
        1   -1    0    0  501    0  0.00000000000E+00  0.00000000000E+00  0.57028880648E+03  0.57028880648E+03  0.00000000000E+00 0. -1.
       -1   -1    0    0    0  501 -0.00000000000E+00 -0.00000000000E+00 -0.43554216598E+03  0.43554216598E+03  0.00000000000E+00 0.  1.
       39    2    1    2    0    0  0.00000000000E+00  0.00000000000E+00  0.13474664050E+03  0.10058309725E+04  0.99676440950E+03 0.  0.
       24    2    3    3    0    0 -0.33225802502E+03 -0.11872551467E+03  0.41415249729E+03  0.54953560798E+03  0.77304271594E+02 0.  0.
      -24    2    3    3    0    0  0.33225802502E+03  0.11872551467E+03 -0.27940585679E+03  0.45629536449E+03  0.75144419754E+02 0.  0.
      -13    1    4    4    0    0 -0.73579443697E+02 -0.42264616947E+02  0.14795564260E+03  0.17056114609E+03  0.00000000000E+00 0.  1.
       14    1    4    4    0    0 -0.25867858133E+03 -0.76460897719E+02  0.26619685469E+03  0.37897446189E+03  0.00000000000E+00 0. -1.
        3    1    5    5  502    0  0.23729808367E+03  0.11684126841E+03 -0.18834951988E+03  0.32471187868E+03  0.00000000000E+00 0. -1.
       -4    1    5    5    0  502  0.94959941357E+02  0.18842462540E+01 -0.91056336910E+02  0.13158348581E+03  0.14200000000E+01 0.  1.
</event>
<event>
 9   1  0.7335000E-04  0.1003836E+04  0.7818608E-02  0.9304348E-01
       21   -1    0    0  503  502  0.00000000000E+00  0.00000000000E+00  0.17431602426E+03  0.17431602426E+03  0.00000000000E+00 0. -1.
       21   -1    0    0  502  503 -0.00000000000E+00 -0.00000000000E+00 -0.14452008672E+04  0.14452008672E+04  0.00000000000E+00 0.  1.
       39    2    1    2    0    0  0.00000000000E+00  0.00000000000E+00 -0.12708848429E+04  0.16195168914E+04  0.10038359815E+04 0.  0.
       24    2    3    3    0    0  0.20810232779E+02  0.20948298172E+03  0.87830246894E+02  0.24226871293E+03  0.81632049962E+02 0.  0.
      -24    2    3    3    0    0 -0.20810232779E+02 -0.20948298172E+03 -0.13587150898E+04  0.13772481785E+04  0.79935377100E+02 0.  0.
      -13    1    4    4    0    0  0.28977720492E+02  0.18185151606E+02  0.10702875982E+02  0.35846332841E+02  0.00000000000E+00 0.  1.
       14    1    4    4    0    0 -0.81674877124E+01  0.19129783011E+03  0.77127370912E+02  0.20642238009E+03  0.00000000000E+00 0. -1.
        3    1    5    5  501    0  0.11900300021E+02  0.10836835568E+01 -0.83503733218E+02  0.84354401023E+02  0.00000000000E+00 0. -1.
       -4    1    5    5    0  501 -0.32710532801E+02 -0.21056666527E+03 -0.12752113566E+04  0.12928937775E+04  0.14200000000E+01 0.  1.
</event>
<event>
 9   1  0.7335000E-04  0.1008955E+04  0.7818608E-02  0.9298777E-01
       21   -1    0    0  503  502  0.00000000000E+00  0.00000000000E+00  0.20910659272E+03  0.20910659272E+03  0.00000000000E+00 0. -1.
       21   -1    0    0  502  503 -0.00000000000E+00 -0.00000000000E+00 -0.12170709855E+04  0.12170709855E+04  0.00000000000E+00 0.  1.
       39    2    1    2    0    0 -0.14210854715E-13 -0.14210854715E-13 -0.10079643928E+04  0.14261775782E+04  0.10089550374E+04 0.  0.
       24    2    3    3    0    0 -0.10576698755E+03 -0.68819470533E+02 -0.11856590525E+04  0.11950482962E+04  0.80188941985E+02 0.  0.
      -24    2    3    3    0    0  0.10576698755E+03  0.68819470533E+02  0.17769465970E+03  0.23112928199E+03  0.76958285619E+02 0.  0.
      -13    1    4    4    0    0 -0.11438475402E+03 -0.69918868204E+02 -0.11642593613E+04  0.11719523798E+04  0.00000000000E+00 0.  1.
       14    1    4    4    0    0  0.86177664753E+01  0.10993976702E+01 -0.21399691147E+02  0.23095916423E+02  0.00000000000E+00 0. -1.
        1    1    5    5  501    0  0.81905951799E+02  0.70367887081E+02  0.91049514544E+02  0.14124531345E+03  0.00000000000E+00 0. -1.
       -2    1    5    5    0  501  0.23861035750E+02 -0.15484165474E+01  0.86645145157E+02  0.89883968538E+02  0.00000000000E+00 0.  1.
</event>
<event>
 9   1  0.7335000E-04  0.1009326E+04  0.7818608E-02  0.9298375E-01
       21   -1    0    0  503  502  0.00000000000E+00  0.00000000000E+00  0.10567713004E+03  0.10567713004E+03  0.00000000000E+00 0.  1.
       21   -1    0    0  502  503 -0.00000000000E+00 -0.00000000000E+00 -0.24100255348E+04  0.24100255348E+04  0.00000000000E+00 0. -1.
       39    2    1    2    0    0  0.00000000000E+00  0.00000000000E+00 -0.23043484048E+04  0.25157026649E+04  0.10093256796E+04 0.  0.
       24    2    3    3    0    0  0.27834515784E+03  0.40855728661E+03 -0.10000649861E+04  0.11184775208E+04  0.80417068617E+02 0.  0.
      -24    2    3    3    0    0 -0.27834515784E+03 -0.40855728661E+03 -0.13042834187E+04  0.13972251440E+04  0.81778869121E+02 0.  0.
      -13    1    4    4    0    0  0.25925834885E+03  0.33544615420E+03 -0.81751145352E+03  0.92090389860E+03  0.00000000000E+00 0.  1.
       14    1    4    4    0    0  0.19086808996E+02  0.73111132410E+02 -0.18255353255E+03  0.19757362224E+03  0.00000000000E+00 0. -1.
        1    1    5    5  501    0 -0.11156957522E+03 -0.23630334147E+03 -0.67802160907E+03  0.72663632009E+03  0.00000000000E+00 0. -1.
       -2    1    5    5    0  501 -0.16677558262E+03 -0.17225394514E+03 -0.62626180963E+03  0.67058882393E+03  0.00000000000E+00 0.  1.
</event>
<event>
 9   1  0.7335000E-04  0.1021022E+04  0.7818608E-02  0.9285784E-01
       21   -1    0    0  503  502  0.00000000000E+00  0.00000000000E+00  0.43476883572E+03  0.43476883572E+03  0.00000000000E+00 0. -1.
       21   -1    0    0  502  503 -0.00000000000E+00 -0.00000000000E+00 -0.59944826193E+03  0.59944826193E+03  0.00000000000E+00 0.  1.
       39    2    1    2    0    0  0.71054273576E-14 -0.56843418861E-13 -0.16467942621E+03  0.10342170977E+04  0.10210218860E+04 0.  0.
       24    2    3    3    0    0 -0.54595464637E+02  0.44696268529E+03 -0.31166561228E+03  0.55336944555E+03  0.79536045818E+02 0.  0.
      -24    2    3    3    0    0  0.54595464637E+02 -0.44696268529E+03  0.14698618608E+03  0.48084765211E+03  0.82784170224E+02 0.  0.
      -13    1    4    4    0    0 -0.20912648905E+02  0.37439184454E+03 -0.27691312583E+03  0.46614104239E+03  0.00000000000E+00 0.  1.
       14    1    4    4    0    0 -0.33682815732E+02  0.72570840751E+02 -0.34752486453E+02  0.87228403158E+02  0.00000000000E+00 0. -1.
        3    1    5    5  501    0  0.41404972515E+02 -0.42581927714E+03  0.15435661002E+03  0.45482127434E+03  0.00000000000E+00 0. -1.
       -4    1    5    5    0  501  0.13190492121E+02 -0.21143408143E+02 -0.73704239463E+01  0.26026377763E+02  0.14200000000E+01 0.  1.
</event>
<event>
 9   1  0.7335000E-04  0.9972654E+03  0.7818608E-02  0.9311549E-01
       -1   -1    0    0    0  501 -0.00000000000E+00  0.00000000000E+00  0.30380159913E+03  0.30380159913E+03  0.00000000000E+00 0.  1.
        1   -1    0    0  501    0  0.00000000000E+00 -0.00000000000E+00 -0.81841104844E+03  0.81841104844E+03  0.00000000000E+00 0. -1.
       39    2    1    2    0    0  0.00000000000E+00  0.56843418861E-13 -0.51460944932E+03  0.11222126476E+04  0.99726543159E+03 0.  0.
       24    2    3    3    0    0 -0.65654176170E+02 -0.41819818481E+03  0.24828615870E+02  0.43189223730E+03  0.81940538455E+02 0.  0.
      -24    2    3    3    0    0  0.65654176170E+02  0.41819818481E+03 -0.53943806519E+03  0.69032041027E+03  0.79678416379E+02 0.  0.
      -13    1    4    4    0    0 -0.48733138234E+02 -0.33018049360E+03  0.53000727232E+02  0.33793957182E+03  0.00000000000E+00 0.  1.
       14    1    4    4    0    0 -0.16921037936E+02 -0.88017691212E+02 -0.28172111363E+02  0.93952665475E+02  0.00000000000E+00 0. -1.
        3    1    5    5  502    0  0.11690425563E+01  0.23565412730E+03 -0.26739007347E+03  0.35641504705E+03  0.00000000000E+00 0. -1.
       -4    1    5    5    0  502  0.64485133614E+02  0.18254405751E+03 -0.27204799172E+03  0.33390536322E+03  0.14200000000E+01 0.  1.
</event>
<event>
 9   1  0.7335000E-04  0.1005892E+04  0.7818608E-02  0.9302106E-01
       21   -1    0    0  503  502  0.00000000000E+00  0.00000000000E+00  0.21396441341E+03  0.21396441341E+03  0.00000000000E+00 0. -1.
       21   -1    0    0  502  503 -0.00000000000E+00 -0.00000000000E+00 -0.11822271829E+04  0.11822271829E+04  0.00000000000E+00 0.  1.
       39    2    1    2    0    0  0.00000000000E+00 -0.56843418861E-13 -0.96826276946E+03  0.13961915963E+04  0.10058917351E+04 0.  0.
       24    2    3    3    0    0  0.38457721847E+03 -0.25872846108E+03 -0.73058513966E+03  0.86918579825E+03  0.83001518397E+02 0.  0.
      -24    2    3    3    0    0 -0.38457721847E+03  0.25872846108E+03 -0.23767762980E+03  0.52700579803E+03  0.80027507210E+02 0.  0.
      -13    1    4    4    0    0  0.30462991726E+03 -0.18918313404E+03 -0.49873440804E+03  0.61426838960E+03  0.00000000000E+00 0.  1.
       14    1    4    4    0    0  0.79947301206E+02 -0.69545327044E+02 -0.23185073161E+03  0.25491740865E+03  0.00000000000E+00 0. -1.
        3    1    5    5  501    0 -0.36107971962E+03  0.21785484892E+03 -0.20049667161E+03  0.46694562258E+03  0.00000000000E+00 0. -1.
       -4    1    5    5    0  501 -0.23497498851E+02  0.40873612162E+02 -0.37180958191E+02  0.60060175453E+02  0.14200000000E+01 0. -1.
</event>
<event>
 9   1  0.7335000E-04  0.1000960E+04  0.7818608E-02  0.9307493E-01
       21   -1    0    0  503  502  0.00000000000E+00  0.00000000000E+00  0.76053831182E+03  0.76053831182E+03  0.00000000000E+00 0. -1.
       21   -1    0    0  502  503 -0.00000000000E+00 -0.00000000000E+00 -0.32934583499E+03  0.32934583499E+03  0.00000000000E+00 0.  1.
       39    2    1    2    0    0  0.56843418861E-13  0.28421709430E-13  0.43119247684E+03  0.10898841468E+04  0.10009597901E+04 0.  0.
       24    2    3    3    0    0  0.39204092998E+03  0.17532318216E+03  0.47945813363E+03  0.64893916164E+03  0.82508330652E+02 0.  0.
      -24    2    3    3    0    0 -0.39204092998E+03 -0.17532318216E+03 -0.48265656792E+02  0.44094498517E+03  0.87570527758E+02 0.  0.
      -13    1    4    4    0    0  0.31190052677E+03  0.16611095434E+03  0.35715655418E+03  0.50242968856E+03  0.00000000000E+00 0.  1.
       14    1    4    4    0    0  0.80140403211E+02  0.92122278275E+01  0.12230157945E+03  0.14650947308E+03  0.00000000000E+00 0. -1.
        1    1    5    5  501    0 -0.30151227789E+03 -0.10287125509E+03 -0.60765722435E+02  0.32432178752E+03  0.00000000000E+00 0. -1.
       -2    1    5    5    0  501 -0.90528652095E+02 -0.72451927074E+02  0.12500065642E+02  0.11662319764E+03  0.00000000000E+00 0.  1.
</event>
<event>
 9   1  0.7335000E-04  0.1012866E+04  0.7818608E-02  0.9294545E-01
       21   -1    0    0  503  502  0.00000000000E+00  0.00000000000E+00  0.45103870637E+03  0.45103870637E+03  0.00000000000E+00 0. -1.
       21   -1    0    0  502  503 -0.00000000000E+00 -0.00000000000E+00 -0.56863085111E+03  0.56863085111E+03  0.00000000000E+00 0.  1.
       39    2    1    2    0    0 -0.71054273576E-14  0.00000000000E+00 -0.11759214474E+03  0.10196695575E+04  0.10128662764E+04 0.  0.
       24    2    3    3    0    0 -0.16732030015E+02 -0.16424923799E+03 -0.53395286861E+03  0.56449418255E+03  0.79311053624E+02 0.  0.
      -24    2    3    3    0    0  0.16732030015E+02  0.16424923799E+03  0.41636072387E+03  0.45517537493E+03  0.81059216328E+02 0.  0.
      -13    1    4    4    0    0  0.13471155537E+02 -0.14471303913E+03 -0.39266734814E+03  0.41870154289E+03  0.00000000000E+00 0.  1.
       14    1    4    4    0    0 -0.30203185552E+02 -0.19536198857E+02 -0.14128552047E+03  0.14579263966E+03  0.00000000000E+00 0. -1.
        3    1    5    5  501    0  0.38075116468E+02  0.13307408196E+03  0.37184507195E+03  0.39677094566E+03  0.00000000000E+00 0. -1.
       -4    1    5    5    0  501 -0.21343086453E+02  0.31175156027E+02  0.44515651918E+02  0.58404429270E+02  0.14200000000E+01 0.  1.
</event>
<event>
 9   1  0.7335000E-04  0.1087571E+04  0.7818608E-02  0.9217392E-01
       21   -1    0    0  503  502  0.00000000000E+00  0.00000000000E+00  0.35906907200E+03  0.35906907200E+03  0.00000000000E+00 0. -1.
       21   -1    0    0  502  503 -0.00000000000E+00 -0.00000000000E+00 -0.82352546476E+03  0.82352546476E+03  0.00000000000E+00 0.  1.
       39    2    1    2    0    0  0.00000000000E+00  0.28421709430E-13 -0.46445639276E+03  0.11825945368E+04  0.10875707322E+04 0.  0.
       24    2    3    3    0    0  0.50145107561E+03 -0.11761101814E+03 -0.64731597487E+02  0.52534707816E+03  0.80708363881E+02 0.  0.
      -24    2    3    3    0    0 -0.50145107561E+03  0.11761101814E+03 -0.39972479528E+03  0.65724745861E+03  0.83119053611E+02 0.  0.
      -13    1    4    4    0    0  0.17957256675E+03 -0.40671919551E+02 -0.62352693884E+02  0.19439231004E+03  0.00000000000E+00 0.  1.
       14    1    4    4    0    0  0.32187850885E+03 -0.76939098586E+02 -0.23789036025E+01  0.33095476811E+03  0.00000000000E+00 0. -1.
        1    1    5    5  501    0 -0.67345088550E+02  0.27529825274E+01 -0.23351852132E+02  0.71331962419E+02  0.00000000000E+00 0. -1.
       -2    1    5    5    0  501 -0.43410598706E+03  0.11485803561E+03 -0.37637294314E+03  0.58591549619E+03  0.00000000000E+00 0.  1.
</event>
<event>
 9   1  0.7335000E-04  0.9976223E+03  0.7818608E-02  0.9311156E-01
       21   -1    0    0  503  502  0.00000000000E+00  0.00000000000E+00  0.16104196322E+04  0.16104196322E+04  0.00000000000E+00 0.  1.
       21   -1    0    0  502  503 -0.00000000000E+00 -0.00000000000E+00 -0.15450169306E+03  0.15450169306E+03  0.00000000000E+00 0. -1.
       39    2    1    2    0    0  0.00000000000E+00  0.11368683772E-12  0.14559179392E+04  0.17649213253E+04  0.99762229271E+03 0.  0.
       24    2    3    3    0    0 -0.46326849837E+02  0.49012394466E+03  0.71861963597E+03  0.87477349273E+03  0.80292118122E+02 0.  0.
      -24    2    3    3    0    0  0.46326849837E+02 -0.49012394466E+03  0.73729830321E+03  0.89014783258E+03  0.79916943052E+02 0.  0.
      -13    1    4    4    0    0 -0.26725235066E+02  0.33449176311E+03  0.42120750988E+03  0.53853017014E+03  0.00000000000E+00 0.  1.
       14    1    4    4    0    0 -0.19601614771E+02  0.15563218155E+03  0.29741212609E+03  0.33624332258E+03  0.00000000000E+00 0. -1.
        3    1    5    5  501    0  0.27132060803E+02 -0.42196641309E+03  0.67112107033E+03  0.79321831392E+03  0.00000000000E+00 0. -1.
       -4    1    5    5    0  501  0.19194789034E+02 -0.68157531571E+02  0.66177232879E+02  0.96929518659E+02  0.14200000000E+01 0.  1.
</event>
<event>
 9   1  0.7335000E-04  0.9996546E+03  0.7818608E-02  0.9308924E-01
       21   -1    0    0  503  502  0.00000000000E+00  0.00000000000E+00  0.69892486054E+03  0.69892486054E+03  0.00000000000E+00 0. -1.
       21   -1    0    0  502  503 -0.00000000000E+00 -0.00000000000E+00 -0.35744522336E+03  0.35744522336E+03  0.00000000000E+00 0.  1.
       39    2    1    2    0    0 -0.56843418861E-13  0.00000000000E+00  0.34147963718E+03  0.10563700839E+04  0.99965464614E+03 0.  0.
       24    2    3    3    0    0  0.28462600851E+03  0.76902528737E+02 -0.24742407722E+03  0.39281207729E+03  0.78464580771E+02 0.  0.
      -24    2    3    3    0    0 -0.28462600851E+03 -0.76902528737E+02  0.58890371440E+03  0.66355800661E+03  0.81090564530E+02 0.  0.
      -13    1    4    4    0    0  0.24958457301E+03  0.72027397002E+02 -0.24543448790E+03  0.35737724166E+03  0.00000000000E+00 0.  1.
       14    1    4    4    0    0  0.35041435495E+02  0.48751317353E+01 -0.19895893208E+01  0.35434835637E+02  0.00000000000E+00 0. -1.
        1    1    5    5  501    0 -0.13242259363E+03 -0.77503932824E+01  0.19710942648E+03  0.23758774780E+03  0.00000000000E+00 0. -1.
       -2    1    5    5    0  501 -0.15220341488E+03 -0.69152135455E+02  0.39179428792E+03  0.42597025881E+03  0.00000000000E+00 0.  1.
</event>
<event>
 9   1  0.7335000E-04  0.1000627E+04  0.7818608E-02  0.9307857E-01
       21   -1    0    0  503  502  0.00000000000E+00  0.00000000000E+00  0.19129205931E+03  0.19129205931E+03  0.00000000000E+00 0.  1.
       21   -1    0    0  502  503 -0.00000000000E+00 -0.00000000000E+00 -0.13085418222E+04  0.13085418222E+04  0.00000000000E+00 0. -1.
       39    2    1    2    0    0  0.00000000000E+00 -0.28421709430E-13 -0.11172497629E+04  0.14998338815E+04  0.10006271231E+04 0.  0.
       24    2    3    3    0    0 -0.24401364839E+03 -0.10039672442E+03 -0.11838605138E+04  0.12158484275E+04  0.84495677189E+02 0.  0.
      -24    2    3    3    0    0  0.24401364839E+03  0.10039672442E+03  0.66610750969E+02  0.28398545403E+03  0.81170087336E+02 0.  0.
      -13    1    4    4    0    0 -0.29322026174E+02 -0.37049609382E+02 -0.12606737347E+03  0.13463074474E+03  0.00000000000E+00 0.  1.
       14    1    4    4    0    0 -0.21469162222E+03 -0.63347115037E+02 -0.10577931404E+04  0.10812176827E+04  0.00000000000E+00 0. -1.
        1    1    5    5  501    0  0.13576902132E+03  0.25139322500E+02  0.42430248973E+01  0.13814201369E+03  0.00000000000E+00 0. -1.
       -2    1    5    5    0  501  0.10824462707E+03  0.75257401920E+02  0.62367726071E+02  0.14584344033E+03  0.00000000000E+00 0.  1.
</event>
<event>
 9   1  0.7335000E-04  0.9908692E+03  0.7818608E-02  0.9318616E-01
       21   -1    0    0  503  502  0.00000000000E+00  0.00000000000E+00  0.95831226584E+03  0.95831226584E+03  0.00000000000E+00 0.  1.
       21   -1    0    0  502  503 -0.00000000000E+00 -0.00000000000E+00 -0.25613304221E+03  0.25613304221E+03  0.00000000000E+00 0. -1.
       39    2    1    2    0    0  0.28421709430E-13  0.56843418861E-13  0.70217922362E+03  0.12144453080E+04  0.99086918620E+03 0.  0.
       24    2    3    3    0    0  0.23623632114E+03 -0.42625616173E+03  0.30829381913E+03  0.58176263129E+03  0.76816439747E+02 0.  0.
      -24    2    3    3    0    0 -0.23623632114E+03  0.42625616173E+03  0.39388540450E+03  0.63268267676E+03  0.87405622055E+02 0.  0.
      -13    1    4    4    0    0  0.50614381891E+02 -0.56222925161E+02  0.75214345266E+02  0.10667722672E+03  0.00000000000E+00 0.  1.
       14    1    4    4    0    0  0.18562193925E+03 -0.37003323656E+03  0.23307947386E+03  0.47508540456E+03  0.00000000000E+00 0. -1.
        3    1    5    5  501    0 -0.19319009143E+03  0.35667525103E+03  0.28184327097E+03  0.49393853414E+03  0.00000000000E+00 0. -1.
       -4    1    5    5    0  501 -0.43046229709E+02  0.69580910700E+02  0.11204213353E+03  0.13874414262E+03  0.14200000000E+01 0.  1.
</event>
<event>
 9   1  0.7335000E-04  0.9953709E+03  0.7818608E-02  0.9313637E-01
       21   -1    0    0  503  502  0.00000000000E+00  0.00000000000E+00  0.13970596036E+04  0.13970596036E+04  0.00000000000E+00 0.  1.
       21   -1    0    0  502  503 -0.00000000000E+00 -0.00000000000E+00 -0.17729437666E+03  0.17729437666E+03  0.00000000000E+00 0. -1.
       39    2    1    2    0    0  0.00000000000E+00  0.00000000000E+00  0.12197652270E+04  0.15743539803E+04  0.99537090893E+03 0.  0.
       24    2    3    3    0    0  0.22980201353E+03 -0.39017869523E+03  0.30836202912E+03  0.55329554601E+03  0.77462510888E+02 0.  0.
      -24    2    3    3    0    0 -0.22980201353E+03  0.39017869523E+03  0.91140319785E+03  0.10210584343E+04  0.82801917491E+02 0.  0.
      -13    1    4    4    0    0  0.16357917939E+02 -0.77526958679E+02  0.36550218364E+02  0.87257832106E+02  0.00000000000E+00 0.  1.
       14    1    4    4    0    0  0.21344409559E+03 -0.31265173655E+03  0.27181181075E+03  0.46603771390E+03  0.00000000000E+00 0. -1.
        1    1    5    5  501    0 -0.65306947930E+02  0.65401946930E+02  0.13587015593E+03  0.16432623462E+03  0.00000000000E+00 0. -1.
       -2    1    5    5    0  501 -0.16449506560E+03  0.32477674830E+03  0.77553304192E+03  0.85673219967E+03  0.00000000000E+00 0.  1.
</event>
<event>
 9   1  0.7335000E-04  0.9974048E+03  0.7818608E-02  0.9311396E-01
       21   -1    0    0  503  502  0.00000000000E+00  0.00000000000E+00  0.12544924649E+04  0.12544924649E+04  0.00000000000E+00 0.  1.
       21   -1    0    0  502  503 -0.00000000000E+00 -0.00000000000E+00 -0.19825074784E+03  0.19825074784E+03  0.00000000000E+00 0. -1.
       39    2    1    2    0    0 -0.56843418861E-13  0.00000000000E+00  0.10562417171E+04  0.14527432128E+04  0.99740477106E+03 0.  0.
       24    2    3    3    0    0 -0.40338899785E+03 -0.28117960645E+03  0.49050173320E+03  0.69888840505E+03  0.77899921509E+02 0.  0.
      -24    2    3    3    0    0  0.40338899785E+03  0.28117960645E+03  0.56573998390E+03  0.75385480772E+03  0.80316169449E+02 0.  0.
      -13    1    4    4    0    0 -0.25625719744E+03 -0.13175228600E+03  0.28364378660E+03  0.40432686503E+03  0.00000000000E+00 0.  1.
       14    1    4    4    0    0 -0.14713180041E+03 -0.14942732045E+03  0.20685794660E+03  0.29456154002E+03  0.00000000000E+00 0. -1.
        3    1    5    5  501    0  0.44504983249E+02  0.66486291123E+02  0.88201742691E+02  0.11908260937E+03  0.00000000000E+00 0. -1.
       -4    1    5    5    0  501  0.35888401460E+03  0.21469331533E+03  0.47753824121E+03  0.63477219835E+03  0.14200000000E+01 0.  1.
</event>
<event>
 9   1  0.7335000E-04  0.9982229E+03  0.7818608E-02  0.9310496E-01
       21   -1    0    0  503  502  0.00000000000E+00  0.00000000000E+00  0.21801914194E+03  0.21801914194E+03  0.00000000000E+00 0.  1.
       21   -1    0    0  502  503 -0.00000000000E+00 -0.00000000000E+00 -0.11426163090E+04  0.11426163090E+04  0.00000000000E+00 0. -1.
       39    2    1    2    0    0 -0.71054273576E-14  0.00000000000E+00 -0.92459716710E+03  0.13606354510E+04  0.99822287544E+03 0.  0.
       24    2    3    3    0    0  0.59442116821E+02 -0.24081111900E+03  0.11741968647E+03  0.28665639835E+03  0.82832044854E+02 0.  0.
      -24    2    3    3    0    0 -0.59442116821E+02  0.24081111900E+03 -0.10420168536E+04  0.10739790526E+04  0.78157034718E+02 0.  0.
      -13    1    4    4    0    0  0.37858675936E+02 -0.23636239394E+03  0.10960113762E+03  0.26327337499E+03  0.00000000000E+00 0.  1.
       14    1    4    4    0    0  0.21583440885E+02 -0.44487250659E+01  0.78185488490E+01  0.23383023356E+02  0.00000000000E+00 0. -1.
        1    1    5    5  501    0 -0.73188957139E+02  0.23304012535E+03 -0.98062929083E+03  0.10105929594E+04  0.00000000000E+00 0. -1.
       -2    1    5    5    0  501  0.13746840318E+02  0.77709936521E+01 -0.61387562741E+02  0.63386093273E+02  0.00000000000E+00 0.  1.
</event>
<event>
 9   1  0.7335000E-04  0.9386307E+03  0.7818608E-02  0.9378539E-01
       21   -1    0    0  503  502  0.00000000000E+00  0.00000000000E+00  0.42338893570E+03  0.42338893570E+03  0.00000000000E+00 0.  1.
       21   -1    0    0  502  503 -0.00000000000E+00 -0.00000000000E+00 -0.52022356515E+03  0.52022356515E+03  0.00000000000E+00 0. -1.
       39    2    1    2    0    0 -0.71054273576E-14 -0.56843418861E-13 -0.96834629446E+02  0.94361250085E+03  0.93863070816E+03 0.  0.
       24    2    3    3    0    0  0.33401570446E+02  0.22666014239E+03 -0.45292275406E+03  0.51360706561E+03  0.78502940326E+02 0.  0.
      -24    2    3    3    0    0 -0.33401570446E+02 -0.22666014239E+03  0.35608812462E+03  0.43000543524E+03  0.74936218144E+02 0.  0.
      -13    1    4    4    0    0 -0.20242652224E+01  0.59651570131E+02 -0.57385972363E+02  0.82798292813E+02  0.00000000000E+00 0.  1.
       14    1    4    4    0    0  0.35425835669E+02  0.16700857226E+03 -0.39553678170E+03  0.43080877280E+03  0.00000000000E+00 0. -1.
        1    1    5    5  501    0 -0.34284481738E+02 -0.35285887026E+02  0.84150386861E+02  0.97477213338E+02  0.00000000000E+00 0. -1.
       -2    1    5    5    0  501  0.88291129124E+00 -0.19137425536E+03  0.27193773776E+03  0.33252822190E+03  0.00000000000E+00 0.  1.
</event>
<event>
 9   1  0.7335000E-04  0.9975832E+03  0.7818608E-02  0.9311200E-01
        2   -1    0    0  501    0  0.00000000000E+00  0.00000000000E+00  0.23328097422E+04  0.23328097422E+04  0.00000000000E+00 0.  1.
       -2   -1    0    0    0  501 -0.00000000000E+00 -0.00000000000E+00 -0.10664952021E+03  0.10664952021E+03  0.00000000000E+00 0. -1.
       39    2    1    2    0    0  0.00000000000E+00  0.00000000000E+00  0.22261602220E+04  0.24394592625E+04  0.99758315894E+03 0.  0.
       24    2    3    3    0    0  0.31275094634E+03  0.35633260494E+03  0.14385142721E+04  0.15167185852E+04  0.79535375704E+02 0.  0.
      -24    2    3    3    0    0 -0.31275094634E+03 -0.35633260494E+03  0.78764594993E+03  0.92274067721E+03  0.79234684089E+02 0.  0.
      -13    1    4    4    0    0  0.11371028361E+03  0.17321070943E+03  0.71012615366E+03  0.73973720507E+03  0.00000000000E+00 0.  1.
       14    1    4    4    0    0  0.19904066273E+03  0.18312189550E+03  0.72838811846E+03  0.77698138018E+03  0.00000000000E+00 0. -1.
        1    1    5    5  502    0 -0.25589404357E+03 -0.24473493443E+03  0.61126056986E+03  0.70641095258E+03  0.00000000000E+00 0. -1.
       -2    1    5    5    0  502 -0.56856902767E+02 -0.11159767051E+03  0.17638538007E+03  0.21632972463E+03  0.00000000000E+00 0.  1.
</event>
<event>
 9   1  0.7335000E-04  0.9933015E+03  0.7818608E-02  0.9315922E-01
       21   -1    0    0  503  502  0.00000000000E+00  0.00000000000E+00  0.76993318801E+03  0.76993318801E+03  0.00000000000E+00 0. -1.
       21   -1    0    0  502  503 -0.00000000000E+00 -0.00000000000E+00 -0.32036803417E+03  0.32036803417E+03  0.00000000000E+00 0.  1.
       39    2    1    2    0    0 -0.35527136788E-14  0.00000000000E+00  0.44956515384E+03  0.10903012222E+04  0.99330152901E+03 0.  0.
       24    2    3    3    0    0 -0.15587826406E+02  0.26481667880E+03 -0.22875702226E+03  0.35724709255E+03  0.70177319664E+02 0.  0.
      -24    2    3    3    0    0  0.15587826406E+02 -0.26481667880E+03  0.67832217610E+03  0.73305412963E+03  0.82924837498E+02 0.  0.
      -13    1    4    4    0    0 -0.14159876434E+02  0.26892112317E+03 -0.22797023795E+03  0.35283069874E+03  0.00000000000E+00 0.  1.
       14    1    4    4    0    0 -0.14279499719E+01 -0.41044443651E+01 -0.78678431435E+00  0.44163938033E+01  0.00000000000E+00 0. -1.
        1    1    5    5  501    0  0.32261676034E+02 -0.24858736463E+03  0.64826928456E+03  0.69504644370E+03  0.00000000000E+00 0. -1.
       -2    1    5    5    0  501 -0.16673849628E+02 -0.16229314170E+02  0.30052891538E+02  0.38007685928E+02  0.00000000000E+00 0.  1.
</event>
<event>
 9   1  0.7335000E-04  0.1000342E+04  0.7818608E-02  0.9308170E-01
       21   -1    0    0  503  502  0.00000000000E+00  0.00000000000E+00  0.10284960739E+04  0.10284960739E+04  0.00000000000E+00 0. -1.
       21   -1    0    0  502  503 -0.00000000000E+00 -0.00000000000E+00 -0.24323970339E+03  0.24323970339E+03  0.00000000000E+00 0.  1.
       39    2    1    2    0    0 -0.14210854715E-13  0.00000000000E+00  0.78525637052E+03  0.12717357773E+04  0.10003421014E+04 0.  0.
       24    2    3    3    0    0 -0.65435590466E+02  0.32094141802E+03  0.86207956752E+03  0.92584602294E+03  0.82002848444E+02 0.  0.
      -24    2    3    3    0    0  0.65435590466E+02 -0.32094141802E+03 -0.76823197002E+02  0.34588975436E+03  0.80328751212E+02 0.  0.
      -13    1    4    4    0    0  0.10589409365E+02  0.34499864952E+01  0.25733545694E+02  0.28040209904E+02  0.00000000000E+00 0.  1.
       14    1    4    4    0    0 -0.76024999831E+02  0.31749143153E+03  0.83634602183E+03  0.89780581304E+03  0.00000000000E+00 0. -1.
        3    1    5    5  501    0  0.62864504824E+02 -0.11316942104E+03 -0.29670925529E+02  0.13281425996E+03  0.00000000000E+00 0. -1.
       -4    1    5    5    0  501  0.25710856423E+01 -0.20777199698E+03 -0.47152271473E+02  0.21307549440E+03  0.14200000000E+01 0.  1.
</event>
<event>
 9   1  0.7335000E-04  0.9934512E+03  0.7818608E-02  0.9315757E-01
       21   -1    0    0  503  502  0.00000000000E+00  0.00000000000E+00  0.46930484622E+03  0.46930484622E+03  0.00000000000E+00 0.  1.
       21   -1    0    0  502  503 -0.00000000000E+00 -0.00000000000E+00 -0.52574848146E+03  0.52574848146E+03  0.00000000000E+00 0. -1.
       39    2    1    2    0    0  0.00000000000E+00  0.00000000000E+00 -0.56443635238E+02  0.99505332768E+03  0.99345117694E+03 0.  0.
       24    2    3    3    0    0  0.37780985315E+03 -0.12141135924E+03  0.25997853343E+03  0.48138012949E+03  0.81590366695E+02 0.  0.
      -24    2    3    3    0    0 -0.37780985315E+03  0.12141135924E+03 -0.31642216867E+03  0.51367319818E+03  0.79095906437E+02 0.  0.
      -13    1    4    4    0    0  0.36689314328E+03 -0.99233369889E+02  0.24867281460E+03  0.45419820454E+03  0.00000000000E+00 0.  1.
       14    1    4    4    0    0  0.10916709875E+02 -0.22177989352E+02  0.11305718826E+02  0.27181924957E+02  0.00000000000E+00 0. -1.
        3    1    5    5  501    0 -0.22085739477E+03  0.11117204482E+03 -0.18802279891E+03  0.31062804974E+03  0.00000000000E+00 0. -1.
       -4    1    5    5    0  501 -0.15695245839E+03  0.10239314416E+02 -0.12839936975E+03  0.20304514844E+03  0.14200000000E+01 0.  1.
</event>
<event>
 9   1  0.7335000E-04  0.9925651E+03  0.7818608E-02  0.9316737E-01
       21   -1    0    0  503  502  0.00000000000E+00  0.00000000000E+00  0.56549485250E+03  0.56549485250E+03  0.00000000000E+00 0.  1.
       21   -1    0    0  502  503 -0.00000000000E+00 -0.00000000000E+00 -0.43554132324E+03  0.43554132324E+03  0.00000000000E+00 0. -1.
       39    2    1    2    0    0  0.00000000000E+00 -0.56843418861E-13  0.12995352925E+03  0.10010361757E+04  0.99256511392E+03 0.  0.
       24    2    3    3    0    0  0.42372370497E+02  0.30922904506E+03 -0.31633374127E+03  0.45075702356E+03  0.75477402779E+02 0.  0.
      -24    2    3    3    0    0 -0.42372370497E+02 -0.30922904506E+03  0.44628727052E+03  0.55027915219E+03  0.78846670251E+02 0.  0.
      -13    1    4    4    0    0 -0.92347936072E+01  0.20836392279E+02 -0.49445512562E+02  0.54445342948E+02  0.00000000000E+00 0.  1.
       14    1    4    4    0    0  0.51607164104E+02  0.28839265278E+03 -0.26688822871E+03  0.39631168061E+03  0.00000000000E+00 0. -1.
        1    1    5    5  501    0 -0.85741496473E+01  0.20100892264E+01  0.13827820265E+02  0.16394057281E+02  0.00000000000E+00 0. -1.
       -2    1    5    5    0  501 -0.33798220850E+02 -0.31123913428E+03  0.43245945026E+03  0.53388509490E+03  0.00000000000E+00 0.  1.
</event>
<event>
 9   1  0.7335000E-04  0.9999498E+03  0.7818608E-02  0.9308600E-01
       21   -1    0    0  503  502  0.00000000000E+00  0.00000000000E+00  0.27651908677E+03  0.27651908677E+03  0.00000000000E+00 0.  1.
       21   -1    0    0  502  503 -0.00000000000E+00 -0.00000000000E+00 -0.90400597886E+03  0.90400597886E+03  0.00000000000E+00 0. -1.
       39    2    1    2    0    0  0.56843418861E-13  0.00000000000E+00 -0.62748689209E+03  0.11805250656E+04  0.99994981417E+03 0.  0.
       24    2    3    3    0    0  0.18156732139E+03  0.30427143352E+03  0.91939423224E+02  0.37466300669E+03  0.79823014161E+02 0.  0.
      -24    2    3    3    0    0 -0.18156732139E+03 -0.30427143352E+03 -0.71942631531E+03  0.80586205894E+03  0.79319842598E+02 0.  0.
      -13    1    4    4    0    0  0.17078910230E+03  0.30012504178E+03  0.10122147003E+03  0.35984683431E+03  0.00000000000E+00 0.  1.
       14    1    4    4    0    0  0.10778219084E+02  0.41463917367E+01 -0.92820468059E+01  0.14816172379E+02  0.00000000000E+00 0. -1.
        1    1    5    5  501    0 -0.16115939810E+03 -0.26543797944E+03 -0.67705625015E+03  0.74487236383E+03  0.00000000000E+00 0. -1.
       -2    1    5    5    0  501 -0.20407923289E+02 -0.38833454079E+02 -0.42370065161E+02  0.60989695117E+02  0.00000000000E+00 0.  1.
</event>
<event>
 9   1  0.7335000E-04  0.1109517E+04  0.7818608E-02  0.9195965E-01
       21   -1    0    0  503  502  0.00000000000E+00  0.00000000000E+00  0.12332791252E+04  0.12332791252E+04  0.00000000000E+00 0. -1.
       21   -1    0    0  502  503 -0.00000000000E+00 -0.00000000000E+00 -0.24954385761E+03  0.24954385761E+03  0.00000000000E+00 0.  1.
       39    2    1    2    0    0  0.56843418861E-13  0.00000000000E+00  0.98373526760E+03  0.14828229828E+04  0.11095174274E+04 0.  0.
       24    2    3    3    0    0 -0.44079175603E+03  0.27879190026E+03  0.26332285010E+03  0.58991613244E+03  0.81485115763E+02 0.  0.
      -24    2    3    3    0    0  0.44079175603E+03 -0.27879190026E+03  0.72041241750E+03  0.89290685039E+03  0.79159941594E+02 0.  0.
      -13    1    4    4    0    0 -0.40500630817E+03  0.26744423895E+03  0.22084148046E+03  0.53322367736E+03  0.00000000000E+00 0.  1.
       14    1    4    4    0    0 -0.35785447862E+02  0.11347661302E+02  0.42481369649E+02  0.56692455079E+02  0.00000000000E+00 0. -1.
        3    1    5    5  501    0  0.38193140343E+03 -0.20854885965E+03  0.57679544112E+03  0.72253526190E+03  0.00000000000E+00 0. -1.
       -4    1    5    5    0  501  0.58860352607E+02 -0.70243040604E+02  0.14361697638E+03  0.17037158850E+03  0.14200000000E+01 0.  1.
</event>
<event>
 9   1  0.7335000E-04  0.9931438E+03  0.7818608E-02  0.9316097E-01
       21   -1    0    0  503  502  0.00000000000E+00  0.00000000000E+00  0.70986505541E+03  0.70986505541E+03  0.00000000000E+00 0. -1.
       21   -1    0    0  502  503 -0.00000000000E+00 -0.00000000000E+00 -0.34736696748E+03  0.34736696748E+03  0.00000000000E+00 0.  1.
       39    2    1    2    0    0  0.56843418861E-13  0.00000000000E+00  0.36249808793E+03  0.10572320229E+04  0.99314383976E+03 0.  0.
       24    2    3    3    0    0 -0.26441893589E+03  0.31763236868E+03 -0.10276635346E+03  0.42988813457E+03  0.58610490149E+02 0.  0.
      -24    2    3    3    0    0  0.26441893589E+03 -0.31763236868E+03  0.46526444139E+03  0.62734388831E+03  0.79256914452E+02 0.  0.
      -13    1    4    4    0    0 -0.16357024755E+03  0.23701707920E+03 -0.78883159816E+02  0.29858813543E+03  0.00000000000E+00 0.  1.
       14    1    4    4    0    0 -0.10084868834E+03  0.80615289481E+02 -0.23883193645E+02  0.13129999915E+03  0.00000000000E+00 0. -1.
        1    1    5    5  501    0  0.16448397111E+03 -0.14964687231E+03  0.21018778919E+03  0.30598704199E+03  0.00000000000E+00 0. -1.
       -2    1    5    5    0  501  0.99934964779E+02 -0.16798549637E+03  0.25507665220E+03  0.32135684632E+03  0.00000000000E+00 0.  1.
</event>
<event>
 8   1  0.7335000E-04  0.4820492E+04  0.7818608E-02  0.7856811E-01
       -2   -1    0    0    0  501 -0.00000000000E+00  0.00000000000E+00  0.14903011189E+04  0.14903011189E+04  0.00000000000E+00 0.  1.
        2   -1    0    0  501    0  0.00000000000E+00 -0.00000000000E+00 -0.38980620372E+04  0.38980620372E+04  0.00000000000E+00 0. -1.
       24    2    1    2    0    0 -0.22730404741E+03  0.18710676798E+04 -0.28806662317E+04  0.34434529535E+04  0.81048823578E+02 0.  0.
      -24    2    1    2    0    0  0.22730404741E+03 -0.18710676798E+04  0.47290531341E+03  0.19449102027E+04  0.80466568658E+02 0.  0.
      -13    1    3    3    0    0 -0.63251417422E+02  0.81326631027E+03 -0.12109316087E+04  0.14600541751E+04  0.00000000000E+00 0.  1.
       14    1    3    3    0    0 -0.16405262999E+03  0.10578013695E+04 -0.16697346230E+04  0.19833987784E+04  0.00000000000E+00 0. -1.
        1    1    4    4  502    0  0.21682258613E+02 -0.17364131210E+03  0.68365501737E+02  0.18787034740E+03  0.00000000000E+00 0. -1.
       -2    1    4    4    0  502  0.20562178880E+03 -0.16974263677E+04  0.40453981168E+03  0.17570398553E+04  0.00000000000E+00 0.  1.
</event>
<event>
 9   1  0.7335000E-04  0.9708913E+03  0.7818608E-02  0.9341060E-01
       21   -1    0    0  503  502  0.00000000000E+00  0.00000000000E+00  0.36527754614E+03  0.36527754614E+03  0.00000000000E+00 0.  1.
       21   -1    0    0  502  503 -0.00000000000E+00 -0.00000000000E+00 -0.64514635355E+03  0.64514635355E+03  0.00000000000E+00 0. -1.
       39    2    1    2    0    0  0.00000000000E+00  0.28421709430E-13 -0.27986880741E+03  0.10104238997E+04  0.97089129551E+03 0.  0.
       24    2    3    3    0    0  0.41474955188E+03  0.21238697651E+03 -0.28987910963E+02  0.47494525753E+03  0.87219723072E+02 0.  0.
      -24    2    3    3    0    0 -0.41474955188E+03 -0.21238697651E+03 -0.25088089645E+03  0.53547864215E+03  0.81674557963E+02 0.  0.
      -13    1    4    4    0    0  0.17993585066E+03  0.11368410971E+03  0.25819013138E+02  0.21440057974E+03  0.00000000000E+00 0.  1.
       14    1    4    4    0    0  0.23481370123E+03  0.98702866799E+02 -0.54806924101E+02  0.26054467779E+03  0.00000000000E+00 0. -1.
        1    1    5    5  501    0 -0.41253439171E+01  0.56757828601E+01  0.31800457050E+00  0.70238237745E+01  0.00000000000E+00 0. -1.
       -2    1    5    5    0  501 -0.41062420796E+03 -0.21806275937E+03 -0.25119890102E+03  0.52845481838E+03  0.00000000000E+00 0.  1.
</event>
<event>
 9   1  0.7335000E-04  0.9966610E+03  0.7818608E-02  0.9312215E-01
       21   -1    0    0  503  502  0.00000000000E+00  0.00000000000E+00  0.28529892415E+04  0.28529892415E+04  0.00000000000E+00 0. -1.
       21   -1    0    0  502  503 -0.00000000000E+00 -0.00000000000E+00 -0.87043183356E+02  0.87043183356E+02  0.00000000000E+00 0.  1.
       39    2    1    2    0    0  0.00000000000E+00  0.00000000000E+00  0.27659460582E+04  0.29400324249E+04  0.99666095673E+03 0.  0.
       24    2    3    3    0    0  0.26783979043E+03 -0.83009765074E+02  0.18882191067E+03  0.34642357776E+03  0.75675668756E+02 0.  0.
      -24    2    3    3    0    0 -0.26783979043E+03  0.83009765074E+02  0.25771241475E+04  0.25936088471E+04  0.81297022186E+02 0.  0.
      -13    1    4    4    0    0  0.26414306395E+03 -0.65118255669E+02  0.17928819501E+03  0.32581620942E+03  0.00000000000E+00 0.  1.
       14    1    4    4    0    0  0.36967264877E+01 -0.17891509406E+02  0.95337156615E+01  0.20607368339E+02  0.00000000000E+00 0. -1.
        1    1    5    5  501    0 -0.26705621538E+03  0.92247602561E+02  0.24796749790E+04  0.24957196645E+04  0.00000000000E+00 0. -1.
       -2    1    5    5    0  501 -0.78357505721E+00 -0.92378374862E+01  0.97449168533E+02  0.97889182646E+02  0.00000000000E+00 0.  1.
</event>
<event>
 9   1  0.7335000E-04  0.9974296E+03  0.7818608E-02  0.9311368E-01
       21   -1    0    0  503  502  0.00000000000E+00  0.00000000000E+00  0.68030695299E+03  0.68030695299E+03  0.00000000000E+00 0.  1.
       21   -1    0    0  502  503 -0.00000000000E+00 -0.00000000000E+00 -0.36559447107E+03  0.36559447107E+03  0.00000000000E+00 0. -1.
       39    2    1    2    0    0 -0.14210854715E-13 -0.56843418861E-13  0.31471248192E+03  0.10459014241E+04  0.99742961786E+03 0.  0.
       24    2    3    3    0    0 -0.96053344920E+02 -0.39809757482E+03 -0.12947783734E+03  0.43675471510E+03  0.79260624860E+02 0.  0.
      -24    2    3    3    0    0  0.96053344920E+02  0.39809757482E+03  0.44419031925E+03  0.60914670896E+03  0.77760846043E+02 0.  0.
      -13    1    4    4    0    0 -0.52688191238E+02 -0.28770539314E+03 -0.57715515743E+02  0.29813003789E+03  0.00000000000E+00 0.  1.
       14    1    4    4    0    0 -0.43365153682E+02 -0.11039218168E+03 -0.71762321593E+02  0.13862467721E+03  0.00000000000E+00 0. -1.
        3    1    5    5  501    0  0.95509863136E+02  0.28255436328E+03  0.28581250709E+03  0.41309549909E+03  0.00000000000E+00 0. -1.
       -4    1    5    5    0  501  0.54348178403E+00  0.11554321154E+03  0.15837781217E+03  0.19605120987E+03  0.14200000000E+01 0.  1.
</event>
<event>
 9   1  0.7335000E-04  0.1013403E+04  0.7818608E-02  0.9293966E-01
        1   -1    0    0  501    0  0.00000000000E+00  0.00000000000E+00  0.15409118404E+04  0.15409118404E+04  0.00000000000E+00 0.  1.
       -1   -1    0    0    0  501 -0.00000000000E+00 -0.00000000000E+00 -0.16661981294E+03  0.16661981294E+03  0.00000000000E+00 0. -1.
       39    2    1    2    0    0  0.00000000000E+00  0.00000000000E+00  0.13742920274E+04  0.17075316533E+04  0.10134030642E+04 0.  0.
       24    2    3    3    0    0 -0.39419777290E+03 -0.19381761703E+03  0.28332108605E+03  0.52887519377E+03  0.80504533770E+02 0.  0.
      -24    2    3    3    0    0  0.39419777290E+03  0.19381761703E+03  0.10909709414E+04  0.11786564596E+04  0.77822245348E+02 0.  0.
      -13    1    4    4    0    0 -0.35067087631E+03 -0.19734043989E+03  0.24763231860E+03  0.47247759515E+03  0.00000000000E+00 0.  1.
       14    1    4    4    0    0 -0.43526896591E+02  0.35228228633E+01  0.35688767451E+02  0.56397598619E+02  0.00000000000E+00 0. -1.
        3    1    5    5  502    0  0.23119987624E+03  0.10797105518E+03  0.53037248178E+03  0.58856274173E+03  0.00000000000E+00 0. -1.
       -4    1    5    5    0  502  0.16299789667E+03  0.85846561849E+02  0.56059845962E+03  0.59009371783E+03  0.14200000000E+01 0.  1.
</event>
<event>
 9   1  0.7335000E-04  0.1001676E+04  0.7818608E-02  0.9306708E-01
       21   -1    0    0  503  502  0.00000000000E+00  0.00000000000E+00  0.39749330258E+03  0.39749330258E+03  0.00000000000E+00 0.  1.
       21   -1    0    0  502  503 -0.00000000000E+00 -0.00000000000E+00 -0.63105160568E+03  0.63105160568E+03  0.00000000000E+00 0. -1.
       39    2    1    2    0    0  0.00000000000E+00  0.00000000000E+00 -0.23355830310E+03  0.10285449083E+04  0.10016761689E+04 0.  0.
       24    2    3    3    0    0 -0.27439467487E+03 -0.39601537025E+03  0.11290388840E+01  0.48648251736E+03  0.67404405559E+02 0.  0.
      -24    2    3    3    0    0  0.27439467487E+03  0.39601537025E+03 -0.23468734198E+03  0.54206239090E+03  0.81442470925E+02 0.  0.
      -13    1    4    4    0    0 -0.92772277476E+02 -0.18630577301E+03  0.15361260773E+02  0.20869236895E+03  0.00000000000E+00 0.  1.
       14    1    4    4    0    0 -0.18162239740E+03 -0.20970959724E+03 -0.14232221889E+02  0.27779014841E+03  0.00000000000E+00 0. -1.
        1    1    5    5  501    0  0.17427343325E+03  0.19718766050E+03 -0.97901436476E+02  0.28078264593E+03  0.00000000000E+00 0. -1.
       -2    1    5    5    0  501  0.10012124162E+03  0.19882770975E+03 -0.13678590550E+03  0.26127974497E+03  0.00000000000E+00 0.  1.
</event>
<event>
 9   1  0.7335000E-04  0.1014744E+04  0.7818608E-02  0.9292520E-01
       21   -1    0    0  503  502  0.00000000000E+00  0.00000000000E+00  0.63233113120E+03  0.63233113120E+03  0.00000000000E+00 0.  1.
       21   -1    0    0  502  503 -0.00000000000E+00 -0.00000000000E+00 -0.40710710926E+03  0.40710710926E+03  0.00000000000E+00 0. -1.
       39    2    1    2    0    0  0.71054273576E-14 -0.28421709430E-13  0.22522402194E+03  0.10394382405E+04  0.10147443006E+04 0.  0.
       24    2    3    3    0    0  0.34168848528E+02 -0.10354543513E+03  0.61315844812E+03  0.62834149341E+03  0.83430105397E+02 0.  0.
      -24    2    3    3    0    0 -0.34168848528E+02  0.10354543513E+03 -0.38793442618E+03  0.41109674706E+03  0.81352621809E+02 0.  0.
      -13    1    4    4    0    0  0.20136908506E+02 -0.28730936488E+02  0.40819372274E+03  0.40969876382E+03  0.00000000000E+00 0.  1.
       14    1    4    4    0    0  0.14031940023E+02 -0.74814498641E+02  0.20496472539E+03  0.21864272958E+03  0.00000000000E+00 0. -1.
        1    1    5    5  501    0  0.28881979314E+01  0.97888397533E+02 -0.29737856778E+03  0.31308863383E+03  0.00000000000E+00 0. -1.
       -2    1    5    5    0  501 -0.37057046460E+02  0.56570375959E+01 -0.90555858400E+02  0.98008113222E+02  0.00000000000E+00 0.  1.
</event>
<event>
 9   1  0.7335000E-04  0.1001243E+04  0.7818608E-02  0.9307182E-01
       21   -1    0    0  503  502  0.00000000000E+00  0.00000000000E+00  0.38846998950E+03  0.38846998950E+03  0.00000000000E+00 0. -1.
       21   -1    0    0  502  503 -0.00000000000E+00 -0.00000000000E+00 -0.64515180155E+03  0.64515180155E+03  0.00000000000E+00 0.  1.
       39    2    1    2    0    0  0.00000000000E+00  0.00000000000E+00 -0.25668181205E+03  0.10336217910E+04  0.10012434541E+04 0.  0.
       24    2    3    3    0    0  0.98504735902E+02 -0.19274664333E+03 -0.58696857606E+03  0.63071240212E+03  0.80072301122E+02 0.  0.
      -24    2    3    3    0    0 -0.98504735902E+02  0.19274664333E+03  0.33028676401E+03  0.40290938892E+03  0.79951095644E+02 0.  0.
      -13    1    4    4    0    0  0.36700221055E+02 -0.11594173554E+03 -0.22742508829E+03  0.25789835798E+03  0.00000000000E+00 0.  1.
       14    1    4    4    0    0  0.61804514847E+02 -0.76804907786E+02 -0.35954348776E+03  0.37281404414E+03  0.00000000000E+00 0. -1.
        1    1    5    5  501    0 -0.40279552255E+02  0.15659683537E+03  0.24407305320E+03  0.29277408779E+03  0.00000000000E+00 0. -1.
       -2    1    5    5    0  501 -0.58225183648E+02  0.36149807951E+02  0.86213710806E+02  0.11013530114E+03  0.00000000000E+00 0.  1.
</event>
<event>
 9   1  0.7335000E-04  0.1005619E+04  0.7818608E-02  0.9302404E-01
       21   -1    0    0  503  502  0.00000000000E+00  0.00000000000E+00  0.44499837119E+03  0.44499837119E+03  0.00000000000E+00 0.  1.
       21   -1    0    0  502  503 -0.00000000000E+00 -0.00000000000E+00 -0.56813066468E+03  0.56813066468E+03  0.00000000000E+00 0. -1.
       39    2    1    2    0    0 -0.11368683772E-12  0.00000000000E+00 -0.12313229349E+03  0.10131290359E+04  0.10056186562E+04 0.  0.
       24    2    3    3    0    0 -0.42085949656E+03 -0.75109014060E+02 -0.31161298555E+03  0.53909040925E+03  0.10369058174E+03 0.  0.
      -24    2    3    3    0    0  0.42085949656E+03  0.75109014060E+02  0.18848069206E+03  0.47403862662E+03  0.80147167176E+02 0.  0.
      -13    1    4    4    0    0 -0.31858147026E+03 -0.10084496261E+03 -0.24491994223E+03  0.41430621258E+03  0.00000000000E+00 0.  1.
       14    1    4    4    0    0 -0.10227802630E+03  0.25735948553E+02 -0.66693043318E+02  0.12478419667E+03  0.00000000000E+00 0. -1.
        3    1    5    5  501    0  0.34085969855E+03  0.46090406272E+02  0.11834269822E+03  0.36375081288E+03  0.00000000000E+00 0. -1.
       -4    1    5    5    0  501  0.79999798012E+02  0.29018607788E+02  0.70137993840E+02  0.11028781374E+03  0.14200000000E+01 0.  1.
</event>
<event>
 9   1  0.7335000E-04  0.9942759E+03  0.7818608E-02  0.9314845E-01
       21   -1    0    0  503  502  0.00000000000E+00  0.00000000000E+00  0.17633773341E+04  0.17633773341E+04  0.00000000000E+00 0. -1.
       21   -1    0    0  502  503 -0.00000000000E+00 -0.00000000000E+00 -0.14015500688E+03  0.14015500688E+03  0.00000000000E+00 0.  1.
       39    2    1    2    0    0 -0.28421709430E-13  0.00000000000E+00  0.16232223272E+04  0.19035323410E+04  0.99427594237E+03 0.  0.
       24    2    3    3    0    0  0.25343939405E+03  0.24658173004E+03  0.14619678349E+04  0.15064346353E+04  0.83434309762E+02 0.  0.
      -24    2    3    3    0    0 -0.25343939405E+03 -0.24658173004E+03  0.16125449235E+03  0.39709770572E+03  0.81544469699E+02 0.  0.
      -13    1    4    4    0    0  0.55584504967E+01  0.21137939081E+02  0.40623416955E+02  0.46129934377E+02  0.00000000000E+00 0.  1.
       14    1    4    4    0    0  0.24788094356E+03  0.22544379096E+03  0.14213444179E+04  0.14603047009E+04  0.00000000000E+00 0. -1.
        3    1    5    5  501    0 -0.21471467196E+03 -0.17877392560E+03  0.15304621951E+03  0.31856812794E+03  0.00000000000E+00 0. -1.
       -4    1    5    5    0  501 -0.38724722089E+02 -0.67807804440E+02  0.82082728373E+01  0.78529577783E+02  0.14200000000E+01 0.  1.
</event>
<event>
 9   1  0.7335000E-04  0.1002596E+04  0.7818608E-02  0.9305702E-01
        2   -1    0    0  501    0  0.00000000000E+00  0.00000000000E+00  0.16322695334E+04  0.16322695334E+04  0.00000000000E+00 0. -1.
       -2   -1    0    0    0  501 -0.00000000000E+00 -0.00000000000E+00 -0.15395731741E+03  0.15395731741E+03  0.00000000000E+00 0.  1.
       39    2    1    2    0    0  0.56843418861E-13  0.00000000000E+00  0.14783122160E+04  0.17862268508E+04  0.10025963069E+04 0.  0.
       24    2    3    3    0    0  0.45378298369E+03  0.18862785523E+03  0.84158304483E+03  0.97805050648E+03  0.82591209107E+02 0.  0.
      -24    2    3    3    0    0 -0.45378298369E+03 -0.18862785523E+03  0.63672917114E+03  0.80817634431E+03  0.78901850875E+02 0.  0.
      -13    1    4    4    0    0  0.21627432231E+02  0.28989670948E+02  0.82884157539E+02  0.90431910394E+02  0.00000000000E+00 0.  1.
       14    1    4    4    0    0  0.43215555146E+03  0.15963818428E+03  0.75869888729E+03  0.88761859609E+03  0.00000000000E+00 0. -1.
        1    1    5    5  502    0 -0.55906426510E+02 -0.94080624604E+01  0.11339853295E+03  0.12678039060E+03  0.00000000000E+00 0. -1.
       -2    1    5    5    0  502 -0.39787655718E+03 -0.17921979277E+03  0.52333063819E+03  0.68139595372E+03  0.00000000000E+00 0.  1.
</event>
<event>
 9   1  0.7335000E-04  0.9959602E+03  0.7818608E-02  0.9312987E-01
       21   -1    0    0  503  502  0.00000000000E+00  0.00000000000E+00  0.84138163808E+03  0.84138163808E+03  0.00000000000E+00 0.  1.
       21   -1    0    0  502  503 -0.00000000000E+00 -0.00000000000E+00 -0.29473447130E+03  0.29473447130E+03  0.00000000000E+00 0. -1.
       39    2    1    2    0    0 -0.14210854715E-13 -0.28421709430E-13  0.54664716678E+03  0.11361161094E+04  0.99596018447E+03 0.  0.
       24    2    3    3    0    0  0.11280318233E+03  0.22256363321E+03 -0.20964566237E+03  0.33567323566E+03  0.80411992976E+02 0.  0.
      -24    2    3    3    0    0 -0.11280318233E+03 -0.22256363321E+03  0.75629282915E+03  0.80044287373E+03  0.80441419046E+02 0.  0.
      -13    1    4    4    0    0  0.60794473227E+02  0.82865383726E+02 -0.41157837105E+02  0.11070956305E+03  0.00000000000E+00 0.  1.
       14    1    4    4    0    0  0.52008709106E+02  0.13969824948E+03 -0.16848782526E+03  0.22496367261E+03  0.00000000000E+00 0. -1.
        3    1    5    5  501    0  0.11675637530E+02 -0.28528727899E+02  0.70686289759E+02  0.77115240952E+02  0.00000000000E+00 0. -1.
       -4    1    5    5    0  501 -0.12447881986E+03 -0.19403490531E+03  0.68560653940E+03  0.72332763277E+03  0.14200000000E+01 0.  1.
</event>
<event>
 9   1  0.7335000E-04  0.9334992E+03  0.7818608E-02  0.9384648E-01
       21   -1    0    0  503  502  0.00000000000E+00  0.00000000000E+00  0.11499548434E+04  0.11499548434E+04  0.00000000000E+00 0.  1.
       21   -1    0    0  502  503 -0.00000000000E+00 -0.00000000000E+00 -0.18944673947E+03  0.18944673947E+03  0.00000000000E+00 0. -1.
       39    2    1    2    0    0  0.56843418861E-13  0.56843418861E-13  0.96050810388E+03  0.13394015828E+04  0.93349921396E+03 0.  0.
       24    2    3    3    0    0  0.25322455023E+03  0.24727147999E+03  0.56684631604E+02  0.36534054770E+03  0.70673267072E+02 0.  0.
      -24    2    3    3    0    0 -0.25322455023E+03 -0.24727147999E+03  0.90382347227E+03  0.97406103513E+03  0.81438157379E+02 0.  0.
      -13    1    4    4    0    0  0.11528760550E+03  0.65188899250E+02  0.23543352282E+02  0.13451808059E+03  0.00000000000E+00 0.  1.
       14    1    4    4    0    0  0.13793694472E+03  0.18208258074E+03  0.33141279323E+02  0.23082246711E+03  0.00000000000E+00 0. -1.
        3    1    5    5  501    0 -0.13853033887E+03 -0.15101096744E+03  0.41538390843E+03  0.46318328819E+03  0.00000000000E+00 0. -1.
       -4    1    5    5    0  501 -0.11469421136E+03 -0.96260512548E+02  0.48843956385E+03  0.51087774695E+03  0.14200000000E+01 0.  1.
</event>
<event>
 9   1  0.7335000E-04  0.9931656E+03  0.7818608E-02  0.9316073E-01
       21   -1    0    0  503  502  0.00000000000E+00  0.00000000000E+00  0.49398084678E+03  0.49398084678E+03  0.00000000000E+00 0.  1.
       21   -1    0    0  502  503 -0.00000000000E+00 -0.00000000000E+00 -0.49919844809E+03  0.49919844809E+03  0.00000000000E+00 0. -1.
       39    2    1    2    0    0  0.71054273576E-14 -0.35527136788E-14 -0.52176013108E+01  0.99317929488E+03  0.99316558962E+03 0.  0.
       24    2    3    3    0    0 -0.53085495574E+02  0.21716689834E+02  0.48404617755E+03  0.49412161073E+03  0.81029499156E+02 0.  0.
      -24    2    3    3    0    0  0.53085495574E+02 -0.21716689834E+02 -0.48926377886E+03  0.49905768414E+03  0.79936489386E+02 0.  0.
      -13    1    4    4    0    0 -0.58323048873E+02  0.18990582192E+02  0.48434129318E+03  0.48820969728E+03  0.00000000000E+00 0.  1.
       14    1    4    4    0    0  0.52375532998E+01  0.27261076420E+01 -0.29511562533E+00  0.59119134531E+01  0.00000000000E+00 0. -1.
        3    1    5    5  501    0  0.50661438599E+02 -0.37603635974E+02 -0.46866590724E+03  0.47289358994E+03  0.00000000000E+00 0. -1.
       -4    1    5    5    0  501  0.24240569747E+01  0.15886946140E+02 -0.20597871627E+02  0.26164094202E+02  0.14200000000E+01 0.  1.
</event>
<event>
 9   1  0.7335000E-04  0.9559305E+03  0.7818608E-02  0.9358245E-01
       21   -1    0    0  503  502  0.00000000000E+00  0.00000000000E+00  0.10686736498E+04  0.10686736498E+04  0.00000000000E+00 0.  1.
       21   -1    0    0  502  503 -0.00000000000E+00 -0.00000000000E+00 -0.21377039037E+03  0.21377039037E+03  0.00000000000E+00 0. -1.
       39    2    1    2    0    0 -0.56843418861E-13  0.56843418861E-13  0.85490325945E+03  0.12824440402E+04  0.95593050646E+03 0.  0.
       24    2    3    3    0    0 -0.31106798878E+03  0.35226130961E+03  0.44762525186E+03  0.65529127317E+03  0.90481836323E+02 0.  0.
      -24    2    3    3    0    0  0.31106798878E+03 -0.35226130961E+03  0.40727800759E+03  0.62715276701E+03  0.81202794356E+02 0.  0.
      -13    1    4    4    0    0 -0.21934984490E+03  0.24258901974E+03  0.25142658675E+03  0.41252771480E+03  0.00000000000E+00 0.  1.
       14    1    4    4    0    0 -0.91718143881E+02  0.10967228987E+03  0.19619866511E+03  0.24276355837E+03  0.00000000000E+00 0. -1.
        1    1    5    5  501    0  0.97708328413E+02 -0.15005400924E+03  0.19379415653E+03  0.26385469152E+03  0.00000000000E+00 0. -1.
       -2    1    5    5    0  501  0.21335966037E+03 -0.20220730036E+03  0.21348385106E+03  0.36329807549E+03  0.00000000000E+00 0.  1.
</event>
<event>
 9   1  0.7335000E-04  0.9964705E+03  0.7818608E-02  0.9312424E-01
       21   -1    0    0  503  502  0.00000000000E+00  0.00000000000E+00  0.30796010568E+03  0.30796010568E+03  0.00000000000E+00 0.  1.
       21   -1    0    0  502  503 -0.00000000000E+00 -0.00000000000E+00 -0.80607318246E+03  0.80607318246E+03  0.00000000000E+00 0. -1.
       39    2    1    2    0    0  0.11368683772E-12  0.00000000000E+00 -0.49811307677E+03  0.11140332881E+04  0.99647053636E+03 0.  0.
       24    2    3    3    0    0  0.43601369274E+03 -0.54929390280E+02 -0.16530565680E+01  0.44639231040E+03  0.78346563511E+02 0.  0.
      -24    2    3    3    0    0 -0.43601369274E+03  0.54929390280E+02 -0.49646002020E+03  0.66764097774E+03  0.78401181884E+02 0.  0.
      -13    1    4    4    0    0  0.43662108933E+03 -0.60252512404E+02 -0.33525039016E+01  0.44077157370E+03  0.00000000000E+00 0.  1.
       14    1    4    4    0    0 -0.60739659352E+00  0.53231221242E+01  0.16994473336E+01  0.56207366965E+01  0.00000000000E+00 0. -1.
        1    1    5    5  501    0 -0.35859236665E+03  0.25672217646E+02 -0.36517851451E+03  0.51244794432E+03  0.00000000000E+00 0. -1.
       -2    1    5    5    0  501 -0.77421326093E+02  0.29257172634E+02 -0.13128150570E+03  0.15519303342E+03  0.00000000000E+00 0.  1.
</event>
<event>
 9   1  0.7335000E-04  0.1004027E+04  0.7818608E-02  0.9304139E-01
       21   -1    0    0  503  502  0.00000000000E+00  0.00000000000E+00  0.64038413666E+03  0.64038413666E+03  0.00000000000E+00 0. -1.
       21   -1    0    0  502  503 -0.00000000000E+00 -0.00000000000E+00 -0.39354136323E+03  0.39354136323E+03  0.00000000000E+00 0.  1.
       39    2    1    2    0    0  0.00000000000E+00  0.00000000000E+00  0.24684277343E+03  0.10339254999E+04  0.10040271832E+04 0.  0.
       24    2    3    3    0    0 -0.20991949441E+03 -0.31075968812E+03 -0.21029934917E+03  0.43739578911E+03  0.80321119086E+02 0.  0.
      -24    2    3    3    0    0  0.20991949441E+03  0.31075968812E+03  0.45714212260E+03  0.59652971079E+03  0.78936668896E+02 0.  0.
      -13    1    4    4    0    0 -0.79831743489E+02 -0.17706215178E+03 -0.81088072956E+02  0.21047419898E+03  0.00000000000E+00 0.  1.
       14    1    4    4    0    0 -0.13008775092E+03 -0.13369753635E+03 -0.12921127622E+03  0.22692159013E+03  0.00000000000E+00 0. -1.
        1    1    5    5  501    0  0.12267048703E+03  0.11206687448E+03  0.20412963400E+03  0.26320322988E+03  0.00000000000E+00 0. -1.
       -2    1    5    5    0  501  0.87249007382E+02  0.19869281364E+03  0.25301248861E+03  0.33332648091E+03  0.00000000000E+00 0.  1.
</event>
<event>
 9   1  0.7335000E-04  0.1003059E+04  0.7818608E-02  0.9305197E-01
       21   -1    0    0  503  502  0.00000000000E+00  0.00000000000E+00  0.44154386720E+03  0.44154386720E+03  0.00000000000E+00 0. -1.
       21   -1    0    0  502  503 -0.00000000000E+00 -0.00000000000E+00 -0.56966392037E+03  0.56966392037E+03  0.00000000000E+00 0.  1.
       39    2    1    2    0    0 -0.71054273576E-14  0.28421709430E-13 -0.12812005316E+03  0.10112077876E+04  0.10030585435E+04 0.  0.
       24    2    3    3    0    0 -0.38997405788E+02 -0.14452783067E+03  0.41164180500E+03  0.44567059570E+03  0.82244834199E+02 0.  0.
      -24    2    3    3    0    0  0.38997405788E+02  0.14452783067E+03 -0.53976185816E+03  0.56553719187E+03  0.77976665531E+02 0.  0.
      -13    1    4    4    0    0 -0.17349124132E+02 -0.42145497201E+02  0.43718968368E+02  0.63155231277E+02  0.00000000000E+00 0.  1.
       14    1    4    4    0    0 -0.21648281656E+02 -0.10238233347E+03  0.36792283663E+03  0.38251536442E+03  0.00000000000E+00 0. -1.
        3    1    5    5  501    0 -0.20696098132E+02  0.15417939822E+02 -0.10354709983E+03  0.10671477513E+03  0.00000000000E+00 0. -1.
       -4    1    5    5    0  501  0.59693503920E+02  0.12910989085E+03 -0.43621475833E+03  0.45882241675E+03  0.14200000000E+01 0.  1.
</event>
<event>
 9   1  0.7335000E-04  0.9969667E+03  0.7818608E-02  0.9311878E-01
       -2   -1    0    0    0  501 -0.00000000000E+00  0.00000000000E+00  0.18020088495E+03  0.18020088495E+03  0.00000000000E+00 0. -1.
        2   -1    0    0  501    0  0.00000000000E+00 -0.00000000000E+00 -0.13789369596E+04  0.13789369596E+04  0.00000000000E+00 0.  1.
       39    2    1    2    0    0 -0.56843418861E-13  0.00000000000E+00 -0.11987360746E+04  0.15591378445E+04  0.99696672042E+03 0.  0.
       24    2    3    3    0    0  0.30632999530E+03 -0.38503743190E+03 -0.60402772739E+03  0.78308345209E+03  0.79235771555E+02 0.  0.
      -24    2    3    3    0    0 -0.30632999530E+03  0.38503743190E+03 -0.59470834721E+03  0.77605439242E+03  0.80563712464E+02 0.  0.
      -13    1    4    4    0    0  0.27226732637E+03 -0.36208126278E+03 -0.57829025671E+03  0.73461007267E+03  0.00000000000E+00 0.  1.
       14    1    4    4    0    0  0.34062668927E+02 -0.22956169114E+02 -0.25737470686E+02  0.48473379417E+02  0.00000000000E+00 0. -1.
        1    1    5    5  502    0 -0.24136223223E+03  0.24363937103E+03 -0.41226053447E+03  0.53625984238E+03  0.00000000000E+00 0. -1.
       -2    1    5    5    0  502 -0.64967763065E+02  0.14139806087E+03 -0.18244781274E+03  0.23979455004E+03  0.00000000000E+00 0.  1.
</event>
<event>
 9   1  0.7335000E-04  0.1005624E+04  0.7818608E-02  0.9302398E-01
       21   -1    0    0  503  502  0.00000000000E+00  0.00000000000E+00  0.26025450435E+03  0.26025450435E+03  0.00000000000E+00 0.  1.
       21   -1    0    0  502  503 -0.00000000000E+00 -0.00000000000E+00 -0.97143270812E+03  0.97143270812E+03  0.00000000000E+00 0. -1.
       39    2    1    2    0    0  0.00000000000E+00  0.00000000000E+00 -0.71117820377E+03  0.12316872125E+04  0.10056236631E+04 0.  0.
       24    2    3    3    0    0 -0.94414823995E+02  0.10835970351E+03  0.22599179784E+03  0.28000470764E+03  0.81696751920E+02 0.  0.
      -24    2    3    3    0    0  0.94414823995E+02 -0.10835970351E+03 -0.93717000161E+03  0.95168250483E+03  0.82194852309E+02 0.  0.
      -13    1    4    4    0    0 -0.49807703294E+02  0.30241192942E+02  0.15442283159E+03  0.16505074363E+03  0.00000000000E+00 0.  1.
       14    1    4    4    0    0 -0.44607120701E+02  0.78118510566E+02  0.71568966252E+02  0.11495396401E+03  0.00000000000E+00 0. -1.
        3    1    5    5  501    0  0.72457486181E+02 -0.82217376480E+02 -0.86405662873E+03  0.87097855425E+03  0.00000000000E+00 0. -1.
       -4    1    5    5    0  501  0.21957337814E+02 -0.26142327028E+02 -0.73113372877E+02  0.80703950584E+02  0.14200000000E+01 0.  1.
</event>
<event>
 9   1  0.7335000E-04  0.9892289E+03  0.7818608E-02  0.9320438E-01
       21   -1    0    0  503  502  0.00000000000E+00  0.00000000000E+00  0.30992076552E+03  0.30992076552E+03  0.00000000000E+00 0. -1.
       21   -1    0    0  502  503 -0.00000000000E+00 -0.00000000000E+00 -0.78937426588E+03  0.78937426588E+03  0.00000000000E+00 0.  1.
       39    2    1    2    0    0  0.00000000000E+00  0.00000000000E+00 -0.47945350036E+03  0.10992950314E+04  0.98922894571E+03 0.  0.
       24    2    3    3    0    0  0.40923475125E+03 -0.10951812699E+03 -0.50983465303E+03  0.66775816767E+03  0.80636811031E+02 0.  0.
      -24    2    3    3    0    0 -0.40923475125E+03  0.10951812699E+03  0.30381152666E+02  0.43153686373E+03  0.76378979765E+02 0.  0.
      -13    1    4    4    0    0  0.36859847760E+03 -0.76142383839E+02 -0.42268633784E+03  0.56597371008E+03  0.00000000000E+00 0.  1.
       14    1    4    4    0    0  0.40636273649E+02 -0.33375743147E+02 -0.87148315185E+02  0.10178445759E+03  0.00000000000E+00 0. -1.
        3    1    5    5  501    0 -0.40546788236E+03  0.96436463396E+02  0.29548905527E+02  0.41782452407E+03  0.00000000000E+00 0. -1.
       -4    1    5    5    0  501 -0.37668688882E+01  0.13081663591E+02  0.83224713850E+00  0.13712339655E+02  0.14200000000E+01 0.  1.
</event>
<event>
 9   1  0.7335000E-04  0.9945429E+03  0.7818608E-02  0.9314550E-01
       21   -1    0    0  503  502  0.00000000000E+00  0.00000000000E+00  0.36719297108E+03  0.36719297108E+03  0.00000000000E+00 0.  1.
       21   -1    0    0  502  503 -0.00000000000E+00 -0.00000000000E+00 -0.67343041975E+03  0.67343041975E+03  0.00000000000E+00 0. -1.
       39    2    1    2    0    0  0.28421709430E-13 -0.56843418861E-13 -0.30623744868E+03  0.10406233908E+04  0.99454294356E+03 0.  0.
       24    2    3    3    0    0  0.17592000549E+03 -0.38756087473E+03 -0.40871086898E+03  0.59565856040E+03  0.81321990890E+02 0.  0.
      -24    2    3    3    0    0 -0.17592000549E+03  0.38756087473E+03  0.10247342030E+03  0.44496483044E+03  0.79634279713E+02 0.  0.
      -13    1    4    4    0    0  0.10926976314E+02 -0.40298528136E+02 -0.12523698805E+02  0.43591435088E+02  0.00000000000E+00 0.  1.
       14    1    4    4    0    0  0.16499302917E+03 -0.34726234659E+03 -0.39618717018E+03  0.55206712531E+03  0.00000000000E+00 0. -1.
        1    1    5    5  501    0 -0.70900984167E+01  0.89062934117E+02  0.31708312185E+02  0.94804497735E+02  0.00000000000E+00 0. -1.
       -2    1    5    5    0  501 -0.16882990707E+03  0.29849794061E+03  0.70765108119E+02  0.35016033270E+03  0.00000000000E+00 0.  1.
</event>
<event>
 9   1  0.7335000E-04  0.1007382E+04  0.7818608E-02  0.9300485E-01
       21   -1    0    0  503  502  0.00000000000E+00  0.00000000000E+00  0.11311539075E+03  0.11311539075E+03  0.00000000000E+00 0. -1.
       21   -1    0    0  502  503 -0.00000000000E+00 -0.00000000000E+00 -0.22428841558E+04  0.22428841558E+04  0.00000000000E+00 0.  1.
       39    2    1    2    0    0  0.00000000000E+00 -0.17763568394E-14 -0.21297687650E+04  0.23559995465E+04  0.10073821870E+04 0.  0.
       24    2    3    3    0    0 -0.41983433285E+03  0.22917735797E+00 -0.45239334604E+03  0.62493908102E+03  0.98123370724E+02 0.  0.
      -24    2    3    3    0    0  0.41983433285E+03 -0.22917735797E+00 -0.16773754190E+04  0.17310604655E+04  0.81982433858E+02 0.  0.
      -13    1    4    4    0    0 -0.25725595907E+03 -0.49597903575E+01 -0.34354487156E+03  0.42921825075E+03  0.00000000000E+00 0.  1.
       14    1    4    4    0    0 -0.16257837378E+03  0.51889677155E+01 -0.10884847448E+03  0.19572083027E+03  0.00000000000E+00 0. -1.
        1    1    5    5  501    0  0.15782196044E+03 -0.28244189909E+02 -0.52467240450E+03  0.54862249088E+03  0.00000000000E+00 0. -1.
       -2    1    5    5    0  501  0.26201237241E+03  0.28015012551E+02 -0.11527030145E+04  0.11824379746E+04  0.00000000000E+00 0.  1.
</event>
<event>
 9   1  0.7335000E-04  0.9868236E+03  0.7818608E-02  0.9323116E-01
       21   -1    0    0  503  502  0.00000000000E+00  0.00000000000E+00  0.11263485678E+03  0.11263485678E+03  0.00000000000E+00 0.  1.
       21   -1    0    0  502  503 -0.00000000000E+00 -0.00000000000E+00 -0.21614551306E+04  0.21614551306E+04  0.00000000000E+00 0. -1.
       39    2    1    2    0    0  0.00000000000E+00 -0.56843418861E-13 -0.20488202738E+04  0.22740899874E+04  0.98682356897E+03 0.  0.
       24    2    3    3    0    0 -0.16008603830E+03  0.45871254173E+03 -0.94743693600E+03  0.10675672966E+04  0.77578666228E+02 0.  0.
      -24    2    3    3    0    0  0.16008603830E+03 -0.45871254173E+03 -0.11013833378E+04  0.12065226908E+04  0.81283522119E+02 0.  0.
      -13    1    4    4    0    0 -0.11958376495E+03  0.41470581851E+03 -0.81418620213E+03  0.92150982875E+03  0.00000000000E+00 0.  1.
       14    1    4    4    0    0 -0.40502273345E+02  0.44006723222E+02 -0.13325073388E+03  0.14605746785E+03  0.00000000000E+00 0. -1.
        1    1    5    5  501    0  0.13286573933E+03 -0.29151654714E+03 -0.65700603776E+03  0.73095289560E+03  0.00000000000E+00 0. -1.
       -2    1    5    5    0  501  0.27220298969E+02 -0.16719599459E+03 -0.44437730004E+03  0.47556979517E+03  0.00000000000E+00 0.  1.
</event>
<event>
 9   1  0.7335000E-04  0.1003001E+04  0.7818608E-02  0.9305259E-01
       21   -1    0    0  503  502  0.00000000000E+00  0.00000000000E+00  0.22597254203E+03  0.22597254203E+03  0.00000000000E+00 0.  1.
       21   -1    0    0  502  503 -0.00000000000E+00 -0.00000000000E+00 -0.11129792807E+04  0.11129792807E+04  0.00000000000E+00 0. -1.
       39    2    1    2    0    0  0.00000000000E+00  0.71054273576E-14 -0.88700673865E+03  0.13389518227E+04  0.10030010115E+04 0.  0.
       24    2    3    3    0    0 -0.47136861460E+03  0.47291598656E+02 -0.25806403911E+03  0.54741316889E+03  0.92947636064E+02 0.  0.
      -24    2    3    3    0    0  0.47136861460E+03 -0.47291598656E+02 -0.62894269954E+03  0.79153865382E+03  0.80868133726E+02 0.  0.
      -13    1    4    4    0    0 -0.27907217455E+03 -0.89641963431E+00 -0.19082902979E+03  0.33807957759E+03  0.00000000000E+00 0.  1.
       14    1    4    4    0    0 -0.19229644005E+03  0.48188018290E+02 -0.67235009321E+02  0.20933359129E+03  0.00000000000E+00 0. -1.
        1    1    5    5  501    0  0.40301674953E+03 -0.19496339652E+02 -0.49497388910E+03  0.63859357854E+03  0.00000000000E+00 0. -1.
       -2    1    5    5    0  501  0.68351865073E+02 -0.27795259004E+02 -0.13396881044E+03  0.15294507528E+03  0.00000000000E+00 0.  1.
</event>
<event>
 9   1  0.7335000E-04  0.1001591E+04  0.7818608E-02  0.9306801E-01
       21   -1    0    0  503  502  0.00000000000E+00  0.00000000000E+00  0.52712073358E+03  0.52712073358E+03  0.00000000000E+00 0.  1.
       21   -1    0    0  502  503 -0.00000000000E+00 -0.00000000000E+00 -0.47578509645E+03  0.47578509645E+03  0.00000000000E+00 0. -1.
       39    2    1    2    0    0  0.00000000000E+00  0.56843418861E-13  0.51335637139E+02  0.10029058300E+04  0.10015911123E+04 0.  0.
       24    2    3    3    0    0  0.92958049977E+02  0.30763300308E+03  0.40129030843E+03  0.52008116811E+03  0.78557279425E+02 0.  0.
      -24    2    3    3    0    0 -0.92958049977E+02 -0.30763300308E+03 -0.34995467129E+03  0.48282466192E+03  0.85861042151E+02 0.  0.
      -13    1    4    4    0    0  0.85661737837E+02  0.16253096176E+03  0.19674163444E+03  0.26918677081E+03  0.00000000000E+00 0.  1.
       14    1    4    4    0    0  0.72963121397E+01  0.14510204131E+03  0.20454867399E+03  0.25089439730E+03  0.00000000000E+00 0. -1.
        1    1    5    5  501    0 -0.23324354259E+02 -0.19384283635E+03 -0.24377171711E+03  0.31231990134E+03  0.00000000000E+00 0. -1.
       -2    1    5    5    0  501 -0.69633695718E+02 -0.11379016673E+03 -0.10618295418E+03  0.17050476058E+03  0.00000000000E+00 0.  1.
</event>
<event>
 9   1  0.7335000E-04  0.1030911E+04  0.7818608E-02  0.9275277E-01
       21   -1    0    0  503  502  0.00000000000E+00  0.00000000000E+00  0.34176144643E+03  0.34176144643E+03  0.00000000000E+00 0. -1.
       21   -1    0    0  502  503 -0.00000000000E+00 -0.00000000000E+00 -0.77742655030E+03  0.77742655030E+03  0.00000000000E+00 0.  1.
       39    2    1    2    0    0  0.00000000000E+00  0.00000000000E+00 -0.43566510388E+03  0.11191879967E+04  0.10309110967E+04 0.  0.
       24    2    3    3    0    0  0.23392145360E+03 -0.32376628262E+03 -0.56110629095E+03  0.69351644892E+03  0.81123011312E+02 0.  0.
      -24    2    3    3    0    0 -0.23392145360E+03  0.32376628262E+03  0.12544118707E+03  0.42567154781E+03  0.76921537811E+02 0.  0.
      -13    1    4    4    0    0  0.23781909476E+03 -0.30201278965E+03 -0.51774898320E+03  0.64485165469E+03  0.00000000000E+00 0.  1.
       14    1    4    4    0    0 -0.38976411544E+01 -0.21753492974E+02 -0.43357307749E+02  0.48664794239E+02  0.00000000000E+00 0. -1.
        3    1    5    5  501    0 -0.10769532336E+03  0.19448401639E+03  0.97826329114E+02  0.24288331761E+03  0.00000000000E+00 0. -1.
       -4    1    5    5    0  501 -0.12622613025E+03  0.12928226623E+03  0.27614857960E+02  0.18278823020E+03  0.14200000000E+01 0.  1.
</event>
<event>
 9   1  0.7335000E-04  0.9694785E+03  0.7818608E-02  0.9342669E-01
       21   -1    0    0  503  502  0.00000000000E+00  0.00000000000E+00  0.12887680145E+03  0.12887680145E+03  0.00000000000E+00 0. -1.
       21   -1    0    0  502  503 -0.00000000000E+00 -0.00000000000E+00 -0.18232308551E+04  0.18232308551E+04  0.00000000000E+00 0.  1.
       39    2    1    2    0    0  0.00000000000E+00 -0.56843418861E-13 -0.16943540537E+04  0.19521076566E+04  0.96947854212E+03 0.  0.
       24    2    3    3    0    0 -0.43549500116E+02 -0.43510740635E+03 -0.12356120612E+04  0.13131314485E+04  0.79762280147E+02 0.  0.
      -24    2    3    3    0    0  0.43549500116E+02  0.43510740635E+03 -0.45874199254E+03  0.63897620809E+03  0.81433192045E+02 0.  0.
      -13    1    4    4    0    0 -0.36745289272E+02 -0.37827106170E+03 -0.11401325851E+04  0.12018076069E+04  0.00000000000E+00 0.  1.
       14    1    4    4    0    0 -0.68042108443E+01 -0.56836344650E+02 -0.95479476020E+02  0.11132384156E+03  0.00000000000E+00 0. -1.
        3    1    5    5  501    0  0.33208107114E+02  0.83419048605E+02 -0.64432431320E+02  0.11051268820E+03  0.00000000000E+00 0. -1.
       -4    1    5    5    0  501  0.10341393002E+02  0.35168835775E+03 -0.39430956122E+03  0.52846351989E+03  0.14200000000E+01 0.  1.
</event>
<event>
 9   1  0.7335000E-04  0.1013170E+04  0.7818608E-02  0.9294217E-01
       21   -1    0    0  503  502  0.00000000000E+00  0.00000000000E+00  0.43544487192E+03  0.43544487192E+03  0.00000000000E+00 0. -1.
       21   -1    0    0  502  503 -0.00000000000E+00 -0.00000000000E+00 -0.58934737487E+03  0.58934737487E+03  0.00000000000E+00 0.  1.
       39    2    1    2    0    0  0.00000000000E+00  0.00000000000E+00 -0.15390250295E+03  0.10247922468E+04  0.10131698617E+04 0.  0.
       24    2    3    3    0    0 -0.66123913160E+02  0.38250041654E+01  0.42483571941E+03  0.43679989389E+03  0.76952948363E+02 0.  0.
      -24    2    3    3    0    0  0.66123913160E+02 -0.38250041654E+01 -0.57873822236E+03  0.58799235290E+03  0.80062940894E+02 0.  0.
      -13    1    4    4    0    0 -0.12302416861E+01 -0.26877217621E+02  0.75154244343E+02  0.79825176257E+02  0.00000000000E+00 0.  1.
       14    1    4    4    0    0 -0.64893671474E+02  0.30702221786E+02  0.34968147507E+03  0.35697471763E+03  0.00000000000E+00 0. -1.
        1    1    5    5  501    0  0.75869790671E+01  0.19364725784E+02 -0.35372810788E+03  0.35433900316E+03  0.00000000000E+00 0. -1.
       -2    1    5    5    0  501  0.58536934093E+02 -0.23189729949E+02 -0.22501011447E+03  0.23365334974E+03  0.00000000000E+00 0.  1.
</event>
<event>
 9   1  0.7335000E-04  0.9997737E+03  0.7818608E-02  0.9308793E-01
       21   -1    0    0  503  502  0.00000000000E+00  0.00000000000E+00  0.57393267432E+03  0.57393267432E+03  0.00000000000E+00 0. -1.
       21   -1    0    0  502  503 -0.00000000000E+00 -0.00000000000E+00 -0.43539400494E+03  0.43539400494E+03  0.00000000000E+00 0.  1.
       39    2    1    2    0    0  0.00000000000E+00  0.00000000000E+00  0.13853866938E+03  0.10093266793E+04  0.99977366566E+03 0.  0.
       24    2    3    3    0    0 -0.11588607958E+03  0.30841827409E+03  0.44015670362E+03  0.55561442882E+03  0.80112761369E+02 0.  0.
      -24    2    3    3    0    0  0.11588607958E+03 -0.30841827409E+03 -0.30161803424E+03  0.45371225044E+03  0.79560997874E+02 0.  0.
      -13    1    4    4    0    0  0.63134404966E+01  0.14458986737E+02  0.47898449297E+02  0.50429983873E+02  0.00000000000E+00 0.  1.
       14    1    4    4    0    0 -0.12219952008E+03  0.29395928736E+03  0.39225825432E+03  0.50518444495E+03  0.00000000000E+00 0. -1.
        3    1    5    5  501    0 -0.11119471254E+02 -0.11552456565E+02 -0.15064148370E+02  0.22000692256E+02  0.00000000000E+00 0. -1.
       -4    1    5    5    0  501  0.12700555084E+03 -0.29686581753E+03 -0.28655388587E+03  0.43171155819E+03  0.14200000000E+01 0.  1.
</event>
<event>
 9   1  0.7335000E-04  0.1065842E+04  0.7818608E-02  0.9239140E-01
       21   -1    0    0  503  502  0.00000000000E+00  0.00000000000E+00  0.31049163663E+04  0.31049163663E+04  0.00000000000E+00 0.  1.
       21   -1    0    0  502  503 -0.00000000000E+00 -0.00000000000E+00 -0.91469340333E+02  0.91469340333E+02  0.00000000000E+00 0. -1.
       39    2    1    2    0    0  0.56843418861E-13  0.00000000000E+00  0.30134470260E+04  0.31963857067E+04  0.10658417365E+04 0.  0.
       24    2    3    3    0    0  0.15221912883E+03 -0.30715298450E+03  0.27054451692E+04  0.27282276050E+04  0.79238136489E+02 0.  0.
      -24    2    3    3    0    0 -0.15221912883E+03  0.30715298450E+03  0.30800185680E+03  0.46815810162E+03  0.82421145683E+02 0.  0.
      -13    1    4    4    0    0  0.12772570740E+03 -0.29865023359E+03  0.25550747718E+04  0.25756383496E+04  0.00000000000E+00 0.  1.
       14    1    4    4    0    0  0.24493421424E+02 -0.85027509161E+01  0.15037039743E+03  0.15258925548E+03  0.00000000000E+00 0. -1.
        3    1    5    5  501    0 -0.15294941636E+03  0.24130226838E+03  0.23590712196E+03  0.37050300793E+03  0.00000000000E+00 0. -1.
       -4    1    5    5    0  501  0.73028753765E+00  0.65850716121E+02  0.72094734833E+02  0.97655093693E+02  0.14200000000E+01 0.  1.
</event>
<event>
 9   1  0.7335000E-04  0.1002782E+04  0.7818608E-02  0.9305498E-01
       21   -1    0    0  503  502  0.00000000000E+00  0.00000000000E+00  0.46727772704E+03  0.46727772704E+03  0.00000000000E+00 0. -1.
       21   -1    0    0  502  503 -0.00000000000E+00 -0.00000000000E+00 -0.53799512679E+03  0.53799512679E+03  0.00000000000E+00 0.  1.
       39    2    1    2    0    0 -0.56843418861E-13 -0.14210854715E-13 -0.70717399750E+02  0.10052728538E+04  0.10027824091E+04 0.  0.
       24    2    3    3    0    0  0.37352815210E+03  0.49063929943E+02  0.28511886514E+03  0.47960559253E+03  0.82451243141E+02 0.  0.
      -24    2    3    3    0    0 -0.37352815210E+03 -0.49063929943E+02 -0.35583626489E+03  0.52566726131E+03  0.88182042181E+02 0.  0.
      -13    1    4    4    0    0  0.18196513187E+02 -0.16111722007E+01  0.42808873167E+02  0.46543620292E+02  0.00000000000E+00 0.  1.
       14    1    4    4    0    0  0.35533163891E+03  0.50675102143E+02  0.24230999197E+03  0.43306197224E+03  0.00000000000E+00 0. -1.
        3    1    5    5  501    0 -0.23317783047E+03 -0.59149703690E+01 -0.16904045305E+03  0.28806520489E+03  0.00000000000E+00 0. -1.
       -4    1    5    5    0  501 -0.14035032163E+03 -0.43148959574E+02 -0.18679581184E+03  0.23760205642E+03  0.14200000000E+01 0.  1.
</event>
<event>
 9   1  0.7335000E-04  0.1006833E+04  0.7818608E-02  0.9301083E-01
       21   -1    0    0  503  502  0.00000000000E+00  0.00000000000E+00  0.16480622558E+03  0.16480622558E+03  0.00000000000E+00 0. -1.
       21   -1    0    0  502  503 -0.00000000000E+00 -0.00000000000E+00 -0.15377329143E+04  0.15377329143E+04  0.00000000000E+00 0.  1.
       39    2    1    2    0    0  0.00000000000E+00  0.00000000000E+00 -0.13729266887E+04  0.17025391399E+04  0.10068325731E+04 0.  0.
       24    2    3    3    0    0  0.20769301139E+03 -0.29065622254E+03 -0.12702784835E+04  0.13219363830E+04  0.79315498628E+02 0.  0.
      -24    2    3    3    0    0 -0.20769301139E+03  0.29065622254E+03 -0.10264820523E+03  0.38060275692E+03  0.81880265356E+02 0.  0.
      -13    1    4    4    0    0  0.18205125353E+03 -0.24930254221E+03 -0.11760046190E+04  0.12158459115E+04  0.00000000000E+00 0.  1.
       14    1    4    4    0    0  0.25641757854E+02 -0.41353680332E+02 -0.94273864485E+02  0.10609047152E+03  0.00000000000E+00 0. -1.
        3    1    5    5  501    0 -0.17570454988E+03  0.27797277723E+03 -0.77221189230E+02  0.33779293331E+03  0.00000000000E+00 0. -1.
       -4    1    5    5    0  501 -0.31988461506E+02  0.12683445315E+02 -0.25427016002E+02  0.42809823608E+02  0.14200000000E+01 0.  1.
</event>
<event>
 9   1  0.7335000E-04  0.1008562E+04  0.7818608E-02  0.9299203E-01
       21   -1    0    0  503  502  0.00000000000E+00  0.00000000000E+00  0.26304149737E+04  0.26304149737E+04  0.00000000000E+00 0.  1.
       21   -1    0    0  502  503 -0.00000000000E+00 -0.00000000000E+00 -0.96676581255E+02  0.96676581255E+02  0.00000000000E+00 0. -1.
       39    2    1    2    0    0  0.00000000000E+00  0.00000000000E+00  0.25337383924E+04  0.27270915549E+04  0.10085623966E+04 0.  0.
       24    2    3    3    0    0 -0.21639233967E+03 -0.29359448574E+03  0.34979822895E+03  0.51130475653E+03  0.77784229475E+02 0.  0.
      -24    2    3    3    0    0  0.21639233967E+03  0.29359448574E+03  0.21839401635E+04  0.22157867984E+04  0.84220731380E+02 0.  0.
      -13    1    4    4    0    0 -0.14173256553E+02 -0.30740697085E+02  0.74449215370E+01  0.34659753537E+02  0.00000000000E+00 0.  1.
       14    1    4    4    0    0 -0.20221908312E+03 -0.26285378865E+03  0.34235330741E+03  0.47664500299E+03  0.00000000000E+00 0. -1.
        1    1    5    5  501    0  0.15148687240E+03  0.19943297926E+03  0.12476325636E+04  0.12725206480E+04  0.00000000000E+00 0. -1.
       -2    1    5    5    0  501  0.64905467276E+02  0.94161506480E+02  0.93630759983E+03  0.94326615039E+03  0.00000000000E+00 0.  1.
</event>
<event>
 9   1  0.7335000E-04  0.1005588E+04  0.7818608E-02  0.9302437E-01
       21   -1    0    0  503  502  0.00000000000E+00  0.00000000000E+00  0.11140109361E+04  0.11140109361E+04  0.00000000000E+00 0. -1.
       21   -1    0    0  502  503 -0.00000000000E+00 -0.00000000000E+00 -0.22692951091E+03  0.22692951091E+03  0.00000000000E+00 0.  1.
       39    2    1    2    0    0  0.00000000000E+00  0.00000000000E+00  0.88708142518E+03  0.13409404470E+04  0.10055882992E+04 0.  0.
       24    2    3    3    0    0 -0.29295512771E+03 -0.23423646985E+03  0.10020784379E+02  0.38369483291E+03  0.80198990209E+02 0.  0.
      -24    2    3    3    0    0  0.29295512771E+03  0.23423646985E+03  0.87706064081E+03  0.95724561408E+03  0.79964788356E+02 0.  0.
      -13    1    4    4    0    0 -0.17888843773E+03 -0.17492211860E+03 -0.22114041459E+02  0.25117295149E+03  0.00000000000E+00 0.  1.
       14    1    4    4    0    0 -0.11406668997E+03 -0.59314351249E+02  0.32134825838E+02  0.13252188143E+03  0.00000000000E+00 0. -1.
        1    1    5    5  501    0  0.80425187085E+02  0.47586626527E+02  0.14570146814E+03  0.17309423896E+03  0.00000000000E+00 0. -1.
       -2    1    5    5    0  501  0.21252994062E+03  0.18664984332E+03  0.73135917266E+03  0.78415137513E+03  0.00000000000E+00 0.  1.
</event>
<event>
 9   1  0.7335000E-04  0.1000445E+04  0.7818608E-02  0.9308056E-01
       21   -1    0    0  503  502  0.00000000000E+00  0.00000000000E+00  0.60211319059E+03  0.60211319059E+03  0.00000000000E+00 0.  1.
       21   -1    0    0  502  503 -0.00000000000E+00 -0.00000000000E+00 -0.41557425940E+03  0.41557425940E+03  0.00000000000E+00 0. -1.
       39    2    1    2    0    0  0.00000000000E+00  0.56843418861E-13  0.18653893120E+03  0.10176874500E+04  0.10004453873E+04 0.  0.
       24    2    3    3    0    0 -0.26036878759E+03  0.38143461483E+03  0.27081474811E+03  0.54155902996E+03  0.81616690685E+02 0.  0.
      -24    2    3    3    0    0  0.26036878759E+03 -0.38143461483E+03 -0.84275816909E+02  0.47612842003E+03  0.79445504013E+02 0.  0.
      -13    1    4    4    0    0 -0.25778490339E+03  0.38117825794E+03  0.27540772932E+03  0.53628289000E+03  0.00000000000E+00 0.  1.
       14    1    4    4    0    0 -0.25838841995E+01  0.25635688337E+00 -0.45929812103E+01  0.52761399532E+01  0.00000000000E+00 0. -1.
        3    1    5    5  501    0  0.19863238419E+03 -0.26783128973E+03 -0.94044586383E+02  0.34645751260E+03  0.00000000000E+00 0. -1.
       -4    1    5    5    0  501  0.61736403397E+02 -0.11360332510E+03  0.97687694741E+01  0.12967090743E+03  0.14200000000E+01 0.  1.
</event>
<event>
 9   1  0.7335000E-04  0.1043690E+04  0.7818608E-02  0.9261883E-01
       21   -1    0    0  503  502  0.00000000000E+00  0.00000000000E+00  0.69933721816E+03  0.69933721816E+03  0.00000000000E+00 0.  1.
       21   -1    0    0  502  503 -0.00000000000E+00 -0.00000000000E+00 -0.38940019307E+03  0.38940019307E+03  0.00000000000E+00 0. -1.
       39    2    1    2    0    0  0.56843418861E-13  0.00000000000E+00  0.30993702509E+03  0.10887374112E+04  0.10436897006E+04 0.  0.
       24    2    3    3    0    0  0.41284034876E+03  0.46987388912E+02 -0.16399013348E+03  0.45363260536E+03  0.79024100684E+02 0.  0.
      -24    2    3    3    0    0 -0.41284034876E+03 -0.46987388912E+02  0.47392715857E+03  0.63510480586E+03  0.78142143016E+02 0.  0.
      -13    1    4    4    0    0  0.48138254313E+02  0.31323022928E+02 -0.29870300438E+02  0.64735292862E+02  0.00000000000E+00 0.  1.
       14    1    4    4    0    0  0.36470209445E+03  0.15664365984E+02 -0.13411983304E+03  0.38889731250E+03  0.00000000000E+00 0. -1.
        1    1    5    5  501    0 -0.12128113413E+03 -0.16592077748E+02  0.89382002119E+02  0.15157029010E+03  0.00000000000E+00 0. -1.
       -2    1    5    5    0  501 -0.29155921463E+03 -0.30395311164E+02  0.38454515645E+03  0.48353451576E+03  0.00000000000E+00 0.  1.
</event>
<event>
 9   1  0.7335000E-04  0.9974394E+03  0.7818608E-02  0.9311358E-01
       21   -1    0    0  503  502  0.00000000000E+00  0.00000000000E+00  0.43019464059E+03  0.43019464059E+03  0.00000000000E+00 0. -1.
       21   -1    0    0  502  503 -0.00000000000E+00 -0.00000000000E+00 -0.57815996586E+03  0.57815996586E+03  0.00000000000E+00 0.  1.
       39    2    1    2    0    0 -0.56843418861E-13  0.28421709430E-13 -0.14796532527E+03  0.10083546064E+04  0.99743935899E+03 0.  0.
       24    2    3    3    0    0  0.26589860728E+03 -0.10649226960E+03 -0.47906533452E+03  0.56392561475E+03  0.80410393587E+02 0.  0.
      -24    2    3    3    0    0 -0.26589860728E+03  0.10649226960E+03  0.33110000925E+03  0.44442899169E+03  0.76467245907E+02 0.  0.
      -13    1    4    4    0    0  0.26876012608E+03 -0.11207195670E+03 -0.46753388568E+03  0.55079947631E+03  0.00000000000E+00 0.  1.
       14    1    4    4    0    0 -0.28615188008E+01  0.55796870968E+01 -0.11531448839E+02  0.13126138437E+02  0.00000000000E+00 0. -1.
        1    1    5    5  501    0 -0.21624273780E+01  0.17812755790E+02  0.24887654672E+02  0.30681683723E+02  0.00000000000E+00 0. -1.
       -2    1    5    5    0  501 -0.26373617990E+03  0.88679513812E+02  0.30621235458E+03  0.41374730797E+03  0.00000000000E+00 0.  1.
</event>
<event>
 9   1  0.7335000E-04  0.9982345E+03  0.7818608E-02  0.9310483E-01
       21   -1    0    0  503  502  0.00000000000E+00  0.00000000000E+00  0.72580078768E+03  0.72580078768E+03  0.00000000000E+00 0.  1.
       21   -1    0    0  502  503 -0.00000000000E+00 -0.00000000000E+00 -0.34323193177E+03  0.34323193177E+03  0.00000000000E+00 0. -1.
       39    2    1    2    0    0  0.00000000000E+00 -0.56843418861E-13  0.38256885592E+03  0.10690327195E+04  0.99823445429E+03 0.  0.
       24    2    3    3    0    0  0.98230884379E+02 -0.30809675669E+03  0.58953554603E+03  0.67675581083E+03  0.76637780079E+02 0.  0.
      -24    2    3    3    0    0 -0.98230884379E+02  0.30809675669E+03 -0.20696669011E+03  0.39227690862E+03  0.80455230331E+02 0.  0.
      -13    1    4    4    0    0  0.51113607670E+02 -0.24279240269E+03  0.48519702213E+03  0.54495587159E+03  0.00000000000E+00 0.  1.
       14    1    4    4    0    0  0.47117276709E+02 -0.65304354002E+02  0.10433852390E+03  0.13179993925E+03  0.00000000000E+00 0. -1.
        1    1    5    5  501    0 -0.83516286652E+02  0.27120923952E+03 -0.20911741746E+03  0.35250463263E+03  0.00000000000E+00 0. -1.
       -2    1    5    5    0  501 -0.14714597727E+02  0.36887517166E+02  0.21507273492E+01  0.39772275985E+02  0.00000000000E+00 0.  1.
</event>
<event>
 9   1  0.7335000E-04  0.9999262E+03  0.7818608E-02  0.9308626E-01
       21   -1    0    0  503  502  0.00000000000E+00  0.00000000000E+00  0.93714083195E+02  0.93714083195E+02  0.00000000000E+00 0. -1.
       21   -1    0    0  502  503 -0.00000000000E+00 -0.00000000000E+00 -0.26672949767E+04  0.26672949767E+04  0.00000000000E+00 0.  1.
       39    2    1    2    0    0 -0.56843418861E-13  0.00000000000E+00 -0.25735808935E+04  0.27610090599E+04  0.99992620399E+03 0.  0.
       24    2    3    3    0    0 -0.38641596847E+03  0.10858605666E+03 -0.49417149449E+03  0.64160594843E+03  0.79652336478E+02 0.  0.
      -24    2    3    3    0    0  0.38641596847E+03 -0.10858605666E+03 -0.20794093990E+04  0.21194031115E+04  0.82570380835E+02 0.  0.
      -13    1    4    4    0    0 -0.26246896915E+03  0.39924381585E+02 -0.29106321838E+03  0.39395648631E+03  0.00000000000E+00 0.  1.
       14    1    4    4    0    0 -0.12394699932E+03  0.68661675080E+02 -0.20310827610E+03  0.24764946212E+03  0.00000000000E+00 0. -1.
        3    1    5    5  501    0  0.70916989133E+00 -0.12154646490E+02 -0.57478445828E+02  0.58753809136E+02  0.00000000000E+00 0. -1.
       -4    1    5    5    0  501  0.38570679857E+03 -0.96431410175E+02 -0.20219309532E+04  0.20606493024E+04  0.14200000000E+01 0.  1.
</event>
<event>
 9   1  0.7335000E-04  0.1007685E+04  0.7818608E-02  0.9300156E-01
       21   -1    0    0  503  502  0.00000000000E+00  0.00000000000E+00  0.37808057085E+03  0.37808057085E+03  0.00000000000E+00 0.  1.
       21   -1    0    0  502  503 -0.00000000000E+00 -0.00000000000E+00 -0.67143663245E+03  0.67143663245E+03  0.00000000000E+00 0. -1.
       39    2    1    2    0    0 -0.28421709430E-13 -0.14210854715E-13 -0.29335606160E+03  0.10495172033E+04  0.10076847628E+04 0.  0.
       24    2    3    3    0    0 -0.16256473904E+03 -0.11095495340E+03 -0.62249509163E+03  0.65767297864E+03  0.79343000119E+02 0.  0.
      -24    2    3    3    0    0  0.16256473904E+03  0.11095495340E+03  0.32913903003E+03  0.39184422467E+03  0.80443142994E+02 0.  0.
      -13    1    4    4    0    0 -0.91440813896E+02 -0.89409830728E+02 -0.28956152106E+03  0.31654607051E+03  0.00000000000E+00 0.  1.
       14    1    4    4    0    0 -0.71123925144E+02 -0.21545122676E+02 -0.33293357057E+03  0.34112690813E+03  0.00000000000E+00 0. -1.
        3    1    5    5  501    0 -0.87957294201E+01  0.94350658932E+01  0.27524270832E+02  0.30396888151E+02  0.00000000000E+00 0. -1.
       -4    1    5    5    0  501  0.17136046846E+03  0.10151988751E+03  0.30161475919E+03  0.36144733652E+03  0.14200000000E+01 0.  1.
</event>
<event>
 9   1  0.7335000E-04  0.9775020E+03  0.7818608E-02  0.9333570E-01
       21   -1    0    0  503  502  0.00000000000E+00  0.00000000000E+00  0.11588165933E+03  0.11588165933E+03  0.00000000000E+00 0. -1.
       21   -1    0    0  502  503 -0.00000000000E+00 -0.00000000000E+00 -0.20613922780E+04  0.20613922780E+04  0.00000000000E+00 0.  1.
       39    2    1    2    0    0  0.00000000000E+00  0.28421709430E-13 -0.19455106187E+04  0.21772739373E+04  0.97750203622E+03 0.  0.
       24    2    3    3    0    0 -0.86221604739E+02 -0.21772004042E+03 -0.38999324597E+02  0.25472521704E+03  0.92346130141E+02 0.  0.
      -24    2    3    3    0    0  0.86221604739E+02  0.21772004042E+03 -0.19065112941E+04  0.19225487203E+04  0.81068405416E+02 0.  0.
      -13    1    4    4    0    0 -0.28572682090E+02 -0.27670575600E+02  0.23898492173E+02  0.46402552128E+02  0.00000000000E+00 0.  1.
       14    1    4    4    0    0 -0.57648922648E+02 -0.19004946482E+03 -0.62897816770E+02  0.20832266491E+03  0.00000000000E+00 0. -1.
        1    1    5    5  501    0 -0.14000580475E+02  0.48698565194E+02 -0.44929850067E+03  0.45214677839E+03  0.00000000000E+00 0. -1.
       -2    1    5    5    0  501  0.10022218521E+03  0.16902147522E+03 -0.14572127934E+04  0.14704019419E+04  0.00000000000E+00 0.  1.
</event>
<event>
 9   1  0.7335000E-04  0.1003020E+04  0.7818608E-02  0.9305238E-01
       21   -1    0    0  503  502  0.00000000000E+00  0.00000000000E+00  0.39965860350E+03  0.39965860350E+03  0.00000000000E+00 0. -1.
       21   -1    0    0  502  503 -0.00000000000E+00 -0.00000000000E+00 -0.62931842588E+03  0.62931842588E+03  0.00000000000E+00 0.  1.
       39    2    1    2    0    0 -0.56843418861E-13  0.35527136788E-14 -0.22965982237E+03  0.10289770294E+04  0.10030204848E+04 0.  0.
       24    2    3    3    0    0 -0.40861962023E+03 -0.18031129076E+02 -0.40111685753E+03  0.57865690527E+03  0.81571839297E+02 0.  0.
      -24    2    3    3    0    0  0.40861962023E+03  0.18031129076E+02  0.17145703515E+03  0.45032012412E+03  0.78074218720E+02 0.  0.
      -13    1    4    4    0    0 -0.32999618323E+03  0.55519151728E+01 -0.35409962290E+03  0.48406078920E+03  0.00000000000E+00 0.  1.
       14    1    4    4    0    0 -0.78623437003E+02 -0.23583044249E+02 -0.47017234632E+02  0.94596116065E+02  0.00000000000E+00 0. -1.
        3    1    5    5  501    0  0.37044065847E+03 -0.12310601654E+01  0.16979254988E+03  0.40750129687E+03  0.00000000000E+00 0. -1.
       -4    1    5    5    0  501  0.38178961756E+02  0.19262189242E+02  0.16644852718E+01  0.42818827242E+02  0.14200000000E+01 0.  1.
</event>
<event>
 9   1  0.7335000E-04  0.9983491E+03  0.7818608E-02  0.9310357E-01
       21   -1    0    0  503  502  0.00000000000E+00  0.00000000000E+00  0.65489920648E+03  0.65489920648E+03  0.00000000000E+00 0.  1.
       21   -1    0    0  502  503 -0.00000000000E+00 -0.00000000000E+00 -0.38047875974E+03  0.38047875974E+03  0.00000000000E+00 0. -1.
       39    2    1    2    0    0  0.00000000000E+00  0.00000000000E+00  0.27442044673E+03  0.10353779662E+04  0.99834911296E+03 0.  0.
       24    2    3    3    0    0 -0.12358173280E+03  0.18575074869E+03  0.59316293875E+03  0.63878121551E+03  0.80146017161E+02 0.  0.
      -24    2    3    3    0    0  0.12358173280E+03 -0.18575074869E+03 -0.31874249201E+03  0.39659675071E+03  0.76918275721E+02 0.  0.
      -13    1    4    4    0    0 -0.86468507086E+02  0.17832677240E+03  0.47439075600E+03  0.51412433307E+03  0.00000000000E+00 0.  1.
       14    1    4    4    0    0 -0.37113225710E+02  0.74239762924E+01  0.11877218274E+03  0.12465688244E+03  0.00000000000E+00 0. -1.
        1    1    5    5  501    0  0.13289329248E+03 -0.16628904960E+03 -0.27442194560E+03  0.34730401585E+03  0.00000000000E+00 0. -1.
       -2    1    5    5    0  501 -0.93115596805E+01 -0.19461699087E+02 -0.44320546416E+02  0.49292734857E+02  0.00000000000E+00 0.  1.
</event>
<event>
 9   1  0.7335000E-04  0.9974027E+03  0.7818608E-02  0.9311398E-01
       21   -1    0    0  503  502  0.00000000000E+00  0.00000000000E+00  0.11020135481E+03  0.11020135481E+03  0.00000000000E+00 0.  1.
       21   -1    0    0  502  503 -0.00000000000E+00 -0.00000000000E+00 -0.22568057360E+04  0.22568057360E+04  0.00000000000E+00 0. -1.
       39    2    1    2    0    0 -0.56843418861E-13  0.00000000000E+00 -0.21466043811E+04  0.23670070908E+04  0.99740272639E+03 0.  0.
       24    2    3    3    0    0  0.30048610835E+03 -0.24526050069E+03 -0.35388253869E+03  0.53112539560E+03  0.80104432750E+02 0.  0.
      -24    2    3    3    0    0 -0.30048610835E+03  0.24526050069E+03 -0.17927218425E+04  0.18358816952E+04  0.78519932101E+02 0.  0.
      -13    1    4    4    0    0  0.28973878811E+03 -0.22306563793E+03 -0.34998658320E+03  0.50615951298E+03  0.00000000000E+00 0.  1.
       14    1    4    4    0    0  0.10747320239E+02 -0.22194862769E+02 -0.38959554880E+01  0.24965882617E+02  0.00000000000E+00 0. -1.
        1    1    5    5  501    0 -0.30068324879E+03  0.24785819859E+03 -0.17401765239E+04  0.17832718349E+04  0.00000000000E+00 0. -1.
       -2    1    5    5    0  501  0.19714043788E+00 -0.25976978999E+01 -0.52545318559E+02  0.52609860304E+02  0.00000000000E+00 0.  1.
</event>
<event>
 9   1  0.7335000E-04  0.1021222E+04  0.7818608E-02  0.9285570E-01
       21   -1    0    0  503  502  0.00000000000E+00  0.00000000000E+00  0.70230503101E+03  0.70230503101E+03  0.00000000000E+00 0. -1.
       21   -1    0    0  502  503 -0.00000000000E+00 -0.00000000000E+00 -0.37124015069E+03  0.37124015069E+03  0.00000000000E+00 0.  1.
       39    2    1    2    0    0  0.00000000000E+00  0.00000000000E+00  0.33106488032E+03  0.10735451817E+04  0.10212224548E+04 0.  0.
       24    2    3    3    0    0  0.10347069044E+03 -0.39099278119E+03 -0.15002848447E+03  0.43977928311E+03  0.85532058229E+02 0.  0.
      -24    2    3    3    0    0 -0.10347069044E+03  0.39099278119E+03  0.48109336478E+03  0.63376589858E+03  0.81405465696E+02 0.  0.
      -13    1    4    4    0    0  0.85159830985E+02 -0.38473195557E+03 -0.14324239456E+03  0.41927229583E+03  0.00000000000E+00 0.  1.
       14    1    4    4    0    0  0.18310859454E+02 -0.62608256182E+01 -0.67860899080E+01  0.20506987287E+02  0.00000000000E+00 0. -1.
        1    1    5    5  501    0 -0.64749962515E+02  0.34389947304E+03  0.42858662725E+03  0.55330452941E+03  0.00000000000E+00 0. -1.
       -2    1    5    5    0  501 -0.38720727924E+02  0.47093308146E+02  0.52506737531E+02  0.80461369173E+02  0.00000000000E+00 0.  1.
</event>
<event>
 9   1  0.7335000E-04  0.9989004E+03  0.7818608E-02  0.9309752E-01
       21   -1    0    0  503  502  0.00000000000E+00  0.00000000000E+00  0.13117426877E+04  0.13117426877E+04  0.00000000000E+00 0. -1.
       21   -1    0    0  502  503 -0.00000000000E+00 -0.00000000000E+00 -0.19016726117E+03  0.19016726117E+03  0.00000000000E+00 0.  1.
       39    2    1    2    0    0  0.00000000000E+00  0.28421709430E-13  0.11215754265E+04  0.15019099489E+04  0.99890042402E+03 0.  0.
       24    2    3    3    0    0  0.69861440994E+02  0.15631164956E+03  0.12558892695E+04  0.12701146102E+04  0.81359160280E+02 0.  0.
      -24    2    3    3    0    0 -0.69861440994E+02 -0.15631164956E+03 -0.13431384298E+03  0.23179533870E+03  0.79843082995E+02 0.  0.
      -13    1    4    4    0    0  0.43324714922E+02  0.16774496615E+02  0.37112502695E+03  0.37402165751E+03  0.00000000000E+00 0.  1.
       14    1    4    4    0    0  0.26536726071E+02  0.13953715295E+03  0.88476424257E+03  0.89609295266E+03  0.00000000000E+00 0. -1.
        3    1    5    5  501    0  0.97124016370E+01 -0.38281486277E+01  0.38967101250E+01  0.11143151138E+02  0.00000000000E+00 0. -1.
       -4    1    5    5    0  501 -0.79573842631E+02 -0.15248350094E+03 -0.13821055310E+03  0.22065218757E+03  0.14200000000E+01 0.  1.
</event>
<event>
 9   1  0.7335000E-04  0.9908507E+03  0.7818608E-02  0.9318637E-01
       21   -1    0    0  503  502  0.00000000000E+00  0.00000000000E+00  0.20203790083E+03  0.20203790083E+03  0.00000000000E+00 0.  1.
       21   -1    0    0  502  503 -0.00000000000E+00 -0.00000000000E+00 -0.12148527377E+04  0.12148527377E+04  0.00000000000E+00 0. -1.
       39    2    1    2    0    0  0.00000000000E+00  0.00000000000E+00 -0.10128148369E+04  0.14168906385E+04  0.99085073939E+03 0.  0.
       24    2    3    3    0    0 -0.15433781237E+03  0.46387363946E+03 -0.49514808419E+03  0.70044021649E+03  0.80286723019E+02 0.  0.
      -24    2    3    3    0    0  0.15433781237E+03 -0.46387363946E+03 -0.51766675268E+03  0.71645042203E+03  0.79519976632E+02 0.  0.
      -13    1    4    4    0    0 -0.80841178880E+02  0.17320036826E+03 -0.14798145435E+03  0.24172748002E+03  0.00000000000E+00 0.  1.
       14    1    4    4    0    0 -0.73496633486E+02  0.29067327120E+03 -0.34716662984E+03  0.45871273647E+03  0.00000000000E+00 0. -1.
        1    1    5    5  501    0  0.90001455537E+02 -0.35137214257E+03 -0.34526629533E+03  0.50077086503E+03  0.00000000000E+00 0. -1.
       -2    1    5    5    0  501  0.64336356829E+02 -0.11250149689E+03 -0.17240045735E+03  0.21567955700E+03  0.00000000000E+00 0.  1.
</event>
<event>
 9   1  0.7335000E-04  0.9890273E+03  0.7818608E-02  0.9320662E-01
       21   -1    0    0  503  502  0.00000000000E+00  0.00000000000E+00  0.70036737180E+03  0.70036737180E+03  0.00000000000E+00 0.  1.
       21   -1    0    0  502  503 -0.00000000000E+00 -0.00000000000E+00 -0.34916499618E+03  0.34916499618E+03  0.00000000000E+00 0. -1.
       39    2    1    2    0    0  0.00000000000E+00  0.00000000000E+00  0.35120237562E+03  0.10495323680E+04  0.98902734178E+03 0.  0.
       24    2    3    3    0    0  0.36581700213E+03 -0.29263027184E+03  0.32069715235E+03  0.57295638280E+03  0.77316220920E+02 0.  0.
      -24    2    3    3    0    0 -0.36581700213E+03  0.29263027184E+03  0.30505223275E+02  0.47657598518E+03  0.82094737705E+02 0.  0.
      -13    1    4    4    0    0  0.35002169693E+03 -0.27455509147E+03  0.32161105237E+03  0.54893474619E+03  0.00000000000E+00 0.  1.
       14    1    4    4    0    0  0.15795305200E+02 -0.18075180372E+02 -0.91390001883E+00  0.24021636603E+02  0.00000000000E+00 0. -1.
        1    1    5    5  501    0 -0.12515923084E+03  0.10638502025E+03 -0.28172546946E+02  0.16666222727E+03  0.00000000000E+00 0. -1.
       -2    1    5    5    0  501 -0.24065777129E+03  0.18624525159E+03  0.58677770222E+02  0.30991375791E+03  0.00000000000E+00 0.  1.
</event>
<event>
 9   1  0.7335000E-04  0.9668363E+03  0.7818608E-02  0.9345685E-01
       21   -1    0    0  503  502  0.00000000000E+00  0.00000000000E+00  0.10963902124E+04  0.10963902124E+04  0.00000000000E+00 0.  1.
       21   -1    0    0  502  503 -0.00000000000E+00 -0.00000000000E+00 -0.21314773322E+03  0.21314773322E+03  0.00000000000E+00 0. -1.
       39    2    1    2    0    0  0.00000000000E+00  0.00000000000E+00  0.88324247913E+03  0.13095379456E+04  0.96683626016E+03 0.  0.
       24    2    3    3    0    0 -0.24963062158E+03  0.15514841398E+03 -0.66602019108E+02  0.31201320941E+03  0.80808021289E+02 0.  0.
      -24    2    3    3    0    0  0.24963062158E+03 -0.15514841398E+03  0.94984449824E+03  0.99752473616E+03  0.80402430481E+02 0.  0.
      -13    1    4    4    0    0 -0.11091025932E+03  0.11642544338E+03 -0.35382166903E+02  0.16464466959E+03  0.00000000000E+00 0.  1.
       14    1    4    4    0    0 -0.13872036226E+03  0.38722970602E+02 -0.31219852205E+02  0.14736853982E+03  0.00000000000E+00 0. -1.
        1    1    5    5  501    0  0.10346313049E+03 -0.79731946918E+02  0.54736805216E+03  0.56273758294E+03  0.00000000000E+00 0. -1.
       -2    1    5    5    0  501  0.14616749109E+03 -0.75416467060E+02  0.40247644608E+03  0.43478715322E+03  0.00000000000E+00 0.  1.
</event>
<event>
 9   1  0.7335000E-04  0.1023097E+04  0.7818608E-02  0.9283569E-01
       21   -1    0    0  503  502  0.00000000000E+00  0.00000000000E+00  0.18895977789E+03  0.18895977789E+03  0.00000000000E+00 0.  1.
       21   -1    0    0  502  503 -0.00000000000E+00 -0.00000000000E+00 -0.13848552746E+04  0.13848552746E+04  0.00000000000E+00 0. -1.
       39    2    1    2    0    0  0.00000000000E+00  0.00000000000E+00 -0.11958954967E+04  0.15738150524E+04  0.10230971510E+04 0.  0.
       24    2    3    3    0    0  0.31640600466E+03  0.21406459842E+03 -0.89138976092E+02  0.40017376482E+03  0.79100397647E+02 0.  0.
      -24    2    3    3    0    0 -0.31640600466E+03 -0.21406459842E+03 -0.11067565206E+04  0.11736412876E+04  0.81163194429E+02 0.  0.
      -13    1    4    4    0    0  0.43999637725E+02  0.33214532133E+02  0.14793579712E+02  0.57079096571E+02  0.00000000000E+00 0.  1.
       14    1    4    4    0    0  0.27240636694E+03  0.18085006629E+03 -0.10393255580E+03  0.34309466825E+03  0.00000000000E+00 0. -1.
        3    1    5    5  501    0 -0.31695244434E+03 -0.19717768543E+03 -0.10483375633E+04  0.11128115466E+04  0.00000000000E+00 0. -1.
       -4    1    5    5    0  501  0.54643967510E+00 -0.16886912989E+02 -0.58418957256E+02  0.60829741027E+02  0.14200000000E+01 0.  1.
</event>
<event>
 9   1  0.7335000E-04  0.8608367E+03  0.7818608E-02  0.9475907E-01
       21   -1    0    0  503  502  0.00000000000E+00  0.00000000000E+00  0.13923730087E+04  0.13923730087E+04  0.00000000000E+00 0.  1.
       21   -1    0    0  502  503 -0.00000000000E+00 -0.00000000000E+00 -0.13305340529E+03  0.13305340529E+03  0.00000000000E+00 0. -1.
       39    2    1    2    0    0  0.56843418861E-13  0.35527136788E-14  0.12593196034E+04  0.15254264140E+04  0.86083673304E+03 0.  0.
       24    2    3    3    0    0  0.39558560657E+03 -0.21772883572E+02  0.36554508419E+03  0.54474598205E+03  0.78504431730E+02 0.  0.
      -24    2    3    3    0    0 -0.39558560657E+03  0.21772883572E+02  0.89377451918E+03  0.98068043190E+03  0.77066126112E+02 0.  0.
      -13    1    4    4    0    0  0.15664577215E+03 -0.37211635554E+02  0.18240103543E+03  0.24329558459E+03  0.00000000000E+00 0.  1.
       14    1    4    4    0    0  0.23893983442E+03  0.15438751982E+02  0.18314404876E+03  0.30145039747E+03  0.00000000000E+00 0. -1.
        3    1    5    5  501    0 -0.99961450799E+02 -0.23060330587E+02  0.18773582205E+03  0.21393646106E+03  0.00000000000E+00 0. -1.
       -4    1    5    5    0  501 -0.29562415577E+03  0.44833214159E+02  0.70603869713E+03  0.76674397083E+03  0.14200000000E+01 0.  1.
</event>
<event>
 9   1  0.7335000E-04  0.9917844E+03  0.7818608E-02  0.9317602E-01
       21   -1    0    0  503  502  0.00000000000E+00  0.00000000000E+00  0.71558393463E+03  0.71558393463E+03  0.00000000000E+00 0. -1.
       21   -1    0    0  502  503 -0.00000000000E+00 -0.00000000000E+00 -0.34364810055E+03  0.34364810055E+03  0.00000000000E+00 0.  1.
       39    2    1    2    0    0  0.00000000000E+00 -0.26645352591E-14  0.37193583408E+03  0.10592320352E+04  0.99178437157E+03 0.  0.
       24    2    3    3    0    0 -0.55926149576E+02 -0.52915844544E+01 -0.33310034278E+03  0.34736334960E+03  0.80930360288E+02 0.  0.
      -24    2    3    3    0    0  0.55926149576E+02  0.52915844544E+01  0.70503617686E+03  0.71186868559E+03  0.80779203832E+02 0.  0.
      -13    1    4    4    0    0 -0.74886491185E+02 -0.92908935179E+01 -0.29647664982E+03  0.30592925842E+03  0.00000000000E+00 0.  1.
       14    1    4    4    0    0  0.18960341608E+02  0.39993090635E+01 -0.36623692951E+02  0.41434091184E+02  0.00000000000E+00 0. -1.
        3    1    5    5  501    0  0.50216132179E+02  0.38915264879E+02  0.41582507047E+03  0.42065014799E+03  0.00000000000E+00 0. -1.
       -4    1    5    5    0  501  0.57100173969E+01 -0.33623680425E+02  0.28921110638E+03  0.29121853760E+03  0.14200000000E+01 0.  1.
</event>
<event>
 9   1  0.7335000E-04  0.1007128E+04  0.7818608E-02  0.9300761E-01
       -1   -1    0    0    0  501 -0.00000000000E+00  0.00000000000E+00  0.96329345711E+02  0.96329345711E+02  0.00000000000E+00 0.  1.
        1   -1    0    0  501    0  0.00000000000E+00 -0.00000000000E+00 -0.26323938740E+04  0.26323938740E+04  0.00000000000E+00 0. -1.
       39    2    1    2    0    0 -0.28421709430E-13  0.00000000000E+00 -0.25360645283E+04  0.27287232197E+04  0.10071281538E+04 0.  0.
       24    2    3    3    0    0 -0.24004721630E+03  0.10728912128E+03 -0.24114596608E+04  0.24272038195E+04  0.83946794025E+02 0.  0.
      -24    2    3    3    0    0  0.24004721630E+03 -0.10728912128E+03 -0.12460486747E+03  0.30151940017E+03  0.79081945378E+02 0.  0.
      -13    1    4    4    0    0 -0.92668885976E+02  0.75032621091E+02 -0.82247064647E+03  0.83106881842E+03  0.00000000000E+00 0.  1.
       14    1    4    4    0    0 -0.14737833032E+03  0.32256500185E+02 -0.15889890143E+04  0.15961350011E+04  0.00000000000E+00 0. -1.
        3    1    5    5  502    0  0.76857590994E+01  0.10369568446E+01 -0.25503718971E+02  0.26656816273E+02  0.00000000000E+00 0. -1.
       -4    1    5    5    0  502  0.23236145720E+03 -0.10832607812E+03 -0.99101148495E+02  0.27486258390E+03  0.14200000000E+01 0.  1.
</event>
<event>
 9   1  0.7335000E-04  0.9989464E+03  0.7818608E-02  0.9309701E-01
       21   -1    0    0  503  502  0.00000000000E+00  0.00000000000E+00  0.96048969042E+03  0.96048969042E+03  0.00000000000E+00 0.  1.
       21   -1    0    0  502  503 -0.00000000000E+00 -0.00000000000E+00 -0.25973571382E+03  0.25973571382E+03  0.00000000000E+00 0. -1.
       39    2    1    2    0    0  0.00000000000E+00  0.28421709430E-13  0.70075397660E+03  0.12202254042E+04  0.99894639567E+03 0.  0.
       24    2    3    3    0    0 -0.15708463657E+03 -0.19851178702E+03 -0.16602867580E+03  0.31346194025E+03  0.81304084548E+02 0.  0.
      -24    2    3    3    0    0  0.15708463657E+03  0.19851178702E+03  0.86678265241E+03  0.90676346399E+03  0.82615376790E+02 0.  0.
      -13    1    4    4    0    0  0.61504568950E+01  0.38429298537E+00  0.16055572474E+01  0.63681720447E+01  0.00000000000E+00 0.  1.
       14    1    4    4    0    0 -0.16323509347E+03 -0.19889608000E+03 -0.16763423305E+03  0.30709376820E+03  0.00000000000E+00 0. -1.
        1    1    5    5  501    0  0.33777640695E+01  0.90858390527E+01  0.45895689325E+01  0.10725013025E+02  0.00000000000E+00 0. -1.
       -2    1    5    5    0  501  0.15370687250E+03  0.18942594796E+03  0.86219308347E+03  0.89603845096E+03  0.00000000000E+00 0.  1.
</event>
<event>
 9   1  0.7335000E-04  0.1004133E+04  0.7818608E-02  0.9304023E-01
       21   -1    0    0  503  502  0.00000000000E+00  0.00000000000E+00  0.41253713398E+03  0.41253713398E+03  0.00000000000E+00 0.  1.
       21   -1    0    0  502  503 -0.00000000000E+00 -0.00000000000E+00 -0.61102561672E+03  0.61102561672E+03  0.00000000000E+00 0. -1.
       39    2    1    2    0    0 -0.71054273576E-14  0.00000000000E+00 -0.19848848274E+03  0.10235627507E+04  0.10041329727E+04 0.  0.
       24    2    3    3    0    0  0.53775735018E+02  0.21533933077E+03 -0.55206181255E+03  0.60049240681E+03  0.80969307194E+02 0.  0.
      -24    2    3    3    0    0 -0.53775735018E+02 -0.21533933077E+03  0.35357332981E+03  0.42307034388E+03  0.68640798840E+02 0.  0.
      -13    1    4    4    0    0  0.30431151546E+02  0.14706534130E+03 -0.26596318104E+03  0.30543523579E+03  0.00000000000E+00 0.  1.
       14    1    4    4    0    0  0.23344583473E+02  0.68273989472E+02 -0.28609863152E+03  0.29505717102E+03  0.00000000000E+00 0. -1.
        1    1    5    5  501    0 -0.40201578164E+02 -0.21351788679E+03  0.31978279212E+03  0.38660973733E+03  0.00000000000E+00 0. -1.
       -2    1    5    5    0  501 -0.13574156854E+02 -0.18214439848E+01  0.33790537693E+02  0.36460606551E+02  0.00000000000E+00 0.  1.
</event>
<event>
 9   1  0.7335000E-04  0.9942967E+03  0.7818608E-02  0.9314822E-01
       21   -1    0    0  503  502  0.00000000000E+00  0.00000000000E+00  0.86263608953E+03  0.86263608953E+03  0.00000000000E+00 0. -1.
       21   -1    0    0  502  503 -0.00000000000E+00 -0.00000000000E+00 -0.28651304273E+03  0.28651304273E+03  0.00000000000E+00 0.  1.
       39    2    1    2    0    0 -0.56843418861E-13 -0.56843418861E-13  0.57612304681E+03  0.11491491323E+04  0.99429671784E+03 0.  0.
       24    2    3    3    0    0 -0.38799176965E+03 -0.25934799238E+03  0.11357351606E+03  0.48712415523E+03  0.81191160770E+02 0.  0.
      -24    2    3    3    0    0  0.38799176965E+03  0.25934799238E+03  0.46254953075E+03  0.66202497703E+03  0.80783707203E+02 0.  0.
      -13    1    4    4    0    0 -0.34309252212E+03 -0.22999715976E+03  0.72047719739E+02  0.41928754590E+03  0.00000000000E+00 0.  1.
       14    1    4    4    0    0 -0.44899247533E+02 -0.29350832627E+02  0.41525796319E+02  0.67836609326E+02  0.00000000000E+00 0. -1.
        1    1    5    5  501    0  0.27527359437E+03  0.13815290419E+03  0.30802652061E+03  0.43559397848E+03  0.00000000000E+00 0. -1.
       -2    1    5    5    0  501  0.11271817528E+03  0.12119508819E+03  0.15452301014E+03  0.22643099855E+03  0.00000000000E+00 0.  1.
</event>
<event>
 9   1  0.7335000E-04  0.1010798E+04  0.7818608E-02  0.9296781E-01
       21   -1    0    0  503  502  0.00000000000E+00  0.00000000000E+00  0.11722315849E+03  0.11722315849E+03  0.00000000000E+00 0. -1.
       21   -1    0    0  502  503 -0.00000000000E+00 -0.00000000000E+00 -0.21789889239E+04  0.21789889239E+04  0.00000000000E+00 0.  1.
       39    2    1    2    0    0  0.00000000000E+00  0.56843418861E-13 -0.20617657654E+04  0.22962120824E+04  0.10107976335E+04 0.  0.
       24    2    3    3    0    0 -0.21910779833E+03  0.41045193076E+03 -0.62212332594E+03  0.78110058136E+03  0.81250666260E+02 0.  0.
      -24    2    3    3    0    0  0.21910779833E+03 -0.41045193076E+03 -0.14396424395E+04  0.15151115010E+04  0.80706209513E+02 0.  0.
      -13    1    4    4    0    0 -0.41867323038E+01  0.52353685815E+02 -0.95306152125E+02  0.10881957443E+03  0.00000000000E+00 0.  1.
       14    1    4    4    0    0 -0.21492106603E+03  0.35809824494E+03 -0.52681717382E+03  0.67228100694E+03  0.00000000000E+00 0. -1.
        3    1    5    5  501    0  0.61501031617E+02 -0.82912993923E+02 -0.42392269398E+03  0.43631111826E+03  0.00000000000E+00 0. -1.
       -4    1    5    5    0  501  0.15760676671E+03 -0.32753893684E+03 -0.10157197455E+04  0.10788003828E+04  0.14200000000E+01 0.  1.
</event>
<event>
 9   1  0.7335000E-04  0.9999245E+03  0.7818608E-02  0.9308628E-01
       21   -1    0    0  503  502  0.00000000000E+00  0.00000000000E+00  0.59729824460E+03  0.59729824460E+03  0.00000000000E+00 0. -1.
       21   -1    0    0  502  503 -0.00000000000E+00 -0.00000000000E+00 -0.41848816800E+03  0.41848816800E+03  0.00000000000E+00 0.  1.
       39    2    1    2    0    0 -0.14210854715E-13 -0.11368683772E-12  0.17881007660E+03  0.10157864126E+04  0.99992449341E+03 0.  0.
       24    2    3    3    0    0 -0.91614919457E+02 -0.27825605308E+03 -0.31252036272E+03  0.43667037666E+03  0.84807524387E+02 0.  0.
      -24    2    3    3    0    0  0.91614919457E+02  0.27825605308E+03  0.49133043932E+03  0.57911603594E+03  0.90277671275E+02 0.  0.
      -13    1    4    4    0    0 -0.99602736089E+02 -0.25335659215E+03 -0.25293561266E+03  0.37160017757E+03  0.00000000000E+00 0.  1.
       14    1    4    4    0    0  0.79878166315E+01 -0.24899460939E+02 -0.59584750061E+02  0.65070199089E+02  0.00000000000E+00 0. -1.
        1    1    5    5  501    0  0.68599947236E+02  0.24903210247E+03  0.46981682142E+03  0.53614437096E+03  0.00000000000E+00 0. -1.
       -2    1    5    5    0  501  0.23014972221E+02  0.29223950612E+02  0.21513617900E+02  0.42971664977E+02  0.00000000000E+00 0.  1.
</event>
<event>
 9   1  0.7335000E-04  0.9885749E+03  0.7818608E-02  0.9321165E-01
       -2   -1    0    0    0  501 -0.00000000000E+00  0.00000000000E+00  0.73057461173E+02  0.73057461173E+02  0.00000000000E+00 0. -1.
        2   -1    0    0  501    0  0.00000000000E+00 -0.00000000000E+00 -0.33442182122E+04  0.33442182122E+04  0.00000000000E+00 0.  1.
       39    2    1    2    0    0 -0.11368683772E-12 -0.21316282073E-13 -0.32711607510E+04  0.34172756734E+04  0.98857491813E+03 0.  0.
       24    2    3    3    0    0 -0.44819399144E+03 -0.61805513031E+02 -0.10055737380E+04  0.11055280044E+04  0.79472325714E+02 0.  0.
      -24    2    3    3    0    0  0.44819399144E+03  0.61805513031E+02 -0.22655870130E+04  0.23117476689E+04  0.81209580714E+02 0.  0.
      -13    1    4    4    0    0 -0.46022723875E+02  0.16555194451E+02 -0.89348184122E+02  0.10185903780E+03  0.00000000000E+00 0.  1.
       14    1    4    4    0    0 -0.40217126757E+03 -0.78360707482E+02 -0.91622555392E+03  0.10036689666E+04  0.00000000000E+00 0. -1.
        3    1    5    5  502    0  0.25637189653E+03  0.52333889364E+02 -0.11189137325E+04  0.11491010948E+04  0.00000000000E+00 0. -1.
       -4    1    5    5    0  502  0.19182209492E+03  0.94716236671E+01 -0.11466732804E+04  0.11626465741E+04  0.14200000000E+01 0.  1.
</event>
<event>
 9   1  0.7335000E-04  0.9899701E+03  0.7818608E-02  0.9319614E-01
       21   -1    0    0  503  502  0.00000000000E+00  0.00000000000E+00  0.25310245283E+03  0.25310245283E+03  0.00000000000E+00 0. -1.
       21   -1    0    0  502  503 -0.00000000000E+00 -0.00000000000E+00 -0.96802766457E+03  0.96802766457E+03  0.00000000000E+00 0.  1.
       39    2    1    2    0    0  0.28421709430E-13  0.00000000000E+00 -0.71492521174E+03  0.12211301174E+04  0.98997005270E+03 0.  0.
       24    2    3    3    0    0  0.14098746352E+03  0.13214759179E+03 -0.91332382589E+03  0.93626994041E+03  0.71418061363E+02 0.  0.
      -24    2    3    3    0    0 -0.14098746352E+03 -0.13214759179E+03  0.19839861415E+03  0.28486017700E+03  0.66654778180E+02 0.  0.
      -13    1    4    4    0    0  0.14649804457E+03  0.11008425139E+03 -0.80813411796E+03  0.82865009025E+03  0.00000000000E+00 0.  1.
       14    1    4    4    0    0 -0.55105810475E+01  0.22063340395E+02 -0.10518970793E+03  0.10761985015E+03  0.00000000000E+00 0. -1.
        1    1    5    5  501    0 -0.81080813224E+02 -0.10995043202E+03  0.10790897164E+03  0.17409061415E+03  0.00000000000E+00 0. -1.
       -2    1    5    5    0  501 -0.59906650299E+02 -0.22197159774E+02  0.90489642508E+02  0.11076956285E+03  0.00000000000E+00 0.  1.
</event>
<event>
 9   1  0.7335000E-04  0.1047178E+04  0.7818608E-02  0.9258263E-01
       21   -1    0    0  503  502  0.00000000000E+00  0.00000000000E+00  0.39687260078E+03  0.39687260078E+03  0.00000000000E+00 0. -1.
       21   -1    0    0  502  503 -0.00000000000E+00 -0.00000000000E+00 -0.69076408485E+03  0.69076408485E+03  0.00000000000E+00 0.  1.
       39    2    1    2    0    0  0.56843418861E-13  0.00000000000E+00 -0.29389148406E+03  0.10876366856E+04  0.10471778051E+04 0.  0.
       24    2    3    3    0    0 -0.37152151278E+03 -0.28341656747E+03  0.84953447118E+02  0.48193143985E+03  0.81777988217E+02 0.  0.
      -24    2    3    3    0    0  0.37152151278E+03  0.28341656747E+03 -0.37884493118E+03  0.60570524579E+03  0.70726075193E+02 0.  0.
      -13    1    4    4    0    0 -0.92938040633E+02 -0.31288596832E+02  0.27348501124E+02  0.10180567863E+03  0.00000000000E+00 0.  1.
       14    1    4    4    0    0 -0.27858347215E+03 -0.25212797064E+03  0.57604945993E+02  0.38012576121E+03  0.00000000000E+00 0. -1.
        1    1    5    5  501    0  0.66179595962E+02  0.19815411000E+02 -0.60637521623E+02  0.91920065619E+02  0.00000000000E+00 0. -1.
       -2    1    5    5    0  501  0.30534191682E+03  0.26360115647E+03 -0.31820740956E+03  0.51378518017E+03  0.00000000000E+00 0.  1.
</event>
<event>
 9   1  0.7335000E-04  0.1009404E+04  0.7818608E-02  0.9298290E-01
        1   -1    0    0  501    0  0.00000000000E+00  0.00000000000E+00  0.22766643297E+04  0.22766643297E+04  0.00000000000E+00 0. -1.
       -1   -1    0    0    0  501 -0.00000000000E+00 -0.00000000000E+00 -0.11188486644E+03  0.11188486644E+03  0.00000000000E+00 0.  1.
       39    2    1    2    0    0  0.56843418861E-13  0.00000000000E+00  0.21647794633E+04  0.23885491961E+04  0.10094043480E+04 0.  0.
       24    2    3    3    0    0 -0.24875342979E+03  0.39296258673E+03  0.15019141506E+04  0.15742334228E+04  0.78529550334E+02 0.  0.
      -24    2    3    3    0    0  0.24875342979E+03 -0.39296258673E+03  0.66286531264E+03  0.81431577333E+03  0.86150406768E+02 0.  0.
      -13    1    4    4    0    0 -0.61392919110E+02  0.55667630144E+02  0.33896308102E+03  0.34894690979E+03  0.00000000000E+00 0.  1.
       14    1    4    4    0    0 -0.18736051068E+03  0.33729495659E+03  0.11629510696E+04  0.12252865130E+04  0.00000000000E+00 0. -1.
        3    1    5    5  502    0  0.10497252799E+03 -0.14356340486E+03  0.18638739039E+03  0.25762364438E+03  0.00000000000E+00 0. -1.
       -4    1    5    5    0  502  0.14378090180E+03 -0.24939918188E+03  0.47647792225E+03  0.55669212895E+03  0.14200000000E+01 0.  1.
</event>
<event>
 9   1  0.7335000E-04  0.9835954E+03  0.7818608E-02  0.9326722E-01
       21   -1    0    0  503  502  0.00000000000E+00  0.00000000000E+00  0.81502951071E+03  0.81502951071E+03  0.00000000000E+00 0. -1.
       21   -1    0    0  502  503 -0.00000000000E+00 -0.00000000000E+00 -0.29675609344E+03  0.29675609344E+03  0.00000000000E+00 0.  1.
       39    2    1    2    0    0  0.28421709430E-13  0.00000000000E+00  0.51827341727E+03  0.11117856042E+04  0.98359539169E+03 0.  0.
       24    2    3    3    0    0  0.14454558570E+03 -0.34201931635E+03 -0.94136933091E+02  0.39100557558E+03  0.78440798445E+02 0.  0.
      -24    2    3    3    0    0 -0.14454558570E+03  0.34201931635E+03  0.61241035036E+03  0.72078002858E+03  0.81282059965E+02 0.  0.
      -13    1    4    4    0    0  0.12855132082E+03 -0.31645274455E+03 -0.10740956333E+03  0.35805669371E+03  0.00000000000E+00 0.  1.
       14    1    4    4    0    0  0.15994264882E+02 -0.25566571798E+02  0.13272630242E+02  0.32948881865E+02  0.00000000000E+00 0. -1.
        3    1    5    5  501    0 -0.14670896257E+03  0.29408608881E+03  0.49756544671E+03  0.59630656636E+03  0.00000000000E+00 0. -1.
       -4    1    5    5    0  501  0.21633768714E+01  0.47933227542E+02  0.11484490365E+03  0.12447346222E+03  0.14200000000E+01 0.  1.
</event>
<event>
 9   1  0.7335000E-04  0.1000518E+04  0.7818608E-02  0.9307976E-01
       21   -1    0    0  503  502  0.00000000000E+00  0.00000000000E+00  0.42812298363E+03  0.42812298363E+03  0.00000000000E+00 0. -1.
       21   -1    0    0  502  503 -0.00000000000E+00 -0.00000000000E+00 -0.58454993079E+03  0.58454993079E+03  0.00000000000E+00 0.  1.
       39    2    1    2    0    0  0.00000000000E+00 -0.28421709430E-13 -0.15642694716E+03  0.10126729144E+04  0.10005183865E+04 0.  0.
       24    2    3    3    0    0 -0.10425522522E+03 -0.18057485985E+03 -0.53150377051E+03  0.57656696877E+03  0.80354087756E+02 0.  0.
      -24    2    3    3    0    0  0.10425522522E+03  0.18057485985E+03  0.37507682334E+03  0.43610594565E+03  0.77648827598E+02 0.  0.
      -13    1    4    4    0    0 -0.88507265724E+02 -0.18178144283E+03 -0.44698286852E+03  0.49058303455E+03  0.00000000000E+00 0.  1.
       14    1    4    4    0    0 -0.15747959499E+02  0.12065829745E+01 -0.84520901992E+02  0.85983934223E+02  0.00000000000E+00 0. -1.
        1    1    5    5  501    0  0.87266417637E+02  0.18418635398E+03  0.35668525042E+03  0.41080945523E+03  0.00000000000E+00 0. -1.
       -2    1    5    5    0  501  0.16988807586E+02 -0.36114941299E+01  0.18391572925E+02  0.25296490422E+02  0.00000000000E+00 0.  1.
</event>
<event>
 9   1  0.7335000E-04  0.1007244E+04  0.7818608E-02  0.9300635E-01
       21   -1    0    0  503  502  0.00000000000E+00  0.00000000000E+00  0.67899719510E+03  0.67899719510E+03  0.00000000000E+00 0. -1.
       21   -1    0    0  502  503 -0.00000000000E+00 -0.00000000000E+00 -0.37354360140E+03  0.37354360140E+03  0.00000000000E+00 0.  1.
       39    2    1    2    0    0  0.00000000000E+00  0.00000000000E+00  0.30545359370E+03  0.10525407965E+04  0.10072438783E+04 0.  0.
       24    2    3    3    0    0  0.11708986740E+03  0.31387595722E+03 -0.23084648520E+03  0.41520152446E+03  0.82909906617E+02 0.  0.
      -24    2    3    3    0    0 -0.11708986740E+03 -0.31387595722E+03  0.53630007890E+03  0.63733927204E+03  0.79720884884E+02 0.  0.
      -13    1    4    4    0    0  0.11845161265E+03  0.31875189167E+03 -0.22747626069E+03  0.40911978950E+03  0.00000000000E+00 0.  1.
       14    1    4    4    0    0 -0.13617452499E+01 -0.48759344491E+01 -0.33702245129E+01  0.60817349617E+01  0.00000000000E+00 0. -1.
        1    1    5    5  501    0 -0.53032483913E+02 -0.24263618044E+03  0.39640110538E+03  0.46778050061E+03  0.00000000000E+00 0. -1.
       -2    1    5    5    0  501 -0.64057383492E+02 -0.71239776779E+02  0.13989897353E+03  0.16955877143E+03  0.00000000000E+00 0.  1.
</event>
<event>
 9   1  0.7335000E-04  0.1008560E+04  0.7818608E-02  0.9299206E-01
       21   -1    0    0  503  502  0.00000000000E+00  0.00000000000E+00  0.97516833603E+03  0.97516833603E+03  0.00000000000E+00 0.  1.
       21   -1    0    0  502  503 -0.00000000000E+00 -0.00000000000E+00 -0.26077388636E+03  0.26077388636E+03  0.00000000000E+00 0. -1.
       39    2    1    2    0    0 -0.14210854715E-13 -0.11368683772E-12  0.71439444967E+03  0.12359422224E+04  0.10085602349E+04 0.  0.
       24    2    3    3    0    0  0.77945682692E+02  0.45236139012E+03  0.12071573273E+03  0.48158531593E+03  0.81521602510E+02 0.  0.
      -24    2    3    3    0    0 -0.77945682692E+02 -0.45236139012E+03  0.59367871694E+03  0.75435690645E+03  0.76769568462E+02 0.  0.
      -13    1    4    4    0    0  0.22352634942E+01  0.10148794223E+02  0.18841703006E+02  0.21517532369E+02  0.00000000000E+00 0.  1.
       14    1    4    4    0    0  0.75710419198E+02  0.44221259589E+03  0.10187402972E+03  0.46006778356E+03  0.00000000000E+00 0. -1.
        1    1    5    5  501    0 -0.48133821202E+02 -0.97532328441E+02  0.12361024433E+03  0.16464784341E+03  0.00000000000E+00 0. -1.
       -2    1    5    5    0  501 -0.29811861491E+02 -0.35482906168E+03  0.47006847261E+03  0.58970906304E+03  0.00000000000E+00 0.  1.
</event>
<event>
 9   1  0.7335000E-04  0.8717149E+03  0.7818608E-02  0.9461647E-01
       21   -1    0    0  503  502  0.00000000000E+00  0.00000000000E+00  0.87772289141E+03  0.87772289141E+03  0.00000000000E+00 0.  1.
       21   -1    0    0  502  503 -0.00000000000E+00 -0.00000000000E+00 -0.21643698983E+03  0.21643698983E+03  0.00000000000E+00 0. -1.
       39    2    1    2    0    0 -0.14210854715E-13 -0.56843418861E-13  0.66128590158E+03  0.10941598812E+04  0.87171486282E+03 0.  0.
       24    2    3    3    0    0 -0.88547887813E+02 -0.31039764463E+03 -0.23014433280E+02  0.33341622273E+03  0.80307454279E+02 0.  0.
      -24    2    3    3    0    0  0.88547887813E+02  0.31039764463E+03  0.68430033487E+03  0.76074365850E+03  0.79224613791E+02 0.  0.
      -13    1    4    4    0    0 -0.15598586124E+02 -0.19026855076E+03  0.56676306974E+00  0.19090772252E+03  0.00000000000E+00 0.  1.
       14    1    4    4    0    0 -0.72949301688E+02 -0.12012909387E+03 -0.23581196350E+02  0.14250850021E+03  0.00000000000E+00 0. -1.
        3    1    5    5  501    0  0.81466136189E+02  0.19995990887E+03  0.51554696162E+03  0.55893592311E+03  0.00000000000E+00 0. -1.
       -4    1    5    5    0  501  0.70817516237E+01  0.11043773576E+03  0.16875337324E+03  0.20180773540E+03  0.14200000000E+01 0.  1.
</event>
<event>
 9   1  0.7335000E-04  0.9767335E+03  0.7818608E-02  0.9334438E-01
       21   -1    0    0  503  502  0.00000000000E+00  0.00000000000E+00  0.20880980487E+03  0.20880980487E+03  0.00000000000E+00 0.  1.
       21   -1    0    0  502  503 -0.00000000000E+00 -0.00000000000E+00 -0.11421977269E+04  0.11421977269E+04  0.00000000000E+00 0. -1.
       39    2    1    2    0    0  0.71054273576E-14 -0.28421709430E-13 -0.93338792208E+03  0.13510075318E+04  0.97673350406E+03 0.  0.
       24    2    3    3    0    0  0.59136121736E+02 -0.14878207828E+03 -0.10946832475E+04  0.11094254165E+04  0.82826050354E+02 0.  0.
      -24    2    3    3    0    0 -0.59136121736E+02  0.14878207828E+03  0.16129532547E+03  0.24158211532E+03  0.81930145312E+02 0.  0.
      -13    1    4    4    0    0  0.68185393536E+01  0.86061976351E+01 -0.14105500639E+03  0.14148170887E+03  0.00000000000E+00 0.  1.
       14    1    4    4    0    0  0.52317582382E+02 -0.15738827592E+03 -0.95362824116E+03  0.96794370764E+03  0.00000000000E+00 0. -1.
        1    1    5    5  501    0 -0.15116528966E+02  0.58027313246E+02  0.11601164272E+02  0.61075899854E+02  0.00000000000E+00 0. -1.
       -2    1    5    5    0  501 -0.44019592770E+02  0.90754765039E+02  0.14969416120E+03  0.18050621546E+03  0.00000000000E+00 0.  1.
</event>
<event>
 9   1  0.7335000E-04  0.1005902E+04  0.7818608E-02  0.9302095E-01
        2   -1    0    0  501    0  0.00000000000E+00  0.00000000000E+00  0.21405134486E+04  0.21405134486E+04  0.00000000000E+00 0.  1.
       -2   -1    0    0    0  501 -0.00000000000E+00 -0.00000000000E+00 -0.11817711819E+03  0.11817711819E+03  0.00000000000E+00 0. -1.
       39    2    1    2    0    0 -0.28421709430E-13  0.56843418861E-13  0.20223363304E+04  0.22586905668E+04  0.10059020048E+04 0.  0.
       24    2    3    3    0    0  0.25074058994E+03 -0.28369622447E+03  0.17320291679E+04  0.17747554088E+04  0.80481871036E+02 0.  0.
      -24    2    3    3    0    0 -0.25074058994E+03  0.28369622447E+03  0.29030716253E+03  0.48393515796E+03  0.80997514033E+02 0.  0.
      -13    1    4    4    0    0  0.16893476519E+03 -0.15993395062E+03  0.89852942443E+03  0.92815567122E+03  0.00000000000E+00 0.  1.
       14    1    4    4    0    0  0.81805824745E+02 -0.12376227384E+03  0.83349974344E+03  0.84659973760E+03  0.00000000000E+00 0. -1.
        1    1    5    5  502    0 -0.97513805418E+02  0.15436302561E+03  0.10345730220E+03  0.20985780734E+03  0.00000000000E+00 0. -1.
       -2    1    5    5    0  502 -0.15322678452E+03  0.12933319885E+03  0.18684986033E+03  0.27407735062E+03  0.00000000000E+00 0.  1.
</event>
<event>
 9   1  0.7335000E-04  0.9992145E+03  0.7818608E-02  0.9309407E-01
       -1   -1    0    0    0  501 -0.00000000000E+00  0.00000000000E+00  0.34948304658E+03  0.34948304658E+03  0.00000000000E+00 0.  1.
        1   -1    0    0  501    0  0.00000000000E+00 -0.00000000000E+00 -0.71421892112E+03  0.71421892112E+03  0.00000000000E+00 0. -1.
       39    2    1    2    0    0  0.00000000000E+00  0.11368683772E-12 -0.36473587454E+03  0.10637019677E+04  0.99921450044E+03 0.  0.
       24    2    3    3    0    0 -0.16396170090E+03  0.31302735593E+03  0.18370560651E+03  0.40620976160E+03  0.79931568429E+02 0.  0.
      -24    2    3    3    0    0  0.16396170090E+03 -0.31302735593E+03 -0.54844148105E+03  0.65749220609E+03  0.81476242014E+02 0.  0.
      -13    1    4    4    0    0 -0.65571860518E+02  0.16553329881E+03  0.52449083984E+02  0.18561209098E+03  0.00000000000E+00 0.  1.
       14    1    4    4    0    0 -0.98389840387E+02  0.14749405711E+03  0.13125652253E+03  0.22059767062E+03  0.00000000000E+00 0. -1.
        1    1    5    5  502    0  0.17056191146E+03 -0.28856042014E+03 -0.52552389414E+03  0.62332483107E+03  0.00000000000E+00 0. -1.
       -2    1    5    5    0  502 -0.66002105594E+01 -0.24466935786E+02 -0.22917586908E+02  0.34167375021E+02  0.00000000000E+00 0.  1.
</event>
<event>
 9   1  0.7335000E-04  0.1003202E+04  0.7818608E-02  0.9305039E-01
       -2   -1    0    0    0  501 -0.00000000000E+00  0.00000000000E+00  0.18098902438E+03  0.18098902438E+03  0.00000000000E+00 0. -1.
        2   -1    0    0  501    0  0.00000000000E+00 -0.00000000000E+00 -0.13901604079E+04  0.13901604079E+04  0.00000000000E+00 0.  1.
       39    2    1    2    0    0  0.00000000000E+00  0.00000000000E+00 -0.12091713835E+04  0.15711494322E+04  0.10032024241E+04 0.  0.
       24    2    3    3    0    0 -0.40985983532E+03 -0.26026487522E+03 -0.75688623826E+03  0.90284710098E+03  0.80828337821E+02 0.  0.
      -24    2    3    3    0    0  0.40985983532E+03  0.26026487522E+03 -0.45228514523E+03  0.66830233127E+03  0.79644607505E+02 0.  0.
      -13    1    4    4    0    0 -0.22326710975E+03 -0.96243499869E+02 -0.35148516246E+03  0.42737902732E+03  0.00000000000E+00 0.  1.
       14    1    4    4    0    0 -0.18659272556E+03 -0.16402137535E+03 -0.40540107580E+03  0.47546807366E+03  0.00000000000E+00 0. -1.
        3    1    5    5  502    0  0.11621288751E+03  0.98913836539E+02 -0.10191919157E+03  0.18351268047E+03  0.00000000000E+00 0. -1.
       -4    1    5    5    0  502  0.29364694780E+03  0.16135103868E+03 -0.35036595366E+03  0.48478965080E+03  0.14200000000E+01 0.  1.
</event>
<event>
 9   1  0.7335000E-04  0.1005932E+04  0.7818608E-02  0.9302063E-01
       21   -1    0    0  503  502  0.00000000000E+00  0.00000000000E+00  0.15668414145E+03  0.15668414145E+03  0.00000000000E+00 0.  1.
       21   -1    0    0  502  503 -0.00000000000E+00 -0.00000000000E+00 -0.16145517303E+04  0.16145517303E+04  0.00000000000E+00 0. -1.
       39    2    1    2    0    0  0.00000000000E+00  0.17763568394E-14 -0.14578675888E+04  0.17712358717E+04  0.10059317108E+04 0.  0.
       24    2    3    3    0    0  0.22791747283E+03  0.11004785522E+02  0.47779335110E+02  0.24626150010E+03  0.79337140376E+02 0.  0.
      -24    2    3    3    0    0 -0.22791747283E+03 -0.11004785522E+02 -0.15056469239E+04  0.15249743716E+04  0.80664086423E+02 0.  0.
      -13    1    4    4    0    0  0.19231368479E+03 -0.99664648189E+01  0.14339876821E+02  0.19310493480E+03  0.00000000000E+00 0.  1.
       14    1    4    4    0    0  0.35603788044E+02  0.20971250341E+02  0.33439458289E+02  0.53156565301E+02  0.00000000000E+00 0. -1.
        1    1    5    5  501    0 -0.83566182480E+02 -0.28072464893E+01 -0.81981627587E+03  0.82406911947E+03  0.00000000000E+00 0. -1.
       -2    1    5    5    0  501 -0.14435129035E+03 -0.81975390327E+01 -0.68583064805E+03  0.70090525214E+03  0.00000000000E+00 0.  1.
</event>
<event>
 9   1  0.7335000E-04  0.9980670E+03  0.7818608E-02  0.9310667E-01
       21   -1    0    0  503  502  0.00000000000E+00  0.00000000000E+00  0.30448524425E+03  0.30448524425E+03  0.00000000000E+00 0.  1.
       21   -1    0    0  502  503 -0.00000000000E+00 -0.00000000000E+00 -0.81788668554E+03  0.81788668554E+03  0.00000000000E+00 0. -1.
       39    2    1    2    0    0  0.14210854715E-13 -0.14210854715E-13 -0.51340144128E+03  0.11223719298E+04  0.99806698616E+03 0.  0.
       24    2    3    3    0    0 -0.11050397583E+03  0.83730772016E+02 -0.78795413981E+03  0.80413553880E+03  0.80871920069E+02 0.  0.
      -24    2    3    3    0    0  0.11050397583E+03 -0.83730772016E+02  0.27455269853E+03  0.31823639099E+03  0.81689934644E+02 0.  0.
      -13    1    4    4    0    0 -0.13215334973E+02 -0.11532146741E+02 -0.37123395879E+02  0.41058275762E+02  0.00000000000E+00 0.  1.
       14    1    4    4    0    0 -0.97288640857E+02  0.95262918757E+02 -0.75083074393E+03  0.76307726304E+03  0.00000000000E+00 0. -1.
        1    1    5    5  501    0 -0.40143291338E+01  0.96460895558E+01  0.37270693534E+02  0.38707447328E+02  0.00000000000E+00 0. -1.
       -2    1    5    5    0  501  0.11451830496E+03 -0.93376861572E+02  0.23728200499E+03  0.27952894366E+03  0.00000000000E+00 0.  1.
</event>
<event>
 9   1  0.7335000E-04  0.1004703E+04  0.7818608E-02  0.9303402E-01
       21   -1    0    0  503  502  0.00000000000E+00  0.00000000000E+00  0.91756096129E+03  0.91756096129E+03  0.00000000000E+00 0. -1.
       21   -1    0    0  502  503 -0.00000000000E+00 -0.00000000000E+00 -0.27503016945E+03  0.27503016945E+03  0.00000000000E+00 0.  1.
       39    2    1    2    0    0  0.00000000000E+00  0.00000000000E+00  0.64253079184E+03  0.11925911307E+04  0.10047028350E+04 0.  0.
       24    2    3    3    0    0  0.22163452629E+03 -0.43409163087E+03  0.21263164420E+03  0.53775238821E+03  0.80050032335E+02 0.  0.
      -24    2    3    3    0    0 -0.22163452629E+03  0.43409163087E+03  0.42989914764E+03  0.65483874252E+03  0.80268887733E+02 0.  0.
      -13    1    4    4    0    0  0.12257175095E+03 -0.24461449847E+03  0.75819611085E+02  0.28391671388E+03  0.00000000000E+00 0.  1.
       14    1    4    4    0    0  0.99062775335E+02 -0.18947713240E+03  0.13681203311E+03  0.25383567433E+03  0.00000000000E+00 0. -1.
        1    1    5    5  501    0 -0.12656706361E+03  0.18059367678E+03  0.22720862447E+03  0.31663394751E+03  0.00000000000E+00 0. -1.
       -2    1    5    5    0  501 -0.95067462680E+02  0.25349795409E+03  0.20269052317E+03  0.33820479501E+03  0.00000000000E+00 0.  1.
</event>
<event>
 9   1  0.7335000E-04  0.9934004E+03  0.7818608E-02  0.9315813E-01
       21   -1    0    0  503  502  0.00000000000E+00  0.00000000000E+00  0.25916381677E+03  0.25916381677E+03  0.00000000000E+00 0.  1.
       21   -1    0    0  502  503 -0.00000000000E+00 -0.00000000000E+00 -0.95195032017E+03  0.95195032017E+03  0.00000000000E+00 0. -1.
       39    2    1    2    0    0  0.71054273576E-14  0.00000000000E+00 -0.69278650339E+03  0.12111141369E+04  0.99340037921E+03 0.  0.
       24    2    3    3    0    0 -0.57217950954E+02  0.18694582282E+03 -0.89448332021E+03  0.91902471343E+03  0.79267768823E+02 0.  0.
      -24    2    3    3    0    0  0.57217950954E+02 -0.18694582282E+03  0.20169681682E+03  0.29208942351E+03  0.80074907636E+02 0.  0.
      -13    1    4    4    0    0  0.17500231231E+02  0.66703949166E+02 -0.26587999082E+03  0.27467771014E+03  0.00000000000E+00 0.  1.
       14    1    4    4    0    0 -0.74718182185E+02  0.12024187366E+03 -0.62860332939E+03  0.64434700329E+03  0.00000000000E+00 0. -1.
        3    1    5    5  501    0 -0.15895820223E+02 -0.69885855194E+02  0.86304851726E+02  0.11218394399E+03  0.00000000000E+00 0. -1.
       -4    1    5    5    0  501  0.73113771177E+02 -0.11705996763E+03  0.11539196509E+03  0.17990547953E+03  0.14200000000E+01 0.  1.
</event>
<event>
 9   1  0.7335000E-04  0.9962374E+03  0.7818608E-02  0.9312681E-01
       -1   -1    0    0    0  501 -0.00000000000E+00  0.00000000000E+00  0.48604210654E+03  0.48604210654E+03  0.00000000000E+00 0.  1.
        1   -1    0    0  501    0  0.00000000000E+00 -0.00000000000E+00 -0.51049535814E+03  0.51049535814E+03  0.00000000000E+00 0. -1.
       39    2    1    2    0    0  0.56843418861E-13  0.00000000000E+00 -0.24453251593E+02  0.99653746468E+03  0.99623739992E+03 0.  0.
       24    2    3    3    0    0 -0.41743224998E+03  0.24924941413E+03 -0.82078514847E+02  0.50040350867E+03  0.85392242766E+02 0.  0.
      -24    2    3    3    0    0  0.41743224998E+03 -0.24924941413E+03  0.57625263253E+02  0.49613395601E+03  0.80332294743E+02 0.  0.
      -13    1    4    4    0    0 -0.17323535882E+02  0.36319724313E+02 -0.33686453601E+01  0.40380379409E+02  0.00000000000E+00 0.  1.
       14    1    4    4    0    0 -0.40010871409E+03  0.21292968982E+03 -0.78709869487E+02  0.46002312926E+03  0.00000000000E+00 0. -1.
        1    1    5    5  502    0  0.56523350813E+02 -0.54813691451E+02  0.33216241067E+02  0.85456121069E+02  0.00000000000E+00 0. -1.
       -2    1    5    5    0  502  0.36090889916E+03 -0.19443572268E+03  0.24409022187E+02  0.41067783494E+03  0.00000000000E+00 0.  1.
</event>
<event>
 9   1  0.7335000E-04  0.1002249E+04  0.7818608E-02  0.9306082E-01
       21   -1    0    0  503  502  0.00000000000E+00  0.00000000000E+00  0.51978413022E+03  0.51978413022E+03  0.00000000000E+00 0.  1.
       21   -1    0    0  502  503 -0.00000000000E+00 -0.00000000000E+00 -0.48313467509E+03  0.48313467509E+03  0.00000000000E+00 0. -1.
       39    2    1    2    0    0  0.14210854715E-13  0.00000000000E+00  0.36649455123E+02  0.10029188053E+04  0.10022489449E+04 0.  0.
       24    2    3    3    0    0  0.89128134232E+02 -0.48544231391E+03  0.37327630077E+02  0.50138452964E+03  0.79968932433E+02 0.  0.
      -24    2    3    3    0    0 -0.89128134232E+02  0.48544231391E+03 -0.67817495402E+00  0.50153427566E+03  0.89096045364E+02 0.  0.
      -13    1    4    4    0    0  0.74423070578E+02 -0.25476307205E+03  0.49198613371E+02  0.26993243575E+03  0.00000000000E+00 0.  1.
       14    1    4    4    0    0  0.14705063655E+02 -0.23067924186E+03 -0.11870983294E+02  0.23145209389E+03  0.00000000000E+00 0. -1.
        3    1    5    5  501    0 -0.24101502670E+02  0.22444914561E+02 -0.81631127990E+01  0.33930709264E+02  0.00000000000E+00 0. -1.
       -4    1    5    5    0  501 -0.65026631563E+02  0.46299739935E+03  0.74849378449E+01  0.46760356640E+03  0.14200000000E+01 0.  1.
</event>
<event>
 9   1  0.7335000E-04  0.9920348E+03  0.7818608E-02  0.9317324E-01
       21   -1    0    0  503  502  0.00000000000E+00  0.00000000000E+00  0.40165060824E+03  0.40165060824E+03  0.00000000000E+00 0.  1.
       21   -1    0    0  502  503 -0.00000000000E+00 -0.00000000000E+00 -0.61255545542E+03  0.61255545542E+03  0.00000000000E+00 0. -1.
       39    2    1    2    0    0  0.00000000000E+00  0.28421709430E-13 -0.21090484717E+03  0.10142060637E+04  0.99203482046E+03 0.  0.
       24    2    3    3    0    0 -0.16646970919E+01 -0.22174989859E+03 -0.55142084047E+03  0.59998678158E+03  0.82118244218E+02 0.  0.
      -24    2    3    3    0    0  0.16646970919E+01  0.22174989859E+03  0.34051599329E+03  0.41421928207E+03  0.80316145417E+02 0.  0.
      -13    1    4    4    0    0 -0.15461692783E+02 -0.67050364254E+02 -0.91075128003E+02  0.11414680999E+03  0.00000000000E+00 0.  1.
       14    1    4    4    0    0  0.13796995691E+02 -0.15469953433E+03 -0.46034571246E+03  0.48583997159E+03  0.00000000000E+00 0. -1.
        1    1    5    5  501    0 -0.11151463658E+02  0.15075096164E+02  0.76067990487E+02  0.78345088185E+02  0.00000000000E+00 0. -1.
       -2    1    5    5    0  501  0.12816160750E+02  0.20667480242E+03  0.26444800281E+03  0.33587419389E+03  0.00000000000E+00 0.  1.
</event>
<event>
 9   1  0.7335000E-04  0.9946628E+03  0.7818608E-02  0.9314418E-01
       21   -1    0    0  503  502  0.00000000000E+00  0.00000000000E+00  0.51022056763E+03  0.51022056763E+03  0.00000000000E+00 0. -1.
       21   -1    0    0  502  503 -0.00000000000E+00 -0.00000000000E+00 -0.48476785418E+03  0.48476785418E+03  0.00000000000E+00 0.  1.
       39    2    1    2    0    0 -0.56843418861E-13  0.00000000000E+00  0.25452713453E+02  0.99498842181E+03  0.99466281669E+03 0.  0.
       24    2    3    3    0    0  0.36977740337E+03 -0.24776560894E+03 -0.19410264394E+03  0.49238285780E+03  0.81497958608E+02 0.  0.
      -24    2    3    3    0    0 -0.36977740337E+03  0.24776560894E+03  0.21955535739E+03  0.50260556401E+03  0.79275929550E+02 0.  0.
      -13    1    4    4    0    0  0.33142508403E+03 -0.20020728941E+03 -0.14310855491E+03  0.41280213607E+03  0.00000000000E+00 0.  1.
       14    1    4    4    0    0  0.38352319340E+02 -0.47558319529E+02 -0.50994089028E+02  0.79580721729E+02  0.00000000000E+00 0. -1.
        1    1    5    5  501    0 -0.10274063893E+03  0.97664090445E+02  0.38990278231E+02  0.14701753381E+03  0.00000000000E+00 0. -1.
       -2    1    5    5    0  501 -0.26703676443E+03  0.15010151849E+03  0.18056507916E+03  0.35558803020E+03  0.00000000000E+00 0.  1.
</event>
<event>
 9   1  0.7335000E-04  0.9969709E+03  0.7818608E-02  0.9311873E-01
       21   -1    0    0  503  502  0.00000000000E+00  0.00000000000E+00  0.13780212518E+03  0.13780212518E+03  0.00000000000E+00 0. -1.
       21   -1    0    0  502  503 -0.00000000000E+00 -0.00000000000E+00 -0.18032215514E+04  0.18032215514E+04  0.00000000000E+00 0.  1.
       39    2    1    2    0    0  0.00000000000E+00 -0.56843418861E-13 -0.16654194263E+04  0.19410236766E+04  0.99697093630E+03 0.  0.
       24    2    3    3    0    0  0.10666371375E+03  0.25850471483E+03 -0.44621783068E+02  0.29430763582E+03  0.80150143850E+02 0.  0.
      -24    2    3    3    0    0 -0.10666371375E+03 -0.25850471483E+03 -0.16207976432E+04  0.16467160408E+04  0.80541190896E+02 0.  0.
      -13    1    4    4    0    0  0.33045315578E+02  0.38499554133E+02 -0.35890745307E+02  0.62147841063E+02  0.00000000000E+00 0.  1.
       14    1    4    4    0    0  0.73618398170E+02  0.22000516069E+03 -0.87310377616E+01  0.23215979476E+03  0.00000000000E+00 0. -1.
        1    1    5    5  501    0  0.13148117904E+02 -0.22163447524E+02 -0.12477571181E+03  0.12740906431E+03  0.00000000000E+00 0. -1.
       -2    1    5    5    0  501 -0.11981183165E+03 -0.23634126730E+03 -0.14960219314E+04  0.15193069765E+04  0.00000000000E+00 0.  1.
</event>
<event>
 9   1  0.7335000E-04  0.1002590E+04  0.7818608E-02  0.9305708E-01
       21   -1    0    0  503  502  0.00000000000E+00  0.00000000000E+00  0.12186697959E+04  0.12186697959E+04  0.00000000000E+00 0.  1.
       21   -1    0    0  502  503 -0.00000000000E+00 -0.00000000000E+00 -0.20620591418E+03  0.20620591418E+03  0.00000000000E+00 0. -1.
       39    2    1    2    0    0  0.00000000000E+00  0.14210854715E-13  0.10124638817E+04  0.14248757101E+04  0.10025904834E+04 0.  0.
       24    2    3    3    0    0 -0.14184795207E+03  0.12747562524E+03  0.11552212202E+04  0.11735311335E+04  0.79173084216E+02 0.  0.
      -24    2    3    3    0    0  0.14184795207E+03 -0.12747562524E+03 -0.14275733845E+03  0.25134457656E+03  0.80147126893E+02 0.  0.
      -13    1    4    4    0    0 -0.10422792024E+03  0.57743698349E+02  0.52518388222E+03  0.53853124719E+03  0.00000000000E+00 0.  1.
       14    1    4    4    0    0 -0.37620031831E+02  0.69731926887E+02  0.63003733795E+03  0.63499988633E+03  0.00000000000E+00 0. -1.
        3    1    5    5  501    0  0.13894196100E+03 -0.11309592898E+03 -0.97961354865E+02  0.20418615214E+03  0.00000000000E+00 0. -1.
       -4    1    5    5    0  501  0.29059910694E+01 -0.14379696252E+02 -0.44795983581E+02  0.47158424416E+02  0.14200000000E+01 0.  1.
</event>
<event>
 9   1  0.7335000E-04  0.1014922E+04  0.7818608E-02  0.9292328E-01
       21   -1    0    0  503  502  0.00000000000E+00  0.00000000000E+00  0.35403701843E+03  0.35403701843E+03  0.00000000000E+00 0. -1.
       21   -1    0    0  502  503 -0.00000000000E+00 -0.00000000000E+00 -0.72737210812E+03  0.72737210812E+03  0.00000000000E+00 0.  1.
       39    2    1    2    0    0 -0.35527136788E-14 -0.71054273576E-14 -0.37333508969E+03  0.10814091266E+04  0.10149219723E+04 0.  0.
       24    2    3    3    0    0  0.28960785451E+02  0.34195272717E+02 -0.71849773005E+03  0.72391011981E+03  0.76150047311E+02 0.  0.
      -24    2    3    3    0    0 -0.28960785451E+02 -0.34195272717E+02  0.34516264037E+03  0.35749900674E+03  0.81610340943E+02 0.  0.
      -13    1    4    4    0    0  0.40509387735E+01  0.98735413812E+01 -0.60721307339E+03  0.60730685276E+03  0.00000000000E+00 0.  1.
       14    1    4    4    0    0  0.24909846677E+02  0.24321731336E+02 -0.11128465667E+03  0.11660326705E+03  0.00000000000E+00 0. -1.
        1    1    5    5  501    0 -0.55485655693E+02 -0.36528121917E+02  0.24123101444E+03  0.25021063928E+03  0.00000000000E+00 0. -1.
       -2    1    5    5    0  501  0.26524870242E+02  0.23328492001E+01  0.10393162592E+03  0.10728836747E+03  0.00000000000E+00 0.  1.
</event>
<event>
 9   1  0.7335000E-04  0.9952789E+03  0.7818608E-02  0.9313738E-01
       21   -1    0    0  503  502  0.00000000000E+00  0.00000000000E+00  0.73194423790E+03  0.73194423790E+03  0.00000000000E+00 0. -1.
       21   -1    0    0  502  503 -0.00000000000E+00 -0.00000000000E+00 -0.33833862873E+03  0.33833862873E+03  0.00000000000E+00 0.  1.
       39    2    1    2    0    0  0.00000000000E+00  0.56843418861E-13  0.39360560917E+03  0.10702828666E+04  0.99527887500E+03 0.  0.
       24    2    3    3    0    0 -0.14608767114E+03  0.45601372524E+03  0.80355607769E+02  0.49226898564E+03  0.81127093240E+02 0.  0.
      -24    2    3    3    0    0  0.14608767114E+03 -0.45601372524E+03  0.31325000140E+03  0.57801388098E+03  0.81757922973E+02 0.  0.
      -13    1    4    4    0    0 -0.66656659532E+02  0.32205493778E+03  0.39372459879E+02  0.33122905036E+03  0.00000000000E+00 0.  1.
       14    1    4    4    0    0 -0.79431011609E+02  0.13395878746E+03  0.40983147890E+02  0.16103993528E+03  0.00000000000E+00 0. -1.
        1    1    5    5  501    0  0.83544459285E+02 -0.32953689794E+03  0.25676735334E+03  0.42603253106E+03  0.00000000000E+00 0. -1.
       -2    1    5    5    0  501  0.62543211856E+02 -0.12647682729E+03  0.56482648059E+02  0.15198134992E+03  0.00000000000E+00 0.  1.
</event>
<event>
 9   1  0.7335000E-04  0.9957831E+03  0.7818608E-02  0.9313182E-01
       21   -1    0    0  503  502  0.00000000000E+00  0.00000000000E+00  0.20239234962E+03  0.20239234962E+03  0.00000000000E+00 0. -1.
       21   -1    0    0  502  503 -0.00000000000E+00 -0.00000000000E+00 -0.12248289879E+04  0.12248289879E+04  0.00000000000E+00 0.  1.
       39    2    1    2    0    0 -0.28421709430E-13  0.71054273576E-14 -0.10224366383E+04  0.14272213375E+04  0.99578314255E+03 0.  0.
       24    2    3    3    0    0  0.15443321046E+03 -0.45011367226E+02 -0.11772488039E+04  0.11909160621E+04  0.80564762330E+02 0.  0.
      -24    2    3    3    0    0 -0.15443321046E+03  0.45011367226E+02  0.15481216565E+03  0.23630527543E+03  0.77445057238E+02 0.  0.
      -13    1    4    4    0    0  0.15934686436E+03 -0.29176452033E+02 -0.11034467946E+04  0.11152746375E+04  0.00000000000E+00 0.  1.
       14    1    4    4    0    0 -0.49136539013E+01 -0.15834915193E+02 -0.73802009332E+02  0.75641424599E+02  0.00000000000E+00 0. -1.
        3    1    5    5  501    0 -0.10537327454E+03  0.66753572494E+02  0.10434819468E+03  0.16262875564E+03  0.00000000000E+00 0. -1.
       -4    1    5    5    0  501 -0.49059935922E+02 -0.21742205268E+02  0.50463970969E+02  0.73676519792E+02  0.14200000000E+01 0.  1.
</event>
<event>
 9   1  0.7335000E-04  0.1009978E+04  0.7818608E-02  0.9297668E-01
       21   -1    0    0  503  502  0.00000000000E+00  0.00000000000E+00  0.18589754997E+03  0.18589754997E+03  0.00000000000E+00 0.  1.
       21   -1    0    0  502  503 -0.00000000000E+00 -0.00000000000E+00 -0.13717979166E+04  0.13717979166E+04  0.00000000000E+00 0. -1.
       39    2    1    2    0    0  0.00000000000E+00  0.00000000000E+00 -0.11859003666E+04  0.15576954665E+04  0.10099779636E+04 0.  0.
       24    2    3    3    0    0 -0.30062813564E+03  0.19002349183E+03 -0.54365833693E+02  0.36865227529E+03  0.80390626416E+02 0.  0.
      -24    2    3    3    0    0  0.30062813564E+03 -0.19002349183E+03 -0.11315345329E+04  0.11890431913E+04  0.83469204565E+02 0.  0.
      -13    1    4    4    0    0 -0.22699573404E+03  0.17228615072E+03 -0.64662029818E+02  0.29221697265E+03  0.00000000000E+00 0.  1.
       14    1    4    4    0    0 -0.73632401601E+02  0.17737341107E+02  0.10296196125E+02  0.76435302641E+02  0.00000000000E+00 0. -1.
        3    1    5    5  501    0  0.27605409987E+03 -0.14077645978E+03 -0.94059504521E+03  0.99032465220E+03  0.00000000000E+00 0. -1.
       -4    1    5    5    0  501  0.24574035772E+02 -0.49247032051E+02 -0.19093948770E+03  0.19871853905E+03  0.14200000000E+01 0.  1.
</event>
<event>
 9   1  0.7335000E-04  0.9939672E+03  0.7818608E-02  0.9315186E-01
       21   -1    0    0  503  502  0.00000000000E+00  0.00000000000E+00  0.19399707101E+03  0.19399707101E+03  0.00000000000E+00 0.  1.
       21   -1    0    0  502  503 -0.00000000000E+00 -0.00000000000E+00 -0.12731775080E+04  0.12731775080E+04  0.00000000000E+00 0. -1.
       39    2    1    2    0    0  0.00000000000E+00  0.00000000000E+00 -0.10791804370E+04  0.14671745790E+04  0.99396721763E+03 0.  0.
       24    2    3    3    0    0  0.44554478317E+03  0.47314803456E+01 -0.84451221141E+03  0.95811988621E+03  0.79122060191E+02 0.  0.
      -24    2    3    3    0    0 -0.44554478317E+03 -0.47314803456E+01 -0.23466822561E+03  0.50905469283E+03  0.74397335037E+02 0.  0.
      -13    1    4    4    0    0  0.83169785052E+02  0.30979814343E+02 -0.18355718211E+03  0.20388771701E+03  0.00000000000E+00 0.  1.
       14    1    4    4    0    0  0.36237499812E+03 -0.26248333998E+02 -0.66095502930E+03  0.75423216920E+03  0.00000000000E+00 0. -1.
        3    1    5    5  501    0 -0.43158026221E+02 -0.19856019089E+02 -0.12348716257E+02  0.49085308541E+02  0.00000000000E+00 0. -1.
       -4    1    5    5    0  501 -0.40238675695E+03  0.15124538744E+02 -0.22231950935E+03  0.45996938428E+03  0.14200000000E+01 0.  1.
</event>
<event>
 9   1  0.7335000E-04  0.1010632E+04  0.7818608E-02  0.9296960E-01
        2   -1    0    0  501    0  0.00000000000E+00  0.00000000000E+00  0.31967515312E+03  0.31967515312E+03  0.00000000000E+00 0. -1.
       -2   -1    0    0    0  501 -0.00000000000E+00 -0.00000000000E+00 -0.79876234808E+03  0.79876234808E+03  0.00000000000E+00 0.  1.
       39    2    1    2    0    0  0.00000000000E+00 -0.14210854715E-13 -0.47908719496E+03  0.11184375012E+04  0.10106324276E+04 0.  0.
       24    2    3    3    0    0 -0.17084925009E+03  0.11287149567E+03  0.26402609534E+03  0.34364280837E+03  0.80319113121E+02 0.  0.
      -24    2    3    3    0    0  0.17084925009E+03 -0.11287149567E+03 -0.74311329030E+03  0.77479469284E+03  0.78485750551E+02 0.  0.
      -13    1    4    4    0    0 -0.10665658732E+03  0.22390074845E+02  0.12777478100E+03  0.16793849389E+03  0.00000000000E+00 0.  1.
       14    1    4    4    0    0 -0.64192662774E+02  0.90481420821E+02  0.13625131433E+03  0.17570431447E+03  0.00000000000E+00 0. -1.
        3    1    5    5  502    0  0.48638308979E+02 -0.22194750324E+02 -0.94575654962E+02  0.10864090645E+03  0.00000000000E+00 0. -1.
       -4    1    5    5    0  502  0.12221094112E+03 -0.90676745343E+02 -0.64853763534E+03  0.66615378639E+03  0.14200000000E+01 0.  1.
</event>
<event>
 9   1  0.7335000E-04  0.9988033E+03  0.7818608E-02  0.9309858E-01
       21   -1    0    0  503  502  0.00000000000E+00  0.00000000000E+00  0.30879925051E+03  0.30879925051E+03  0.00000000000E+00 0.  1.
       21   -1    0    0  502  503 -0.00000000000E+00 -0.00000000000E+00 -0.80765097989E+03  0.80765097989E+03  0.00000000000E+00 0. -1.
       39    2    1    2    0    0  0.00000000000E+00  0.00000000000E+00 -0.49885172938E+03  0.11164502304E+04  0.99880331851E+03 0.  0.
       24    2    3    3    0    0 -0.18843133608E+03 -0.32276657807E+03 -0.60890498844E+03  0.71870409308E+03  0.78010615450E+02 0.  0.
      -24    2    3    3    0    0  0.18843133608E+03  0.32276657807E+03  0.11005325907E+03  0.39774613732E+03  0.80035227160E+02 0.  0.
      -13    1    4    4    0    0 -0.42094586400E+02 -0.23181246149E+02 -0.86990367733E+02  0.99381328505E+02  0.00000000000E+00 0.  1.
       14    1    4    4    0    0 -0.14633674968E+03 -0.29958533192E+03 -0.52191462071E+03  0.61932276457E+03  0.00000000000E+00 0. -1.
        3    1    5    5  501    0  0.13137676273E+03  0.26435134943E+03  0.57829366190E+02  0.30080845288E+03  0.00000000000E+00 0. -1.
       -4    1    5    5    0  501  0.57054573351E+02  0.58415228638E+02  0.52223892877E+02  0.96937684439E+02  0.14200000000E+01 0.  1.
</event>
<event>
 9   1  0.7335000E-04  0.9926521E+03  0.7818608E-02  0.9316641E-01
       21   -1    0    0  503  502  0.00000000000E+00  0.00000000000E+00  0.68673250673E+03  0.68673250673E+03  0.00000000000E+00 0.  1.
       21   -1    0    0  502  503 -0.00000000000E+00 -0.00000000000E+00 -0.35871254054E+03  0.35871254054E+03  0.00000000000E+00 0. -1.
       39    2    1    2    0    0  0.00000000000E+00  0.00000000000E+00  0.32801996619E+03  0.10454450473E+04  0.99265212871E+03 0.  0.
       24    2    3    3    0    0  0.44309904891E+03  0.74128611954E+02  0.36898055794E+03  0.58679657327E+03  0.79697854467E+02 0.  0.
      -24    2    3    3    0    0 -0.44309904891E+03 -0.74128611954E+02 -0.40960591751E+02  0.45864847400E+03  0.82757684672E+02 0.  0.
      -13    1    4    4    0    0  0.27287849589E+03  0.55507273570E+02  0.27543994242E+03  0.39167702616E+03  0.00000000000E+00 0.  1.
       14    1    4    4    0    0  0.17022055302E+03  0.18621338384E+02  0.93540615519E+02  0.19511954711E+03  0.00000000000E+00 0. -1.
        3    1    5    5  501    0 -0.40144546889E+03 -0.59524453221E+02 -0.60567564165E+02  0.41032920302E+03  0.00000000000E+00 0. -1.
       -4    1    5    5    0  501 -0.41653580020E+02 -0.14604158733E+02  0.19606972414E+02  0.48319270980E+02  0.14200000000E+01 0.  1.
</event>
<event>
 9   1  0.7335000E-04  0.9721795E+03  0.7818608E-02  0.9339595E-01
        2   -1    0    0  501    0  0.00000000000E+00  0.00000000000E+00  0.10059554720E+04  0.10059554720E+04  0.00000000000E+00 0. -1.
       -2   -1    0    0    0  501 -0.00000000000E+00 -0.00000000000E+00 -0.23488438598E+03  0.23488438598E+03  0.00000000000E+00 0.  1.
       39    2    1    2    0    0  0.56843418861E-13  0.56843418861E-13  0.77107108604E+03  0.12408398580E+04  0.97217947596E+03 0.  0.
       24    2    3    3    0    0 -0.28721116807E+03 -0.25854590070E+03  0.23641297962E+02  0.39552862443E+03  0.80918131106E+02 0.  0.
      -24    2    3    3    0    0  0.28721116807E+03  0.25854590070E+03  0.74742978808E+03  0.84531123357E+03  0.81015774080E+02 0.  0.
      -13    1    4    4    0    0 -0.60514475298E+02 -0.10285693646E+03 -0.17334816258E+01  0.11935055952E+03  0.00000000000E+00 0.  1.
       14    1    4    4    0    0 -0.22669669277E+03 -0.15568896424E+03  0.25374779588E+02  0.27617806491E+03  0.00000000000E+00 0. -1.
        1    1    5    5  502    0  0.20536737367E+03  0.18010129247E+03  0.60070060553E+03  0.65988896885E+03  0.00000000000E+00 0. -1.
       -2    1    5    5    0  502  0.81843794404E+02  0.78444608237E+02  0.14672918255E+03  0.18542226472E+03  0.00000000000E+00 0.  1.
</event>
<event>
 9   1  0.7335000E-04  0.1005810E+04  0.7818608E-02  0.9302195E-01
       21   -1    0    0  503  502  0.00000000000E+00  0.00000000000E+00  0.28474249486E+03  0.28474249486E+03  0.00000000000E+00 0.  1.
       21   -1    0    0  502  503 -0.00000000000E+00 -0.00000000000E+00 -0.88821832772E+03  0.88821832772E+03  0.00000000000E+00 0. -1.
       39    2    1    2    0    0  0.14210854715E-13  0.00000000000E+00 -0.60347583286E+03  0.11729608226E+04  0.10058101265E+04 0.  0.
       24    2    3    3    0    0 -0.12681949544E+03  0.41593525061E+03 -0.58072908081E+03  0.72985437650E+03  0.79723449994E+02 0.  0.
      -24    2    3    3    0    0  0.12681949544E+03 -0.41593525061E+03 -0.22746752050E+02  0.44310644608E+03  0.82101100482E+02 0.  0.
      -13    1    4    4    0    0 -0.24887739174E+02  0.17161908160E+02 -0.46375776598E+02  0.55359220623E+02  0.00000000000E+00 0.  1.
       14    1    4    4    0    0 -0.10193175627E+03  0.39877334245E+03 -0.53435330421E+03  0.67449515588E+03  0.00000000000E+00 0. -1.
        1    1    5    5  501    0  0.64755269244E+01 -0.21021913128E+02  0.17773482281E+02  0.28279850653E+02  0.00000000000E+00 0. -1.
       -2    1    5    5    0  501  0.12034396852E+03 -0.39491333749E+03 -0.40520234332E+02  0.41482659543E+03  0.00000000000E+00 0.  1.
</event>
<event>
 9   1  0.7335000E-04  0.1003084E+04  0.7818608E-02  0.9305168E-01
       21   -1    0    0  503  502  0.00000000000E+00  0.00000000000E+00  0.40288824754E+03  0.40288824754E+03  0.00000000000E+00 0.  1.
       21   -1    0    0  502  503 -0.00000000000E+00 -0.00000000000E+00 -0.62435320386E+03  0.62435320386E+03  0.00000000000E+00 0. -1.
       39    2    1    2    0    0  0.28421709430E-13  0.00000000000E+00 -0.22146495632E+03  0.10272414514E+04  0.10030843796E+04 0.  0.
       24    2    3    3    0    0 -0.24378499108E+03 -0.30650441819E+03 -0.42133328534E+03  0.58021190693E+03  0.75815825211E+02 0.  0.
      -24    2    3    3    0    0  0.24378499108E+03  0.30650441819E+03  0.19986832903E+03  0.44702954447E+03  0.80696867551E+02 0.  0.
      -13    1    4    4    0    0 -0.84826933545E+02 -0.16052219668E+03 -0.21789904750E+03  0.28362471539E+03  0.00000000000E+00 0.  1.
       14    1    4    4    0    0 -0.15895805754E+03 -0.14598222151E+03 -0.20343423785E+03  0.29658719153E+03  0.00000000000E+00 0. -1.
        1    1    5    5  501    0  0.88328526726E+01 -0.44235683939E+01  0.76104569202E+01  0.12470216446E+02  0.00000000000E+00 0. -1.
       -2    1    5    5    0  501  0.23495213841E+03  0.31092798658E+03  0.19225787211E+03  0.43455932802E+03  0.00000000000E+00 0.  1.
</event>
<event>
 9   1  0.7335000E-04  0.1002946E+04  0.7818608E-02  0.9305320E-01
       21   -1    0    0  503  502  0.00000000000E+00  0.00000000000E+00  0.61548987815E+03  0.61548987815E+03  0.00000000000E+00 0.  1.
       21   -1    0    0  502  503 -0.00000000000E+00 -0.00000000000E+00 -0.40857701456E+03  0.40857701456E+03  0.00000000000E+00 0. -1.
       39    2    1    2    0    0  0.00000000000E+00  0.00000000000E+00  0.20691286359E+03  0.10240668927E+04  0.10029456953E+04 0.  0.
       24    2    3    3    0    0  0.18985535573E+03  0.31881275667E+03 -0.23105068434E+03  0.44441613184E+03  0.80216267622E+02 0.  0.
      -24    2    3    3    0    0 -0.18985535573E+03 -0.31881275667E+03  0.43796354793E+03  0.57965076087E+03  0.80599660970E+02 0.  0.
      -13    1    4    4    0    0  0.65113437404E+02  0.47134713441E+02 -0.41813950174E+02  0.90608208076E+02  0.00000000000E+00 0.  1.
       14    1    4    4    0    0  0.12474191833E+03  0.27167804323E+03 -0.18923673416E+03  0.35380792377E+03  0.00000000000E+00 0. -1.
        1    1    5    5  501    0  0.24972794115E+01 -0.35581307465E+02  0.26866367368E+02  0.44654983383E+02  0.00000000000E+00 0. -1.
       -2    1    5    5    0  501 -0.19235263515E+03 -0.28323144921E+03  0.41109718056E+03  0.53499577749E+03  0.00000000000E+00 0.  1.
</event>
<event>
 9   1  0.7335000E-04  0.1004147E+04  0.7818608E-02  0.9304008E-01
        2   -1    0    0  501    0  0.00000000000E+00  0.00000000000E+00  0.59772096478E+03  0.59772096478E+03  0.00000000000E+00 0.  1.
       -2   -1    0    0    0  501 -0.00000000000E+00 -0.00000000000E+00 -0.42173190919E+03  0.42173190919E+03  0.00000000000E+00 0. -1.
       39    2    1    2    0    0  0.00000000000E+00 -0.56843418861E-13  0.17598905559E+03  0.10194528740E+04  0.10041474068E+04 0.  0.
       24    2    3    3    0    0 -0.24885779662E+03 -0.36722184524E+03  0.31288165566E+03  0.54938118445E+03  0.84514311345E+02 0.  0.
      -24    2    3    3    0    0  0.24885779662E+03  0.36722184524E+03 -0.13689260007E+03  0.47007168952E+03  0.73795140598E+02 0.  0.
      -13    1    4    4    0    0 -0.18277054847E+03 -0.22571248213E+03  0.24122970863E+03  0.37754863303E+03  0.00000000000E+00 0.  1.
       14    1    4    4    0    0 -0.66087248151E+02 -0.14150936311E+03  0.71651947038E+02  0.17183255143E+03  0.00000000000E+00 0. -1.
        3    1    5    5  502    0  0.24959027659E+03  0.35039610207E+03 -0.12105220342E+03  0.44690756367E+03  0.00000000000E+00 0. -1.
       -4    1    5    5    0  502 -0.73247997464E+00  0.16825743170E+02 -0.15840396656E+02  0.23164125849E+02  0.14200000000E+01 0.  1.
</event>
<event>
 9   1  0.7335000E-04  0.9946234E+03  0.7818608E-02  0.9314462E-01
       21   -1    0    0  503  502  0.00000000000E+00  0.00000000000E+00  0.65175870327E+03  0.65175870327E+03  0.00000000000E+00 0.  1.
       21   -1    0    0  502  503 -0.00000000000E+00 -0.00000000000E+00 -0.37946391400E+03  0.37946391400E+03  0.00000000000E+00 0. -1.
       39    2    1    2    0    0 -0.28421709430E-13  0.17763568394E-14  0.27229478927E+03  0.10312226173E+04  0.99462336293E+03 0.  0.
       24    2    3    3    0    0  0.15222499725E+03 -0.25611123112E+01 -0.34655784478E+03  0.38652919252E+03  0.78252589759E+02 0.  0.
      -24    2    3    3    0    0 -0.15222499725E+03  0.25611123112E+01  0.61885263406E+03  0.64469342475E+03  0.97324303989E+02 0.  0.
      -13    1    4    4    0    0 -0.56531611716E+01  0.91374671401E+01 -0.41137976257E+02  0.42518050608E+02  0.00000000000E+00 0.  1.
       14    1    4    4    0    0  0.15787815843E+03 -0.11698579451E+02 -0.30541986852E+03  0.34401114191E+03  0.00000000000E+00 0. -1.
        1    1    5    5  501    0 -0.46632374301E+02  0.11417101062E+02  0.65070716330E+02  0.80864866619E+02  0.00000000000E+00 0. -1.
       -2    1    5    5    0  501 -0.10559262295E+03 -0.88559887503E+01  0.55378191773E+03  0.56382855813E+03  0.00000000000E+00 0.  1.
</event>
<event>
 9   1  0.7335000E-04  0.9911732E+03  0.7818608E-02  0.9318279E-01
       21   -1    0    0  503  502  0.00000000000E+00  0.00000000000E+00  0.15390599799E+04  0.15390599799E+04  0.00000000000E+00 0. -1.
       21   -1    0    0  502  503 -0.00000000000E+00 -0.00000000000E+00 -0.15958186066E+03  0.15958186066E+03  0.00000000000E+00 0.  1.
       39    2    1    2    0    0 -0.14210854715E-13  0.00000000000E+00  0.13794781192E+04  0.16986418405E+04  0.99117315391E+03 0.  0.
       24    2    3    3    0    0  0.10719396175E+03 -0.30843643210E+03  0.13137412373E+04  0.13560770996E+04  0.80034263741E+02 0.  0.
      -24    2    3    3    0    0 -0.10719396175E+03  0.30843643210E+03  0.65736881927E+02  0.34256474096E+03  0.80035529735E+02 0.  0.
      -13    1    4    4    0    0 -0.10378850014E+02 -0.55184446296E+02  0.25781649599E+03  0.26386054886E+03  0.00000000000E+00 0.  1.
       14    1    4    4    0    0  0.11757281176E+03 -0.25325198581E+03  0.10559247413E+04  0.10922165507E+04  0.00000000000E+00 0. -1.
        3    1    5    5  501    0 -0.30780704917E+01  0.36974234437E+02 -0.16211970219E+02  0.40489461697E+02  0.00000000000E+00 0. -1.
       -4    1    5    5    0  501 -0.10411589126E+03  0.27146219767E+03  0.81948852146E+02  0.30207527927E+03  0.14200000000E+01 0.  1.
</event>
<event>
 9   1  0.7335000E-04  0.9897669E+03  0.7818608E-02  0.9319840E-01
       21   -1    0    0  503  502  0.00000000000E+00  0.00000000000E+00  0.78838053146E+02  0.78838053146E+02  0.00000000000E+00 0.  1.
       21   -1    0    0  502  503 -0.00000000000E+00 -0.00000000000E+00 -0.31064897656E+04  0.31064897656E+04  0.00000000000E+00 0. -1.
       39    2    1    2    0    0  0.00000000000E+00 -0.28421709430E-13 -0.30276517124E+04  0.31853278187E+04  0.98976685182E+03 0.  0.
       24    2    3    3    0    0 -0.65304149639E+00  0.23755546124E+03 -0.28861767388E+04  0.28971368505E+04  0.83383086492E+02 0.  0.
      -24    2    3    3    0    0  0.65304149639E+00 -0.23755546124E+03 -0.14147497360E+03  0.28819096823E+03  0.81276333470E+02 0.  0.
      -13    1    4    4    0    0  0.35673948382E+01  0.89040397442E+02 -0.65721189931E+03  0.66322575287E+03  0.00000000000E+00 0.  1.
       14    1    4    4    0    0 -0.42204363346E+01  0.14851506380E+03 -0.22289648395E+04  0.22339110976E+04  0.00000000000E+00 0. -1.
        1    1    5    5  501    0 -0.64485107159E+01 -0.15242625664E+02  0.97654760258E+01  0.19216801232E+02  0.00000000000E+00 0. -1.
       -2    1    5    5    0  501  0.71015522123E+01 -0.22231283558E+03 -0.15124044963E+03  0.26897416699E+03  0.00000000000E+00 0.  1.
</event>
<event>
 9   1  0.7335000E-04  0.1006822E+04  0.7818608E-02  0.9301094E-01
       21   -1    0    0  503  502  0.00000000000E+00  0.00000000000E+00  0.60611960417E+03  0.60611960417E+03  0.00000000000E+00 0.  1.
       21   -1    0    0  502  503 -0.00000000000E+00 -0.00000000000E+00 -0.41810650702E+03  0.41810650702E+03  0.00000000000E+00 0. -1.
       39    2    1    2    0    0  0.28421709430E-13  0.28421709430E-13  0.18801309715E+03  0.10242261112E+04  0.10068218324E+04 0.  0.
       24    2    3    3    0    0  0.19345541903E+03  0.14362735588E+03  0.53753316324E+03  0.59250322669E+03  0.63752298323E+02 0.  0.
      -24    2    3    3    0    0 -0.19345541903E+03 -0.14362735588E+03 -0.34952006609E+03  0.43172288451E+03  0.78527421328E+02 0.  0.
      -13    1    4    4    0    0  0.12589503640E+03  0.12766167757E+03  0.40413910409E+03  0.44212609012E+03  0.00000000000E+00 0.  1.
       14    1    4    4    0    0  0.67560382632E+02  0.15965678307E+02  0.13339405915E+03  0.15037713657E+03  0.00000000000E+00 0. -1.
        1    1    5    5  501    0 -0.16583739860E+03 -0.14262923137E+03 -0.33607901941E+03  0.40099158059E+03  0.00000000000E+00 0. -1.
       -2    1    5    5    0  501 -0.27618020423E+02 -0.99812450588E+00 -0.13441046683E+02  0.30731303919E+02  0.00000000000E+00 0.  1.
</event>
<event>
 9   1  0.7335000E-04  0.1007145E+04  0.7818608E-02  0.9300743E-01
       21   -1    0    0  503  502  0.00000000000E+00  0.00000000000E+00  0.28189550932E+03  0.28189550932E+03  0.00000000000E+00 0.  1.
       21   -1    0    0  502  503 -0.00000000000E+00 -0.00000000000E+00 -0.89957229196E+03  0.89957229196E+03  0.00000000000E+00 0. -1.
       39    2    1    2    0    0  0.00000000000E+00  0.00000000000E+00 -0.61767678263E+03  0.11814678013E+04  0.10071452515E+04 0.  0.
       24    2    3    3    0    0  0.29600938035E+03 -0.35969686432E+03 -0.51188546437E+03  0.69694508514E+03  0.81867793490E+02 0.  0.
      -24    2    3    3    0    0 -0.29600938035E+03  0.35969686432E+03 -0.10579131826E+03  0.48452271614E+03  0.81037472736E+02 0.  0.
      -13    1    4    4    0    0  0.88481660473E+02 -0.79493902737E+02 -0.87370393340E+02  0.14758682341E+03  0.00000000000E+00 0.  1.
       14    1    4    4    0    0  0.20752771987E+03 -0.28020296158E+03 -0.42451507103E+03  0.54935826173E+03  0.00000000000E+00 0. -1.
        1    1    5    5  501    0 -0.15012088137E+03  0.19348252850E+03 -0.96350361990E+02  0.26316375152E+03  0.00000000000E+00 0. -1.
       -2    1    5    5    0  501 -0.14588849897E+03  0.16621433582E+03 -0.94409562739E+01  0.22135896462E+03  0.00000000000E+00 0.  1.
</event>
<event>
 9   1  0.7335000E-04  0.9924627E+03  0.7818608E-02  0.9316850E-01
       21   -1    0    0  503  502  0.00000000000E+00  0.00000000000E+00  0.29262665261E+03  0.29262665261E+03  0.00000000000E+00 0. -1.
       21   -1    0    0  502  503 -0.00000000000E+00 -0.00000000000E+00 -0.84150069442E+03  0.84150069442E+03  0.00000000000E+00 0.  1.
       39    2    1    2    0    0  0.28421709430E-13  0.00000000000E+00 -0.54887404181E+03  0.11341273470E+04  0.99246265698E+03 0.  0.
       24    2    3    3    0    0  0.25298240214E+03  0.18922555867E+03 -0.70207903488E+03  0.77407021257E+03  0.80394744391E+02 0.  0.
      -24    2    3    3    0    0 -0.25298240214E+03 -0.18922555867E+03  0.15320499308E+03  0.36005713445E+03  0.79768178615E+02 0.  0.
      -13    1    4    4    0    0  0.16299764093E+03  0.75505865470E+02 -0.35333148959E+03  0.39637420224E+03  0.00000000000E+00 0.  1.
       14    1    4    4    0    0  0.89984761216E+02  0.11371969320E+03 -0.34874754529E+03  0.37769601033E+03  0.00000000000E+00 0. -1.
        3    1    5    5  501    0 -0.23452036992E+03 -0.18916119153E+03  0.15896728073E+03  0.34066458083E+03  0.00000000000E+00 0. -1.
       -4    1    5    5    0  501 -0.18462032226E+02 -0.64367137781E-01 -0.57622876569E+01  0.19392553624E+02  0.14200000000E+01 0.  1.
</event>
<event>
 9   1  0.7335000E-04  0.9953271E+03  0.7818608E-02  0.9313685E-01
       21   -1    0    0  503  502  0.00000000000E+00  0.00000000000E+00  0.31709150325E+03  0.31709150325E+03  0.00000000000E+00 0. -1.
       21   -1    0    0  502  503 -0.00000000000E+00 -0.00000000000E+00 -0.78106474119E+03  0.78106474119E+03  0.00000000000E+00 0.  1.
       39    2    1    2    0    0  0.00000000000E+00  0.00000000000E+00 -0.46397323794E+03  0.10981562444E+04  0.99532706770E+03 0.  0.
       24    2    3    3    0    0 -0.25124511744E+03  0.14079382162E+03 -0.67069313198E+03  0.73479726803E+03  0.84562039757E+02 0.  0.
      -24    2    3    3    0    0  0.25124511744E+03 -0.14079382162E+03  0.20671989404E+03  0.36335897642E+03  0.79684514856E+02 0.  0.
      -13    1    4    4    0    0 -0.15058938629E+03  0.12671377079E+03 -0.47830082830E+03  0.51720907312E+03  0.00000000000E+00 0.  1.
       14    1    4    4    0    0 -0.10065573115E+03  0.14080050836E+02 -0.19239230368E+03  0.21758819490E+03  0.00000000000E+00 0. -1.
        1    1    5    5  501    0  0.23913086910E+03 -0.10756704914E+03  0.17069361452E+03  0.31287465966E+03  0.00000000000E+00 0. -1.
       -2    1    5    5    0  501  0.12114248333E+02 -0.33226772483E+02  0.36026279527E+02  0.50484316761E+02  0.00000000000E+00 0.  1.
</event>
<event>
 9   1  0.7335000E-04  0.1005489E+04  0.7818608E-02  0.9302545E-01
       -2   -1    0    0    0  501 -0.00000000000E+00  0.00000000000E+00  0.39885366429E+03  0.39885366429E+03  0.00000000000E+00 0. -1.
        2   -1    0    0  501    0  0.00000000000E+00 -0.00000000000E+00 -0.63369567748E+03  0.63369567748E+03  0.00000000000E+00 0.  1.
       39    2    1    2    0    0  0.56843418861E-13 -0.35527136788E-14 -0.23484201319E+03  0.10325493418E+04  0.10054886235E+04 0.  0.
       24    2    3    3    0    0  0.48173074581E+03  0.18349046678E+02  0.31846940927E+01  0.48884982600E+03  0.81011179082E+02 0.  0.
      -24    2    3    3    0    0 -0.48173074581E+03 -0.18349046678E+02 -0.23802670729E+03  0.54369951577E+03  0.80939799229E+02 0.  0.
      -13    1    4    4    0    0  0.45257575061E+03  0.18848250067E+01  0.16342561674E+02  0.45287464262E+03  0.00000000000E+00 0.  1.
       14    1    4    4    0    0  0.29154995199E+02  0.16464221671E+02 -0.13157867581E+02  0.35975183385E+02  0.00000000000E+00 0. -1.
        1    1    5    5  502    0 -0.36300368632E+03  0.17743876843E+02 -0.19439721642E+03  0.41216113257E+03  0.00000000000E+00 0. -1.
       -2    1    5    5    0  502 -0.11872705948E+03 -0.36092923521E+02 -0.43629490863E+02  0.13153838320E+03  0.00000000000E+00 0.  1.
</event>
<event>
 9   1  0.7335000E-04  0.9705003E+03  0.7818608E-02  0.9341505E-01
       21   -1    0    0  503  502  0.00000000000E+00  0.00000000000E+00  0.41821527228E+03  0.41821527228E+03  0.00000000000E+00 0. -1.
       21   -1    0    0  502  503 -0.00000000000E+00 -0.00000000000E+00 -0.56302988208E+03  0.56302988208E+03  0.00000000000E+00 0.  1.
       39    2    1    2    0    0  0.00000000000E+00  0.00000000000E+00 -0.14481460980E+03  0.98124515436E+03  0.97050027395E+03 0.  0.
       24    2    3    3    0    0 -0.29157654469E+03 -0.70757595740E+02 -0.44937575326E+03  0.54611639244E+03  0.79252935005E+02 0.  0.
      -24    2    3    3    0    0  0.29157654469E+03  0.70757595740E+02  0.30456114346E+03  0.43512876192E+03  0.80969318738E+02 0.  0.
      -13    1    4    4    0    0 -0.22214522890E+03 -0.86848877549E+02 -0.33201457329E+03  0.40880913289E+03  0.00000000000E+00 0.  1.
       14    1    4    4    0    0 -0.69431315791E+02  0.16091281808E+02 -0.11736117997E+03  0.13730725955E+03  0.00000000000E+00 0. -1.
        1    1    5    5  501    0  0.12853263051E+03  0.61376107053E+02  0.18108995622E+03  0.23039365414E+03  0.00000000000E+00 0. -1.
       -2    1    5    5    0  501  0.16304391418E+03  0.93814886873E+01  0.12347118724E+03  0.20473510778E+03  0.00000000000E+00 0.  1.
</event>
<event>
 8   1  0.7335000E-04  0.1806107E+04  0.7818608E-02  0.8703058E-01
       21   -1    0    0  503  502  0.00000000000E+00  0.00000000000E+00  0.26713806642E+04  0.26713806642E+04  0.00000000000E+00 0. -1.
       21   -1    0    0  502  503 -0.00000000000E+00 -0.00000000000E+00 -0.30527504510E+03  0.30527504510E+03  0.00000000000E+00 0.  1.
       24    2    1    2    0    0  0.40129238896E+03  0.31564818406E+03  0.24031785433E+04  0.24581088361E+04  0.79765791750E+02 0.  0.
      -24    2    1    2    0    0 -0.40129238896E+03 -0.31564818406E+03 -0.37072924158E+02  0.51854687326E+03  0.82747208585E+02 0.  0.
      -13    1    3    3    0    0  0.17874716319E+03  0.12176103987E+03  0.84630314765E+03  0.87350175553E+03  0.00000000000E+00 0.  1.
       14    1    3    3    0    0  0.22254522577E+03  0.19388714419E+03  0.15568753956E+04  0.15846070805E+04  0.00000000000E+00 0. -1.
        1    1    4    4  501    0 -0.23486084825E+03 -0.23453054319E+03 -0.30029941242E+02  0.33326564644E+03  0.00000000000E+00 0. -1.
       -2    1    4    4    0  501 -0.16643154071E+03 -0.81117640874E+02 -0.70429829162E+01  0.18528122682E+03  0.00000000000E+00 0.  1.
</event>
<event>
 9   1  0.7335000E-04  0.1001495E+04  0.7818608E-02  0.9306907E-01
       21   -1    0    0  503  502  0.00000000000E+00  0.00000000000E+00  0.33901724256E+03  0.33901724256E+03  0.00000000000E+00 0. -1.
       21   -1    0    0  502  503 -0.00000000000E+00 -0.00000000000E+00 -0.73963183879E+03  0.73963183879E+03  0.00000000000E+00 0.  1.
       39    2    1    2    0    0  0.00000000000E+00  0.00000000000E+00 -0.40061459623E+03  0.10786490813E+04  0.10014947758E+04 0.  0.
       24    2    3    3    0    0 -0.16179157539E+03 -0.21059926635E+03  0.24839686704E+03  0.37228217058E+03  0.79777478778E+02 0.  0.
      -24    2    3    3    0    0  0.16179157539E+03  0.21059926635E+03 -0.64901146327E+03  0.70636691077E+03  0.84910354578E+02 0.  0.
      -13    1    4    4    0    0 -0.37448925018E+02 -0.97030119140E+02  0.62018820278E+02  0.12109335272E+03  0.00000000000E+00 0.  1.
       14    1    4    4    0    0 -0.12434265037E+03 -0.11356914721E+03  0.18637804676E+03  0.25118881785E+03  0.00000000000E+00 0. -1.
        1    1    5    5  501    0 -0.91666271974E+01  0.24247671759E+02 -0.59411590769E+02  0.64820627563E+02  0.00000000000E+00 0. -1.
       -2    1    5    5    0  501  0.17095820259E+03  0.18635159459E+03 -0.58959987250E+03  0.64154628320E+03  0.00000000000E+00 0.  1.
</event>
<event>
 9   1  0.7335000E-04  0.1107762E+04  0.7818608E-02  0.9197660E-01
       21   -1    0    0  503  502  0.00000000000E+00  0.00000000000E+00  0.47118257664E+03  0.47118257664E+03  0.00000000000E+00 0. -1.
       21   -1    0    0  502  503 -0.00000000000E+00 -0.00000000000E+00 -0.65109377777E+03  0.65109377777E+03  0.00000000000E+00 0.  1.
       39    2    1    2    0    0  0.00000000000E+00 -0.56843418861E-13 -0.17991120113E+03  0.11222763544E+04  0.11077617864E+04 0.  0.
       24    2    3    3    0    0 -0.39750732663E+03  0.35764196652E+03  0.31364059140E+02  0.54171876341E+03  0.80967051824E+02 0.  0.
      -24    2    3    3    0    0  0.39750732663E+03 -0.35764196652E+03 -0.21127526027E+03  0.58055759099E+03  0.80560721892E+02 0.  0.
      -13    1    4    4    0    0 -0.15251413272E+03  0.89520297564E+02  0.23839649805E+02  0.17844543496E+03  0.00000000000E+00 0.  1.
       14    1    4    4    0    0 -0.24499319392E+03  0.26812166895E+03  0.75244093346E+01  0.36327332845E+03  0.00000000000E+00 0. -1.
        1    1    5    5  501    0  0.16626772135E+03 -0.16121585975E+03 -0.49911660494E+02  0.23691070565E+03  0.00000000000E+00 0. -1.
       -2    1    5    5    0  501  0.23123960529E+03 -0.19642610677E+03 -0.16136359978E+03  0.34364688534E+03  0.00000000000E+00 0.  1.
</event>
<event>
 9   1  0.7335000E-04  0.8958765E+03  0.7818608E-02  0.9430751E-01
       21   -1    0    0  503  502  0.00000000000E+00  0.00000000000E+00  0.10673649356E+03  0.10673649356E+03  0.00000000000E+00 0. -1.
       21   -1    0    0  502  503 -0.00000000000E+00 -0.00000000000E+00 -0.18798506575E+04  0.18798506575E+04  0.00000000000E+00 0.  1.
       39    2    1    2    0    0 -0.56843418861E-13  0.17763568394E-14 -0.17731141639E+04  0.19865871511E+04  0.89587648167E+03 0.  0.
       24    2    3    3    0    0  0.40339549101E+03  0.10631173926E+02 -0.12773527868E+04  0.13420701688E+04  0.81738926040E+02 0.  0.
      -24    2    3    3    0    0 -0.40339549101E+03 -0.10631173926E+02 -0.49576137710E+03  0.64451698222E+03  0.82352008594E+02 0.  0.
      -13    1    4    4    0    0  0.37850219075E+03  0.16082206915E+01 -0.12385389176E+04  0.12950849953E+04  0.00000000000E+00 0.  1.
       14    1    4    4    0    0  0.24893300264E+02  0.90229532347E+01 -0.38813869256E+02  0.46985173509E+02  0.00000000000E+00 0. -1.
        1    1    5    5  501    0 -0.13507330167E+03 -0.28862485097E+02 -0.12359538024E+03  0.18534739784E+03  0.00000000000E+00 0. -1.
       -2    1    5    5    0  501 -0.26832218935E+03  0.18231311171E+02 -0.37216599687E+03  0.45916958439E+03  0.00000000000E+00 0.  1.
</event>
<event>
 9   1  0.7335000E-04  0.1055249E+04  0.7818608E-02  0.9249941E-01
       21   -1    0    0  503  502  0.00000000000E+00  0.00000000000E+00  0.22593172072E+03  0.22593172072E+03  0.00000000000E+00 0.  1.
       21   -1    0    0  502  503 -0.00000000000E+00 -0.00000000000E+00 -0.12321765361E+04  0.12321765361E+04  0.00000000000E+00 0. -1.
       39    2    1    2    0    0 -0.71054273576E-14  0.56843418861E-13 -0.10062448154E+04  0.14581082568E+04  0.10552492881E+04 0.  0.
       24    2    3    3    0    0  0.62820405922E+02 -0.47786400948E+03 -0.22803367098E+03  0.53920449312E+03  0.80260297482E+02 0.  0.
      -24    2    3    3    0    0 -0.62820405922E+02  0.47786400948E+03 -0.77821114438E+03  0.91890376367E+03  0.80443313528E+02 0.  0.
      -13    1    4    4    0    0  0.76536765966E+02 -0.45619785482E+03 -0.22074804163E+03  0.51254663902E+03  0.00000000000E+00 0.  1.
       14    1    4    4    0    0 -0.13716360044E+02 -0.21666154660E+02 -0.72856293496E+01  0.26657854108E+02  0.00000000000E+00 0. -1.
        3    1    5    5  501    0 -0.75028024423E+02  0.41186805307E+03 -0.70189040288E+03  0.81726044517E+03  0.00000000000E+00 0. -1.
       -4    1    5    5    0  501  0.12207618500E+02  0.65995956408E+02 -0.76320741500E+02  0.10164331850E+03  0.14200000000E+01 0.  1.
</event>
<event>
 9   1  0.7335000E-04  0.9923988E+03  0.7818608E-02  0.9316921E-01
       21   -1    0    0  503  502  0.00000000000E+00  0.00000000000E+00  0.55402598035E+03  0.55402598035E+03  0.00000000000E+00 0.  1.
       21   -1    0    0  502  503 -0.00000000000E+00 -0.00000000000E+00 -0.44440848796E+03  0.44440848796E+03  0.00000000000E+00 0. -1.
       39    2    1    2    0    0  0.00000000000E+00  0.00000000000E+00  0.10961749239E+03  0.99843446830E+03  0.99239880737E+03 0.  0.
       24    2    3    3    0    0  0.13019940292E+03 -0.41642943372E+03 -0.16919990030E+03  0.47489465723E+03  0.80814425780E+02 0.  0.
      -24    2    3    3    0    0 -0.13019940292E+03  0.41642943372E+03  0.27881739269E+03  0.52353981108E+03  0.77391456458E+02 0.  0.
      -13    1    4    4    0    0 -0.70693956637E+01 -0.70123831462E+01  0.23821637892E+01  0.10238387410E+02  0.00000000000E+00 0.  1.
       14    1    4    4    0    0  0.13726879858E+03 -0.40941705057E+03 -0.17158206409E+03  0.46465626982E+03  0.00000000000E+00 0. -1.
        3    1    5    5  501    0 -0.38515594463E+02  0.40906697809E+02  0.28353671676E+02  0.62934407441E+02  0.00000000000E+00 0. -1.
       -4    1    5    5    0  501 -0.91683808457E+02  0.37552273591E+03  0.25046372101E+03  0.46060540364E+03  0.14200000000E+01 0.  1.
</event>
<event>
 9   1  0.7335000E-04  0.1009028E+04  0.7818608E-02  0.9298698E-01
       21   -1    0    0  503  502  0.00000000000E+00  0.00000000000E+00  0.98957611631E+03  0.98957611631E+03  0.00000000000E+00 0.  1.
       21   -1    0    0  502  503 -0.00000000000E+00 -0.00000000000E+00 -0.25721576946E+03  0.25721576946E+03  0.00000000000E+00 0. -1.
       39    2    1    2    0    0 -0.35527136788E-14  0.00000000000E+00  0.73236034684E+03  0.12467918858E+04  0.10090284083E+04 0.  0.
       24    2    3    3    0    0 -0.91952685512E+01 -0.30310330133E+03  0.85435834750E+03  0.91010598546E+03  0.80053448325E+02 0.  0.
      -24    2    3    3    0    0  0.91952685512E+01  0.30310330133E+03 -0.12199800066E+03  0.33668590030E+03  0.80732391622E+02 0.  0.
      -13    1    4    4    0    0 -0.37697538872E+02 -0.25390635007E+03  0.69112489367E+03  0.73725379463E+03  0.00000000000E+00 0.  1.
       14    1    4    4    0    0  0.28502270320E+02 -0.49196951263E+02  0.16323345383E+03  0.17285219084E+03  0.00000000000E+00 0. -1.
        3    1    5    5  501    0  0.21527575528E+02  0.29763891575E+03 -0.12365552298E+03  0.32302174700E+03  0.00000000000E+00 0. -1.
       -4    1    5    5    0  501 -0.12332306977E+02  0.54643855867E+01  0.16575223179E+01  0.13664153302E+02  0.14200000000E+01 0.  1.
</event>
<event>
 9   1  0.7335000E-04  0.9685468E+03  0.7818608E-02  0.9343731E-01
       21   -1    0    0  503  502  0.00000000000E+00  0.00000000000E+00  0.72388140253E+03  0.72388140253E+03  0.00000000000E+00 0. -1.
       21   -1    0    0  502  503 -0.00000000000E+00 -0.00000000000E+00 -0.32397669283E+03  0.32397669283E+03  0.00000000000E+00 0.  1.
       39    2    1    2    0    0  0.00000000000E+00  0.00000000000E+00  0.39990470970E+03  0.10478580954E+04  0.96854675218E+03 0.  0.
       24    2    3    3    0    0  0.27626874171E+03 -0.38703973056E+03  0.24713827066E+03  0.54197808886E+03  0.80862558050E+02 0.  0.
      -24    2    3    3    0    0 -0.27626874171E+03  0.38703973056E+03  0.15276643904E+03  0.50588000650E+03  0.80329480251E+02 0.  0.
      -13    1    4    4    0    0  0.24724941715E+03 -0.30485922531E+03  0.17928771238E+03  0.43152694626E+03  0.00000000000E+00 0.  1.
       14    1    4    4    0    0  0.29019324557E+02 -0.82180505249E+02  0.67850558282E+02  0.11045114259E+03  0.00000000000E+00 0. -1.
        1    1    5    5  501    0 -0.13155746997E+03  0.18029055839E+03  0.11380980924E+03  0.25052889261E+03  0.00000000000E+00 0. -1.
       -2    1    5    5    0  501 -0.14471127174E+03  0.20674917217E+03  0.38956629803E+02  0.25535111389E+03  0.00000000000E+00 0.  1.
</event>
<event>
 9   1  0.7335000E-04  0.1003320E+04  0.7818608E-02  0.9304911E-01
       21   -1    0    0  503  502  0.00000000000E+00  0.00000000000E+00  0.57731017619E+03  0.57731017619E+03  0.00000000000E+00 0.  1.
       21   -1    0    0  502  503 -0.00000000000E+00 -0.00000000000E+00 -0.43592313444E+03  0.43592313444E+03  0.00000000000E+00 0. -1.
       39    2    1    2    0    0  0.56843418861E-13  0.00000000000E+00  0.14138704175E+03  0.10132333106E+04  0.10033202112E+04 0.  0.
       24    2    3    3    0    0 -0.32471578047E+03  0.35562969579E+03 -0.42943714365E+02  0.49074077803E+03  0.84080497167E+02 0.  0.
      -24    2    3    3    0    0  0.32471578047E+03 -0.35562969579E+03  0.18433075611E+03  0.52249253260E+03  0.84307771631E+02 0.  0.
      -13    1    4    4    0    0 -0.98572872758E+01 -0.17577144475E+01  0.64129060660E+01  0.11890375803E+02  0.00000000000E+00 0.  1.
       14    1    4    4    0    0 -0.31485849320E+03  0.35738741023E+03 -0.49356620431E+02  0.47885040223E+03  0.00000000000E+00 0. -1.
        1    1    5    5  501    0  0.20347923084E+03 -0.18934061008E+03  0.68183134507E+02  0.28618630966E+03  0.00000000000E+00 0. -1.
       -2    1    5    5    0  501  0.12123654964E+03 -0.16628908571E+03  0.11614762161E+03  0.23630622294E+03  0.00000000000E+00 0.  1.
</event>
<event>
 9   1  0.7335000E-04  0.1000947E+04  0.7818608E-02  0.9307507E-01
       21   -1    0    0  503  502  0.00000000000E+00  0.00000000000E+00  0.54965214668E+03  0.54965214668E+03  0.00000000000E+00 0. -1.
       21   -1    0    0  502  503 -0.00000000000E+00 -0.00000000000E+00 -0.45569471566E+03  0.45569471566E+03  0.00000000000E+00 0.  1.
       39    2    1    2    0    0  0.28421709430E-13  0.00000000000E+00  0.93957431021E+02  0.10053468623E+04  0.10009467093E+04 0.  0.
       24    2    3    3    0    0 -0.17824570182E+03 -0.17979963071E+03 -0.37899351639E+03  0.46299167176E+03  0.81398803636E+02 0.  0.
      -24    2    3    3    0    0  0.17824570182E+03  0.17979963071E+03  0.47295094741E+03  0.54235519058E+03  0.79794214531E+02 0.  0.
      -13    1    4    4    0    0 -0.16234524776E+03 -0.18050647342E+03 -0.31871192217E+03  0.40064430079E+03  0.00000000000E+00 0.  1.
       14    1    4    4    0    0 -0.15900454054E+02  0.70684271175E+00 -0.60281594219E+02  0.62347370974E+02  0.00000000000E+00 0. -1.
        1    1    5    5  501    0  0.18257654367E+03  0.15276624512E+03  0.42216580155E+03  0.48466038000E+03  0.00000000000E+00 0. -1.
       -2    1    5    5    0  501 -0.43308418490E+01  0.27033385589E+02  0.50785145859E+02  0.57694810576E+02  0.00000000000E+00 0.  1.
</event>
<event>
 9   1  0.7335000E-04  0.1001596E+04  0.7818608E-02  0.9306796E-01
       21   -1    0    0  503  502  0.00000000000E+00  0.00000000000E+00  0.64652594336E+03  0.64652594336E+03  0.00000000000E+00 0.  1.
       21   -1    0    0  502  503 -0.00000000000E+00 -0.00000000000E+00 -0.38791758887E+03  0.38791758887E+03  0.00000000000E+00 0. -1.
       39    2    1    2    0    0  0.00000000000E+00  0.00000000000E+00  0.25860835448E+03  0.10344435322E+04  0.10015962961E+04 0.  0.
       24    2    3    3    0    0  0.16722301377E+03 -0.32751637080E+03 -0.21166184420E+03  0.43241118565E+03  0.83355789905E+02 0.  0.
      -24    2    3    3    0    0 -0.16722301377E+03  0.32751637080E+03  0.47027019868E+03  0.60203234658E+03  0.77835577274E+02 0.  0.
      -13    1    4    4    0    0  0.37822686976E+02 -0.12255953885E+03 -0.36494745181E+02  0.13335389997E+03  0.00000000000E+00 0.  1.
       14    1    4    4    0    0  0.12940032679E+03 -0.20495683195E+03 -0.17516709902E+03  0.29905728567E+03  0.00000000000E+00 0. -1.
        1    1    5    5  501    0 -0.12835075469E+03  0.17171621353E+03  0.24783380212E+03  0.32769187920E+03  0.00000000000E+00 0. -1.
       -2    1    5    5    0  501 -0.38872259082E+02  0.15580015726E+03  0.22243639656E+03  0.27434046738E+03  0.00000000000E+00 0.  1.
</event>
<event>
 9   1  0.7335000E-04  0.1014976E+04  0.7818608E-02  0.9292270E-01
       21   -1    0    0  503  502  0.00000000000E+00  0.00000000000E+00  0.71514035590E+03  0.71514035590E+03  0.00000000000E+00 0. -1.
       21   -1    0    0  502  503 -0.00000000000E+00 -0.00000000000E+00 -0.36013067515E+03  0.36013067515E+03  0.00000000000E+00 0.  1.
       39    2    1    2    0    0  0.56843418861E-13  0.00000000000E+00  0.35500968075E+03  0.10752710311E+04  0.10149758208E+04 0.  0.
       24    2    3    3    0    0 -0.48841724024E+03  0.87713129516E+02  0.10695761924E+03  0.51476647991E+03  0.85437713439E+02 0.  0.
      -24    2    3    3    0    0  0.48841724024E+03 -0.87713129516E+02  0.24805206151E+03  0.56050455114E+03  0.79940809241E+02 0.  0.
      -13    1    4    4    0    0 -0.24380704003E+03  0.62389695161E+01  0.73879035134E+02  0.25483113888E+03  0.00000000000E+00 0.  1.
       14    1    4    4    0    0 -0.24461020021E+03  0.81474160000E+02  0.33078584108E+02  0.25993534104E+03  0.00000000000E+00 0. -1.
        3    1    5    5  501    0  0.14389372396E+03 -0.10497541760E+02  0.10989651151E+03  0.18136384816E+03  0.00000000000E+00 0. -1.
       -4    1    5    5    0  501  0.34452351628E+03 -0.77215587756E+02  0.13815555000E+03  0.37914070298E+03  0.14200000000E+01 0.  1.
</event>
<event>
 9   1  0.7335000E-04  0.1016974E+04  0.7818608E-02  0.9290122E-01
       21   -1    0    0  503  502  0.00000000000E+00  0.00000000000E+00  0.24688115735E+04  0.24688115735E+04  0.00000000000E+00 0.  1.
       21   -1    0    0  502  503 -0.00000000000E+00 -0.00000000000E+00 -0.10473005957E+03  0.10473005957E+03  0.00000000000E+00 0. -1.
       39    2    1    2    0    0  0.56843418861E-13  0.00000000000E+00  0.23640815140E+04  0.25735416331E+04  0.10169735162E+04 0.  0.
       24    2    3    3    0    0 -0.21427170131E+03  0.13664303282E+03  0.22775679549E+04  0.22931175839E+04  0.80552987349E+02 0.  0.
      -24    2    3    3    0    0  0.21427170131E+03 -0.13664303282E+03  0.86513559024E+02  0.28042404921E+03  0.81051656857E+02 0.  0.
      -13    1    4    4    0    0 -0.17674210483E+03  0.72919362440E+02  0.17439980315E+04  0.17544469609E+04  0.00000000000E+00 0.  1.
       14    1    4    4    0    0 -0.37529596484E+02  0.63723670383E+02  0.53356992347E+03  0.53867062293E+03  0.00000000000E+00 0. -1.
        1    1    5    5  501    0  0.80940482719E+02 -0.70909649754E+02  0.75319253555E+02  0.13134888704E+03  0.00000000000E+00 0. -1.
       -2    1    5    5    0  501  0.13333121859E+03 -0.65733383069E+02  0.11194305469E+02  0.14907516217E+03  0.00000000000E+00 0.  1.
</event>
<event>
 9   1  0.7335000E-04  0.9920612E+03  0.7818608E-02  0.9317295E-01
       21   -1    0    0  503  502  0.00000000000E+00  0.00000000000E+00  0.11939825008E+03  0.11939825008E+03  0.00000000000E+00 0. -1.
       21   -1    0    0  502  503 -0.00000000000E+00 -0.00000000000E+00 -0.20607197613E+04  0.20607197613E+04  0.00000000000E+00 0.  1.
       39    2    1    2    0    0  0.56843418861E-13  0.14210854715E-13 -0.19413215112E+04  0.21801180114E+04  0.99206115416E+03 0.  0.
       24    2    3    3    0    0 -0.31551455614E+03 -0.10396877214E+03 -0.17607181430E+04  0.17935006291E+04  0.78467743207E+02 0.  0.
      -24    2    3    3    0    0  0.31551455614E+03  0.10396877214E+03 -0.18060336821E+03  0.38661738228E+03  0.80600762745E+02 0.  0.
      -13    1    4    4    0    0 -0.32025842325E+03 -0.10144960673E+03 -0.17358518172E+04  0.17680608054E+04  0.00000000000E+00 0.  1.
       14    1    4    4    0    0  0.47438671133E+01 -0.25191654183E+01 -0.24866325832E+02  0.25439823702E+02  0.00000000000E+00 0. -1.
        1    1    5    5  501    0  0.27434092311E+03  0.10607556886E+03 -0.18104575058E+03  0.34538751021E+03  0.00000000000E+00 0. -1.
       -2    1    5    5    0  501  0.41173633022E+02 -0.21067967152E+01  0.44238237299E+00  0.41229872068E+02  0.00000000000E+00 0.  1.
</event>
<event>
 9   1  0.7335000E-04  0.1016797E+04  0.7818608E-02  0.9290312E-01
       21   -1    0    0  503  502  0.00000000000E+00  0.00000000000E+00  0.60636472811E+03  0.60636472811E+03  0.00000000000E+00 0.  1.
       21   -1    0    0  502  503 -0.00000000000E+00 -0.00000000000E+00 -0.42625978916E+03  0.42625978916E+03  0.00000000000E+00 0. -1.
       39    2    1    2    0    0  0.00000000000E+00  0.00000000000E+00  0.18010493896E+03  0.10326245173E+04  0.10167967371E+04 0.  0.
       24    2    3    3    0    0 -0.15255720460E+03 -0.84282948048E+02  0.56812373986E+03  0.59961900086E+03  0.80006539659E+02 0.  0.
      -24    2    3    3    0    0  0.15255720460E+03  0.84282948048E+02 -0.38801880090E+03  0.43300551642E+03  0.80980685266E+02 0.  0.
      -13    1    4    4    0    0 -0.61377569929E+02 -0.65526390284E+02  0.36967866529E+03  0.38042506422E+03  0.00000000000E+00 0.  1.
       14    1    4    4    0    0 -0.91179634674E+02 -0.18756557764E+02  0.19844507457E+03  0.21919393664E+03  0.00000000000E+00 0. -1.
        3    1    5    5  501    0  0.98650789933E+02  0.57479277874E+02 -0.33075292515E+03  0.34990476309E+03  0.00000000000E+00 0. -1.
       -4    1    5    5    0  501  0.53906414670E+02  0.26803670175E+02 -0.57265875749E+02  0.83100753322E+02  0.14200000000E+01 0.  1.
</event>
<event>
 9   1  0.7335000E-04  0.1002292E+04  0.7818608E-02  0.9306035E-01
       21   -1    0    0  503  502  0.00000000000E+00  0.00000000000E+00  0.66379444117E+03  0.66379444117E+03  0.00000000000E+00 0. -1.
       21   -1    0    0  502  503 -0.00000000000E+00 -0.00000000000E+00 -0.37835085884E+03  0.37835085884E+03  0.00000000000E+00 0.  1.
       39    2    1    2    0    0 -0.56843418861E-13  0.00000000000E+00  0.28544358233E+03  0.10421453000E+04  0.10022917677E+04 0.  0.
       24    2    3    3    0    0 -0.21447175443E+03  0.43786991311E+02  0.60368907767E+03  0.64742843650E+03  0.82508447040E+02 0.  0.
      -24    2    3    3    0    0  0.21447175443E+03 -0.43786991311E+02 -0.31824549534E+03  0.39471686352E+03  0.81275906579E+02 0.  0.
      -13    1    4    4    0    0 -0.49221668673E+02  0.17967609564E+02  0.65678298955E+02  0.84019322861E+02  0.00000000000E+00 0.  1.
       14    1    4    4    0    0 -0.16525008575E+03  0.25819381746E+02  0.53801077871E+03  0.56340911363E+03  0.00000000000E+00 0. -1.
        3    1    5    5  501    0  0.34068536634E+02 -0.40645362840E+02 -0.69814966263E+02  0.87674627020E+02  0.00000000000E+00 0. -1.
       -4    1    5    5    0  501  0.18040321779E+03 -0.31416284711E+01 -0.24843052908E+03  0.30704223650E+03  0.14200000000E+01 0.  1.
</event>
<event>
 9   1  0.7335000E-04  0.1009034E+04  0.7818608E-02  0.9298692E-01
       21   -1    0    0  503  502  0.00000000000E+00  0.00000000000E+00  0.91982621562E+03  0.91982621562E+03  0.00000000000E+00 0.  1.
       21   -1    0    0  502  503 -0.00000000000E+00 -0.00000000000E+00 -0.27672309355E+03  0.27672309355E+03  0.00000000000E+00 0. -1.
       39    2    1    2    0    0  0.00000000000E+00  0.56843418861E-13  0.64310312208E+03  0.11965493092E+04  0.10090335097E+04 0.  0.
       24    2    3    3    0    0  0.13329610047E+03 -0.35061796776E+03 -0.67165538459E+02  0.38943581373E+03  0.80300894999E+02 0.  0.
      -24    2    3    3    0    0 -0.13329610047E+03  0.35061796776E+03  0.71026866053E+03  0.80711349544E+03  0.79055769331E+02 0.  0.
      -13    1    4    4    0    0  0.15330864956E+02 -0.13681753257E+03 -0.64980493505E+01  0.13782705570E+03  0.00000000000E+00 0.  1.
       14    1    4    4    0    0  0.11796523552E+03 -0.21380043519E+03 -0.60667489108E+02  0.25160875802E+03  0.00000000000E+00 0. -1.
        1    1    5    5  501    0 -0.61702584507E+02  0.11444538062E+03  0.17812303777E+03  0.22052838971E+03  0.00000000000E+00 0. -1.
       -2    1    5    5    0  501 -0.71593515965E+02  0.23617258714E+03  0.53214562276E+03  0.58658510574E+03  0.00000000000E+00 0.  1.
</event>
<event>
 9   1  0.7335000E-04  0.9947857E+03  0.7818608E-02  0.9314282E-01
       21   -1    0    0  503  502  0.00000000000E+00  0.00000000000E+00  0.51221144105E+03  0.51221144105E+03  0.00000000000E+00 0.  1.
       21   -1    0    0  502  503 -0.00000000000E+00 -0.00000000000E+00 -0.48300300595E+03  0.48300300595E+03  0.00000000000E+00 0. -1.
       39    2    1    2    0    0 -0.56843418861E-13  0.00000000000E+00  0.29208435101E+02  0.99521444699E+03  0.99478573714E+03 0.  0.
       24    2    3    3    0    0  0.22846893805E+03  0.32703603871E+03  0.30094478819E+03  0.50600742805E+03  0.79530657168E+02 0.  0.
      -24    2    3    3    0    0 -0.22846893805E+03 -0.32703603871E+03 -0.27173635309E+03  0.48920701894E+03  0.79575344927E+02 0.  0.
      -13    1    4    4    0    0  0.15572513842E+03  0.26202765583E+03  0.25830356997E+03  0.39953666342E+03  0.00000000000E+00 0.  1.
       14    1    4    4    0    0  0.72743799633E+02  0.65008382885E+02  0.42641218225E+02  0.10647076464E+03  0.00000000000E+00 0. -1.
        1    1    5    5  501    0 -0.21314886272E+03 -0.31652306384E+03 -0.27496848595E+03  0.47034769680E+03  0.00000000000E+00 0. -1.
       -2    1    5    5    0  501 -0.15320075332E+02 -0.10512974876E+02  0.32321328571E+01  0.18859322144E+02  0.00000000000E+00 0.  1.
</event>
<event>
 9   1  0.7335000E-04  0.1005726E+04  0.7818608E-02  0.9302287E-01
       21   -1    0    0  503  502  0.00000000000E+00  0.00000000000E+00  0.71810801181E+03  0.71810801181E+03  0.00000000000E+00 0.  1.
       21   -1    0    0  502  503 -0.00000000000E+00 -0.00000000000E+00 -0.35213540661E+03  0.35213540661E+03  0.00000000000E+00 0. -1.
       39    2    1    2    0    0  0.00000000000E+00  0.00000000000E+00  0.36597260520E+03  0.10702434184E+04  0.10057261192E+04 0.  0.
       24    2    3    3    0    0 -0.20338419575E+03  0.11751332709E+03  0.64771579722E+03  0.69377345696E+03  0.81310162237E+02 0.  0.
      -24    2    3    3    0    0  0.20338419575E+03 -0.11751332709E+03 -0.28174319202E+03  0.37646996146E+03  0.84710639869E+02 0.  0.
      -13    1    4    4    0    0 -0.18539480598E+03  0.12110018459E+03  0.63181578483E+03  0.66949807673E+03  0.00000000000E+00 0.  1.
       14    1    4    4    0    0 -0.17989389765E+02 -0.35868574996E+01  0.15900012396E+02  0.24275380225E+02  0.00000000000E+00 0. -1.
        1    1    5    5  501    0  0.18081786399E+03 -0.12849413664E+03 -0.26787413357E+03  0.34779648435E+03  0.00000000000E+00 0. -1.
       -2    1    5    5    0  501  0.22566331758E+02  0.10980809550E+02 -0.13869058453E+02  0.28673477113E+02  0.00000000000E+00 0.  1.
</event>
<event>
 9   1  0.7335000E-04  0.1004398E+04  0.7818608E-02  0.9303734E-01
       21   -1    0    0  503  502  0.00000000000E+00  0.00000000000E+00  0.99949677841E+03  0.99949677841E+03  0.00000000000E+00 0.  1.
       21   -1    0    0  502  503 -0.00000000000E+00 -0.00000000000E+00 -0.25233071872E+03  0.25233071872E+03  0.00000000000E+00 0. -1.
       39    2    1    2    0    0  0.00000000000E+00 -0.56843418861E-13  0.74716605968E+03  0.12518274971E+04  0.10043978105E+04 0.  0.
       24    2    3    3    0    0 -0.75137394938E+02 -0.28835771690E+03 -0.11735259315E+03  0.33393891952E+03  0.94592652117E+02 0.  0.
      -24    2    3    3    0    0  0.75137394938E+02  0.28835771690E+03  0.86451865283E+03  0.91788857761E+03  0.79568453603E+02 0.  0.
      -13    1    4    4    0    0 -0.24065663656E+02 -0.94329855932E+02 -0.87879115825E+02  0.13114883486E+03  0.00000000000E+00 0.  1.
       14    1    4    4    0    0 -0.51071731281E+02 -0.19402786097E+03 -0.29473477321E+02  0.20279008466E+03  0.00000000000E+00 0. -1.
        1    1    5    5  501    0  0.24826494735E+02  0.26210218457E+02  0.17108258848E+03  0.17485017150E+03  0.00000000000E+00 0. -1.
       -2    1    5    5    0  501  0.50310900202E+02  0.26214749845E+03  0.69343606435E+03  0.74303840611E+03  0.00000000000E+00 0.  1.
</event>
<event>
 9   1  0.7335000E-04  0.9891007E+03  0.7818608E-02  0.9320580E-01
        3   -1    0    0  501    0  0.00000000000E+00  0.00000000000E+00  0.11006966901E+04  0.11006966901E+04  0.00000000000E+00 0. -1.
       -3   -1    0    0    0  501 -0.00000000000E+00 -0.00000000000E+00 -0.22220476281E+03  0.22220476281E+03  0.00000000000E+00 0.  1.
       39    2    1    2    0    0  0.00000000000E+00  0.00000000000E+00  0.87849192724E+03  0.13229014529E+04  0.98910069648E+03 0.  0.
       24    2    3    3    0    0 -0.27959947728E+03 -0.29721100998E+03  0.79701378604E+03  0.89878788901E+03  0.77964364496E+02 0.  0.
      -24    2    3    3    0    0  0.27959947728E+03  0.29721100998E+03  0.81478141199E+02  0.42411356386E+03  0.81996191413E+02 0.  0.
      -13    1    4    4    0    0 -0.21543613966E+03 -0.23397394841E+03  0.54322387244E+03  0.62948289444E+03  0.00000000000E+00 0.  1.
       14    1    4    4    0    0 -0.64163337620E+02 -0.63237061576E+02  0.25378991360E+03  0.26930499456E+03  0.00000000000E+00 0. -1.
        3    1    5    5  502    0  0.52628669815E+02  0.16654277224E+02  0.14546253167E+02  0.57085333647E+02  0.00000000000E+00 0. -1.
       -4    1    5    5    0  502  0.22697080747E+03  0.28055673276E+03  0.66931888031E+02  0.36702823021E+03  0.14200000000E+01 0.  1.
</event>
<event>
 9   1  0.7335000E-04  0.1014106E+04  0.7818608E-02  0.9293207E-01
       21   -1    0    0  503  502  0.00000000000E+00  0.00000000000E+00  0.15397850417E+03  0.15397850417E+03  0.00000000000E+00 0. -1.
       21   -1    0    0  502  503 -0.00000000000E+00 -0.00000000000E+00 -0.16697322572E+04  0.16697322572E+04  0.00000000000E+00 0.  1.
       39    2    1    2    0    0  0.00000000000E+00  0.00000000000E+00 -0.15157537530E+04  0.18237107614E+04  0.10141062574E+04 0.  0.
       24    2    3    3    0    0  0.70352327484E+02  0.35736913840E+03 -0.13759344954E+04  0.14254288954E+04  0.77392824598E+02 0.  0.
      -24    2    3    3    0    0 -0.70352327484E+02 -0.35736913840E+03 -0.13981925764E+03  0.39828186594E+03  0.80105361032E+02 0.  0.
      -13    1    4    4    0    0  0.28108160303E+02  0.20662574336E+03 -0.92099557942E+03  0.94430774846E+03  0.00000000000E+00 0.  1.
       14    1    4    4    0    0  0.42244167181E+02  0.15074339504E+03 -0.45493891597E+03  0.48112114698E+03  0.00000000000E+00 0. -1.
        1    1    5    5  501    0 -0.82776569500E+02 -0.31353984251E+03 -0.13873380508E+03  0.35271271875E+03  0.00000000000E+00 0. -1.
       -2    1    5    5    0  501  0.12424242016E+02 -0.43829295893E+02 -0.10854525617E+01  0.45569147188E+02  0.00000000000E+00 0.  1.
</event>
<event>
 9   1  0.7335000E-04  0.1007763E+04  0.7818608E-02  0.9300071E-01
       21   -1    0    0  503  502  0.00000000000E+00  0.00000000000E+00  0.36292645910E+03  0.36292645910E+03  0.00000000000E+00 0.  1.
       21   -1    0    0  502  503 -0.00000000000E+00 -0.00000000000E+00 -0.69958129295E+03  0.69958129295E+03  0.00000000000E+00 0. -1.
       39    2    1    2    0    0  0.00000000000E+00 -0.28421709430E-13 -0.33665483385E+03  0.10625077520E+04  0.10077629910E+04 0.  0.
       24    2    3    3    0    0  0.36730665775E+03 -0.21781296320E+03  0.10072495067E+03  0.44611054890E+03  0.80699680251E+02 0.  0.
      -24    2    3    3    0    0 -0.36730665775E+03  0.21781296320E+03 -0.43737978452E+03  0.61639720315E+03  0.79295449901E+02 0.  0.
      -13    1    4    4    0    0  0.35836985252E+03 -0.21564242774E+03  0.83378446130E+02  0.42647693152E+03  0.00000000000E+00 0.  1.
       14    1    4    4    0    0  0.89368052283E+01 -0.21705354579E+01  0.17346504544E+02  0.19633617388E+02  0.00000000000E+00 0. -1.
        3    1    5    5  501    0 -0.24497930253E+03  0.11070127617E+03 -0.30630519399E+03  0.40754447988E+03  0.00000000000E+00 0. -1.
       -4    1    5    5    0  501 -0.12232735521E+03  0.10711168704E+03 -0.13107459053E+03  0.20885272326E+03  0.14200000000E+01 0.  1.
</event>
<event>
 9   1  0.7335000E-04  0.1010629E+04  0.7818608E-02  0.9296963E-01
       21   -1    0    0  503  502  0.00000000000E+00  0.00000000000E+00  0.60410871081E+03  0.60410871081E+03  0.00000000000E+00 0.  1.
       21   -1    0    0  502  503 -0.00000000000E+00 -0.00000000000E+00 -0.42267721760E+03  0.42267721760E+03  0.00000000000E+00 0. -1.
       39    2    1    2    0    0  0.71054273576E-14  0.00000000000E+00  0.18143149321E+03  0.10267859284E+04  0.10106294850E+04 0.  0.
       24    2    3    3    0    0  0.31699185526E+02  0.26371024009E+03 -0.33822717470E+03  0.43764799061E+03  0.81180126185E+02 0.  0.
      -24    2    3    3    0    0 -0.31699185526E+02 -0.26371024009E+03  0.51965866791E+03  0.58913793779E+03  0.80563326140E+02 0.  0.
      -13    1    4    4    0    0  0.63979625785E+01  0.25478620515E+02 -0.42201663957E+01  0.26606462240E+02  0.00000000000E+00 0.  1.
       14    1    4    4    0    0  0.25301222947E+02  0.23823161958E+03 -0.33400700831E+03  0.41104152837E+03  0.00000000000E+00 0. -1.
        3    1    5    5  501    0 -0.35488877119E+02 -0.10157197284E+03  0.14226917686E+03  0.17837276908E+03  0.00000000000E+00 0. -1.
       -4    1    5    5    0  501  0.37896915934E+01 -0.16213826725E+03  0.37738949105E+03  0.41076516871E+03  0.14200000000E+01 0.  1.
</event>
<event>
 9   1  0.7335000E-04  0.9874488E+03  0.7818608E-02  0.9322419E-01
       21   -1    0    0  503  502  0.00000000000E+00  0.00000000000E+00  0.54620486101E+03  0.54620486101E+03  0.00000000000E+00 0.  1.
       21   -1    0    0  502  503 -0.00000000000E+00 -0.00000000000E+00 -0.44628638089E+03  0.44628638089E+03  0.00000000000E+00 0. -1.
       39    2    1    2    0    0  0.00000000000E+00  0.00000000000E+00  0.99918480113E+02  0.99249124190E+03  0.98744881517E+03 0.  0.
       24    2    3    3    0    0 -0.21574154865E+03 -0.34956389724E+02 -0.38815635273E+03  0.45249738744E+03  0.79512052354E+02 0.  0.
      -24    2    3    3    0    0  0.21574154865E+03  0.34956389724E+02  0.48807483285E+03  0.53999385446E+03  0.74899635516E+02 0.  0.
      -13    1    4    4    0    0 -0.11979050789E+03 -0.56361183830E+02 -0.19394185014E+03  0.23481863227E+03  0.00000000000E+00 0.  1.
       14    1    4    4    0    0 -0.95951040766E+02  0.21404794106E+02 -0.19421450259E+03  0.21767875517E+03  0.00000000000E+00 0. -1.
        3    1    5    5  501    0  0.50648165335E+02 -0.23573208307E+02  0.11855965321E+03  0.13106229119E+03  0.00000000000E+00 0. -1.
       -4    1    5    5    0  501  0.16509338332E+03  0.58529598032E+02  0.36951517964E+03  0.40893156327E+03  0.14200000000E+01 0.  1.
</event>
<event>
 9   1  0.7335000E-04  0.9780460E+03  0.7818608E-02  0.9332957E-01
       21   -1    0    0  503  502  0.00000000000E+00  0.00000000000E+00  0.60567496843E+03  0.60567496843E+03  0.00000000000E+00 0.  1.
       21   -1    0    0  502  503 -0.00000000000E+00 -0.00000000000E+00 -0.39483803997E+03  0.39483803997E+03  0.00000000000E+00 0. -1.
       39    2    1    2    0    0 -0.56843418861E-13 -0.56843418861E-13  0.21083692845E+03  0.10005130084E+04  0.97804604676E+03 0.  0.
       24    2    3    3    0    0 -0.35588174710E+03 -0.32124343592E+03  0.51781011432E+02  0.48914327733E+03  0.82040901841E+02 0.  0.
      -24    2    3    3    0    0  0.35588174710E+03  0.32124343592E+03  0.15905591702E+03  0.51136973107E+03  0.79693500797E+02 0.  0.
      -13    1    4    4    0    0 -0.50283885104E+02 -0.39458867160E+02 -0.20704527028E+02  0.67187415029E+02  0.00000000000E+00 0.  1.
       14    1    4    4    0    0 -0.30559786199E+03 -0.28178456876E+03  0.72485538460E+02  0.42195586230E+03  0.00000000000E+00 0. -1.
        3    1    5    5  501    0  0.91974631024E+02  0.61843929769E+02  0.68871871421E+02  0.13048884655E+03  0.00000000000E+00 0. -1.
       -4    1    5    5    0  501  0.26390711607E+03  0.25939950615E+03  0.90184045601E+02  0.38088088451E+03  0.14200000000E+01 0.  1.
</event>
<event>
 9   1  0.7335000E-04  0.1022556E+04  0.7818608E-02  0.9284146E-01
       21   -1    0    0  503  502  0.00000000000E+00  0.00000000000E+00  0.10843649345E+04  0.10843649345E+04  0.00000000000E+00 0. -1.
       21   -1    0    0  502  503 -0.00000000000E+00 -0.00000000000E+00 -0.24106749408E+03  0.24106749408E+03  0.00000000000E+00 0.  1.
       39    2    1    2    0    0  0.00000000000E+00 -0.56843418861E-13  0.84329744041E+03  0.13254324286E+04  0.10225558908E+04 0.  0.
       24    2    3    3    0    0 -0.14150828917E+03 -0.40073088214E+03  0.77616718884E+03  0.88832875578E+03  0.77991265626E+02 0.  0.
      -24    2    3    3    0    0  0.14150828917E+03  0.40073088214E+03  0.67130251574E+02  0.43710367279E+03  0.77092893888E+02 0.  0.
      -13    1    4    4    0    0 -0.55158815653E+01 -0.11893818851E+03  0.22346719380E+03  0.25320802582E+03  0.00000000000E+00 0.  1.
       14    1    4    4    0    0 -0.13599240760E+03 -0.28179269363E+03  0.55269999504E+03  0.63512072996E+03  0.00000000000E+00 0. -1.
        3    1    5    5  501    0  0.19184706250E+02  0.47783087156E+02 -0.16954612921E+02  0.54210103038E+02  0.00000000000E+00 0. -1.
       -4    1    5    5    0  501  0.12232358292E+03  0.35294779499E+03  0.84084864495E+02  0.38289356976E+03  0.14200000000E+01 0.  1.
</event>
<event>
 9   1  0.7335000E-04  0.9986690E+03  0.7818608E-02  0.9310006E-01
       21   -1    0    0  503  502  0.00000000000E+00  0.00000000000E+00  0.10722280015E+04  0.10722280015E+04  0.00000000000E+00 0.  1.
       21   -1    0    0  502  503 -0.00000000000E+00 -0.00000000000E+00 -0.23253911832E+03  0.23253911832E+03  0.00000000000E+00 0. -1.
       39    2    1    2    0    0  0.71054273576E-14 -0.14210854715E-13  0.83968888322E+03  0.13047671199E+04  0.99866902248E+03 0.  0.
       24    2    3    3    0    0 -0.39640229467E+02  0.56448304321E+02  0.10558434360E+04  0.10616619943E+04  0.86965912573E+02 0.  0.
      -24    2    3    3    0    0  0.39640229467E+02 -0.56448304321E+02 -0.21615455276E+03  0.24310512558E+03  0.87290048424E+02 0.  0.
      -13    1    4    4    0    0 -0.19783434517E+02  0.16095718984E+02  0.87286978824E+03  0.87324230525E+03  0.00000000000E+00 0.  1.
       14    1    4    4    0    0 -0.19856794949E+02  0.40352585337E+02  0.18297364774E+03  0.18841968903E+03  0.00000000000E+00 0. -1.
        1    1    5    5  501    0  0.63583863401E+02 -0.41082551514E+02 -0.18973727674E+03  0.20428146736E+03  0.00000000000E+00 0. -1.
       -2    1    5    5    0  501 -0.23943633934E+02 -0.15365752807E+02 -0.26417276020E+02  0.38823658220E+02  0.00000000000E+00 0.  1.
</event>
<event>
 9   1  0.7335000E-04  0.1006668E+04  0.7818608E-02  0.9301261E-01
       21   -1    0    0  503  502  0.00000000000E+00  0.00000000000E+00  0.27685547904E+03  0.27685547904E+03  0.00000000000E+00 0. -1.
       21   -1    0    0  502  503 -0.00000000000E+00 -0.00000000000E+00 -0.91508143752E+03  0.91508143752E+03  0.00000000000E+00 0.  1.
       39    2    1    2    0    0  0.00000000000E+00 -0.56843418861E-13 -0.63822595848E+03  0.11919369166E+04  0.10066683858E+04 0.  0.
       24    2    3    3    0    0 -0.87387257911E+02 -0.25825481606E+03 -0.81074134271E+03  0.85932072122E+03  0.82452982217E+02 0.  0.
      -24    2    3    3    0    0  0.87387257911E+02  0.25825481606E+03  0.17251538423E+03  0.33261619533E+03  0.80869603292E+02 0.  0.
      -13    1    4    4    0    0 -0.16296113607E+02 -0.12865836083E+03 -0.47690634327E+03  0.49422484497E+03  0.00000000000E+00 0.  1.
       14    1    4    4    0    0 -0.71091144304E+02 -0.12959645524E+03 -0.33383499943E+03  0.36509587625E+03  0.00000000000E+00 0. -1.
        1    1    5    5  501    0  0.21016832169E+02  0.16521746440E+03  0.76175648204E+02  0.18314269616E+03  0.00000000000E+00 0. -1.
       -2    1    5    5    0  501  0.66370425742E+02  0.93037351663E+02  0.96339736024E+02  0.14947349917E+03  0.00000000000E+00 0.  1.
</event>
<event>
 9   1  0.7335000E-04  0.1004062E+04  0.7818608E-02  0.9304101E-01
       21   -1    0    0  503  502  0.00000000000E+00  0.00000000000E+00  0.16458203032E+04  0.16458203032E+04  0.00000000000E+00 0.  1.
       21   -1    0    0  502  503 -0.00000000000E+00 -0.00000000000E+00 -0.15313637203E+03  0.15313637203E+03  0.00000000000E+00 0. -1.
       39    2    1    2    0    0  0.00000000000E+00  0.14210854715E-13  0.14926839311E+04  0.17989566752E+04  0.10040616520E+04 0.  0.
       24    2    3    3    0    0  0.50284000987E+02 -0.68981545332E+02  0.16211325178E+04  0.16254973056E+04  0.82969367234E+02 0.  0.
      -24    2    3    3    0    0 -0.50284000987E+02  0.68981545332E+02 -0.12844858664E+03  0.17345936963E+03  0.79386265510E+02 0.  0.
      -13    1    4    4    0    0  0.46187938084E+01 -0.58378540561E+02  0.12564422555E+04  0.12578062366E+04  0.00000000000E+00 0.  1.
       14    1    4    4    0    0  0.45665207178E+02 -0.10603004771E+02  0.36469026226E+03  0.36769106903E+03  0.00000000000E+00 0. -1.
        1    1    5    5  501    0 -0.59555094709E+02  0.69569894950E+02 -0.13424696615E+03  0.16250854596E+03  0.00000000000E+00 0. -1.
       -2    1    5    5    0  501  0.92710937221E+01 -0.58834961713E+00  0.57983795139E+01  0.10950823671E+02  0.00000000000E+00 0.  1.
</event>
<event>
 9   1  0.7335000E-04  0.1004415E+04  0.7818608E-02  0.9303716E-01
       21   -1    0    0  503  502  0.00000000000E+00  0.00000000000E+00  0.11531274215E+04  0.11531274215E+04  0.00000000000E+00 0.  1.
       21   -1    0    0  502  503 -0.00000000000E+00 -0.00000000000E+00 -0.21872018052E+03  0.21872018052E+03  0.00000000000E+00 0. -1.
       39    2    1    2    0    0  0.28421709430E-13  0.28421709430E-13  0.93440724096E+03  0.13718476020E+04  0.10044147306E+04 0.  0.
       24    2    3    3    0    0 -0.13580181799E+03 -0.17086639321E+03 -0.14071894974E+03  0.27186781590E+03  0.80453889929E+02 0.  0.
      -24    2    3    3    0    0  0.13580181799E+03  0.17086639321E+03  0.10751261907E+04  0.10999797861E+04  0.80135795942E+02 0.  0.
      -13    1    4    4    0    0 -0.71163472327E+01 -0.63372418209E+02 -0.26904595428E+02  0.69213893423E+02  0.00000000000E+00 0.  1.
       14    1    4    4    0    0 -0.12868547075E+03 -0.10749397500E+03 -0.11381435432E+03  0.20265392247E+03  0.00000000000E+00 0. -1.
        1    1    5    5  501    0  0.33275945766E+02  0.43108010122E+02  0.13297454509E+03  0.14369348887E+03  0.00000000000E+00 0. -1.
       -2    1    5    5    0  501  0.10252587222E+03  0.12775838309E+03  0.94215164561E+03  0.95628629722E+03  0.00000000000E+00 0.  1.
</event>
<event>
 9   1  0.7335000E-04  0.9886629E+03  0.7818608E-02  0.9321067E-01
       21   -1    0    0  503  502  0.00000000000E+00  0.00000000000E+00  0.21167737088E+03  0.21167737088E+03  0.00000000000E+00 0.  1.
       21   -1    0    0  502  503 -0.00000000000E+00 -0.00000000000E+00 -0.11544152109E+04  0.11544152109E+04  0.00000000000E+00 0. -1.
       39    2    1    2    0    0  0.00000000000E+00  0.00000000000E+00 -0.94273784000E+03  0.13660925818E+04  0.98866288843E+03 0.  0.
       24    2    3    3    0    0 -0.39795407625E+03  0.10762909742E+03 -0.83129679000E+03  0.93111470739E+03  0.77257852840E+02 0.  0.
      -24    2    3    3    0    0  0.39795407625E+03 -0.10762909742E+03 -0.11144105000E+03  0.43497787437E+03  0.82675112008E+02 0.  0.
      -13    1    4    4    0    0 -0.30024631238E+03  0.60009312886E+02 -0.54890501833E+03  0.62852659839E+03  0.00000000000E+00 0.  1.
       14    1    4    4    0    0 -0.97707763874E+02  0.47619784539E+02 -0.28239177167E+03  0.30258810900E+03  0.00000000000E+00 0. -1.
        3    1    5    5  501    0  0.70536535131E+02 -0.53513901984E+02 -0.26440804019E+02  0.92402687250E+02  0.00000000000E+00 0. -1.
       -4    1    5    5    0  501  0.32741754112E+03 -0.54115195441E+02 -0.85000245979E+02  0.34257518712E+03  0.14200000000E+01 0.  1.
</event>
<event>
 9   1  0.7335000E-04  0.8894928E+03  0.7818608E-02  0.9438812E-01
       21   -1    0    0  503  502  0.00000000000E+00  0.00000000000E+00  0.19321643167E+04  0.19321643167E+04  0.00000000000E+00 0. -1.
       21   -1    0    0  502  503 -0.00000000000E+00 -0.00000000000E+00 -0.10237190892E+03  0.10237190892E+03  0.00000000000E+00 0.  1.
       39    2    1    2    0    0  0.14210854715E-13  0.00000000000E+00  0.18297924077E+04  0.20345362256E+04  0.88949277557E+03 0.  0.
       24    2    3    3    0    0 -0.53576276406E+02  0.29240643633E+02 -0.76104097912E+02  0.12592932123E+03  0.79629941557E+02 0.  0.
      -24    2    3    3    0    0  0.53576276406E+02 -0.29240643633E+02  0.19058965056E+04  0.19086069043E+04  0.81322767246E+02 0.  0.
      -13    1    4    4    0    0 -0.63126003722E+02  0.75753848731E+01 -0.79730506258E+02  0.10197662688E+03  0.00000000000E+00 0.  1.
       14    1    4    4    0    0  0.95497273161E+01  0.21665258760E+02  0.36264083469E+01  0.23952694346E+02  0.00000000000E+00 0. -1.
        3    1    5    5  501    0  0.32447111048E+02 -0.36359917524E+02  0.17848948350E+04  0.17855599767E+04  0.00000000000E+00 0. -1.
       -4    1    5    5    0  501  0.21129165358E+02  0.71192738913E+01  0.12100167068E+03  0.12304692762E+03  0.14200000000E+01 0.  1.
</event>
<event>
 9   1  0.7335000E-04  0.9973413E+03  0.7818608E-02  0.9311466E-01
        2   -1    0    0  501    0  0.00000000000E+00  0.00000000000E+00  0.41754818795E+04  0.41754818795E+04  0.00000000000E+00 0. -1.
       -2   -1    0    0    0  501 -0.00000000000E+00 -0.00000000000E+00 -0.59555385805E+02  0.59555385805E+02  0.00000000000E+00 0.  1.
       39    2    1    2    0    0  0.00000000000E+00  0.00000000000E+00  0.41159264937E+04  0.42350372653E+04  0.99734133425E+03 0.  0.
       24    2    3    3    0    0  0.98925162428E+02 -0.43178962684E+03  0.29684863234E+04  0.30023076755E+04  0.75576824224E+02 0.  0.
      -24    2    3    3    0    0 -0.98925162428E+02  0.43178962684E+03  0.11474401703E+04  0.12327295898E+04  0.82309341141E+02 0.  0.
      -13    1    4    4    0    0  0.21844587385E+02 -0.21503078217E+02  0.26743264501E+03  0.26918355817E+03  0.00000000000E+00 0.  1.
       14    1    4    4    0    0  0.77080575043E+02 -0.41028654862E+03  0.27010536784E+04  0.27331241173E+04  0.00000000000E+00 0. -1.
        1    1    5    5  502    0  0.35509720051E+01  0.56212052899E+02  0.93110439913E+02  0.10882076233E+03  0.00000000000E+00 0. -1.
       -2    1    5    5    0  502 -0.10247613443E+03  0.37557757394E+03  0.10543297304E+04  0.11239088275E+04  0.00000000000E+00 0.  1.
</event>
<event>
 9   1  0.7335000E-04  0.1006574E+04  0.7818608E-02  0.9301364E-01
       21   -1    0    0  503  502  0.00000000000E+00  0.00000000000E+00  0.88031123218E+03  0.88031123218E+03  0.00000000000E+00 0.  1.
       21   -1    0    0  502  503 -0.00000000000E+00 -0.00000000000E+00 -0.28773653817E+03  0.28773653817E+03  0.00000000000E+00 0. -1.
       39    2    1    2    0    0  0.00000000000E+00 -0.35527136788E-14  0.59257469401E+03  0.11680477703E+04  0.10065738055E+04 0.  0.
       24    2    3    3    0    0 -0.46420932843E+03 -0.27372451332E+02  0.98076962840E+02  0.48464132168E+03  0.94966143145E+02 0.  0.
      -24    2    3    3    0    0  0.46420932843E+03  0.27372451332E+02  0.49449773117E+03  0.68340644867E+03  0.79226360825E+02 0.  0.
      -13    1    4    4    0    0 -0.11222660729E+03  0.14592505383E+02 -0.11149095215E+02  0.11371919329E+03  0.00000000000E+00 0.  1.
       14    1    4    4    0    0 -0.35198272114E+03 -0.41964956716E+02  0.10922605805E+03  0.37092212839E+03  0.00000000000E+00 0. -1.
        3    1    5    5  501    0  0.26843933988E+02  0.21304235593E+02  0.33765287072E+02  0.48109893548E+02  0.00000000000E+00 0. -1.
       -4    1    5    5    0  501  0.43736539444E+03  0.60682157398E+01  0.46073244410E+03  0.63529655512E+03  0.14200000000E+01 0.  1.
</event>
<event>
 9   1  0.7335000E-04  0.1000148E+04  0.7818608E-02  0.9308383E-01
       21   -1    0    0  503  502  0.00000000000E+00  0.00000000000E+00  0.22062789606E+03  0.22062789606E+03  0.00000000000E+00 0.  1.
       21   -1    0    0  502  503 -0.00000000000E+00 -0.00000000000E+00 -0.11334648217E+04  0.11334648217E+04  0.00000000000E+00 0. -1.
       39    2    1    2    0    0 -0.56843418861E-13  0.56843418861E-13 -0.91283692561E+03  0.13540927177E+04  0.10001479068E+04 0.  0.
       24    2    3    3    0    0 -0.19651528492E+03  0.38310131659E+03 -0.78288647849E+03  0.89690409450E+03  0.78363515323E+02 0.  0.
      -24    2    3    3    0    0  0.19651528492E+03 -0.38310131659E+03 -0.12995044712E+03  0.45718862324E+03  0.82154990905E+02 0.  0.
      -13    1    4    4    0    0 -0.83441592231E+01  0.11031644924E+02 -0.57434880639E+01  0.14976976932E+02  0.00000000000E+00 0.  1.
       14    1    4    4    0    0 -0.18817112569E+03  0.37206967167E+03 -0.77714299043E+03  0.88192711756E+03  0.00000000000E+00 0. -1.
        1    1    5    5  501    0  0.53794734226E+02 -0.17099461287E+03 -0.81809012199E+02  0.19704249678E+03  0.00000000000E+00 0. -1.
       -2    1    5    5    0  501  0.14272055069E+03 -0.21210670372E+03 -0.48141434917E+02  0.26014612645E+03  0.00000000000E+00 0.  1.
</event>
<event>
 9   1  0.7335000E-04  0.9709298E+03  0.7818608E-02  0.9341016E-01
       21   -1    0    0  503  502  0.00000000000E+00  0.00000000000E+00  0.47249131425E+03  0.47249131425E+03  0.00000000000E+00 0. -1.
       21   -1    0    0  502  503 -0.00000000000E+00 -0.00000000000E+00 -0.49879467260E+03  0.49879467260E+03  0.00000000000E+00 0.  1.
       39    2    1    2    0    0 -0.28421709430E-13 -0.14210854715E-13 -0.26303358350E+02  0.97128598686E+03  0.97092976142E+03 0.  0.
       24    2    3    3    0    0 -0.18988766593E+03 -0.70377932236E+02  0.42092023388E+03  0.47370562746E+03  0.78821311695E+02 0.  0.
      -24    2    3    3    0    0  0.18988766593E+03  0.70377932236E+02 -0.44722359223E+03  0.49758035940E+03  0.81036372056E+02 0.  0.
      -13    1    4    4    0    0 -0.10348386851E+03 -0.23862515437E+02  0.29838726471E+03  0.31672273431E+03  0.00000000000E+00 0.  1.
       14    1    4    4    0    0 -0.86403797422E+02 -0.46515416799E+02  0.12253296916E+03  0.15698289315E+03  0.00000000000E+00 0. -1.
        3    1    5    5  501    0  0.37013118893E+02 -0.93819191915E+01 -0.14169767162E+03  0.14675224536E+03  0.00000000000E+00 0. -1.
       -4    1    5    5    0  501  0.15287454704E+03  0.79759851428E+02 -0.30552592061E+03  0.35082811404E+03  0.14200000000E+01 0.  1.
</event>
<event>
 9   1  0.7335000E-04  0.9829354E+03  0.7818608E-02  0.9327462E-01
       -2   -1    0    0    0  501 -0.00000000000E+00  0.00000000000E+00  0.51222407684E+03  0.51222407684E+03  0.00000000000E+00 0.  1.
        2   -1    0    0  501    0  0.00000000000E+00 -0.00000000000E+00 -0.47155240464E+03  0.47155240464E+03  0.00000000000E+00 0. -1.
       39    2    1    2    0    0  0.56843418861E-13  0.11368683772E-12  0.40671672199E+02  0.98377648147E+03  0.98293538983E+03 0.  0.
       24    2    3    3    0    0 -0.31330533269E+03 -0.34278527339E+03  0.16063045716E+03  0.49791293033E+03  0.80331608181E+02 0.  0.
      -24    2    3    3    0    0  0.31330533269E+03  0.34278527339E+03 -0.11995878496E+03  0.48586355115E+03  0.77532606664E+02 0.  0.
      -13    1    4    4    0    0 -0.42942417534E+02 -0.40834917901E+02 -0.62745534395E+01  0.59589527306E+02  0.00000000000E+00 0.  1.
       14    1    4    4    0    0 -0.27036291516E+03 -0.30195035549E+03  0.16690501060E+03  0.43832340302E+03  0.00000000000E+00 0. -1.
        1    1    5    5  502    0  0.45506854671E+02  0.59715012548E+02 -0.49350178385E+02  0.89845404180E+02  0.00000000000E+00 0. -1.
       -2    1    5    5    0  502  0.26779847802E+03  0.28307026084E+03 -0.70608606579E+02  0.39601814697E+03  0.00000000000E+00 0.  1.
</event>
<event>
 9   1  0.7335000E-04  0.1030866E+04  0.7818608E-02  0.9275324E-01
       21   -1    0    0  503  502  0.00000000000E+00  0.00000000000E+00  0.65904578082E+03  0.65904578082E+03  0.00000000000E+00 0.  1.
       21   -1    0    0  502  503 -0.00000000000E+00 -0.00000000000E+00 -0.40311529141E+03  0.40311529141E+03  0.00000000000E+00 0. -1.
       39    2    1    2    0    0 -0.35527136788E-14  0.00000000000E+00  0.25593048942E+03  0.10621610722E+04  0.10308664938E+04 0.  0.
       24    2    3    3    0    0  0.24381473638E+02 -0.30551710877E+03  0.54654016360E+03  0.63223301667E+03  0.84126553056E+02 0.  0.
      -24    2    3    3    0    0 -0.24381473638E+02  0.30551710877E+03 -0.29060967418E+03  0.42992805556E+03  0.80305605148E+02 0.  0.
      -13    1    4    4    0    0  0.52558849531E+02 -0.22141607001E+03  0.36395073767E+03  0.42924078111E+03  0.00000000000E+00 0.  1.
       14    1    4    4    0    0 -0.28177375893E+02 -0.84101038763E+02  0.18258942594E+03  0.20299223556E+03  0.00000000000E+00 0. -1.
        3    1    5    5  501    0  0.46219625348E+01  0.18198806638E+03 -0.21691880348E+03  0.28318683965E+03  0.00000000000E+00 0. -1.
       -4    1    5    5    0  501 -0.29003436173E+02  0.12352904239E+03 -0.73690870702E+02  0.14674121591E+03  0.14200000000E+01 0.  1.
</event>
<event>
 9   1  0.7335000E-04  0.9987599E+03  0.7818608E-02  0.9309906E-01
        2   -1    0    0  501    0  0.00000000000E+00  0.00000000000E+00  0.11238468431E+04  0.11238468431E+04  0.00000000000E+00 0. -1.
       -2   -1    0    0    0  501 -0.00000000000E+00 -0.00000000000E+00 -0.22189884202E+03  0.22189884202E+03  0.00000000000E+00 0.  1.
       39    2    1    2    0    0  0.00000000000E+00  0.00000000000E+00  0.90194800112E+03  0.13457456852E+04  0.99875985722E+03 0.  0.
       24    2    3    3    0    0 -0.29141733507E+03 -0.14228534300E+03  0.95144180178E+03  0.10082748642E+04  0.78787800371E+02 0.  0.
      -24    2    3    3    0    0  0.29141733507E+03  0.14228534300E+03 -0.49493800665E+02  0.33747082101E+03  0.79169038846E+02 0.  0.
      -13    1    4    4    0    0 -0.23931236410E+03 -0.87256381196E+02  0.66931553996E+03  0.71614759352E+03  0.00000000000E+00 0.  1.
       14    1    4    4    0    0 -0.52104970970E+02 -0.55028961805E+02  0.28212626182E+03  0.29212727063E+03  0.00000000000E+00 0. -1.
        3    1    5    5  502    0  0.85064419886E+02  0.73415037816E+02 -0.41480819106E+02  0.11977638190E+03  0.00000000000E+00 0. -1.
       -4    1    5    5    0  502  0.20635291519E+03  0.68870305185E+02 -0.80129815586E+01  0.21769443910E+03  0.14200000000E+01 0.  1.
</event>
<event>
 9   1  0.7335000E-04  0.9396451E+03  0.7818608E-02  0.9377336E-01
       21   -1    0    0  503  502  0.00000000000E+00  0.00000000000E+00  0.12543034827E+03  0.12543034827E+03  0.00000000000E+00 0.  1.
       21   -1    0    0  502  503 -0.00000000000E+00 -0.00000000000E+00 -0.17598071154E+04  0.17598071154E+04  0.00000000000E+00 0. -1.
       39    2    1    2    0    0  0.14210854715E-13  0.00000000000E+00 -0.16343767671E+04  0.18852374636E+04  0.93964508060E+03 0.  0.
       24    2    3    3    0    0  0.10350064299E+03 -0.29312672578E+03 -0.12780696689E+03  0.34557357074E+03  0.80316944315E+02 0.  0.
      -24    2    3    3    0    0 -0.10350064299E+03  0.29312672578E+03 -0.15065698002E+04  0.15396638929E+04  0.64627236782E+02 0.  0.
      -13    1    4    4    0    0  0.10480700833E+03 -0.20509669566E+03 -0.71912389486E+02  0.24128936016E+03  0.00000000000E+00 0.  1.
       14    1    4    4    0    0 -0.13063653417E+01 -0.88030030121E+02 -0.55894577400E+02  0.10428421058E+03  0.00000000000E+00 0. -1.
        3    1    5    5  501    0 -0.32661996592E+01  0.71961223374E+02 -0.43516500072E+03  0.44108691159E+03  0.00000000000E+00 0. -1.
       -4    1    5    5    0  501 -0.10023444333E+03  0.22116550241E+03 -0.10714047995E+04  0.10985769813E+04  0.14200000000E+01 0.  1.
</event>
<event>
 9   1  0.7335000E-04  0.1002387E+04  0.7818608E-02  0.9305931E-01
       21   -1    0    0  503  502  0.00000000000E+00  0.00000000000E+00  0.12901792354E+03  0.12901792354E+03  0.00000000000E+00 0.  1.
       21   -1    0    0  502  503 -0.00000000000E+00 -0.00000000000E+00 -0.19469754819E+04  0.19469754819E+04  0.00000000000E+00 0. -1.
       39    2    1    2    0    0  0.56843418861E-13  0.00000000000E+00 -0.18179575584E+04  0.20759934055E+04  0.10023866197E+04 0.  0.
       24    2    3    3    0    0  0.37742449622E+03  0.19642994853E+03 -0.38625507230E+03  0.58031781302E+03  0.80881445338E+02 0.  0.
      -24    2    3    3    0    0 -0.37742449622E+03 -0.19642994853E+03 -0.14317024861E+04  0.14956755925E+04  0.78990468643E+02 0.  0.
      -13    1    4    4    0    0  0.21339741603E+03  0.81898329648E+02 -0.16421865359E+03  0.28144903580E+03  0.00000000000E+00 0.  1.
       14    1    4    4    0    0  0.16402708019E+03  0.11453161888E+03 -0.22203641872E+03  0.29886877722E+03  0.00000000000E+00 0. -1.
        3    1    5    5  501    0 -0.24901898463E+03 -0.17030046181E+03 -0.99099940842E+03  0.10359017953E+04  0.00000000000E+00 0. -1.
       -4    1    5    5    0  501 -0.12840551159E+03 -0.26129486724E+02 -0.44070307768E+03  0.45977379716E+03  0.14200000000E+01 0.  1.
</event>
<event>
 9   1  0.7335000E-04  0.9624827E+03  0.7818608E-02  0.9350678E-01
       21   -1    0    0  503  502  0.00000000000E+00  0.00000000000E+00  0.33596138361E+03  0.33596138361E+03  0.00000000000E+00 0. -1.
       21   -1    0    0  502  503 -0.00000000000E+00 -0.00000000000E+00 -0.68934474644E+03  0.68934474644E+03  0.00000000000E+00 0.  1.
       39    2    1    2    0    0  0.14210854715E-13  0.00000000000E+00 -0.35338336283E+03  0.10253061300E+04  0.96248265397E+03 0.  0.
       24    2    3    3    0    0 -0.93930920705E+02 -0.32401042483E+03 -0.53251339538E+03  0.63554672038E+03  0.80890940564E+02 0.  0.
      -24    2    3    3    0    0  0.93930920705E+02  0.32401042483E+03  0.17913003255E+03  0.38975940967E+03  0.77582572805E+02 0.  0.
      -13    1    4    4    0    0 -0.85930565381E+02 -0.27525529520E+03 -0.49737471862E+03  0.57491838580E+03  0.00000000000E+00 0.  1.
       14    1    4    4    0    0 -0.80003553236E+01 -0.48755129624E+02 -0.35138676761E+02  0.60628334584E+02  0.00000000000E+00 0. -1.
        3    1    5    5  501    0 -0.41926785508E+01  0.57953599592E+02  0.55677464254E+02  0.80474705870E+02  0.00000000000E+00 0. -1.
       -4    1    5    5    0  501  0.98123599255E+02  0.26605682523E+03  0.12345256830E+03  0.30928470380E+03  0.14200000000E+01 0.  1.
</event>
<event>
 9   1  0.7335000E-04  0.9939570E+03  0.7818608E-02  0.9315198E-01
       -2   -1    0    0    0  501 -0.00000000000E+00  0.00000000000E+00  0.11771940400E+03  0.11771940400E+03  0.00000000000E+00 0.  1.
        2   -1    0    0  501    0  0.00000000000E+00 -0.00000000000E+00 -0.20981045556E+04  0.20981045556E+04  0.00000000000E+00 0. -1.
       39    2    1    2    0    0  0.00000000000E+00 -0.56843418861E-13 -0.19803851516E+04  0.22158239596E+04  0.99395697656E+03 0.  0.
       24    2    3    3    0    0  0.21125424220E+03  0.41820746828E+03 -0.13148160313E+04  0.13980664728E+04  0.79516190832E+02 0.  0.
      -24    2    3    3    0    0 -0.21125424220E+03 -0.41820746828E+03 -0.66556912026E+03  0.81775748684E+03  0.78861981133E+02 0.  0.
      -13    1    4    4    0    0  0.57817091338E+02  0.18929837167E+03 -0.49163244319E+03  0.52998032866E+03  0.00000000000E+00 0.  1.
       14    1    4    4    0    0  0.15343715086E+03  0.22890909661E+03 -0.82318358814E+03  0.86808614409E+03  0.00000000000E+00 0. -1.
        1    1    5    5  502    0 -0.69630397625E+02 -0.15785807135E+03 -0.31082631450E+03  0.35550043706E+03  0.00000000000E+00 0. -1.
       -2    1    5    5    0  502 -0.14162384457E+03 -0.26034939693E+03 -0.35474280576E+03  0.46225704978E+03  0.00000000000E+00 0.  1.
</event>
<event>
 9   1  0.7335000E-04  0.1013152E+04  0.7818608E-02  0.9294236E-01
        2   -1    0    0  501    0  0.00000000000E+00  0.00000000000E+00  0.48399875472E+03  0.48399875472E+03  0.00000000000E+00 0.  1.
       -2   -1    0    0    0  501 -0.00000000000E+00 -0.00000000000E+00 -0.53020669800E+03  0.53020669800E+03  0.00000000000E+00 0. -1.
       39    2    1    2    0    0  0.00000000000E+00 -0.28421709430E-13 -0.46207943276E+02  0.10142054527E+04  0.10131522720E+04 0.  0.
       24    2    3    3    0    0 -0.19382596739E+03  0.15843847332E+03 -0.45642539688E+03  0.52686050952E+03  0.81157859183E+02 0.  0.
      -24    2    3    3    0    0  0.19382596739E+03 -0.15843847332E+03  0.41021745361E+03  0.48734494320E+03  0.80965912328E+02 0.  0.
      -13    1    4    4    0    0 -0.11347507182E+03  0.41744939550E+02 -0.19285418642E+03  0.22762242667E+03  0.00000000000E+00 0.  1.
       14    1    4    4    0    0 -0.80350895571E+02  0.11669353377E+03 -0.26357121046E+03  0.29923808285E+03  0.00000000000E+00 0. -1.
        3    1    5    5  502    0  0.15585957244E+03 -0.14708021486E+03  0.28886162549E+03  0.35967462324E+03  0.00000000000E+00 0. -1.
       -4    1    5    5    0  502  0.37966394950E+02 -0.11358258462E+02  0.12135582812E+03  0.12767031996E+03  0.14200000000E+01 0.  1.
</event>
<event>
 9   1  0.7335000E-04  0.1013976E+04  0.7818608E-02  0.9293348E-01
       21   -1    0    0  503  502  0.00000000000E+00  0.00000000000E+00  0.63381726864E+03  0.63381726864E+03  0.00000000000E+00 0.  1.
       21   -1    0    0  502  503 -0.00000000000E+00 -0.00000000000E+00 -0.40553770515E+03  0.40553770515E+03  0.00000000000E+00 0. -1.
       39    2    1    2    0    0  0.00000000000E+00  0.00000000000E+00  0.22827956349E+03  0.10393549738E+04  0.10139759378E+04 0.  0.
       24    2    3    3    0    0  0.22969107994E+03 -0.55465413563E+02  0.56739954769E+03  0.61875075516E+03  0.71244971681E+02 0.  0.
      -24    2    3    3    0    0 -0.22969107994E+03  0.55465413563E+02 -0.33911998420E+03  0.42060421864E+03  0.77917525269E+02 0.  0.
      -13    1    4    4    0    0  0.21595859071E+03 -0.41773891704E+02  0.46335149805E+03  0.51291108555E+03  0.00000000000E+00 0.  1.
       14    1    4    4    0    0  0.13732489235E+02 -0.13691521860E+02  0.10404804964E+03  0.10583966962E+03  0.00000000000E+00 0. -1.
        3    1    5    5  501    0 -0.14505594281E+03 -0.28464044553E+01 -0.18031356198E+03  0.23143532401E+03  0.00000000000E+00 0. -1.
       -4    1    5    5    0  501 -0.84635137129E+02  0.58311818019E+02 -0.15880642222E+03  0.18916889463E+03  0.14200000000E+01 0.  1.
</event>
<event>
 9   1  0.7335000E-04  0.9995403E+03  0.7818608E-02  0.9309049E-01
       21   -1    0    0  503  502  0.00000000000E+00  0.00000000000E+00  0.93361075329E+03  0.93361075329E+03  0.00000000000E+00 0.  1.
       21   -1    0    0  502  503 -0.00000000000E+00 -0.00000000000E+00 -0.26753140031E+03  0.26753140031E+03  0.00000000000E+00 0. -1.
       39    2    1    2    0    0  0.28421709430E-13  0.00000000000E+00  0.66607935298E+03  0.12011421536E+04  0.99954027867E+03 0.  0.
       24    2    3    3    0    0  0.21461232046E+03  0.34920517321E+02 -0.19902159944E+03  0.30542992795E+03  0.79999707609E+02 0.  0.
      -24    2    3    3    0    0 -0.21461232046E+03 -0.34920517321E+02  0.86510095243E+03  0.89571222565E+03  0.81380849499E+02 0.  0.
      -13    1    4    4    0    0  0.14877598026E+03  0.36828032563E+02 -0.89092195188E+02  0.17727948423E+03  0.00000000000E+00 0.  1.
       14    1    4    4    0    0  0.65836340199E+02 -0.19075152417E+01 -0.10992940426E+03  0.12815044372E+03  0.00000000000E+00 0. -1.
        3    1    5    5  501    0 -0.10007031119E+03 -0.18943720892E+02  0.25210602676E+03  0.27190141682E+03  0.00000000000E+00 0. -1.
       -4    1    5    5    0  501 -0.11454200927E+03 -0.15976796429E+02  0.61299492567E+03  0.62381080883E+03  0.14200000000E+01 0.  1.
</event>
<event>
 9   1  0.7335000E-04  0.9867248E+03  0.7818608E-02  0.9323226E-01
       -1   -1    0    0    0  501 -0.00000000000E+00  0.00000000000E+00  0.15935573569E+03  0.15935573569E+03  0.00000000000E+00 0. -1.
        1   -1    0    0  501    0  0.00000000000E+00 -0.00000000000E+00 -0.15274407833E+04  0.15274407833E+04  0.00000000000E+00 0.  1.
       39    2    1    2    0    0  0.28421709430E-13  0.00000000000E+00 -0.13680850476E+04  0.16867965190E+04  0.98672478381E+03 0.  0.
       24    2    3    3    0    0  0.24609787513E+03 -0.31710028573E+03 -0.11496214976E+04  0.12202766879E+04  0.79554082185E+02 0.  0.
      -24    2    3    3    0    0 -0.24609787513E+03  0.31710028573E+03 -0.21846355003E+03  0.46651983109E+03  0.93795920751E+02 0.  0.
      -13    1    4    4    0    0  0.15657833368E+03 -0.19932611960E+03 -0.83475564238E+03  0.87239019883E+03  0.00000000000E+00 0.  1.
       14    1    4    4    0    0  0.89519541454E+02 -0.11777416613E+03 -0.31486585521E+03  0.34788648908E+03  0.00000000000E+00 0. -1.
        3    1    5    5  502    0 -0.11076581704E+03  0.20275114554E+03 -0.91255277446E+02  0.24840414430E+03  0.00000000000E+00 0. -1.
       -4    1    5    5    0  502 -0.13533205809E+03  0.11434914019E+03 -0.12720827259E+03  0.21811568679E+03  0.14200000000E+01 0.  1.
</event>
<event>
 9   1  0.7335000E-04  0.9985966E+03  0.7818608E-02  0.9310085E-01
       21   -1    0    0  503  502  0.00000000000E+00  0.00000000000E+00  0.47554558227E+03  0.47554558227E+03  0.00000000000E+00 0. -1.
       21   -1    0    0  502  503 -0.00000000000E+00 -0.00000000000E+00 -0.52423743452E+03  0.52423743452E+03  0.00000000000E+00 0.  1.
       39    2    1    2    0    0  0.00000000000E+00 -0.28421709430E-13 -0.48691852249E+02  0.99978301679E+03  0.99859660734E+03 0.  0.
       24    2    3    3    0    0 -0.11338708911E+03  0.14486592096E+03  0.43326348716E+03  0.47778809075E+03  0.81984409072E+02 0.  0.
      -24    2    3    3    0    0  0.11338708911E+03 -0.14486592096E+03 -0.48195533941E+03  0.52199492604E+03  0.79718169791E+02 0.  0.
      -13    1    4    4    0    0 -0.72874032135E+01  0.24963137911E+02  0.15214368418E+02  0.30128748834E+02  0.00000000000E+00 0.  1.
       14    1    4    4    0    0 -0.10609968589E+03  0.11990278305E+03  0.41804911874E+03  0.44765934192E+03  0.00000000000E+00 0. -1.
        1    1    5    5  501    0  0.20213801104E+02 -0.76353635631E+02 -0.13661810060E+03  0.15780678325E+03  0.00000000000E+00 0. -1.
       -2    1    5    5    0  501  0.93173288003E+02 -0.68512285333E+02 -0.34533723881E+03  0.36418814279E+03  0.00000000000E+00 0.  1.
</event>
<event>
 9   1  0.7335000E-04  0.1020767E+04  0.7818608E-02  0.9286057E-01
       -1   -1    0    0    0  501 -0.00000000000E+00  0.00000000000E+00  0.44830989883E+03  0.44830989883E+03  0.00000000000E+00 0. -1.
        1   -1    0    0  501    0  0.00000000000E+00 -0.00000000000E+00 -0.58105177643E+03  0.58105177643E+03  0.00000000000E+00 0.  1.
       39    2    1    2    0    0 -0.56843418861E-13  0.00000000000E+00 -0.13274187759E+03  0.10293616753E+04  0.10207668943E+04 0.  0.
       24    2    3    3    0    0 -0.40637335732E+03  0.13123127943E+03  0.20344230167E+03  0.47992710975E+03  0.81119087330E+02 0.  0.
      -24    2    3    3    0    0  0.40637335732E+03 -0.13123127943E+03 -0.33618417926E+03  0.54943456550E+03  0.80607599811E+02 0.  0.
      -13    1    4    4    0    0 -0.32838418603E+02  0.31452371711E+01  0.41774847023E+02  0.53229616729E+02  0.00000000000E+00 0.  1.
       14    1    4    4    0    0 -0.37353493872E+03  0.12808604226E+03  0.16166745464E+03  0.42669749303E+03  0.00000000000E+00 0. -1.
        3    1    5    5  502    0  0.23008549655E+03 -0.61486545862E+02 -0.13837150680E+03  0.27543893141E+03  0.00000000000E+00 0. -1.
       -4    1    5    5    0  502  0.17628786077E+03 -0.69744733571E+02 -0.19781267246E+03  0.27399563409E+03  0.14200000000E+01 0.  1.
</event>
<event>
 9   1  0.7335000E-04  0.1001485E+04  0.7818608E-02  0.9306917E-01
       21   -1    0    0  503  502  0.00000000000E+00  0.00000000000E+00  0.43716867344E+03  0.43716867344E+03  0.00000000000E+00 0. -1.
       21   -1    0    0  502  503 -0.00000000000E+00 -0.00000000000E+00 -0.57356149961E+03  0.57356149961E+03  0.00000000000E+00 0.  1.
       39    2    1    2    0    0 -0.28421709430E-13  0.11368683772E-12 -0.13639282617E+03  0.10107301731E+04  0.10014851370E+04 0.  0.
       24    2    3    3    0    0 -0.24148833129E+03  0.32867680342E+03 -0.34929668888E+03  0.54269159712E+03  0.78491639487E+02 0.  0.
      -24    2    3    3    0    0  0.24148833129E+03 -0.32867680342E+03  0.21290386270E+03  0.46803857594E+03  0.85947650088E+02 0.  0.
      -13    1    4    4    0    0 -0.12060631540E+03  0.21821909739E+03 -0.23810429286E+03  0.34475949887E+03  0.00000000000E+00 0.  1.
       14    1    4    4    0    0 -0.12088201589E+03  0.11045770603E+03 -0.11119239601E+03  0.19793209825E+03  0.00000000000E+00 0. -1.
        3    1    5    5  501    0  0.22260138790E+03 -0.32713686821E+03  0.19207558121E+03  0.43984421939E+03  0.00000000000E+00 0. -1.
       -4    1    5    5    0  501  0.18886943384E+02 -0.15399352123E+01  0.20828281492E+02  0.28194356541E+02  0.14200000000E+01 0.  1.
</event>
<event>
 9   1  0.7335000E-04  0.9924205E+03  0.7818608E-02  0.9316897E-01
       21   -1    0    0  503  502  0.00000000000E+00  0.00000000000E+00  0.70282023664E+03  0.70282023664E+03  0.00000000000E+00 0. -1.
       21   -1    0    0  502  503 -0.00000000000E+00 -0.00000000000E+00 -0.35033797361E+03  0.35033797361E+03  0.00000000000E+00 0.  1.
       39    2    1    2    0    0  0.00000000000E+00  0.28421709430E-13  0.35248226303E+03  0.10531582103E+04  0.99242051071E+03 0.  0.
       24    2    3    3    0    0 -0.33699238247E+02 -0.23995054496E+03  0.62795874229E+03  0.67781738607E+03  0.79952011617E+02 0.  0.
      -24    2    3    3    0    0  0.33699238247E+02  0.23995054496E+03 -0.27547647926E+03  0.37534082418E+03  0.79256173188E+02 0.  0.
      -13    1    4    4    0    0  0.94318029499E+01 -0.10152910688E+02  0.99536515480E+01  0.17062112456E+02  0.00000000000E+00 0.  1.
       14    1    4    4    0    0 -0.43131041197E+02 -0.22979763427E+03  0.61800509074E+03  0.66075527361E+03  0.00000000000E+00 0. -1.
        3    1    5    5  501    0  0.54131735392E+01  0.63311487866E+02 -0.26707789030E+02  0.68927156755E+02  0.00000000000E+00 0. -1.
       -4    1    5    5    0  501  0.28286064708E+02  0.17663905709E+03 -0.24876869023E+03  0.30641366743E+03  0.14200000000E+01 0.  1.
</event>
<event>
 9   1  0.7335000E-04  0.1060591E+04  0.7818608E-02  0.9244477E-01
       21   -1    0    0  503  502  0.00000000000E+00  0.00000000000E+00  0.15992825987E+04  0.15992825987E+04  0.00000000000E+00 0.  1.
       21   -1    0    0  502  503 -0.00000000000E+00 -0.00000000000E+00 -0.17583711826E+03  0.17583711826E+03  0.00000000000E+00 0. -1.
       39    2    1    2    0    0  0.00000000000E+00  0.00000000000E+00  0.14234454804E+04  0.17751197170E+04  0.10605908607E+04 0.  0.
       24    2    3    3    0    0  0.34956027151E+03  0.38961841378E+03  0.66576430795E+03  0.85070282299E+03  0.80363471441E+02 0.  0.
      -24    2    3    3    0    0 -0.34956027151E+03 -0.38961841378E+03  0.75768117248E+03  0.92441689396E+03  0.80442171320E+02 0.  0.
      -13    1    4    4    0    0  0.13907023527E+02  0.44410286491E+02  0.78846951974E+02  0.91556106761E+02  0.00000000000E+00 0.  1.
       14    1    4    4    0    0  0.33565324798E+03  0.34520812729E+03  0.58691735597E+03  0.75914671623E+03  0.00000000000E+00 0. -1.
        1    1    5    5  501    0 -0.14302251771E+03 -0.12199379667E+03  0.22095585530E+03  0.29010242499E+03  0.00000000000E+00 0. -1.
       -2    1    5    5    0  501 -0.20653775380E+03 -0.26762461711E+03  0.53672531719E+03  0.63431446896E+03  0.00000000000E+00 0.  1.
</event>
<event>
 9   1  0.7335000E-04  0.9854068E+03  0.7818608E-02  0.9324697E-01
       21   -1    0    0  503  502  0.00000000000E+00  0.00000000000E+00  0.84239040573E+03  0.84239040573E+03  0.00000000000E+00 0.  1.
       21   -1    0    0  502  503 -0.00000000000E+00 -0.00000000000E+00 -0.28817595345E+03  0.28817595345E+03  0.00000000000E+00 0. -1.
       39    2    1    2    0    0  0.00000000000E+00  0.00000000000E+00  0.55421445228E+03  0.11305663592E+04  0.98540683649E+03 0.  0.
       24    2    3    3    0    0  0.19449302591E+03 -0.14256299456E+03 -0.20725375199E+03  0.32790921397E+03  0.80116105382E+02 0.  0.
      -24    2    3    3    0    0 -0.19449302591E+03  0.14256299456E+03  0.76146820427E+03  0.80265714521E+03  0.79201780939E+02 0.  0.
      -13    1    4    4    0    0  0.14969617159E+03 -0.62284454885E+02 -0.12950041367E+03  0.20750579329E+03  0.00000000000E+00 0.  1.
       14    1    4    4    0    0  0.44796854326E+02 -0.80278539678E+02 -0.77753338327E+02  0.12040342068E+03  0.00000000000E+00 0. -1.
        3    1    5    5  501    0 -0.55241263277E+02  0.80944275875E+02  0.23519487568E+03  0.25479443186E+03  0.00000000000E+00 0. -1.
       -4    1    5    5    0  501 -0.13925176264E+03  0.61618718688E+02  0.52627332859E+03  0.54786271335E+03  0.14200000000E+01 0.  1.
</event>
<event>
 9   1  0.7335000E-04  0.9881901E+03  0.7818608E-02  0.9321593E-01
       21   -1    0    0  503  502  0.00000000000E+00  0.00000000000E+00  0.40655566077E+03  0.40655566077E+03  0.00000000000E+00 0. -1.
       21   -1    0    0  502  503 -0.00000000000E+00 -0.00000000000E+00 -0.60048340454E+03  0.60048340454E+03  0.00000000000E+00 0.  1.
       39    2    1    2    0    0 -0.11368683772E-12  0.14210854715E-13 -0.19392774377E+03  0.10070390653E+04  0.98819011797E+03 0.  0.
       24    2    3    3    0    0 -0.43105031547E+03  0.49215494179E+02  0.12928156725E+03  0.45974746598E+03  0.80171500602E+02 0.  0.
      -24    2    3    3    0    0  0.43105031547E+03 -0.49215494179E+02 -0.32320931102E+03  0.54729159933E+03  0.82687947354E+02 0.  0.
      -13    1    4    4    0    0 -0.19682995817E+03 -0.16522742516E+02  0.48173477918E+02  0.20331187232E+03  0.00000000000E+00 0.  1.
       14    1    4    4    0    0 -0.23422035730E+03  0.65738236694E+02  0.81108089333E+02  0.25643559365E+03  0.00000000000E+00 0. -1.
        3    1    5    5  501    0  0.28246647691E+02 -0.11827402152E+02 -0.19080042276E+01  0.30682259167E+02  0.00000000000E+00 0. -1.
       -4    1    5    5    0  501  0.40280366778E+03 -0.37388092027E+02 -0.32130130679E+03  0.51660934017E+03  0.14200000000E+01 0.  1.
</event>
<event>
 9   1  0.7335000E-04  0.9986692E+03  0.7818608E-02  0.9310006E-01
       21   -1    0    0  503  502  0.00000000000E+00  0.00000000000E+00  0.31642650713E+03  0.31642650713E+03  0.00000000000E+00 0.  1.
       21   -1    0    0  502  503 -0.00000000000E+00 -0.00000000000E+00 -0.78797147821E+03  0.78797147821E+03  0.00000000000E+00 0. -1.
       39    2    1    2    0    0 -0.56843418861E-13  0.00000000000E+00 -0.47154497108E+03  0.11043979853E+04  0.99866923968E+03 0.  0.
       24    2    3    3    0    0  0.43363540674E+03  0.19438090808E+03 -0.83171877804E+02  0.48843243284E+03  0.76322190643E+02 0.  0.
      -24    2    3    3    0    0 -0.43363540674E+03 -0.19438090808E+03 -0.38837309328E+03  0.61596555251E+03  0.52500465631E+02 0.  0.
      -13    1    4    4    0    0  0.15668808465E+03  0.93547833959E+02 -0.11234637897E+01  0.18249278145E+03  0.00000000000E+00 0.  1.
       14    1    4    4    0    0  0.27694732209E+03  0.10083307412E+03 -0.82048414015E+02  0.30593965139E+03  0.00000000000E+00 0. -1.
        3    1    5    5  501    0 -0.73656623005E+02 -0.34369523735E+02 -0.93483691743E+02  0.12387801619E+03  0.00000000000E+00 0. -1.
       -4    1    5    5    0  501 -0.35997878373E+03 -0.16001138435E+03 -0.29488940153E+03  0.49208753631E+03  0.14200000000E+01 0.  1.
</event>
<event>
 9   1  0.7335000E-04  0.9913765E+03  0.7818608E-02  0.9318054E-01
       21   -1    0    0  503  502  0.00000000000E+00  0.00000000000E+00  0.29409384656E+03  0.29409384656E+03  0.00000000000E+00 0. -1.
       21   -1    0    0  502  503 -0.00000000000E+00 -0.00000000000E+00 -0.83547086572E+03  0.83547086572E+03  0.00000000000E+00 0.  1.
       39    2    1    2    0    0  0.56843418861E-13  0.28421709430E-13 -0.54137701916E+03  0.11295647123E+04  0.99137649879E+03 0.  0.
       24    2    3    3    0    0 -0.44278282881E+03 -0.17714093772E+03 -0.39788684859E+03  0.62631523095E+03  0.80754436016E+02 0.  0.
      -24    2    3    3    0    0  0.44278282881E+03  0.17714093772E+03 -0.14349017057E+03  0.50324948133E+03  0.72353756686E+02 0.  0.
      -13    1    4    4    0    0 -0.44285020361E+03 -0.16828647595E+03 -0.38392746645E+03  0.60978433919E+03  0.00000000000E+00 0.  1.
       14    1    4    4    0    0  0.67374804774E-01 -0.88544617735E+01 -0.13959382142E+02  0.16530891762E+02  0.00000000000E+00 0. -1.
        3    1    5    5  501    0  0.27087154383E+03  0.14427507658E+03 -0.81118515654E+02  0.31743803263E+03  0.00000000000E+00 0. -1.
       -4    1    5    5    0  501  0.17191128498E+03  0.32865861143E+02 -0.62371654919E+02  0.18581144870E+03  0.14200000000E+01 0.  1.
</event>
<event>
 9   1  0.7335000E-04  0.1004410E+04  0.7818608E-02  0.9303721E-01
       21   -1    0    0  503  502  0.00000000000E+00  0.00000000000E+00  0.51211401973E+03  0.51211401973E+03  0.00000000000E+00 0. -1.
       21   -1    0    0  502  503 -0.00000000000E+00 -0.00000000000E+00 -0.49248760837E+03  0.49248760837E+03  0.00000000000E+00 0.  1.
       39    2    1    2    0    0  0.00000000000E+00  0.00000000000E+00  0.19626411364E+02  0.10046016281E+04  0.10044098940E+04 0.  0.
       24    2    3    3    0    0  0.33239403139E+03 -0.86727866026E+01  0.37745361041E+03  0.50934927576E+03  0.80027791271E+02 0.  0.
      -24    2    3    3    0    0 -0.33239403139E+03  0.86727866026E+01 -0.35782719905E+03  0.49525235234E+03  0.81691975058E+02 0.  0.
      -13    1    4    4    0    0  0.10041669583E+02  0.54488138912E+01 -0.16286594284E+01  0.11540244034E+02  0.00000000000E+00 0.  1.
       14    1    4    4    0    0  0.32235236180E+03 -0.14121600494E+02  0.37908226984E+03  0.49780903172E+03  0.00000000000E+00 0. -1.
        1    1    5    5  501    0 -0.26591551887E+03 -0.28318446683E+01 -0.23393651830E+03  0.35418268890E+03  0.00000000000E+00 0. -1.
       -2    1    5    5    0  501 -0.66478512512E+02  0.11504631271E+02 -0.12389068074E+03  0.14106966343E+03  0.00000000000E+00 0.  1.
</event>
<event>
 9   1  0.7335000E-04  0.1001049E+04  0.7818608E-02  0.9307395E-01
       21   -1    0    0  503  502  0.00000000000E+00  0.00000000000E+00  0.73093058855E+03  0.73093058855E+03  0.00000000000E+00 0.  1.
       21   -1    0    0  502  503 -0.00000000000E+00 -0.00000000000E+00 -0.34274799650E+03  0.34274799650E+03  0.00000000000E+00 0. -1.
       39    2    1    2    0    0 -0.28421709430E-13  0.00000000000E+00  0.38818259205E+03  0.10736785850E+04  0.10010494389E+04 0.  0.
       24    2    3    3    0    0 -0.88495471634E+02  0.76077731897E+02  0.70930736942E+03  0.72308478711E+03  0.78200992578E+02 0.  0.
      -24    2    3    3    0    0  0.88495471634E+02 -0.76077731897E+02 -0.32112477736E+03  0.35059379794E+03  0.78585104995E+02 0.  0.
      -13    1    4    4    0    0 -0.67708151270E+02  0.81442128867E+02  0.66979422125E+03  0.67811615002E+03  0.00000000000E+00 0.  1.
       14    1    4    4    0    0 -0.20787320364E+02 -0.53643969699E+01  0.39513148171E+02  0.44968637084E+02  0.00000000000E+00 0. -1.
        1    1    5    5  501    0  0.98484388591E+02 -0.64699962040E+02 -0.23218985077E+03  0.26037931309E+03  0.00000000000E+00 0. -1.
       -2    1    5    5    0  501 -0.99889169564E+01 -0.11377769857E+02 -0.88934926590E+02  0.90214484849E+02  0.00000000000E+00 0.  1.
</event>
<event>
 9   1  0.7335000E-04  0.1003464E+04  0.7818608E-02  0.9304754E-01
       21   -1    0    0  503  502  0.00000000000E+00  0.00000000000E+00  0.71722355743E+03  0.71722355743E+03  0.00000000000E+00 0.  1.
       21   -1    0    0  502  503 -0.00000000000E+00 -0.00000000000E+00 -0.35098537224E+03  0.35098537224E+03  0.00000000000E+00 0. -1.
       39    2    1    2    0    0  0.56843418861E-13  0.35527136788E-14  0.36623818518E+03  0.10682089297E+04  0.10034639551E+04 0.  0.
       24    2    3    3    0    0 -0.35420815687E+03  0.10376595079E+02 -0.18529022647E+03  0.40764067436E+03  0.79166654881E+02 0.  0.
      -24    2    3    3    0    0  0.35420815687E+03 -0.10376595079E+02  0.55152841166E+03  0.66056825531E+03  0.81214154789E+02 0.  0.
      -13    1    4    4    0    0 -0.19872970415E+03  0.30446923322E+02 -0.13814860740E+03  0.24393759074E+03  0.00000000000E+00 0.  1.
       14    1    4    4    0    0 -0.15547845272E+03 -0.20070328243E+02 -0.47141619078E+02  0.16370308362E+03  0.00000000000E+00 0. -1.
        1    1    5    5  501    0  0.15582525249E+03  0.33799670940E+02  0.26512004910E+03  0.30937447779E+03  0.00000000000E+00 0. -1.
       -2    1    5    5    0  501  0.19838290438E+03 -0.44176266019E+02  0.28640836256E+03  0.35119377753E+03  0.00000000000E+00 0.  1.
</event>
<event>
 9   1  0.7335000E-04  0.8765711E+03  0.7818608E-02  0.9455352E-01
       21   -1    0    0  503  502  0.00000000000E+00  0.00000000000E+00  0.40801252196E+03  0.40801252196E+03  0.00000000000E+00 0. -1.
       21   -1    0    0  502  503 -0.00000000000E+00 -0.00000000000E+00 -0.47080469902E+03  0.47080469902E+03  0.00000000000E+00 0.  1.
       39    2    1    2    0    0  0.00000000000E+00  0.14210854715E-13 -0.62792177066E+02  0.87881722098E+03  0.87657107550E+03 0.  0.
       24    2    3    3    0    0  0.16715588498E+03 -0.76517922859E+02 -0.42216390413E+03  0.46747854590E+03  0.80732561771E+02 0.  0.
      -24    2    3    3    0    0 -0.16715588498E+03  0.76517922859E+02  0.35937172706E+03  0.41133867508E+03  0.79090991919E+02 0.  0.
      -13    1    4    4    0    0  0.13691424038E+03 -0.66562500806E+02 -0.40182886749E+03  0.42970049393E+03  0.00000000000E+00 0.  1.
       14    1    4    4    0    0  0.30241644594E+02 -0.99554220524E+01 -0.20335036637E+02  0.37778051975E+02  0.00000000000E+00 0. -1.
        3    1    5    5  501    0 -0.14484178708E+03  0.91686958100E+02  0.32669621532E+03  0.36893909887E+03  0.00000000000E+00 0. -1.
       -4    1    5    5    0  501 -0.22314097900E+02 -0.15169035241E+02  0.32675511746E+02  0.42399576213E+02  0.14200000000E+01 0.  1.
</event>
<event>
 9   1  0.7335000E-04  0.9977684E+03  0.7818608E-02  0.9310996E-01
       21   -1    0    0  503  502  0.00000000000E+00  0.00000000000E+00  0.39102475535E+03  0.39102475535E+03  0.00000000000E+00 0. -1.
       21   -1    0    0  502  503 -0.00000000000E+00 -0.00000000000E+00 -0.63649540668E+03  0.63649540668E+03  0.00000000000E+00 0.  1.
       39    2    1    2    0    0 -0.56843418861E-13  0.17763568394E-14 -0.24547065132E+03  0.10275201620E+04  0.99776843141E+03 0.  0.
       24    2    3    3    0    0 -0.45145868908E+03  0.28679565926E+00 -0.32658811024E+03  0.56250744808E+03  0.77070131645E+02 0.  0.
      -24    2    3    3    0    0  0.45145868908E+03 -0.28679565926E+00  0.81117458922E+02  0.46501271395E+03  0.76431353465E+02 0.  0.
      -13    1    4    4    0    0 -0.35362451953E+03 -0.31733850346E+02 -0.25409346859E+03  0.43660145310E+03  0.00000000000E+00 0.  1.
       14    1    4    4    0    0 -0.97834169550E+02  0.32020646005E+02 -0.72494641657E+02  0.12590599498E+03  0.00000000000E+00 0. -1.
        3    1    5    5  501    0  0.11298799251E+03 -0.13140084939E+02 -0.10187377648E+02  0.11420477637E+03  0.00000000000E+00 0. -1.
       -4    1    5    5    0  501  0.33847069658E+03  0.12853289280E+02  0.91304836570E+02  0.35080793758E+03  0.14200000000E+01 0.  1.
</event>
<event>
 9   1  0.7335000E-04  0.1014017E+04  0.7818608E-02  0.9293304E-01
       21   -1    0    0  503  502  0.00000000000E+00  0.00000000000E+00  0.18331461146E+03  0.18331461146E+03  0.00000000000E+00 0. -1.
       21   -1    0    0  502  503 -0.00000000000E+00 -0.00000000000E+00 -0.14022745495E+04  0.14022745495E+04  0.00000000000E+00 0.  1.
       39    2    1    2    0    0 -0.28421709430E-13 -0.14210854715E-13 -0.12189599381E+04  0.15855891610E+04  0.10140165959E+04 0.  0.
       24    2    3    3    0    0  0.15905817897E+03  0.82513079302E+02  0.12226019873E+03  0.23038051322E+03  0.77586803813E+02 0.  0.
      -24    2    3    3    0    0 -0.15905817897E+03 -0.82513079302E+02 -0.13412201368E+04  0.13552086478E+04  0.74907350087E+02 0.  0.
      -13    1    4    4    0    0  0.82907310239E+02  0.83275082618E+01  0.26880955847E+02  0.87553156837E+02  0.00000000000E+00 0.  1.
       14    1    4    4    0    0  0.76150868729E+02  0.74185571040E+02  0.95379242879E+02  0.14282735638E+03  0.00000000000E+00 0. -1.
        3    1    5    5  501    0 -0.79069779699E+02 -0.66611122911E+02 -0.53694234689E+03  0.54680540930E+03  0.00000000000E+00 0. -1.
       -4    1    5    5    0  501 -0.79988399269E+02 -0.15901956391E+02 -0.80427778991E+03  0.80840323847E+03  0.14200000000E+01 0.  1.
</event>
<event>
 9   1  0.7335000E-04  0.9972208E+03  0.7818608E-02  0.9311598E-01
       21   -1    0    0  503  502  0.00000000000E+00  0.00000000000E+00  0.23652956116E+03  0.23652956116E+03  0.00000000000E+00 0.  1.
       21   -1    0    0  502  503 -0.00000000000E+00 -0.00000000000E+00 -0.10510835491E+04  0.10510835491E+04  0.00000000000E+00 0. -1.
       39    2    1    2    0    0  0.00000000000E+00  0.28421709430E-13 -0.81455398795E+03  0.12876131103E+04  0.99722079924E+03 0.  0.
       24    2    3    3    0    0 -0.89246498603E+02 -0.14575902633E+03  0.18852870750E+03  0.26682622649E+03  0.80265374347E+02 0.  0.
      -24    2    3    3    0    0  0.89246498603E+02  0.14575902633E+03 -0.10030826955E+04  0.10207868838E+04  0.81365452837E+02 0.  0.
      -13    1    4    4    0    0 -0.99015248995E+02 -0.10372394653E+03  0.16117845425E+03  0.21573402776E+03  0.00000000000E+00 0.  1.
       14    1    4    4    0    0  0.97687503920E+01 -0.42035079801E+02  0.27350253244E+02  0.51092198725E+02  0.00000000000E+00 0. -1.
        1    1    5    5  501    0  0.10473639780E+03  0.12245783714E+03 -0.83856974373E+03  0.85391150010E+03  0.00000000000E+00 0. -1.
       -2    1    5    5    0  501 -0.15489899200E+02  0.23301189194E+02 -0.16451295172E+03  0.16687538368E+03  0.00000000000E+00 0.  1.
</event>
<event>
 9   1  0.7335000E-04  0.1027193E+04  0.7818608E-02  0.9279213E-01
       21   -1    0    0  503  502  0.00000000000E+00  0.00000000000E+00  0.22071016626E+03  0.22071016626E+03  0.00000000000E+00 0. -1.
       21   -1    0    0  502  503 -0.00000000000E+00 -0.00000000000E+00 -0.11951480543E+04  0.11951480543E+04  0.00000000000E+00 0.  1.
       39    2    1    2    0    0  0.00000000000E+00  0.14210854715E-13 -0.97443788804E+03  0.14158582206E+04  0.10271929240E+04 0.  0.
       24    2    3    3    0    0  0.24721406581E+03  0.90712539007E+02 -0.10848354319E+04  0.11191081387E+04  0.78686419886E+02 0.  0.
      -24    2    3    3    0    0 -0.24721406581E+03 -0.90712539007E+02  0.11039754389E+03  0.29675008186E+03  0.80804915197E+02 0.  0.
      -13    1    4    4    0    0  0.56180011140E+02  0.44895127557E+02 -0.19482318209E+03  0.20767243055E+03  0.00000000000E+00 0.  1.
       14    1    4    4    0    0  0.19103405467E+03  0.45817411450E+02 -0.89001224984E+03  0.91143570816E+03  0.00000000000E+00 0. -1.
        3    1    5    5  501    0 -0.11995749268E+03 -0.16366052071E+01  0.43405760059E+02  0.12757953807E+03  0.00000000000E+00 0. -1.
       -4    1    5    5    0  501 -0.12725657313E+03 -0.89075933800E+02  0.66991783829E+02  0.16917054380E+03  0.14200000000E+01 0.  1.
</event>
<event>
 9   1  0.7335000E-04  0.1000798E+04  0.7818608E-02  0.9307671E-01
        2   -1    0    0  501    0  0.00000000000E+00  0.00000000000E+00  0.19180205294E+04  0.19180205294E+04  0.00000000000E+00 0. -1.
       -2   -1    0    0    0  501 -0.00000000000E+00 -0.00000000000E+00 -0.13055070085E+03  0.13055070085E+03  0.00000000000E+00 0.  1.
       39    2    1    2    0    0  0.00000000000E+00 -0.14210854715E-13  0.17874698286E+04  0.20485712303E+04  0.10007975307E+04 0.  0.
       24    2    3    3    0    0  0.46001884096E+03  0.44409867502E+02  0.53780513838E+03  0.71367903125E+03  0.80708254884E+02 0.  0.
      -24    2    3    3    0    0 -0.46001884096E+03 -0.44409867502E+02  0.12496646902E+04  0.13348921990E+04  0.81766586840E+02 0.  0.
      -13    1    4    4    0    0  0.27118137668E+03  0.51984419915E+02  0.36434740319E+03  0.45715506033E+03  0.00000000000E+00 0.  1.
       14    1    4    4    0    0  0.18883746428E+03 -0.75745524124E+01  0.17345773519E+03  0.25652397092E+03  0.00000000000E+00 0. -1.
        1    1    5    5  502    0 -0.44543807865E+03 -0.32239540029E+02  0.12242394745E+04  0.13031564606E+04  0.00000000000E+00 0. -1.
       -2    1    5    5    0  502 -0.14580762314E+02 -0.12170327474E+02  0.25425215649E+02  0.31735738392E+02  0.00000000000E+00 0.  1.
</event>
<event>
 9   1  0.7335000E-04  0.1057177E+04  0.7818608E-02  0.9247965E-01
       21   -1    0    0  503  502  0.00000000000E+00  0.00000000000E+00  0.76569796296E+03  0.76569796296E+03  0.00000000000E+00 0. -1.
       21   -1    0    0  502  503 -0.00000000000E+00 -0.00000000000E+00 -0.36490342084E+03  0.36490342084E+03  0.00000000000E+00 0.  1.
       39    2    1    2    0    0  0.00000000000E+00  0.00000000000E+00  0.40079454213E+03  0.11306013838E+04  0.10571770070E+04 0.  0.
       24    2    3    3    0    0 -0.19733380707E+02  0.37052772952E+02 -0.35659068132E+03  0.36774400472E+03  0.79475937874E+02 0.  0.
      -24    2    3    3    0    0  0.19733380707E+02 -0.37052772952E+02  0.75738522345E+03  0.76285737908E+03  0.80973389592E+02 0.  0.
      -13    1    4    4    0    0  0.47549538611E+01  0.36717921410E+02 -0.32806398213E+03  0.33014662153E+03  0.00000000000E+00 0.  1.
       14    1    4    4    0    0 -0.24488334568E+02  0.33485154173E+00 -0.28526699198E+02  0.37597383189E+02  0.00000000000E+00 0. -1.
        3    1    5    5  501    0 -0.27888716183E+02 -0.22314699348E+02  0.19331990653E+03  0.19659174082E+03  0.00000000000E+00 0. -1.
       -4    1    5    5    0  501  0.47622096890E+02 -0.14738073604E+02  0.56406531692E+03  0.56626563826E+03  0.14200000000E+01 0.  1.
</event>
<event>
 9   1  0.7335000E-04  0.1048440E+04  0.7818608E-02  0.9256956E-01
       21   -1    0    0  503  502  0.00000000000E+00  0.00000000000E+00  0.44273117714E+03  0.44273117714E+03  0.00000000000E+00 0. -1.
       21   -1    0    0  502  503 -0.00000000000E+00 -0.00000000000E+00 -0.62070756253E+03  0.62070756253E+03  0.00000000000E+00 0.  1.
       39    2    1    2    0    0  0.71054273576E-14  0.00000000000E+00 -0.17797638539E+03  0.10634387397E+04  0.10484399646E+04 0.  0.
       24    2    3    3    0    0  0.38992545739E+02  0.49722132406E+03  0.52788428726E+02  0.50795400143E+03  0.80505811260E+02 0.  0.
      -24    2    3    3    0    0 -0.38992545739E+02 -0.49722132406E+03 -0.23076481412E+03  0.55548473823E+03  0.81002662032E+02 0.  0.
      -13    1    4    4    0    0  0.40584686408E+01  0.24334054236E+03 -0.11823681286E+02  0.24366142527E+03  0.00000000000E+00 0.  1.
       14    1    4    4    0    0  0.34934077099E+02  0.25388078170E+03  0.64612110012E+02  0.26429257617E+03  0.00000000000E+00 0. -1.
        1    1    5    5  501    0 -0.29339821176E+01 -0.36506219200E+03 -0.19506466073E+03  0.41391935705E+03  0.00000000000E+00 0. -1.
       -2    1    5    5    0  501 -0.36058563622E+02 -0.13215913206E+03 -0.35700153386E+02  0.14156538118E+03  0.00000000000E+00 0.  1.
</event>
<event>
 9   1  0.7335000E-04  0.1007804E+04  0.7818608E-02  0.9300027E-01
       21   -1    0    0  503  502  0.00000000000E+00  0.00000000000E+00  0.12992283314E+03  0.12992283314E+03  0.00000000000E+00 0. -1.
       21   -1    0    0  502  503 -0.00000000000E+00 -0.00000000000E+00 -0.19543701041E+04  0.19543701041E+04  0.00000000000E+00 0.  1.
       39    2    1    2    0    0  0.14210854715E-13  0.00000000000E+00 -0.18244472710E+04  0.20842929373E+04  0.10078041495E+04 0.  0.
       24    2    3    3    0    0  0.68390538210E+02  0.31353461439E+03 -0.12476388897E+03  0.35266616174E+03  0.76329375121E+02 0.  0.
      -24    2    3    3    0    0 -0.68390538210E+02 -0.31353461439E+03 -0.16996833820E+04  0.17316267755E+04  0.81403135474E+02 0.  0.
      -13    1    4    4    0    0 -0.15596786234E+02  0.83993669726E+02 -0.31341538709E+02  0.90997188658E+02  0.00000000000E+00 0.  1.
       14    1    4    4    0    0  0.83987324445E+02  0.22954094466E+03 -0.93422350261E+02  0.26166897308E+03  0.00000000000E+00 0. -1.
        3    1    5    5  501    0 -0.40751295242E+02 -0.88961504585E+02 -0.36448140816E+03  0.37738775054E+03  0.00000000000E+00 0. -1.
       -4    1    5    5    0  501 -0.27639242968E+02 -0.22457310980E+03 -0.13352019739E+04  0.13542390250E+04  0.14200000000E+01 0.  1.
</event>
<event>
 9   1  0.7335000E-04  0.1005815E+04  0.7818608E-02  0.9302190E-01
       21   -1    0    0  503  502  0.00000000000E+00  0.00000000000E+00  0.40107295109E+03  0.40107295109E+03  0.00000000000E+00 0. -1.
       21   -1    0    0  502  503 -0.00000000000E+00 -0.00000000000E+00 -0.63059840241E+03  0.63059840241E+03  0.00000000000E+00 0.  1.
       39    2    1    2    0    0  0.28421709430E-13  0.28421709430E-13 -0.22952545132E+03  0.10316713535E+04  0.10058150172E+04 0.  0.
       24    2    3    3    0    0 -0.17146210513E+03 -0.20619004106E+03  0.31369206020E+03  0.42046278350E+03  0.80452825627E+02 0.  0.
      -24    2    3    3    0    0  0.17146210513E+03  0.20619004106E+03 -0.54321751152E+03  0.61120856999E+03  0.81099104085E+02 0.  0.
      -13    1    4    4    0    0  0.69211506823E+01 -0.82418155733E+01  0.26967812348E+02  0.29036059539E+02  0.00000000000E+00 0.  1.
       14    1    4    4    0    0 -0.17838325582E+03 -0.19794822548E+03  0.28672424785E+03  0.39142672396E+03  0.00000000000E+00 0. -1.
        1    1    5    5  501    0  0.21774475847E+02  0.76596075898E+01 -0.10369095603E+03  0.10622905322E+03  0.00000000000E+00 0. -1.
       -2    1    5    5    0  501  0.14968762929E+03  0.19853043347E+03 -0.43952655549E+03  0.50497951677E+03  0.00000000000E+00 0.  1.
</event>
<event>
 9   1  0.7335000E-04  0.1004569E+04  0.7818608E-02  0.9303547E-01
       21   -1    0    0  503  502  0.00000000000E+00  0.00000000000E+00  0.21106611809E+03  0.21106611809E+03  0.00000000000E+00 0. -1.
       21   -1    0    0  502  503 -0.00000000000E+00 -0.00000000000E+00 -0.11953120510E+04  0.11953120510E+04  0.00000000000E+00 0.  1.
       39    2    1    2    0    0  0.56843418861E-13  0.00000000000E+00 -0.98424593295E+03  0.14063781691E+04  0.10045693097E+04 0.  0.
       24    2    3    3    0    0 -0.13130244506E+03  0.14704877897E+03 -0.11298589436E+04  0.11496921242E+04  0.79668516087E+02 0.  0.
      -24    2    3    3    0    0  0.13130244506E+03 -0.14704877897E+03  0.14561301066E+03  0.25668604496E+03  0.76294831599E+02 0.  0.
      -13    1    4    4    0    0 -0.36175897881E+02  0.37561250086E+02 -0.52949082527E+03  0.53205270147E+03  0.00000000000E+00 0.  1.
       14    1    4    4    0    0 -0.95126547182E+02  0.10948752888E+03 -0.60036811834E+03  0.61763942270E+03  0.00000000000E+00 0. -1.
        3    1    5    5  501    0  0.66284404520E+02 -0.69702494157E+02  0.11739166754E+03  0.15176581823E+03  0.00000000000E+00 0. -1.
       -4    1    5    5    0  501  0.65018040543E+02 -0.77346284811E+02  0.28221343117E+02  0.10492022673E+03  0.14200000000E+01 0.  1.
</event>
<event>
 9   1  0.7335000E-04  0.1005369E+04  0.7818608E-02  0.9302676E-01
       21   -1    0    0  503  502  0.00000000000E+00  0.00000000000E+00  0.11501531476E+04  0.11501531476E+04  0.00000000000E+00 0. -1.
       21   -1    0    0  502  503 -0.00000000000E+00 -0.00000000000E+00 -0.21970253944E+03  0.21970253944E+03  0.00000000000E+00 0.  1.
       39    2    1    2    0    0  0.00000000000E+00  0.00000000000E+00  0.93045060816E+03  0.13698556870E+04  0.10053687230E+04 0.  0.
       24    2    3    3    0    0 -0.21038764322E+03  0.34492192248E+03  0.72410079091E+02  0.41804027272E+03  0.79248703704E+02 0.  0.
      -24    2    3    3    0    0  0.21038764322E+03 -0.34492192248E+03  0.85804052907E+03  0.95181541432E+03  0.80529127593E+02 0.  0.
      -13    1    4    4    0    0 -0.16537538018E+03  0.30230213426E+03  0.36769878625E+02  0.34653660805E+03  0.00000000000E+00 0.  1.
       14    1    4    4    0    0 -0.45012263040E+02  0.42619788218E+02  0.35640200467E+02  0.71503664669E+02  0.00000000000E+00 0. -1.
        3    1    5    5  501    0  0.18480390080E+03 -0.23978174502E+03  0.66056771128E+03  0.72663434283E+03  0.00000000000E+00 0. -1.
       -4    1    5    5    0  501  0.25583742413E+02 -0.10514017746E+03  0.19747281779E+03  0.22518107149E+03  0.14200000000E+01 0.  1.
</event>
<event>
 9   1  0.7335000E-04  0.9986309E+03  0.7818608E-02  0.9310048E-01
       21   -1    0    0  503  502  0.00000000000E+00  0.00000000000E+00  0.89960608482E+03  0.89960608482E+03  0.00000000000E+00 0.  1.
       21   -1    0    0  502  503 -0.00000000000E+00 -0.00000000000E+00 -0.27713898187E+03  0.27713898187E+03  0.00000000000E+00 0. -1.
       39    2    1    2    0    0  0.35527136788E-14  0.14210854715E-13  0.62246710295E+03  0.11767450667E+04  0.99863089164E+03 0.  0.
       24    2    3    3    0    0  0.20145983882E+01 -0.79578748668E+02 -0.26197030435E+03  0.28531065069E+03  0.80230238603E+02 0.  0.
      -24    2    3    3    0    0 -0.20145983882E+01  0.79578748668E+02  0.88443740730E+03  0.89143441601E+03  0.78031754844E+02 0.  0.
      -13    1    4    4    0    0 -0.33746969709E+02 -0.19063380575E+02 -0.59736254635E+02  0.71208781490E+02  0.00000000000E+00 0.  1.
       14    1    4    4    0    0  0.35761568097E+02 -0.60515368092E+02 -0.20223404972E+03  0.21410186920E+03  0.00000000000E+00 0. -1.
        1    1    5    5  501    0  0.30883002140E+02  0.14324394915E+02  0.17791735725E+03  0.18114506375E+03  0.00000000000E+00 0. -1.
       -2    1    5    5    0  501 -0.32897600529E+02  0.65254353753E+02  0.70652005005E+03  0.71028935225E+03  0.00000000000E+00 0.  1.
</event>
<event>
 9   1  0.7335000E-04  0.1005506E+04  0.7818608E-02  0.9302527E-01
       21   -1    0    0  503  502  0.00000000000E+00  0.00000000000E+00  0.10897621772E+04  0.10897621772E+04  0.00000000000E+00 0. -1.
       21   -1    0    0  502  503 -0.00000000000E+00 -0.00000000000E+00 -0.23194083000E+03  0.23194083000E+03  0.00000000000E+00 0.  1.
       39    2    1    2    0    0  0.56843418861E-13 -0.28421709430E-13  0.85782134724E+03  0.13217030072E+04  0.10055055324E+04 0.  0.
       24    2    3    3    0    0  0.39011697400E+03 -0.18294855194E+03  0.75364095606E+03  0.87174100618E+03  0.79349008516E+02 0.  0.
      -24    2    3    3    0    0 -0.39011697400E+03  0.18294855194E+03  0.10418039117E+03  0.44996200106E+03  0.77141573985E+02 0.  0.
      -13    1    4    4    0    0  0.18254863973E+03 -0.83102517919E+02  0.27301873989E+03  0.33877613063E+03  0.00000000000E+00 0.  1.
       14    1    4    4    0    0  0.20756833427E+03 -0.99846034020E+02  0.48062221617E+03  0.53296487556E+03  0.00000000000E+00 0. -1.
        1    1    5    5  501    0 -0.45031745052E+01 -0.57536427812E+01  0.62731271559E+01  0.96299070707E+01  0.00000000000E+00 0. -1.
       -2    1    5    5    0  501 -0.38561379949E+03  0.18870219472E+03  0.97907264019E+02  0.44033209399E+03  0.00000000000E+00 0.  1.
</event>
<event>
 9   1  0.7335000E-04  0.1003948E+04  0.7818608E-02  0.9304225E-01
        2   -1    0    0  501    0  0.00000000000E+00  0.00000000000E+00  0.15985116890E+03  0.15985116890E+03  0.00000000000E+00 0.  1.
       -2   -1    0    0    0  501 -0.00000000000E+00 -0.00000000000E+00 -0.15763286989E+04  0.15763286989E+04  0.00000000000E+00 0. -1.
       39    2    1    2    0    0  0.28421709430E-13 -0.14210854715E-13 -0.14164775300E+04  0.17361798678E+04  0.10039481761E+04 0.  0.
       24    2    3    3    0    0 -0.19290778606E+03  0.76165084138E+02 -0.14851266079E+04  0.15030406722E+04  0.10254602267E+03 0.  0.
      -24    2    3    3    0    0  0.19290778606E+03 -0.76165084138E+02  0.68649077920E+02  0.23313919560E+03  0.81404266849E+02 0.  0.
      -13    1    4    4    0    0 -0.33017896627E+02 -0.22141893652E+02 -0.38167015631E+03  0.38373500384E+03  0.00000000000E+00 0.  1.
       14    1    4    4    0    0 -0.15988988944E+03  0.98306977790E+02 -0.11034564516E+04  0.11193056684E+04  0.00000000000E+00 0. -1.
        3    1    5    5  502    0  0.20544304145E+01 -0.19885433860E+02 -0.55894851551E+01  0.20757974575E+02  0.00000000000E+00 0. -1.
       -4    1    5    5    0  502  0.19085335565E+03 -0.56279650278E+02  0.74238563075E+02  0.21238122103E+03  0.14200000000E+01 0.  1.
</event>
<event>
 9   1  0.7335000E-04  0.9971745E+03  0.7818608E-02  0.9311649E-01
       21   -1    0    0  503  502  0.00000000000E+00  0.00000000000E+00  0.41294133853E+03  0.41294133853E+03  0.00000000000E+00 0.  1.
       21   -1    0    0  502  503 -0.00000000000E+00 -0.00000000000E+00 -0.60199655650E+03  0.60199655650E+03  0.00000000000E+00 0. -1.
       39    2    1    2    0    0  0.00000000000E+00  0.00000000000E+00 -0.18905521797E+03  0.10149378950E+04  0.99717453604E+03 0.  0.
       24    2    3    3    0    0 -0.69279121011E+02  0.19313714238E+02 -0.59092024826E+03  0.59938210733E+03  0.69996818630E+02 0.  0.
      -24    2    3    3    0    0  0.69279121011E+02 -0.19313714238E+02  0.40186503029E+03  0.41555578770E+03  0.77578953036E+02 0.  0.
      -13    1    4    4    0    0 -0.84719522507E+00  0.28490850525E+02 -0.11500732989E+03  0.11848684413E+03  0.00000000000E+00 0.  1.
       14    1    4    4    0    0 -0.68431925786E+02 -0.91771362869E+01 -0.47591291838E+03  0.48089526321E+03  0.00000000000E+00 0. -1.
        1    1    5    5  501    0  0.53195678395E+02 -0.48794104152E+02  0.27808913454E+03  0.28730508445E+03  0.00000000000E+00 0. -1.
       -2    1    5    5    0  501  0.16083442617E+02  0.29480389914E+02  0.12377589575E+03  0.12825070325E+03  0.00000000000E+00 0.  1.
</event>
<event>
 9   1  0.7335000E-04  0.9997746E+03  0.7818608E-02  0.9308792E-01
       21   -1    0    0  503  502  0.00000000000E+00  0.00000000000E+00  0.40416521653E+03  0.40416521653E+03  0.00000000000E+00 0.  1.
       21   -1    0    0  502  503 -0.00000000000E+00 -0.00000000000E+00 -0.61828004470E+03  0.61828004470E+03  0.00000000000E+00 0. -1.
       39    2    1    2    0    0  0.00000000000E+00 -0.14210854715E-13 -0.21411482817E+03  0.10224452612E+04  0.99977455088E+03 0.  0.
       24    2    3    3    0    0  0.86733671276E+02 -0.11281952196E+03 -0.59008756971E+03  0.61224436736E+03  0.79930289408E+02 0.  0.
      -24    2    3    3    0    0 -0.86733671276E+02  0.11281952196E+03  0.37597274154E+03  0.41020089388E+03  0.81598386562E+02 0.  0.
      -13    1    4    4    0    0 -0.60688593671E+01  0.44152596517E+01 -0.89228824332E+02  0.89543892385E+02  0.00000000000E+00 0.  1.
       14    1    4    4    0    0  0.92802530643E+02 -0.11723478161E+03 -0.50085874538E+03  0.52270047497E+03  0.00000000000E+00 0. -1.
        3    1    5    5  501    0  0.15289293144E+02  0.25400025828E+02  0.71169101656E+02  0.77097112965E+02  0.00000000000E+00 0. -1.
       -4    1    5    5    0  501 -0.10202296442E+03  0.87419496134E+02  0.30480363988E+03  0.33310378091E+03  0.14200000000E+01 0.  1.
</event>
<event>
 9   1  0.7335000E-04  0.1002787E+04  0.7818608E-02  0.9305493E-01
       21   -1    0    0  503  502  0.00000000000E+00  0.00000000000E+00  0.47502619197E+03  0.47502619197E+03  0.00000000000E+00 0.  1.
       21   -1    0    0  502  503 -0.00000000000E+00 -0.00000000000E+00 -0.52922443469E+03  0.52922443469E+03  0.00000000000E+00 0. -1.
       39    2    1    2    0    0 -0.56843418861E-13  0.00000000000E+00 -0.54198242729E+02  0.10042506267E+04  0.10027870520E+04 0.  0.
       24    2    3    3    0    0 -0.31250810899E+03 -0.14710551192E+03  0.32801816262E+03  0.48309486561E+03  0.80519465682E+02 0.  0.
      -24    2    3    3    0    0  0.31250810899E+03  0.14710551192E+03 -0.38221640535E+03  0.52115576105E+03  0.78820028779E+02 0.  0.
      -13    1    4    4    0    0 -0.21335237647E+03 -0.13828839934E+03  0.22020605867E+03  0.33635342456E+03  0.00000000000E+00 0.  1.
       14    1    4    4    0    0 -0.99155732516E+02 -0.88171125838E+01  0.10781210395E+03  0.14674144105E+03  0.00000000000E+00 0. -1.
        3    1    5    5  501    0  0.26105317299E+03  0.13462126291E+03 -0.35755823524E+03  0.46273052108E+03  0.00000000000E+00 0. -1.
       -4    1    5    5    0  501  0.51454935996E+02  0.12484249009E+02 -0.24658170110E+02  0.58425239964E+02  0.14200000000E+01 0.  1.
</event>
<event>
 9   1  0.7335000E-04  0.9969041E+03  0.7818608E-02  0.9311947E-01
       21   -1    0    0  503  502  0.00000000000E+00  0.00000000000E+00  0.59025491361E+03  0.59025491361E+03  0.00000000000E+00 0.  1.
       21   -1    0    0  502  503 -0.00000000000E+00 -0.00000000000E+00 -0.42092739666E+03  0.42092739666E+03  0.00000000000E+00 0. -1.
       39    2    1    2    0    0  0.35527136788E-14  0.00000000000E+00  0.16932751695E+03  0.10111823103E+04  0.99690413611E+03 0.  0.
       24    2    3    3    0    0  0.16792885727E+02 -0.39394343543E+03 -0.21395652177E+03  0.45577513794E+03  0.80499390274E+02 0.  0.
      -24    2    3    3    0    0 -0.16792885727E+02  0.39394343543E+03  0.38328403872E+03  0.55540717232E+03  0.78083553963E+02 0.  0.
      -13    1    4    4    0    0 -0.18409773965E+02 -0.20797983994E+03 -0.78639271178E+02  0.22311133672E+03  0.00000000000E+00 0.  1.
       14    1    4    4    0    0  0.35202659691E+02 -0.18596359549E+03 -0.13531725059E+03  0.23266380123E+03  0.00000000000E+00 0. -1.
        3    1    5    5  501    0 -0.36431011385E+02  0.26769066828E+03  0.29548735517E+03  0.40037268830E+03  0.00000000000E+00 0. -1.
       -4    1    5    5    0  501  0.19638125659E+02  0.12625276715E+03  0.87796683553E+02  0.15503448402E+03  0.14200000000E+01 0.  1.
</event>
<event>
 9   1  0.7335000E-04  0.1002622E+04  0.7818608E-02  0.9305674E-01
       21   -1    0    0  503  502  0.00000000000E+00  0.00000000000E+00  0.26131917205E+03  0.26131917205E+03  0.00000000000E+00 0. -1.
       21   -1    0    0  502  503 -0.00000000000E+00 -0.00000000000E+00 -0.96170719690E+03  0.96170719690E+03  0.00000000000E+00 0.  1.
       39    2    1    2    0    0  0.00000000000E+00 -0.56843418861E-13 -0.70038802485E+03  0.12230263690E+04  0.10026216205E+04 0.  0.
       24    2    3    3    0    0  0.10676476228E+02 -0.47522586641E+03 -0.51781809897E+03  0.70736420607E+03  0.79214425231E+02 0.  0.
      -24    2    3    3    0    0 -0.10676476228E+02  0.47522586641E+03 -0.18256992588E+03  0.51566216288E+03  0.81376146004E+02 0.  0.
      -13    1    4    4    0    0 -0.33286484083E+02 -0.21184426035E+03 -0.21579986151E+03  0.30422945435E+03  0.00000000000E+00 0.  1.
       14    1    4    4    0    0  0.43962960311E+02 -0.26338160606E+03 -0.30201823746E+03  0.40313475172E+03  0.00000000000E+00 0. -1.
        3    1    5    5  501    0 -0.36477647994E+02  0.30011511813E+03 -0.14226534553E+03  0.33412442514E+03  0.00000000000E+00 0. -1.
       -4    1    5    5    0  501  0.25801171766E+02  0.17511074828E+03 -0.40304580353E+02  0.18153773774E+03  0.14200000000E+01 0.  1.
</event>
<event>
 9   1  0.7335000E-04  0.1059382E+04  0.7818608E-02  0.9245711E-01
       21   -1    0    0  503  502  0.00000000000E+00  0.00000000000E+00  0.40587925390E+03  0.40587925390E+03  0.00000000000E+00 0.  1.
       21   -1    0    0  502  503 -0.00000000000E+00 -0.00000000000E+00 -0.69127098329E+03  0.69127098329E+03  0.00000000000E+00 0. -1.
       39    2    1    2    0    0  0.00000000000E+00  0.28421709430E-13 -0.28539172939E+03  0.10971502372E+04  0.10593819914E+04 0.  0.
       24    2    3    3    0    0 -0.45545917126E+03 -0.20374213245E+03  0.21182865672E+02  0.50558603553E+03  0.78832812346E+02 0.  0.
      -24    2    3    3    0    0  0.45545917126E+03  0.20374213245E+03 -0.30657459506E+03  0.59156420166E+03  0.83703698424E+02 0.  0.
      -13    1    4    4    0    0 -0.19762586806E+03 -0.60152855124E+02  0.37761252896E+02  0.21000062363E+03  0.00000000000E+00 0.  1.
       14    1    4    4    0    0 -0.25783330321E+03 -0.14358927733E+03 -0.16578387224E+02  0.29558541190E+03  0.00000000000E+00 0. -1.
        1    1    5    5  501    0  0.96648863008E+02  0.48704347885E+02 -0.10896497796E+03  0.15357891341E+03  0.00000000000E+00 0. -1.
       -2    1    5    5    0  501  0.35881030825E+03  0.15503778457E+03 -0.19760961711E+03  0.43798528825E+03  0.00000000000E+00 0.  1.
</event>
<event>
 9   1  0.7335000E-04  0.9965567E+03  0.7818608E-02  0.9312329E-01
       21   -1    0    0  503  502  0.00000000000E+00  0.00000000000E+00  0.88466569905E+02  0.88466569905E+02  0.00000000000E+00 0. -1.
       21   -1    0    0  502  503 -0.00000000000E+00 -0.00000000000E+00 -0.28064987971E+04  0.28064987971E+04  0.00000000000E+00 0.  1.
       39    2    1    2    0    0  0.14210854715E-13  0.14210854715E-13 -0.27180322271E+04  0.28949653670E+04  0.99655671594E+03 0.  0.
       24    2    3    3    0    0  0.11298904305E+03 -0.10717748145E+03 -0.27148917474E+04  0.27205144023E+04  0.79422141771E+02 0.  0.
      -24    2    3    3    0    0 -0.11298904305E+03  0.10717748145E+03 -0.31404797501E+01  0.17445096467E+03  0.78547693043E+02 0.  0.
      -13    1    4    4    0    0  0.11554779386E+03 -0.99107656828E+02 -0.20788090200E+04  0.20843753410E+04  0.00000000000E+00 0.  1.
       14    1    4    4    0    0 -0.25587508154E+01 -0.80698246176E+01 -0.63608272736E+03  0.63613906131E+03  0.00000000000E+00 0. -1.
        3    1    5    5  501    0 -0.10119102405E+03  0.10179251690E+03  0.22879205286E+02  0.14534372322E+03  0.00000000000E+00 0. -1.
       -4    1    5    5    0  501 -0.11798019002E+02  0.53849645503E+01 -0.26019685037E+02  0.29107241453E+02  0.14200000000E+01 0.  1.
</event>
<event>
 9   1  0.7335000E-04  0.9971455E+03  0.7818608E-02  0.9311681E-01
       21   -1    0    0  503  502  0.00000000000E+00  0.00000000000E+00  0.18692984550E+03  0.18692984550E+03  0.00000000000E+00 0.  1.
       21   -1    0    0  502  503 -0.00000000000E+00 -0.00000000000E+00 -0.13297759411E+04  0.13297759411E+04  0.00000000000E+00 0. -1.
       39    2    1    2    0    0 -0.14210854715E-13  0.00000000000E+00 -0.11428460956E+04  0.15167057866E+04  0.99714554851E+03 0.  0.
       24    2    3    3    0    0 -0.11648258098E+03 -0.15047509602E+03 -0.12617229876E+04  0.12786108972E+04  0.81792316261E+02 0.  0.
      -24    2    3    3    0    0  0.11648258098E+03  0.15047509602E+03  0.11887689193E+03  0.23809488940E+03  0.79665015728E+02 0.  0.
      -13    1    4    4    0    0 -0.50648990744E+02 -0.13274942145E+02 -0.24235650280E+03  0.24794801633E+03  0.00000000000E+00 0.  1.
       14    1    4    4    0    0 -0.65833590236E+02 -0.13720015387E+03 -0.10193664848E+04  0.10306628809E+04  0.00000000000E+00 0. -1.
        3    1    5    5  501    0  0.13922309544E+02 -0.24226778404E+01 -0.62843244921E+01  0.15465859345E+02  0.00000000000E+00 0. -1.
       -4    1    5    5    0  501  0.10256027144E+03  0.15289777386E+03  0.12516121642E+03  0.22262903006E+03  0.14200000000E+01 0.  1.
</event>
<event>
 9   1  0.7335000E-04  0.9816299E+03  0.7818608E-02  0.9328925E-01
       21   -1    0    0  503  502  0.00000000000E+00  0.00000000000E+00  0.36107558725E+03  0.36107558725E+03  0.00000000000E+00 0.  1.
       21   -1    0    0  502  503 -0.00000000000E+00 -0.00000000000E+00 -0.66717149027E+03  0.66717149027E+03  0.00000000000E+00 0. -1.
       39    2    1    2    0    0  0.00000000000E+00  0.00000000000E+00 -0.30609590302E+03  0.10282470775E+04  0.98162994585E+03 0.  0.
       24    2    3    3    0    0 -0.16117369346E+03  0.69403283314E+02  0.31980424048E+03  0.37370783681E+03  0.81172777880E+02 0.  0.
      -24    2    3    3    0    0  0.16117369346E+03 -0.69403283314E+02 -0.62590014350E+03  0.65453924071E+03  0.76660633937E+02 0.  0.
      -13    1    4    4    0    0 -0.13050101577E+03  0.16482230333E+02  0.20374543646E+03  0.24251676625E+03  0.00000000000E+00 0.  1.
       14    1    4    4    0    0 -0.30672677688E+02  0.52921052981E+02  0.11605880402E+03  0.13119107056E+03  0.00000000000E+00 0. -1.
        3    1    5    5  501    0  0.13255327940E+03 -0.83272968574E+02 -0.46877527902E+03  0.49422163186E+03  0.00000000000E+00 0. -1.
       -4    1    5    5    0  501  0.28620414060E+02  0.13869685260E+02 -0.15712486447E+03  0.16031760885E+03  0.14200000000E+01 0.  1.
</event>
<event>
 9   1  0.7335000E-04  0.1004414E+04  0.7818608E-02  0.9303717E-01
       21   -1    0    0  503  502  0.00000000000E+00  0.00000000000E+00  0.59412820076E+03  0.59412820076E+03  0.00000000000E+00 0.  1.
       21   -1    0    0  502  503 -0.00000000000E+00 -0.00000000000E+00 -0.42450715346E+03  0.42450715346E+03  0.00000000000E+00 0. -1.
       39    2    1    2    0    0 -0.28421709430E-13  0.00000000000E+00  0.16962104730E+03  0.10186353542E+04  0.10044136027E+04 0.  0.
       24    2    3    3    0    0 -0.16391909098E+03 -0.40235461858E+03 -0.15711801488E+03  0.46907503665E+03  0.81157944377E+02 0.  0.
      -24    2    3    3    0    0  0.16391909098E+03  0.40235461858E+03  0.32673906218E+03  0.54956031757E+03  0.80618983011E+02 0.  0.
      -13    1    4    4    0    0 -0.11267239636E+03 -0.17370707167E+03 -0.61424718793E+02  0.21596808034E+03  0.00000000000E+00 0.  1.
       14    1    4    4    0    0 -0.51246694618E+02 -0.22864754691E+03 -0.95693296088E+02  0.25310695631E+03  0.00000000000E+00 0. -1.
        1    1    5    5  501    0  0.84217999403E+02  0.27107494200E+03  0.24819788271E+03  0.37706297165E+03  0.00000000000E+00 0. -1.
       -2    1    5    5    0  501  0.79701091573E+02  0.13127967657E+03  0.78541179466E+02  0.17249734592E+03  0.00000000000E+00 0.  1.
</event>
<event>
 9   1  0.7335000E-04  0.9980518E+03  0.7818608E-02  0.9310684E-01
       21   -1    0    0  503  502  0.00000000000E+00  0.00000000000E+00  0.45697672611E+03  0.45697672611E+03  0.00000000000E+00 0.  1.
       21   -1    0    0  502  503 -0.00000000000E+00 -0.00000000000E+00 -0.54494423030E+03  0.54494423030E+03  0.00000000000E+00 0. -1.
       39    2    1    2    0    0 -0.14210854715E-13  0.00000000000E+00 -0.87967504188E+02  0.10019209564E+04  0.99805176273E+03 0.  0.
       24    2    3    3    0    0 -0.59702179216E+02 -0.83351920036E+02  0.43953395773E+03  0.45834957443E+03  0.79889546269E+02 0.  0.
      -24    2    3    3    0    0  0.59702179216E+02  0.83351920036E+02 -0.52750146192E+03  0.54357138198E+03  0.81854518509E+02 0.  0.
      -13    1    4    4    0    0 -0.11328571152E+01 -0.66495370329E+02  0.18406136742E+03  0.19570770199E+03  0.00000000000E+00 0.  1.
       14    1    4    4    0    0 -0.58569322100E+02 -0.16856549707E+02  0.25547259031E+03  0.26264187244E+03  0.00000000000E+00 0. -1.
        1    1    5    5  501    0  0.77260544132E+02  0.71845132375E+02 -0.37242587693E+03  0.38708132031E+03  0.00000000000E+00 0. -1.
       -2    1    5    5    0  501 -0.17558364916E+02  0.11506787661E+02 -0.15507558499E+03  0.15649006167E+03  0.00000000000E+00 0.  1.
</event>
<event>
 9   1  0.7335000E-04  0.1002659E+04  0.7818608E-02  0.9305633E-01
       21   -1    0    0  503  502  0.00000000000E+00  0.00000000000E+00  0.16638685753E+03  0.16638685753E+03  0.00000000000E+00 0.  1.
       21   -1    0    0  502  503 -0.00000000000E+00 -0.00000000000E+00 -0.15105231039E+04  0.15105231039E+04  0.00000000000E+00 0. -1.
       39    2    1    2    0    0  0.00000000000E+00 -0.56843418861E-13 -0.13441362464E+04  0.16769099614E+04  0.10026588502E+04 0.  0.
       24    2    3    3    0    0  0.23314374829E+03 -0.35715333258E+03 -0.25240770048E+03  0.50232482430E+03  0.81890606930E+02 0.  0.
      -24    2    3    3    0    0 -0.23314374829E+03  0.35715333258E+03 -0.10917285459E+04  0.11745851371E+04  0.76580128804E+02 0.  0.
      -13    1    4    4    0    0  0.21720661989E+03 -0.30274305468E+03 -0.24303930902E+03  0.44485972914E+03  0.00000000000E+00 0.  1.
       14    1    4    4    0    0  0.15937128405E+02 -0.54410277906E+02 -0.93683914591E+01  0.57465095163E+02  0.00000000000E+00 0. -1.
        3    1    5    5  501    0 -0.20826530766E+03  0.34907346145E+03 -0.10086674536E+04  0.10874910353E+04  0.00000000000E+00 0. -1.
       -4    1    5    5    0  501 -0.24878440635E+02  0.80798711348E+01 -0.83061092268E+02  0.87094101837E+02  0.14200000000E+01 0.  1.
</event>
<event>
 9   1  0.7335000E-04  0.1000395E+04  0.7818608E-02  0.9308112E-01
       21   -1    0    0  503  502  0.00000000000E+00  0.00000000000E+00  0.39868514019E+03  0.39868514019E+03  0.00000000000E+00 0.  1.
       21   -1    0    0  502  503 -0.00000000000E+00 -0.00000000000E+00 -0.62755662932E+03  0.62755662932E+03  0.00000000000E+00 0. -1.
       39    2    1    2    0    0  0.00000000000E+00  0.71054273576E-14 -0.22887148913E+03  0.10262417695E+04  0.10003949275E+04 0.  0.
       24    2    3    3    0    0  0.15615132883E+03 -0.56676578861E+02  0.36255047644E+03  0.40683834568E+03  0.80492977705E+02 0.  0.
      -24    2    3    3    0    0 -0.15615132883E+03  0.56676578861E+02 -0.59142196556E+03  0.61940342384E+03  0.79279177722E+02 0.  0.
      -13    1    4    4    0    0  0.16142874225E+03 -0.39263408856E+02  0.31986116161E+03  0.36043309616E+03  0.00000000000E+00 0.  1.
       14    1    4    4    0    0 -0.52774134263E+01 -0.17413170004E+02  0.42689314826E+02  0.46405249514E+02  0.00000000000E+00 0. -1.
        1    1    5    5  501    0 -0.14499852096E+03  0.42798784381E+02 -0.57704064006E+03  0.59651672844E+03  0.00000000000E+00 0. -1.
       -2    1    5    5    0  501 -0.11152807864E+02  0.13877794480E+02 -0.14381325503E+02  0.22886695395E+02  0.00000000000E+00 0.  1.
</event>
<event>
 9   1  0.7335000E-04  0.1039409E+04  0.7818608E-02  0.9266347E-01
       21   -1    0    0  503  502  0.00000000000E+00  0.00000000000E+00  0.78042020933E+03  0.78042020933E+03  0.00000000000E+00 0.  1.
       21   -1    0    0  502  503 -0.00000000000E+00 -0.00000000000E+00 -0.34608647604E+03  0.34608647604E+03  0.00000000000E+00 0. -1.
       39    2    1    2    0    0  0.14210854715E-13  0.00000000000E+00  0.43433373329E+03  0.11265066854E+04  0.10394092170E+04 0.  0.
       24    2    3    3    0    0 -0.86628657839E+02 -0.13811487584E+03 -0.31020297419E+03  0.35963552258E+03  0.80818194844E+02 0.  0.
      -24    2    3    3    0    0  0.86628657839E+02  0.13811487584E+03  0.74453670748E+03  0.76687116279E+03  0.84712621490E+02 0.  0.
      -13    1    4    4    0    0 -0.79563105754E+01 -0.55881009687E+02 -0.49113061019E+02  0.74820337371E+02  0.00000000000E+00 0.  1.
       14    1    4    4    0    0 -0.78672347264E+02 -0.82233866157E+02 -0.26108991317E+03  0.28481518521E+03  0.00000000000E+00 0. -1.
        3    1    5    5  501    0  0.50338535933E+02  0.15069657335E+02  0.28292629405E+03  0.28776440126E+03  0.00000000000E+00 0. -1.
       -4    1    5    5    0  501  0.36290121906E+02  0.12304521851E+03  0.46161041343E+03  0.47910676152E+03  0.14200000000E+01 0.  1.
</event>
<event>
 9   1  0.7335000E-04  0.9993985E+03  0.7818608E-02  0.9309205E-01
       21   -1    0    0  503  502  0.00000000000E+00  0.00000000000E+00  0.14804060433E+04  0.14804060433E+04  0.00000000000E+00 0. -1.
       21   -1    0    0  502  503 -0.00000000000E+00 -0.00000000000E+00 -0.16866949473E+03  0.16866949473E+03  0.00000000000E+00 0.  1.
       39    2    1    2    0    0  0.14210854715E-13  0.00000000000E+00  0.13117365486E+04  0.16490755380E+04  0.99939849772E+03 0.  0.
       24    2    3    3    0    0 -0.40416558600E+02 -0.39419022423E+03  0.11417085666E+04  0.12111558396E+04  0.79878566855E+02 0.  0.
      -24    2    3    3    0    0  0.40416558600E+02  0.39419022423E+03  0.17002798191E+03  0.43791969846E+03  0.76450746123E+02 0.  0.
      -13    1    4    4    0    0 -0.81420595523E+01 -0.22478431276E+03  0.75372776925E+03  0.78657474568E+03  0.00000000000E+00 0.  1.
       14    1    4    4    0    0 -0.32274499048E+02 -0.16940591147E+03  0.38798079739E+03  0.42458109387E+03  0.00000000000E+00 0. -1.
        1    1    5    5  501    0  0.12246812104E+02  0.47998078600E+01  0.52709000627E+01  0.14170566315E+02  0.00000000000E+00 0. -1.
       -2    1    5    5    0  501  0.28169746496E+02  0.38939041637E+03  0.16475708185E+03  0.42374913214E+03  0.00000000000E+00 0.  1.
</event>
<event>
 9   1  0.7335000E-04  0.1003402E+04  0.7818608E-02  0.9304821E-01
        2   -1    0    0  501    0  0.00000000000E+00  0.00000000000E+00  0.19984720929E+03  0.19984720929E+03  0.00000000000E+00 0.  1.
       -2   -1    0    0    0  501 -0.00000000000E+00 -0.00000000000E+00 -0.12594827130E+04  0.12594827130E+04  0.00000000000E+00 0. -1.
       39    2    1    2    0    0  0.00000000000E+00  0.35527136788E-14 -0.10596355037E+04  0.14593299222E+04  0.10034024224E+04 0.  0.
       24    2    3    3    0    0  0.47822550880E+03  0.28092344748E+02 -0.71281126587E+03  0.86260709837E+03  0.80636767749E+02 0.  0.
      -24    2    3    3    0    0 -0.47822550880E+03 -0.28092344748E+02 -0.34682423779E+03  0.59672282387E+03  0.79386771686E+02 0.  0.
      -13    1    4    4    0    0  0.47794154672E+03  0.33833363694E+02 -0.69716542535E+03  0.84593879736E+03  0.00000000000E+00 0.  1.
       14    1    4    4    0    0  0.28396207848E+00 -0.57410189464E+01 -0.15645840515E+02  0.16668301006E+02  0.00000000000E+00 0. -1.
        1    1    5    5  502    0 -0.44983110408E+03 -0.35581407445E+02 -0.30141702031E+03  0.54264747202E+03  0.00000000000E+00 0. -1.
       -2    1    5    5    0  502 -0.28394404714E+02  0.74890626972E+01 -0.45407217481E+02  0.54075351858E+02  0.00000000000E+00 0.  1.
</event>
<event>
 9   1  0.7335000E-04  0.9995606E+03  0.7818608E-02  0.9309027E-01
       21   -1    0    0  503  502  0.00000000000E+00  0.00000000000E+00  0.24474606430E+03  0.24474606430E+03  0.00000000000E+00 0. -1.
       21   -1    0    0  502  503 -0.00000000000E+00 -0.00000000000E+00 -0.10205693310E+04  0.10205693310E+04  0.00000000000E+00 0.  1.
       39    2    1    2    0    0  0.00000000000E+00  0.00000000000E+00 -0.77582326673E+03  0.12653153953E+04  0.99956055768E+03 0.  0.
       24    2    3    3    0    0  0.26360454529E+00  0.39575720130E+03 -0.76095699819E+03  0.86144285454E+03  0.80027536900E+02 0.  0.
      -24    2    3    3    0    0 -0.26360454529E+00 -0.39575720130E+03 -0.14866268541E+02  0.40387254080E+03  0.79171910415E+02 0.  0.
      -13    1    4    4    0    0  0.19954637085E+02  0.35689617334E+03 -0.64268818171E+03  0.73540544259E+03  0.00000000000E+00 0.  1.
       14    1    4    4    0    0 -0.19691032540E+02  0.38861027960E+02 -0.11826881649E+03  0.12603741195E+03  0.00000000000E+00 0. -1.
        3    1    5    5  501    0  0.34849934510E+02 -0.25704763524E+03  0.47462007921E+01  0.25944273191E+03  0.00000000000E+00 0. -1.
       -4    1    5    5    0  501 -0.35113539055E+02 -0.13870956606E+03 -0.19612469333E+02  0.14442980889E+03  0.14200000000E+01 0.  1.
</event>
<event>
 9   1  0.7335000E-04  0.1014972E+04  0.7818608E-02  0.9292274E-01
       21   -1    0    0  503  502  0.00000000000E+00  0.00000000000E+00  0.38423758594E+03  0.38423758594E+03  0.00000000000E+00 0. -1.
       21   -1    0    0  502  503 -0.00000000000E+00 -0.00000000000E+00 -0.67026831040E+03  0.67026831040E+03  0.00000000000E+00 0.  1.
       39    2    1    2    0    0  0.00000000000E+00  0.14210854715E-13 -0.28603072447E+03  0.10545058963E+04  0.10149724676E+04 0.  0.
       24    2    3    3    0    0  0.19323581511E+03  0.10257585286E+03 -0.61251960231E+03  0.65530403231E+03  0.79882574576E+02 0.  0.
      -24    2    3    3    0    0 -0.19323581511E+03 -0.10257585286E+03  0.32648887784E+03  0.39920186403E+03  0.70037526086E+02 0.  0.
      -13    1    4    4    0    0  0.17795721231E+02  0.43867009683E+02 -0.10735938299E+03  0.11733302752E+03  0.00000000000E+00 0.  1.
       14    1    4    4    0    0  0.17544009388E+03  0.58708843178E+02 -0.50516021932E+03  0.53797100479E+03  0.00000000000E+00 0. -1.
        3    1    5    5  501    0 -0.13612109136E+03 -0.90058636191E+02  0.18857978538E+03  0.24940297697E+03  0.00000000000E+00 0. -1.
       -4    1    5    5    0  501 -0.57114723746E+02 -0.12517216670E+02  0.13790909246E+03  0.14979888706E+03  0.14200000000E+01 0.  1.
</event>
<event>
 9   1  0.7335000E-04  0.9807505E+03  0.7818608E-02  0.9329913E-01
       -2   -1    0    0    0  501 -0.00000000000E+00  0.00000000000E+00  0.23783036837E+03  0.23783036837E+03  0.00000000000E+00 0.  1.
        2   -1    0    0  501    0  0.00000000000E+00 -0.00000000000E+00 -0.10110899449E+04  0.10110899449E+04  0.00000000000E+00 0. -1.
       39    2    1    2    0    0  0.56843418861E-13  0.00000000000E+00 -0.77325957652E+03  0.12489203133E+04  0.98075051680E+03 0.  0.
       24    2    3    3    0    0  0.44317176050E+03 -0.12966191960E+03 -0.57574698800E+03  0.74239092225E+03  0.80288632731E+02 0.  0.
      -24    2    3    3    0    0 -0.44317176050E+03  0.12966191960E+03 -0.19751258852E+03  0.50652939102E+03  0.65934654359E+02 0.  0.
      -13    1    4    4    0    0  0.14325984864E+03 -0.64958215526E+02 -0.14793858189E+03  0.21593697694E+03  0.00000000000E+00 0.  1.
       14    1    4    4    0    0  0.29991191186E+03 -0.64703704079E+02 -0.42780840611E+03  0.52645394531E+03  0.00000000000E+00 0. -1.
        1    1    5    5  502    0 -0.75696416965E+02  0.48206702114E+02 -0.30984896621E+02  0.94941547747E+02  0.00000000000E+00 0. -1.
       -2    1    5    5    0  502 -0.36747534353E+03  0.81455217491E+02 -0.16652769190E+03  0.41158784327E+03  0.00000000000E+00 0.  1.
</event>
<event>
 9   1  0.7335000E-04  0.9851512E+03  0.7818608E-02  0.9324982E-01
       21   -1    0    0  503  502  0.00000000000E+00  0.00000000000E+00  0.22867916274E+03  0.22867916274E+03  0.00000000000E+00 0. -1.
       21   -1    0    0  502  503 -0.00000000000E+00 -0.00000000000E+00 -0.10610092115E+04  0.10610092115E+04  0.00000000000E+00 0.  1.
       39    2    1    2    0    0  0.00000000000E+00  0.56843418861E-13 -0.83233004875E+03  0.12896883742E+04  0.98515115215E+03 0.  0.
       24    2    3    3    0    0 -0.19082189603E+03  0.40256119980E+03 -0.66885256360E+03  0.80787200294E+03  0.82612987494E+02 0.  0.
      -24    2    3    3    0    0  0.19082189603E+03 -0.40256119980E+03 -0.16347748515E+03  0.48181637129E+03  0.83388319949E+02 0.  0.
      -13    1    4    4    0    0 -0.78763830789E+02  0.23199762985E+03 -0.41776070971E+03  0.48430429678E+03  0.00000000000E+00 0.  1.
       14    1    4    4    0    0 -0.11205806524E+03  0.17056356995E+03 -0.25109185389E+03  0.32356770616E+03  0.00000000000E+00 0. -1.
        1    1    5    5  501    0  0.16395799924E+03 -0.29827073901E+03 -0.92063568369E+02  0.35259517847E+03  0.00000000000E+00 0. -1.
       -2    1    5    5    0  501  0.26863896792E+02 -0.10429046080E+03 -0.71413916778E+02  0.12922119282E+03  0.00000000000E+00 0.  1.
</event>
<event>
 9   1  0.7335000E-04  0.1052065E+04  0.7818608E-02  0.9253215E-01
       21   -1    0    0  503  502  0.00000000000E+00  0.00000000000E+00  0.44289725362E+03  0.44289725362E+03  0.00000000000E+00 0.  1.
       21   -1    0    0  502  503 -0.00000000000E+00 -0.00000000000E+00 -0.62477252509E+03  0.62477252509E+03  0.00000000000E+00 0. -1.
       39    2    1    2    0    0  0.56843418861E-13  0.14210854715E-13 -0.18187527147E+03  0.10676697787E+04  0.10520647043E+04 0.  0.
       24    2    3    3    0    0  0.23819090564E+03 -0.71688626800E+02  0.37217426910E+03  0.45475300835E+03  0.80077745223E+02 0.  0.
      -24    2    3    3    0    0 -0.23819090564E+03  0.71688626800E+02 -0.55404954058E+03  0.61291677035E+03  0.82594837740E+02 0.  0.
      -13    1    4    4    0    0  0.23130311298E+03 -0.83222218156E+02  0.36330939139E+03  0.43865793226E+03  0.00000000000E+00 0.  1.
       14    1    4    4    0    0  0.68877926653E+01  0.11533591357E+02  0.88648777168E+01  0.16095076089E+02  0.00000000000E+00 0. -1.
        1    1    5    5  501    0 -0.23129929887E+03  0.48276493327E+02 -0.51845232285E+03  0.56975678718E+03  0.00000000000E+00 0. -1.
       -2    1    5    5    0  501 -0.68916067702E+01  0.23412133473E+02 -0.35597217724E+02  0.43159983171E+02  0.00000000000E+00 0.  1.
</event>
<event>
 9   1  0.7335000E-04  0.1003130E+04  0.7818608E-02  0.9305118E-01
       21   -1    0    0  503  502  0.00000000000E+00  0.00000000000E+00  0.64708520385E+03  0.64708520385E+03  0.00000000000E+00 0. -1.
       21   -1    0    0  502  503 -0.00000000000E+00 -0.00000000000E+00 -0.38877029126E+03  0.38877029126E+03  0.00000000000E+00 0.  1.
       39    2    1    2    0    0  0.00000000000E+00  0.00000000000E+00  0.25831491259E+03  0.10358554951E+04  0.10031301076E+04 0.  0.
       24    2    3    3    0    0  0.70073348537E+02  0.14151182714E+03  0.61333843406E+03  0.63851361099E+03  0.81115506158E+02 0.  0.
      -24    2    3    3    0    0 -0.70073348537E+02 -0.14151182714E+03 -0.35502352146E+03  0.39734188411E+03  0.83084298649E+02 0.  0.
      -13    1    4    4    0    0 -0.78039267173E+01  0.24973150785E+01  0.48797451780E+01  0.95367587687E+01  0.00000000000E+00 0.  1.
       14    1    4    4    0    0  0.77877275254E+02  0.13901451206E+03  0.60845868888E+03  0.62897685223E+03  0.00000000000E+00 0. -1.
        3    1    5    5  501    0  0.32954931623E+01 -0.55861074493E-01  0.36154102916E+01  0.48922987664E+01  0.00000000000E+00 0. -1.
       -4    1    5    5    0  501 -0.73368841699E+02 -0.14145596606E+03 -0.35863893176E+03  0.39244958535E+03  0.14200000000E+01 0.  1.
</event>
<event>
 9   1  0.7335000E-04  0.9984954E+03  0.7818608E-02  0.9310197E-01
       -2   -1    0    0    0  501 -0.00000000000E+00  0.00000000000E+00  0.23055156927E+03  0.23055156927E+03  0.00000000000E+00 0. -1.
        2   -1    0    0  501    0  0.00000000000E+00 -0.00000000000E+00 -0.10810954510E+04  0.10810954510E+04  0.00000000000E+00 0.  1.
       39    2    1    2    0    0  0.00000000000E+00  0.00000000000E+00 -0.85054388173E+03  0.13116470203E+04  0.99849537355E+03 0.  0.
       24    2    3    3    0    0  0.35275337937E+03  0.23970395048E+03 -0.74892629921E+03  0.86559743680E+03  0.80469810580E+02 0.  0.
      -24    2    3    3    0    0 -0.35275337937E+03 -0.23970395048E+03 -0.10161758252E+03  0.44604958346E+03  0.82104611876E+02 0.  0.
      -13    1    4    4    0    0  0.17072030169E+03  0.14243529978E+03 -0.45535783976E+03  0.50673858967E+03  0.00000000000E+00 0.  1.
       14    1    4    4    0    0  0.18203307768E+03  0.97268650699E+02 -0.29356845946E+03  0.35885884713E+03  0.00000000000E+00 0. -1.
        3    1    5    5  502    0 -0.29198005342E+03 -0.17987091702E+03 -0.11048115434E+03  0.36029430172E+03  0.00000000000E+00 0. -1.
       -4    1    5    5    0  502 -0.60773325946E+02 -0.59833033465E+02  0.88635718292E+01  0.85755281737E+02  0.14200000000E+01 0.  1.
</event>
<event>
 9   1  0.7335000E-04  0.1012411E+04  0.7818608E-02  0.9295037E-01
       21   -1    0    0  503  502  0.00000000000E+00  0.00000000000E+00  0.19685346048E+03  0.19685346048E+03  0.00000000000E+00 0.  1.
       21   -1    0    0  502  503 -0.00000000000E+00 -0.00000000000E+00 -0.13016980523E+04  0.13016980523E+04  0.00000000000E+00 0. -1.
       39    2    1    2    0    0 -0.56843418861E-13  0.14210854715E-13 -0.11048445918E+04  0.14985515127E+04  0.10124105217E+04 0.  0.
       24    2    3    3    0    0 -0.38339307812E+03  0.62974874482E+02 -0.10181199000E+04  0.10926577167E+04  0.79854041208E+02 0.  0.
      -24    2    3    3    0    0  0.38339307812E+03 -0.62974874482E+02 -0.86724691824E+02  0.40589379609E+03  0.79199206876E+02 0.  0.
      -13    1    4    4    0    0 -0.25799052120E+02 -0.14204629214E+02 -0.10291743758E+03  0.10704840746E+03  0.00000000000E+00 0.  1.
       14    1    4    4    0    0 -0.35759402600E+03  0.77179503696E+02 -0.91520246239E+03  0.98560930920E+03  0.00000000000E+00 0. -1.
        1    1    5    5  501    0  0.18140346925E+03  0.45654723619E+01 -0.19252408961E+02  0.18247936170E+03  0.00000000000E+00 0. -1.
       -2    1    5    5    0  501  0.20198960886E+03 -0.67540346844E+02 -0.67472282863E+02  0.22341443439E+03  0.00000000000E+00 0.  1.
</event>
<event>
 9   1  0.7335000E-04  0.1028189E+04  0.7818608E-02  0.9278157E-01
        2   -1    0    0  501    0  0.00000000000E+00  0.00000000000E+00  0.15705444834E+04  0.15705444834E+04  0.00000000000E+00 0. -1.
       -2   -1    0    0    0  501 -0.00000000000E+00 -0.00000000000E+00 -0.16828122306E+03  0.16828122306E+03  0.00000000000E+00 0.  1.
       39    2    1    2    0    0 -0.28421709430E-13  0.00000000000E+00  0.14022632603E+04  0.17388257064E+04  0.10281889837E+04 0.  0.
       24    2    3    3    0    0 -0.20743277457E+03  0.15111207972E+03 -0.40239843108E+02  0.27150627261E+03  0.78950582602E+02 0.  0.
      -24    2    3    3    0    0  0.20743277457E+03 -0.15111207972E+03  0.14425031034E+04  0.14673194338E+04  0.79673715297E+02 0.  0.
      -13    1    4    4    0    0 -0.16412658831E+03  0.15230455773E+03 -0.23795074701E+02  0.22516753957E+03  0.00000000000E+00 0.  1.
       14    1    4    4    0    0 -0.43306186255E+02 -0.11924780145E+01 -0.16444768407E+02  0.46338733039E+02  0.00000000000E+00 0. -1.
        3    1    5    5  502    0  0.16215493660E+03 -0.13238884531E+03  0.12969280948E+04  0.13137136343E+04  0.00000000000E+00 0. -1.
       -4    1    5    5    0  502  0.45277837966E+02 -0.18723234414E+02  0.14557500858E+03  0.15360579951E+03  0.14200000000E+01 0.  1.
</event>
<event>
 9   1  0.7335000E-04  0.9909036E+03  0.7818608E-02  0.9318578E-01
       21   -1    0    0  503  502  0.00000000000E+00  0.00000000000E+00  0.40339130528E+03  0.40339130528E+03  0.00000000000E+00 0. -1.
       21   -1    0    0  502  503 -0.00000000000E+00 -0.00000000000E+00 -0.60852195839E+03  0.60852195839E+03  0.00000000000E+00 0.  1.
       39    2    1    2    0    0  0.00000000000E+00  0.00000000000E+00 -0.20513065311E+03  0.10119132637E+04  0.99090356157E+03 0.  0.
       24    2    3    3    0    0 -0.40653350671E+03 -0.59870444697E+02  0.16829957811E+03  0.45127848482E+03  0.80458440443E+02 0.  0.
      -24    2    3    3    0    0  0.40653350671E+03  0.59870444697E+02 -0.37343023122E+03  0.56063477885E+03  0.77506486404E+02 0.  0.
      -13    1    4    4    0    0 -0.62561389667E+02 -0.84912300213E+01 -0.37789495962E+01  0.63247995418E+02  0.00000000000E+00 0.  1.
       14    1    4    4    0    0 -0.34397211705E+03 -0.51379214675E+02  0.17207852771E+03  0.38803048940E+03  0.00000000000E+00 0. -1.
        1    1    5    5  501    0  0.27119092208E+02 -0.14796234741E+02 -0.20315867061E+02  0.36974426015E+02  0.00000000000E+00 0. -1.
       -2    1    5    5    0  501  0.37941441450E+03  0.74666679437E+02 -0.35311436416E+03  0.52366035283E+03  0.00000000000E+00 0.  1.
</event>
<event>
 8   1  0.7335000E-04  0.5947668E+03  0.7818608E-02  0.9916323E-01
       21   -1    0    0  503  502  0.00000000000E+00  0.00000000000E+00  0.25680321337E+03  0.25680321337E+03  0.00000000000E+00 0. -1.
       21   -1    0    0  502  503 -0.00000000000E+00 -0.00000000000E+00 -0.34437612599E+03  0.34437612599E+03  0.00000000000E+00 0.  1.
       24    2    1    2    0    0 -0.78892807457E+02 -0.42672624865E+02 -0.31863383363E+03  0.34046789778E+03  0.79660790240E+02 0.  0.
      -24    2    1    2    0    0  0.78892807457E+02  0.42672624865E+02  0.23106092101E+03  0.26071144158E+03  0.80847254559E+02 0.  0.
      -13    1    3    3    0    0 -0.16122935500E-03 -0.12178426811E+02 -0.16199366141E+03  0.16245079384E+03  0.00000000000E+00 0.  1.
       14    1    3    3    0    0 -0.78892646228E+02 -0.30494198054E+02 -0.15664017222E+03  0.17801710394E+03  0.00000000000E+00 0. -1.
        3    1    4    4  501    0  0.29487997954E+02  0.52175744335E+02  0.17689399867E+03  0.18677081433E+03  0.00000000000E+00 0. -1.
       -4    1    4    4    0  501  0.49404809503E+02 -0.95031194697E+01  0.54166922336E+02  0.73940627243E+02  0.14200000000E+01 0.  1.
</event>
<event>
 9   1  0.7335000E-04  0.1008960E+04  0.7818608E-02  0.9298772E-01
        2   -1    0    0  501    0  0.00000000000E+00  0.00000000000E+00  0.19586691736E+04  0.19586691736E+04  0.00000000000E+00 0. -1.
       -2   -1    0    0    0  501 -0.00000000000E+00 -0.00000000000E+00 -0.12993508830E+03  0.12993508830E+03  0.00000000000E+00 0.  1.
       39    2    1    2    0    0  0.71054273576E-14  0.00000000000E+00  0.18287340853E+04  0.20886042619E+04  0.10089595671E+04 0.  0.
       24    2    3    3    0    0  0.51115591335E+02 -0.49439777801E+03  0.84652989159E+03  0.98489507544E+03  0.79771459122E+02 0.  0.
      -24    2    3    3    0    0 -0.51115591335E+02  0.49439777801E+03  0.98220419371E+03  0.11037091865E+04  0.80043260555E+02 0.  0.
      -13    1    4    4    0    0  0.44925912414E+02 -0.24410358351E+03  0.48944185572E+03  0.54877885092E+03  0.00000000000E+00 0.  1.
       14    1    4    4    0    0  0.61896789202E+01 -0.25029419450E+03  0.35708803587E+03  0.43611622452E+03  0.00000000000E+00 0. -1.
        3    1    5    5  502    0 -0.49134861508E+02  0.42839732500E+03  0.90230834677E+03  0.10000494264E+04  0.00000000000E+00 0. -1.
       -4    1    5    5    0  502 -0.19807298269E+01  0.66000453015E+02  0.79895846936E+02  0.10365976002E+03  0.14200000000E+01 0.  1.
</event>
<event>
 9   1  0.7335000E-04  0.9893393E+03  0.7818608E-02  0.9320315E-01
       21   -1    0    0  503  502  0.00000000000E+00  0.00000000000E+00  0.15938201307E+03  0.15938201307E+03  0.00000000000E+00 0.  1.
       21   -1    0    0  502  503 -0.00000000000E+00 -0.00000000000E+00 -0.15352927297E+04  0.15352927297E+04  0.00000000000E+00 0. -1.
       39    2    1    2    0    0  0.00000000000E+00  0.56843418861E-13 -0.13759107166E+04  0.16946747427E+04  0.98933926618E+03 0.  0.
       24    2    3    3    0    0  0.16389928165E+03  0.43906046172E+03 -0.91937591765E+03  0.10349367093E+04  0.78770874662E+02 0.  0.
      -24    2    3    3    0    0 -0.16389928165E+03 -0.43906046172E+03 -0.45653479893E+03  0.65973803343E+03  0.84812655636E+02 0.  0.
      -13    1    4    4    0    0  0.37331043926E+02  0.36092976211E+02 -0.81832015937E+02  0.96916400081E+02  0.00000000000E+00 0.  1.
       14    1    4    4    0    0  0.12656823773E+03  0.40296748550E+03 -0.83754390171E+03  0.93802030920E+03  0.00000000000E+00 0. -1.
        3    1    5    5  501    0 -0.38625697696E+02 -0.14185347689E+03 -0.19664793606E+03  0.24552955868E+03  0.00000000000E+00 0. -1.
       -4    1    5    5    0  501 -0.12527358396E+03 -0.29720698482E+03 -0.25988686287E+03  0.41420847475E+03  0.14200000000E+01 0.  1.
</event>
<event>
 9   1  0.7335000E-04  0.1001363E+04  0.7818608E-02  0.9307051E-01
       21   -1    0    0  503  502  0.00000000000E+00  0.00000000000E+00  0.13748784802E+03  0.13748784802E+03  0.00000000000E+00 0. -1.
       21   -1    0    0  502  503 -0.00000000000E+00 -0.00000000000E+00 -0.18233020136E+04  0.18233020136E+04  0.00000000000E+00 0.  1.
       39    2    1    2    0    0  0.56843418861E-13  0.56843418861E-13 -0.16858141656E+04  0.19607898616E+04  0.10013628117E+04 0.  0.
       24    2    3    3    0    0 -0.17725600319E+03 -0.32824085969E+03 -0.20706914457E+03  0.43379500970E+03  0.78350029801E+02 0.  0.
      -24    2    3    3    0    0  0.17725600319E+03  0.32824085969E+03 -0.14787450210E+04  0.15269948519E+04  0.76581250907E+02 0.  0.
      -13    1    4    4    0    0  0.33082655780E+01 -0.22343240130E+01  0.38760640039E+01  0.55642337381E+01  0.00000000000E+00 0.  1.
       14    1    4    4    0    0 -0.18056426876E+03 -0.32600653568E+03 -0.21094520858E+03  0.42823077596E+03  0.00000000000E+00 0. -1.
        3    1    5    5  501    0  0.41172147761E+02  0.94756021700E+02 -0.55476980819E+03  0.56430788536E+03  0.00000000000E+00 0. -1.
       -4    1    5    5    0  501  0.13608385542E+03  0.23348483799E+03 -0.92397521284E+03  0.96268696658E+03  0.14200000000E+01 0.  1.
</event>
<event>
 9   1  0.7335000E-04  0.9997613E+03  0.7818608E-02  0.9308807E-01
       21   -1    0    0  503  502  0.00000000000E+00  0.00000000000E+00  0.54598604840E+03  0.54598604840E+03  0.00000000000E+00 0. -1.
       21   -1    0    0  502  503 -0.00000000000E+00 -0.00000000000E+00 -0.45766860831E+03  0.45766860831E+03  0.00000000000E+00 0.  1.
       39    2    1    2    0    0 -0.28421709430E-13  0.56843418861E-13  0.88317440092E+02  0.10036546567E+04  0.99976132137E+03 0.  0.
       24    2    3    3    0    0  0.10127851743E+03 -0.34533409135E+03 -0.29410377416E+03  0.47184745750E+03  0.81424937420E+02 0.  0.
      -24    2    3    3    0    0 -0.10127851743E+03  0.34533409135E+03  0.38242121425E+03  0.53180719921E+03  0.84023444853E+02 0.  0.
      -13    1    4    4    0    0  0.73615678544E+02 -0.25839693068E+03 -0.26160284961E+03  0.37499905711E+03  0.00000000000E+00 0.  1.
       14    1    4    4    0    0  0.27662838888E+02 -0.86937160668E+02 -0.32500924544E+02  0.96848400383E+02  0.00000000000E+00 0. -1.
        1    1    5    5  501    0 -0.11422049075E+03  0.28454752745E+03  0.33047849449E+03  0.45080999457E+03  0.00000000000E+00 0. -1.
       -2    1    5    5    0  501  0.12941973313E+02  0.60786563895E+02  0.51942719757E+02  0.80997204638E+02  0.00000000000E+00 0.  1.
</event>
<event>
 9   1  0.7335000E-04  0.9935412E+03  0.7818608E-02  0.9315657E-01
       21   -1    0    0  503  502  0.00000000000E+00  0.00000000000E+00  0.57673606309E+03  0.57673606309E+03  0.00000000000E+00 0.  1.
       21   -1    0    0  502  503 -0.00000000000E+00 -0.00000000000E+00 -0.42789250898E+03  0.42789250898E+03  0.00000000000E+00 0. -1.
       39    2    1    2    0    0  0.14210854715E-13 -0.14210854715E-13  0.14884355412E+03  0.10046285721E+04  0.99354122421E+03 0.  0.
       24    2    3    3    0    0 -0.64494196918E+02 -0.91642793007E+02 -0.40838886149E+03  0.43036986179E+03  0.76673677358E+02 0.  0.
      -24    2    3    3    0    0  0.64494196918E+02  0.91642793007E+02  0.55723241561E+03  0.57425871028E+03  0.81897487017E+02 0.  0.
      -13    1    4    4    0    0 -0.23988654678E+02  0.75692788310E+00 -0.28238709571E+02  0.37060129672E+02  0.00000000000E+00 0.  1.
       14    1    4    4    0    0 -0.40505542241E+02 -0.92399720890E+02 -0.38015015192E+03  0.39330973212E+03  0.00000000000E+00 0. -1.
        1    1    5    5  501    0  0.43276550149E+02  0.90945876389E+02  0.30638891130E+03  0.32251849124E+03  0.00000000000E+00 0. -1.
       -2    1    5    5    0  501  0.21217646769E+02  0.69691661860E+00  0.25084350431E+03  0.25174021904E+03  0.00000000000E+00 0.  1.
</event>
<event>
 9   1  0.7335000E-04  0.1003520E+04  0.7818608E-02  0.9304692E-01
       21   -1    0    0  503  502  0.00000000000E+00  0.00000000000E+00  0.19344252437E+04  0.19344252437E+04  0.00000000000E+00 0. -1.
       21   -1    0    0  502  503 -0.00000000000E+00 -0.00000000000E+00 -0.13014886994E+03  0.13014886994E+03  0.00000000000E+00 0.  1.
       39    2    1    2    0    0  0.00000000000E+00  0.00000000000E+00  0.18042763738E+04  0.20645741136E+04  0.10035203226E+04 0.  0.
       24    2    3    3    0    0  0.28315381180E+03  0.21939118193E+03  0.16074736047E+04  0.16488033202E+04  0.79198656337E+02 0.  0.
      -24    2    3    3    0    0 -0.28315381180E+03 -0.21939118193E+03  0.19680276906E+03  0.41577079340E+03  0.76324641424E+02 0.  0.
      -13    1    4    4    0    0  0.27653775244E+02  0.39770702722E+02  0.33914805115E+03  0.34258990160E+03  0.00000000000E+00 0.  1.
       14    1    4    4    0    0  0.25550003656E+03  0.17962047921E+03  0.12683255535E+04  0.13062134186E+04  0.00000000000E+00 0. -1.
        1    1    5    5  501    0 -0.84669495106E+02 -0.32907893823E+02  0.73326179982E+02  0.11674151596E+03  0.00000000000E+00 0. -1.
       -2    1    5    5    0  501 -0.19848431669E+03 -0.18648328811E+03  0.12347658908E+03  0.29902927744E+03  0.00000000000E+00 0.  1.
</event>
<event>
 9   1  0.7335000E-04  0.9784098E+03  0.7818608E-02  0.9332547E-01
       21   -1    0    0  503  502  0.00000000000E+00  0.00000000000E+00  0.15361490081E+03  0.15361490081E+03  0.00000000000E+00 0. -1.
       21   -1    0    0  502  503 -0.00000000000E+00 -0.00000000000E+00 -0.15579310445E+04  0.15579310445E+04  0.00000000000E+00 0.  1.
       39    2    1    2    0    0 -0.71054273576E-14  0.56843418861E-13 -0.14043161437E+04  0.17115459453E+04  0.97840977689E+03 0.  0.
       24    2    3    3    0    0 -0.34890020786E+02  0.28076162994E+03 -0.13858031458E+04  0.14166840236E+04  0.80615490744E+02 0.  0.
      -24    2    3    3    0    0  0.34890020786E+02 -0.28076162994E+03 -0.18512997878E+02  0.29486192173E+03  0.80971695051E+02 0.  0.
      -13    1    4    4    0    0 -0.25442209377E+02  0.21392530465E+03 -0.86031998511E+03  0.88688320469E+03  0.00000000000E+00 0.  1.
       14    1    4    4    0    0 -0.94478114087E+01  0.66836325289E+02 -0.52548316074E+03  0.52980081893E+03  0.00000000000E+00 0. -1.
        1    1    5    5  501    0  0.29484710802E+02 -0.28041750023E+03 -0.68997563285E+01  0.28204774284E+03  0.00000000000E+00 0. -1.
       -2    1    5    5    0  501  0.54053099837E+01 -0.34412971113E+00 -0.11613241549E+02  0.12814178888E+02  0.00000000000E+00 0.  1.
</event>
<event>
 9   1  0.7335000E-04  0.1001326E+04  0.7818608E-02  0.9307091E-01
       21   -1    0    0  503  502  0.00000000000E+00  0.00000000000E+00  0.12944844183E+03  0.12944844183E+03  0.00000000000E+00 0. -1.
       21   -1    0    0  502  503 -0.00000000000E+00 -0.00000000000E+00 -0.19363969116E+04  0.19363969116E+04  0.00000000000E+00 0.  1.
       39    2    1    2    0    0  0.00000000000E+00  0.00000000000E+00 -0.18069484697E+04  0.20658453534E+04  0.10013262464E+04 0.  0.
       24    2    3    3    0    0  0.27363056147E+03 -0.38684550264E+02 -0.17477667829E+04  0.17713275674E+04  0.80885382190E+02 0.  0.
      -24    2    3    3    0    0 -0.27363056147E+03  0.38684550264E+02 -0.59181686874E+02  0.29451778601E+03  0.82873853642E+02 0.  0.
      -13    1    4    4    0    0  0.16407733802E+03 -0.55744500332E+02 -0.12005187310E+04  0.12129608591E+04  0.00000000000E+00 0.  1.
       14    1    4    4    0    0  0.10955322345E+03  0.17059950068E+02 -0.54724805184E+03  0.55836670827E+03  0.00000000000E+00 0. -1.
        3    1    5    5  501    0 -0.10210074234E+03 -0.24731932850E+02 -0.12683445331E+02  0.10581634975E+03  0.00000000000E+00 0. -1.
       -4    1    5    5    0  501 -0.17152981913E+03  0.63416483115E+02 -0.46498241543E+02  0.18870143627E+03  0.14200000000E+01 0.  1.
</event>
<event>
 9   1  0.7335000E-04  0.1010439E+04  0.7818608E-02  0.9297169E-01
       21   -1    0    0  503  502  0.00000000000E+00  0.00000000000E+00  0.62408592555E+03  0.62408592555E+03  0.00000000000E+00 0.  1.
       21   -1    0    0  502  503 -0.00000000000E+00 -0.00000000000E+00 -0.40899294949E+03  0.40899294949E+03  0.00000000000E+00 0. -1.
       39    2    1    2    0    0  0.14210854715E-13  0.00000000000E+00  0.21509297606E+03  0.10330788750E+04  0.10104390005E+04 0.  0.
       24    2    3    3    0    0  0.77276462274E+02 -0.19104766945E+03 -0.35549023188E+03  0.42139231841E+03  0.93420112584E+02 0.  0.
      -24    2    3    3    0    0 -0.77276462274E+02  0.19104766945E+03  0.57058320794E+03  0.61168655662E+03  0.78258435664E+02 0.  0.
      -13    1    4    4    0    0 -0.15129641119E+02 -0.40142671740E+02 -0.35280190728E+02  0.55543064307E+02  0.00000000000E+00 0.  1.
       14    1    4    4    0    0  0.92406103394E+02 -0.15090499771E+03 -0.32021004115E+03  0.36584925411E+03  0.00000000000E+00 0. -1.
        1    1    5    5  501    0 -0.77257620731E+02  0.11863259780E+03  0.30239876592E+03  0.33389735975E+03  0.00000000000E+00 0. -1.
       -2    1    5    5    0  501 -0.18841543064E-01  0.72415071641E+02  0.26818444202E+03  0.27778919687E+03  0.00000000000E+00 0.  1.
</event>
<event>
 9   1  0.7335000E-04  0.1000719E+04  0.7818608E-02  0.9307757E-01
       21   -1    0    0  503  502  0.00000000000E+00  0.00000000000E+00  0.96462815297E+03  0.96462815297E+03  0.00000000000E+00 0.  1.
       21   -1    0    0  502  503 -0.00000000000E+00 -0.00000000000E+00 -0.25953999771E+03  0.25953999771E+03  0.00000000000E+00 0. -1.
       39    2    1    2    0    0  0.00000000000E+00  0.00000000000E+00  0.70508815525E+03  0.12241681507E+04  0.10007189188E+04 0.  0.
       24    2    3    3    0    0 -0.28736613051E+02 -0.42417679438E+03  0.44908282668E+02  0.43484125204E+03  0.79488457053E+02 0.  0.
      -24    2    3    3    0    0  0.28736613051E+02  0.42417679438E+03  0.66017987258E+03  0.78932689864E+03  0.80297838918E+02 0.  0.
      -13    1    4    4    0    0 -0.34199858015E+02 -0.78051329150E+02 -0.35956811026E+01  0.85291085073E+02  0.00000000000E+00 0.  1.
       14    1    4    4    0    0  0.54632449645E+01 -0.34612546523E+03  0.48503963771E+02  0.34955016697E+03  0.00000000000E+00 0. -1.
        1    1    5    5  501    0  0.48262325700E+01 -0.20091757530E+01  0.42616606394E+01  0.67447060301E+01  0.00000000000E+00 0. -1.
       -2    1    5    5    0  501  0.23910380481E+02  0.42618597013E+03  0.65591821194E+03  0.78258219261E+03  0.00000000000E+00 0.  1.
</event>
<event>
 9   1  0.7335000E-04  0.1094427E+04  0.7818608E-02  0.9210641E-01
       21   -1    0    0  503  502  0.00000000000E+00  0.00000000000E+00  0.71755688342E+02  0.71755688342E+02  0.00000000000E+00 0. -1.
       21   -1    0    0  502  503 -0.00000000000E+00 -0.00000000000E+00 -0.41730872707E+04  0.41730872707E+04  0.00000000000E+00 0.  1.
       39    2    1    2    0    0 -0.56843418861E-13  0.00000000000E+00 -0.41013315824E+04  0.42448429591E+04  0.10944272468E+04 0.  0.
       24    2    3    3    0    0  0.32032046790E+03  0.42174124052E+03 -0.24832192220E+04  0.25403163371E+04  0.79740275353E+02 0.  0.
      -24    2    3    3    0    0 -0.32032046790E+03 -0.42174124052E+03 -0.16181123603E+04  0.17045266220E+04  0.81562971555E+02 0.  0.
      -13    1    4    4    0    0  0.25561595914E+03  0.37596315976E+03 -0.21806929598E+04  0.22275793142E+04  0.00000000000E+00 0.  1.
       14    1    4    4    0    0  0.64704508757E+02  0.45778080754E+02 -0.30252626226E+03  0.31273702289E+03  0.00000000000E+00 0. -1.
        3    1    5    5  501    0 -0.31740261487E+03 -0.39468553022E+03 -0.14959849419E+04  0.15793960979E+04  0.00000000000E+00 0. -1.
       -4    1    5    5    0  501 -0.29178530305E+01 -0.27055710298E+02 -0.12212741848E+03  0.12513052413E+03  0.14200000000E+01 0.  1.
</event>
<event>
 9   1  0.7335000E-04  0.1000524E+04  0.7818608E-02  0.9307971E-01
       21   -1    0    0  503  502  0.00000000000E+00  0.00000000000E+00  0.62205063720E+03  0.62205063720E+03  0.00000000000E+00 0. -1.
       21   -1    0    0  502  503 -0.00000000000E+00 -0.00000000000E+00 -0.40231746576E+03  0.40231746576E+03  0.00000000000E+00 0.  1.
       39    2    1    2    0    0 -0.28421709430E-13  0.56843418861E-13  0.21973317144E+03  0.10243681030E+04  0.10005235348E+04 0.  0.
       24    2    3    3    0    0  0.25300111797E+03 -0.42209782189E+03  0.69943372518E+02  0.50360991084E+03  0.80961287066E+02 0.  0.
      -24    2    3    3    0    0 -0.25300111797E+03  0.42209782189E+03  0.14978979892E+03  0.52075819212E+03  0.81092378566E+02 0.  0.
      -13    1    4    4    0    0  0.13106059244E+02 -0.76822379799E+02  0.39911139247E+01  0.78034452758E+02  0.00000000000E+00 0.  1.
       14    1    4    4    0    0  0.23989505872E+03 -0.34527544209E+03  0.65952258594E+02  0.42557545809E+03  0.00000000000E+00 0. -1.
        3    1    5    5  501    0  0.48866012252E+01  0.64756583558E+01 -0.24630495451E+01  0.84781858753E+01  0.00000000000E+00 0. -1.
       -4    1    5    5    0  501 -0.25788771919E+03  0.41562216354E+03  0.15225284847E+03  0.51228000624E+03  0.14200000000E+01 0.  1.
</event>
<event>
 9   1  0.7335000E-04  0.9973551E+03  0.7818608E-02  0.9311450E-01
       21   -1    0    0  503  502  0.00000000000E+00  0.00000000000E+00  0.21720149721E+03  0.21720149721E+03  0.00000000000E+00 0.  1.
       21   -1    0    0  502  503 -0.00000000000E+00 -0.00000000000E+00 -0.11449245355E+04  0.11449245355E+04  0.00000000000E+00 0. -1.
       39    2    1    2    0    0  0.11368683772E-12  0.00000000000E+00 -0.92772303833E+03  0.13621260328E+04  0.99735514901E+03 0.  0.
       24    2    3    3    0    0  0.39126074844E+03 -0.25600395020E+03 -0.67474479372E+03  0.82473307520E+03  0.79253472437E+02 0.  0.
      -24    2    3    3    0    0 -0.39126074844E+03  0.25600395020E+03 -0.25297824461E+03  0.53739295755E+03  0.78550638367E+02 0.  0.
      -13    1    4    4    0    0  0.18336317289E+03 -0.73311856029E+02 -0.28205799219E+03  0.34431583229E+03  0.00000000000E+00 0.  1.
       14    1    4    4    0    0  0.20789757554E+03 -0.18269209418E+03 -0.39268680153E+03  0.48041724291E+03  0.00000000000E+00 0. -1.
        1    1    5    5  501    0 -0.65383307208E+02  0.19107866649E+02 -0.59562539508E+02  0.90486372134E+02  0.00000000000E+00 0. -1.
       -2    1    5    5    0  501 -0.32587744123E+03  0.23689608356E+03 -0.19341570511E+03  0.44690658542E+03  0.00000000000E+00 0.  1.
</event>
<event>
 9   1  0.7335000E-04  0.1002764E+04  0.7818608E-02  0.9305518E-01
       21   -1    0    0  503  502  0.00000000000E+00  0.00000000000E+00  0.29273106714E+03  0.29273106714E+03  0.00000000000E+00 0.  1.
       21   -1    0    0  502  503 -0.00000000000E+00 -0.00000000000E+00 -0.85875415459E+03  0.85875415459E+03  0.00000000000E+00 0. -1.
       39    2    1    2    0    0  0.56843418861E-13  0.00000000000E+00 -0.56602308744E+03  0.11514852217E+04  0.10027642197E+04 0.  0.
       24    2    3    3    0    0  0.28285805078E+03  0.31280032455E+02  0.18185092606E+03  0.34710785113E+03  0.80168470638E+02 0.  0.
      -24    2    3    3    0    0 -0.28285805078E+03 -0.31280032455E+02 -0.74787401350E+03  0.80437737060E+03  0.81977417279E+02 0.  0.
      -13    1    4    4    0    0  0.20747233772E+03  0.55431343553E+02  0.14912906702E+03  0.26145149339E+03  0.00000000000E+00 0.  1.
       14    1    4    4    0    0  0.75385713064E+02 -0.24151311098E+02  0.32721859038E+02  0.85656357738E+02  0.00000000000E+00 0. -1.
        1    1    5    5  501    0 -0.23930815545E+03 -0.64769643798E+01 -0.54243008497E+03  0.59290871255E+03  0.00000000000E+00 0. -1.
       -2    1    5    5    0  501 -0.43549895329E+02 -0.24803068075E+02 -0.20544392854E+03  0.21146865806E+03  0.00000000000E+00 0.  1.
</event>
<event>
 9   1  0.7335000E-04  0.1001625E+04  0.7818608E-02  0.9306765E-01
       21   -1    0    0  503  502  0.00000000000E+00  0.00000000000E+00  0.36578909399E+03  0.36578909399E+03  0.00000000000E+00 0.  1.
       21   -1    0    0  502  503 -0.00000000000E+00 -0.00000000000E+00 -0.68567665601E+03  0.68567665601E+03  0.00000000000E+00 0. -1.
       39    2    1    2    0    0 -0.28421709430E-13 -0.17763568394E-14 -0.31988756202E+03  0.10514657500E+04  0.10016247656E+04 0.  0.
       24    2    3    3    0    0  0.23240079442E+03 -0.15686565645E+02 -0.61772688313E+03  0.66511760822E+03  0.80862432818E+02 0.  0.
      -24    2    3    3    0    0 -0.23240079442E+03  0.15686565645E+02  0.29783932111E+03  0.38634814177E+03  0.79375234573E+02 0.  0.
      -13    1    4    4    0    0  0.12048109747E+02  0.16605347842E+02 -0.27781099341E+02  0.34535257433E+02  0.00000000000E+00 0.  1.
       14    1    4    4    0    0  0.22035268467E+03 -0.32291913487E+02 -0.58994578379E+03  0.63058235079E+03  0.00000000000E+00 0. -1.
        3    1    5    5  501    0 -0.83807862371E+01 -0.15346656691E+02  0.95234836217E+01  0.19911157421E+02  0.00000000000E+00 0. -1.
       -4    1    5    5    0  501 -0.22402000818E+03  0.31033222335E+02  0.28831583749E+03  0.36643698435E+03  0.14200000000E+01 0.  1.
</event>
<event>
 9   1  0.7335000E-04  0.1001170E+04  0.7818608E-02  0.9307262E-01
       21   -1    0    0  503  502  0.00000000000E+00  0.00000000000E+00  0.43874351250E+03  0.43874351250E+03  0.00000000000E+00 0. -1.
       21   -1    0    0  502  503 -0.00000000000E+00 -0.00000000000E+00 -0.57114328518E+03  0.57114328518E+03  0.00000000000E+00 0.  1.
       39    2    1    2    0    0  0.00000000000E+00  0.00000000000E+00 -0.13239977268E+03  0.10098867977E+04  0.10011701376E+04 0.  0.
       24    2    3    3    0    0 -0.11090921277E+03 -0.38455593678E+03  0.22489545012E+03  0.46748853521E+03  0.88223835066E+02 0.  0.
      -24    2    3    3    0    0  0.11090921277E+03  0.38455593678E+03 -0.35729522280E+03  0.54239826248E+03  0.79698663176E+02 0.  0.
      -13    1    4    4    0    0 -0.73288061695E+02 -0.11070502382E+03  0.60773015941E+02  0.14601404642E+03  0.00000000000E+00 0.  1.
       14    1    4    4    0    0 -0.37621151073E+02 -0.27385091297E+03  0.16412243417E+03  0.32147448879E+03  0.00000000000E+00 0. -1.
        3    1    5    5  501    0 -0.33992267166E+01  0.55402264707E+01 -0.24102307022E+02  0.24963374279E+02  0.00000000000E+00 0. -1.
       -4    1    5    5    0  501  0.11430843949E+03  0.37901571031E+03 -0.33319291577E+03  0.51743488820E+03  0.14200000000E+01 0.  1.
</event>
<event>
 9   1  0.7335000E-04  0.1007732E+04  0.7818608E-02  0.9300105E-01
       21   -1    0    0  503  502  0.00000000000E+00  0.00000000000E+00  0.35775169901E+03  0.35775169901E+03  0.00000000000E+00 0.  1.
       21   -1    0    0  502  503 -0.00000000000E+00 -0.00000000000E+00 -0.70965704838E+03  0.70965704838E+03  0.00000000000E+00 0. -1.
       39    2    1    2    0    0  0.00000000000E+00  0.00000000000E+00 -0.35190534938E+03  0.10674087474E+04  0.10077321366E+04 0.  0.
       24    2    3    3    0    0 -0.76609594893E+02 -0.18883312599E+03  0.30463216639E+03  0.37517272078E+03  0.80167537801E+02 0.  0.
      -24    2    3    3    0    0  0.76609594893E+02  0.18883312599E+03 -0.65653751577E+03  0.69223602661E+03  0.81377069427E+02 0.  0.
      -13    1    4    4    0    0 -0.46382112187E+02 -0.17815426674E+03  0.27834071853E+03  0.33371214944E+03  0.00000000000E+00 0.  1.
       14    1    4    4    0    0 -0.30227482706E+02 -0.10678859250E+02  0.26291447856E+02  0.41460571342E+02  0.00000000000E+00 0. -1.
        1    1    5    5  501    0  0.92418071630E+02  0.17671552856E+03 -0.60233831556E+03  0.63449265117E+03  0.00000000000E+00 0. -1.
       -2    1    5    5    0  501 -0.15808476737E+02  0.12117597433E+02 -0.54199200204E+02  0.57743375439E+02  0.00000000000E+00 0.  1.
</event>
<event>
 9   1  0.7335000E-04  0.9983596E+03  0.7818608E-02  0.9310346E-01
       21   -1    0    0  503  502  0.00000000000E+00  0.00000000000E+00  0.52620601156E+03  0.52620601156E+03  0.00000000000E+00 0. -1.
       21   -1    0    0  502  503 -0.00000000000E+00 -0.00000000000E+00 -0.47354169130E+03  0.47354169130E+03  0.00000000000E+00 0.  1.
       39    2    1    2    0    0  0.00000000000E+00 -0.56843418861E-13  0.52664320253E+02  0.99974770286E+03  0.99835962396E+03 0.  0.
       24    2    3    3    0    0 -0.15557245573E+03  0.44709307678E+03  0.16258046912E+03  0.50691953683E+03  0.80249608064E+02 0.  0.
      -24    2    3    3    0    0  0.15557245573E+03 -0.44709307678E+03 -0.10991614887E+03  0.49282816603E+03  0.81872053644E+02 0.  0.
      -13    1    4    4    0    0 -0.82083978835E+02  0.15622681432E+03  0.30367515928E+02  0.17907200540E+03  0.00000000000E+00 0.  1.
       14    1    4    4    0    0 -0.73488476893E+02  0.29086626246E+03  0.13221295319E+03  0.32784753143E+03  0.00000000000E+00 0. -1.
        1    1    5    5  501    0  0.10768271902E+02 -0.66877983908E+02  0.10450281788E+02  0.68540709078E+02  0.00000000000E+00 0. -1.
       -2    1    5    5    0  501  0.14480418383E+03 -0.38021509287E+03 -0.12036643066E+03  0.42428745695E+03  0.00000000000E+00 0.  1.
</event>
<event>
 9   1  0.7335000E-04  0.1003514E+04  0.7818608E-02  0.9304699E-01
        1   -1    0    0  501    0  0.00000000000E+00  0.00000000000E+00  0.57955915745E+03  0.57955915745E+03  0.00000000000E+00 0.  1.
       -1   -1    0    0    0  501 -0.00000000000E+00 -0.00000000000E+00 -0.43439934007E+03  0.43439934007E+03  0.00000000000E+00 0. -1.
       39    2    1    2    0    0  0.00000000000E+00  0.71054273576E-14  0.14515981738E+03  0.10139584975E+04  0.10035140568E+04 0.  0.
       24    2    3    3    0    0  0.45001455222E+03 -0.53748586119E+02  0.27525213593E+03  0.53625594561E+03  0.80029326822E+02 0.  0.
      -24    2    3    3    0    0 -0.45001455222E+03  0.53748586119E+02 -0.13009231855E+03  0.47770255191E+03  0.76640126817E+02 0.  0.
      -13    1    4    4    0    0  0.43649310043E+03 -0.36595528275E+02  0.26650179594E+03  0.51272669782E+03  0.00000000000E+00 0.  1.
       14    1    4    4    0    0  0.13521451782E+02 -0.17153057844E+02  0.87503399884E+01  0.23529247791E+02  0.00000000000E+00 0. -1.
        1    1    5    5  502    0 -0.37978434487E+03  0.46404169505E+02 -0.79355111677E+02  0.39075149303E+03  0.00000000000E+00 0. -1.
       -2    1    5    5    0  502 -0.70230207350E+02  0.73444166137E+01 -0.50737206868E+02  0.86951058881E+02  0.00000000000E+00 0.  1.
</event>
<event>
 9   1  0.7335000E-04  0.9917797E+03  0.7818608E-02  0.9317607E-01
       21   -1    0    0  503  502  0.00000000000E+00  0.00000000000E+00  0.18637943964E+03  0.18637943964E+03  0.00000000000E+00 0. -1.
       21   -1    0    0  502  503 -0.00000000000E+00 -0.00000000000E+00 -0.13193875972E+04  0.13193875972E+04  0.00000000000E+00 0.  1.
       39    2    1    2    0    0  0.00000000000E+00  0.00000000000E+00 -0.11330081575E+04  0.15057670368E+04  0.99177965501E+03 0.  0.
       24    2    3    3    0    0 -0.42622343823E+03 -0.13603141512E+03 -0.86737405848E+03  0.97924678879E+03  0.80097133747E+02 0.  0.
      -24    2    3    3    0    0  0.42622343823E+03  0.13603141512E+03 -0.26563409905E+03  0.52652024802E+03  0.80567560424E+02 0.  0.
      -13    1    4    4    0    0 -0.38962179323E+03 -0.11245818022E+03 -0.82067848931E+03  0.91540437342E+03  0.00000000000E+00 0.  1.
       14    1    4    4    0    0 -0.36601645006E+02 -0.23573234893E+02 -0.46695569170E+02  0.63842415372E+02  0.00000000000E+00 0. -1.
        1    1    5    5  501    0  0.21027886226E+03  0.99057304592E+02 -0.10615540950E+03  0.25553575185E+03  0.00000000000E+00 0. -1.
       -2    1    5    5    0  501  0.21594457597E+03  0.36974110523E+02 -0.15947868955E+03  0.27098449617E+03  0.00000000000E+00 0.  1.
</event>
<event>
 9   1  0.7335000E-04  0.1005846E+04  0.7818608E-02  0.9302156E-01
       21   -1    0    0  503  502  0.00000000000E+00  0.00000000000E+00  0.40204028056E+03  0.40204028056E+03  0.00000000000E+00 0. -1.
       21   -1    0    0  502  503 -0.00000000000E+00 -0.00000000000E+00 -0.62912024222E+03  0.62912024222E+03  0.00000000000E+00 0.  1.
       39    2    1    2    0    0  0.56843418861E-13  0.00000000000E+00 -0.22707996166E+03  0.10311605228E+04  0.10058462680E+04 0.  0.
       24    2    3    3    0    0 -0.31132893455E+03  0.66270740102E+02 -0.50385077287E+03  0.60130677708E+03  0.79916971669E+02 0.  0.
      -24    2    3    3    0    0  0.31132893455E+03 -0.66270740102E+02  0.27677081121E+03  0.42985374570E+03  0.82792779137E+02 0.  0.
      -13    1    4    4    0    0 -0.16604175216E+03  0.74440904805E+02 -0.29936883543E+03  0.35033271528E+03  0.00000000000E+00 0.  1.
       14    1    4    4    0    0 -0.14528718239E+03 -0.81701647028E+01 -0.20448193744E+03  0.25097406180E+03  0.00000000000E+00 0. -1.
        1    1    5    5  501    0  0.14783641496E+03 -0.24399822994E+02  0.18392091015E+03  0.23722954736E+03  0.00000000000E+00 0. -1.
       -2    1    5    5    0  501  0.16349251959E+03 -0.41870917109E+02  0.92849901062E+02  0.19262419835E+03  0.00000000000E+00 0.  1.
</event>
<event>
 9   1  0.7335000E-04  0.9728407E+03  0.7818608E-02  0.9338845E-01
       21   -1    0    0  503  502  0.00000000000E+00  0.00000000000E+00  0.12710432381E+03  0.12710432381E+03  0.00000000000E+00 0. -1.
       21   -1    0    0  502  503 -0.00000000000E+00 -0.00000000000E+00 -0.18615005617E+04  0.18615005617E+04  0.00000000000E+00 0.  1.
       39    2    1    2    0    0  0.00000000000E+00  0.00000000000E+00 -0.17343962379E+04  0.19886048856E+04  0.97284072731E+03 0.  0.
       24    2    3    3    0    0  0.25987271894E+03 -0.37984246021E+03 -0.11440286987E+04  0.12357698135E+04  0.80692278521E+02 0.  0.
      -24    2    3    3    0    0 -0.25987271894E+03  0.37984246021E+03 -0.59036753924E+03  0.75283507209E+03  0.80079271698E+02 0.  0.
      -13    1    4    4    0    0  0.12811498968E+02 -0.28202446548E+02 -0.37026108716E+02  0.48274685123E+02  0.00000000000E+00 0.  1.
       14    1    4    4    0    0  0.24706121997E+03 -0.35164001366E+03 -0.11070025900E+04  0.11874951283E+04  0.00000000000E+00 0. -1.
        1    1    5    5  501    0 -0.16732277236E+03  0.17555333678E+03 -0.32130378753E+03  0.40255683833E+03  0.00000000000E+00 0. -1.
       -2    1    5    5    0  501 -0.92549946581E+02  0.20428912343E+03 -0.26906375171E+03  0.35027823376E+03  0.00000000000E+00 0.  1.
</event>
<event>
 9   1  0.7335000E-04  0.1005451E+04  0.7818608E-02  0.9302586E-01
       21   -1    0    0  503  502  0.00000000000E+00  0.00000000000E+00  0.25558766566E+03  0.25558766566E+03  0.00000000000E+00 0. -1.
       21   -1    0    0  502  503 -0.00000000000E+00 -0.00000000000E+00 -0.98883156575E+03  0.98883156575E+03  0.00000000000E+00 0.  1.
       39    2    1    2    0    0  0.56843418861E-13  0.28421709430E-13 -0.73324390009E+03  0.12444192314E+04  0.10054514441E+04 0.  0.
       24    2    3    3    0    0 -0.39832752895E+03  0.23686967949E+03 -0.58649109646E+03  0.75156237453E+03  0.78116139194E+02 0.  0.
      -24    2    3    3    0    0  0.39832752895E+03 -0.23686967949E+03 -0.14675280363E+03  0.49285685688E+03  0.81236879701E+02 0.  0.
      -13    1    4    4    0    0 -0.16973020442E+03  0.14253892667E+03 -0.30215068818E+03  0.37472753606E+03  0.00000000000E+00 0.  1.
       14    1    4    4    0    0 -0.22859732452E+03  0.94330752812E+02 -0.28434040828E+03  0.37683483847E+03  0.00000000000E+00 0. -1.
        3    1    5    5  501    0  0.33999977413E+03 -0.19665980863E+03 -0.92262426495E+02  0.40346905964E+03  0.00000000000E+00 0. -1.
       -4    1    5    5    0  501  0.58327754817E+02 -0.40209870853E+02 -0.54490377135E+02  0.89387797245E+02  0.14200000000E+01 0.  1.
</event>
<event>
 9   1  0.7335000E-04  0.9941677E+03  0.7818608E-02  0.9314965E-01
       21   -1    0    0  503  502  0.00000000000E+00  0.00000000000E+00  0.35855828348E+03  0.35855828348E+03  0.00000000000E+00 0.  1.
       21   -1    0    0  502  503 -0.00000000000E+00 -0.00000000000E+00 -0.68912745156E+03  0.68912745156E+03  0.00000000000E+00 0. -1.
       39    2    1    2    0    0  0.00000000000E+00  0.00000000000E+00 -0.33056916808E+03  0.10476857350E+04  0.99416770443E+03 0.  0.
       24    2    3    3    0    0 -0.22573162368E+03  0.87632137501E+02 -0.61478560037E+03  0.66572011534E+03  0.81165140866E+02 0.  0.
      -24    2    3    3    0    0  0.22573162368E+03 -0.87632137501E+02  0.28421643229E+03  0.38196561971E+03  0.80526994253E+02 0.  0.
      -13    1    4    4    0    0 -0.11466892313E+03  0.90283085569E+01 -0.22189172626E+03  0.24993281191E+03  0.00000000000E+00 0.  1.
       14    1    4    4    0    0 -0.11106270055E+03  0.78603828944E+02 -0.39289387411E+03  0.41578730343E+03  0.00000000000E+00 0. -1.
        1    1    5    5  501    0  0.89472371926E+02 -0.67398374904E+01  0.62107788631E+02  0.10912427849E+03  0.00000000000E+00 0. -1.
       -2    1    5    5    0  501  0.13625925176E+03 -0.80892300011E+02  0.22210864366E+03  0.27284134122E+03  0.00000000000E+00 0.  1.
</event>
<event>
 9   1  0.7335000E-04  0.1015962E+04  0.7818608E-02  0.9291209E-01
       21   -1    0    0  503  502  0.00000000000E+00  0.00000000000E+00  0.28158934941E+03  0.28158934941E+03  0.00000000000E+00 0. -1.
       21   -1    0    0  502  503 -0.00000000000E+00 -0.00000000000E+00 -0.91638678946E+03  0.91638678946E+03  0.00000000000E+00 0.  1.
       39    2    1    2    0    0  0.00000000000E+00  0.00000000000E+00 -0.63479744005E+03  0.11979761389E+04  0.10159621250E+04 0.  0.
       24    2    3    3    0    0  0.14112548943E+03  0.45998878475E+02 -0.88234724164E+03  0.89818135031E+03  0.78490653076E+02 0.  0.
      -24    2    3    3    0    0 -0.14112548943E+03 -0.45998878475E+02  0.24754980159E+03  0.29979478856E+03  0.81016729072E+02 0.  0.
      -13    1    4    4    0    0  0.13868281137E+03  0.39328175930E+02 -0.65289235579E+03  0.66861652376E+03  0.00000000000E+00 0.  1.
       14    1    4    4    0    0  0.24426780643E+01  0.66707025453E+01 -0.22945488585E+03  0.22956482655E+03  0.00000000000E+00 0. -1.
        3    1    5    5  501    0 -0.72965575678E+02 -0.25282626805E+02  0.19931371000E+03  0.21375018467E+03  0.00000000000E+00 0. -1.
       -4    1    5    5    0  501 -0.68159913754E+02 -0.20716251670E+02  0.48236091592E+02  0.86044603888E+02  0.14200000000E+01 0.  1.
</event>
<event>
 9   1  0.7335000E-04  0.9860341E+03  0.7818608E-02  0.9323996E-01
       21   -1    0    0  503  502  0.00000000000E+00  0.00000000000E+00  0.36097129615E+03  0.36097129615E+03  0.00000000000E+00 0. -1.
       21   -1    0    0  502  503 -0.00000000000E+00 -0.00000000000E+00 -0.67336605980E+03  0.67336605980E+03  0.00000000000E+00 0.  1.
       39    2    1    2    0    0  0.28421709430E-13  0.00000000000E+00 -0.31239476365E+03  0.10343373560E+04  0.98603411582E+03 0.  0.
       24    2    3    3    0    0  0.19900812295E+03  0.90553060557E+00 -0.62194114840E+03  0.65788645875E+03  0.79992171814E+02 0.  0.
      -24    2    3    3    0    0 -0.19900812295E+03 -0.90553060557E+00  0.30954638475E+03  0.37645089720E+03  0.79317467844E+02 0.  0.
      -13    1    4    4    0    0  0.18823288349E+03 -0.17712156838E+02 -0.51043905573E+03  0.54432836463E+03  0.00000000000E+00 0.  1.
       14    1    4    4    0    0  0.10775239466E+02  0.18617687443E+02 -0.11150209267E+03  0.11355809413E+03  0.00000000000E+00 0. -1.
        3    1    5    5  501    0 -0.16571765334E+03 -0.31262291069E+02  0.23314010334E+03  0.28773942944E+03  0.00000000000E+00 0. -1.
       -4    1    5    5    0  501 -0.33290469615E+02  0.30356760463E+02  0.76406281410E+02  0.88711467759E+02  0.14200000000E+01 0.  1.
</event>
<event>
 9   1  0.7335000E-04  0.1002896E+04  0.7818608E-02  0.9305374E-01
       21   -1    0    0  503  502  0.00000000000E+00  0.00000000000E+00  0.17456008720E+04  0.17456008720E+04  0.00000000000E+00 0.  1.
       21   -1    0    0  502  503 -0.00000000000E+00 -0.00000000000E+00 -0.14404797457E+03  0.14404797457E+03  0.00000000000E+00 0. -1.
       39    2    1    2    0    0  0.00000000000E+00  0.00000000000E+00  0.16015528975E+04  0.18896488466E+04  0.10028963457E+04 0.  0.
       24    2    3    3    0    0 -0.82749161100E+02 -0.39367750202E+03  0.13429091563E+04  0.14044617772E+04  0.85314021680E+02 0.  0.
      -24    2    3    3    0    0  0.82749161100E+02  0.39367750202E+03  0.25864374117E+03  0.48518706941E+03  0.81734375958E+02 0.  0.
      -13    1    4    4    0    0 -0.84248817361E+02 -0.38494764842E+03  0.13368795871E+04  0.13937466002E+04  0.00000000000E+00 0.  1.
       14    1    4    4    0    0  0.14996562609E+01 -0.87298536031E+01  0.60295691969E+01  0.10715176972E+02  0.00000000000E+00 0. -1.
        3    1    5    5  501    0  0.96152740750E+02  0.29154644701E+03  0.18322172605E+03  0.35751207143E+03  0.00000000000E+00 0. -1.
       -4    1    5    5    0  501 -0.13403579651E+02  0.10213105502E+03  0.75422015111E+02  0.12767499798E+03  0.14200000000E+01 0.  1.
</event>
<event>
 9   1  0.7335000E-04  0.9982429E+03  0.7818608E-02  0.9310474E-01
       21   -1    0    0  503  502  0.00000000000E+00  0.00000000000E+00  0.41478548925E+03  0.41478548925E+03  0.00000000000E+00 0. -1.
       21   -1    0    0  502  503 -0.00000000000E+00 -0.00000000000E+00 -0.60060494733E+03  0.60060494733E+03  0.00000000000E+00 0.  1.
       39    2    1    2    0    0  0.56843418861E-13 -0.28421709430E-13 -0.18581945808E+03  0.10153904366E+04  0.99824289013E+03 0.  0.
       24    2    3    3    0    0 -0.35978920648E+03  0.24761935554E+03 -0.32443702805E+03  0.54991255354E+03  0.79879991440E+02 0.  0.
      -24    2    3    3    0    0  0.35978920648E+03 -0.24761935554E+03  0.13861756997E+03  0.46547788304E+03  0.81799820060E+02 0.  0.
      -13    1    4    4    0    0 -0.26929687761E+03  0.14055889404E+03 -0.22603363753E+03  0.37864074830E+03  0.00000000000E+00 0.  1.
       14    1    4    4    0    0 -0.90492328870E+02  0.10706046151E+03 -0.98403390517E+02  0.17127180523E+03  0.00000000000E+00 0. -1.
        1    1    5    5  501    0  0.96228013965E+02 -0.95692445792E+02  0.12935062387E+02  0.13632384491E+03  0.00000000000E+00 0. -1.
       -2    1    5    5    0  501  0.26356119251E+03 -0.15192690975E+03  0.12568250758E+03  0.32915403813E+03  0.00000000000E+00 0.  1.
</event>
<event>
 9   1  0.7335000E-04  0.9921624E+03  0.7818608E-02  0.9317183E-01
       21   -1    0    0  503  502  0.00000000000E+00  0.00000000000E+00  0.39543003682E+03  0.39543003682E+03  0.00000000000E+00 0. -1.
       21   -1    0    0  502  503 -0.00000000000E+00 -0.00000000000E+00 -0.62235164205E+03  0.62235164205E+03  0.00000000000E+00 0.  1.
       39    2    1    2    0    0 -0.28421709430E-13 -0.14210854715E-13 -0.22692160523E+03  0.10177816789E+04  0.99216235109E+03 0.  0.
       24    2    3    3    0    0 -0.13509586017E+03 -0.74289885108E+02 -0.58986038206E+03  0.61479307154E+03  0.79154103005E+02 0.  0.
      -24    2    3    3    0    0  0.13509586017E+03  0.74289885108E+02  0.36293877683E+03  0.40298860733E+03  0.83098636833E+02 0.  0.
      -13    1    4    4    0    0 -0.13503237092E+03 -0.78720728368E+02 -0.47926094560E+03  0.50410489806E+03  0.00000000000E+00 0.  1.
       14    1    4    4    0    0 -0.63489257564E-01  0.44308432606E+01 -0.11059943646E+03  0.11068817348E+03  0.00000000000E+00 0. -1.
        1    1    5    5  501    0  0.79898357023E+02  0.82001911044E+02  0.28531096835E+03  0.30742545361E+03  0.00000000000E+00 0. -1.
       -2    1    5    5    0  501  0.55197503150E+02 -0.77120259359E+01  0.77627808482E+02  0.95563153714E+02  0.00000000000E+00 0.  1.
</event>
<event>
 9   1  0.7335000E-04  0.9792937E+03  0.7818608E-02  0.9331551E-01
       21   -1    0    0  503  502  0.00000000000E+00  0.00000000000E+00  0.44222648935E+03  0.44222648935E+03  0.00000000000E+00 0. -1.
       21   -1    0    0  502  503 -0.00000000000E+00 -0.00000000000E+00 -0.54215211297E+03  0.54215211297E+03  0.00000000000E+00 0.  1.
       39    2    1    2    0    0  0.00000000000E+00 -0.14210854715E-13 -0.99925623625E+02  0.98437860232E+03  0.97929367529E+03 0.  0.
       24    2    3    3    0    0 -0.36363022175E+03  0.38019054421E+02 -0.36731632716E+03  0.52432213277E+03  0.79498604071E+02 0.  0.
      -24    2    3    3    0    0  0.36363022175E+03 -0.38019054421E+02  0.26739070353E+03  0.46005646955E+03  0.80509503618E+02 0.  0.
      -13    1    4    4    0    0 -0.30572439439E+03  0.30698383771E+02 -0.34459790100E+03  0.46168984119E+03  0.00000000000E+00 0.  1.
       14    1    4    4    0    0 -0.57905827362E+02  0.73206706491E+01 -0.22718426163E+02  0.62632291580E+02  0.00000000000E+00 0. -1.
        1    1    5    5  501    0  0.23711598034E+03 -0.40756618708E+02  0.13077331304E+03  0.27383708570E+03  0.00000000000E+00 0. -1.
       -2    1    5    5    0  501  0.12651424141E+03  0.27375642879E+01  0.13661739049E+03  0.18621938385E+03  0.00000000000E+00 0.  1.
</event>
<event>
 9   1  0.7335000E-04  0.9932695E+03  0.7818608E-02  0.9315958E-01
       21   -1    0    0  503  502  0.00000000000E+00  0.00000000000E+00  0.28668781820E+03  0.28668781820E+03  0.00000000000E+00 0.  1.
       21   -1    0    0  502  503 -0.00000000000E+00 -0.00000000000E+00 -0.86032979971E+03  0.86032979971E+03  0.00000000000E+00 0. -1.
       39    2    1    2    0    0  0.56843418861E-13 -0.28421709430E-13 -0.57364198151E+03  0.11470176179E+04  0.99326949658E+03 0.  0.
       24    2    3    3    0    0  0.20710043458E+03 -0.17031991862E+03  0.18580961704E+03  0.33761178017E+03  0.86931212155E+02 0.  0.
      -24    2    3    3    0    0 -0.20710043458E+03  0.17031991862E+03 -0.75945159855E+03  0.80940583774E+03  0.80446348192E+02 0.  0.
      -13    1    4    4    0    0  0.33714310348E+02 -0.78214576606E+02  0.48294782500E+02  0.97910983718E+02  0.00000000000E+00 0.  1.
       14    1    4    4    0    0  0.17338612423E+03 -0.92105342010E+02  0.13751483454E+03  0.23970079646E+03  0.00000000000E+00 0. -1.
        1    1    5    5  501    0 -0.16704563531E+03  0.12674530489E+03 -0.67082023508E+03  0.70282885853E+03  0.00000000000E+00 0. -1.
       -2    1    5    5    0  501 -0.40054799267E+02  0.43574613730E+02 -0.88631363471E+02  0.10657697921E+03  0.00000000000E+00 0.  1.
</event>
<event>
 9   1  0.7335000E-04  0.1025424E+04  0.7818608E-02  0.9281091E-01
        1   -1    0    0  501    0  0.00000000000E+00  0.00000000000E+00  0.56111523115E+03  0.56111523115E+03  0.00000000000E+00 0.  1.
       -1   -1    0    0    0  501 -0.00000000000E+00 -0.00000000000E+00 -0.46848440651E+03  0.46848440651E+03  0.00000000000E+00 0. -1.
       39    2    1    2    0    0  0.28421709430E-13  0.56843418861E-13  0.92630824637E+02  0.10295996377E+04  0.10254242752E+04 0.  0.
       24    2    3    3    0    0  0.24296397813E+03 -0.44092198018E+03 -0.82958426043E+01  0.50989909101E+03  0.80526857240E+02 0.  0.
      -24    2    3    3    0    0 -0.24296397813E+03  0.44092198018E+03  0.10092666724E+03  0.51970054666E+03  0.80366527638E+02 0.  0.
      -13    1    4    4    0    0  0.18229356626E+03 -0.37739692227E+03  0.13711545095E+02  0.41934161218E+03  0.00000000000E+00 0.  1.
       14    1    4    4    0    0  0.60670411869E+02 -0.63525057910E+02 -0.22007387700E+02  0.90557478831E+02  0.00000000000E+00 0. -1.
        3    1    5    5  502    0 -0.10218843510E+03  0.23603228675E+03  0.83821568745E+02  0.27051760024E+03  0.00000000000E+00 0. -1.
       -4    1    5    5    0  502 -0.14077554303E+03  0.20488969343E+03  0.17105098497E+02  0.24918294641E+03  0.14200000000E+01 0.  1.
</event>
<event>
 9   1  0.7335000E-04  0.1019958E+04  0.7818608E-02  0.9286922E-01
       21   -1    0    0  503  502  0.00000000000E+00  0.00000000000E+00  0.15245874826E+04  0.15245874826E+04  0.00000000000E+00 0.  1.
       21   -1    0    0  502  503 -0.00000000000E+00 -0.00000000000E+00 -0.17058954026E+03  0.17058954026E+03  0.00000000000E+00 0. -1.
       39    2    1    2    0    0 -0.21316282073E-13  0.56843418861E-13  0.13539979423E+04  0.16951770228E+04  0.10199581908E+04 0.  0.
       24    2    3    3    0    0  0.58663099498E+02 -0.34658853323E+03  0.12761777174E+04  0.13260904282E+04  0.79506520681E+02 0.  0.
      -24    2    3    3    0    0 -0.58663099498E+02  0.34658853323E+03  0.77820224950E+02  0.36908659465E+03  0.81264729933E+02 0.  0.
      -13    1    4    4    0    0  0.59537530337E+02 -0.34592859700E+03  0.12772212467E+04  0.13245774514E+04  0.00000000000E+00 0.  1.
       14    1    4    4    0    0 -0.87443083885E+00 -0.65993622493E+00 -0.10435293695E+01  0.15129767540E+01  0.00000000000E+00 0. -1.
        3    1    5    5  501    0 -0.34293966531E+02  0.24253925194E+03  0.91198591342E+02  0.26137817035E+03  0.00000000000E+00 0. -1.
       -4    1    5    5    0  501 -0.24369132967E+02  0.10404928128E+03 -0.13378366392E+02  0.10770842430E+03  0.14200000000E+01 0.  1.
</event>
<event>
 9   1  0.7335000E-04  0.9997892E+03  0.7818608E-02  0.9308776E-01
       21   -1    0    0  503  502  0.00000000000E+00  0.00000000000E+00  0.25754896886E+03  0.25754896886E+03  0.00000000000E+00 0.  1.
       21   -1    0    0  502  503 -0.00000000000E+00 -0.00000000000E+00 -0.97028007636E+03  0.97028007636E+03  0.00000000000E+00 0. -1.
       39    2    1    2    0    0  0.28421709430E-13  0.22204460493E-14 -0.71273110751E+03  0.12278290452E+04  0.99978924413E+03 0.  0.
       24    2    3    3    0    0  0.23872919085E+03 -0.36264989277E+01 -0.88658803430E+03  0.92173363964E+03  0.80930722317E+02 0.  0.
      -24    2    3    3    0    0 -0.23872919085E+03  0.36264989277E+01  0.17385692679E+03  0.30609540558E+03  0.80395200532E+02 0.  0.
      -13    1    4    4    0    0  0.33927984564E+02 -0.17877271156E+02 -0.70898949624E+02  0.80606240567E+02  0.00000000000E+00 0.  1.
       14    1    4    4    0    0  0.20480120628E+03  0.14250772228E+02 -0.81568908468E+03  0.84112739907E+03  0.00000000000E+00 0. -1.
        1    1    5    5  501    0 -0.44161433050E+02 -0.96403481555E+00 -0.13989103364E+01  0.44194100085E+02  0.00000000000E+00 0. -1.
       -2    1    5    5    0  501 -0.19456775780E+03  0.45905337432E+01  0.17525583713E+03  0.26190130550E+03  0.00000000000E+00 0.  1.
</event>
<event>
 9   1  0.7335000E-04  0.9785618E+03  0.7818608E-02  0.9332375E-01
       21   -1    0    0  503  502  0.00000000000E+00  0.00000000000E+00  0.16555812832E+03  0.16555812832E+03  0.00000000000E+00 0.  1.
       21   -1    0    0  502  503 -0.00000000000E+00 -0.00000000000E+00 -0.14459922833E+04  0.14459922833E+04  0.00000000000E+00 0. -1.
       39    2    1    2    0    0 -0.71054273576E-14  0.00000000000E+00 -0.12804341549E+04  0.16115504116E+04  0.97856175273E+03 0.  0.
       24    2    3    3    0    0 -0.50141197947E+02  0.18312768964E+03  0.86995117222E+02  0.22880690478E+03  0.93458861586E+02 0.  0.
      -24    2    3    3    0    0  0.50141197947E+02 -0.18312768964E+03 -0.13674292722E+04  0.13827435068E+04  0.77890312422E+02 0.  0.
      -13    1    4    4    0    0 -0.65669839652E+02  0.16885735626E+03  0.52946068521E+02  0.18875545230E+03  0.00000000000E+00 0.  1.
       14    1    4    4    0    0  0.15528641705E+02  0.14270333386E+02  0.34049048701E+02  0.40051452478E+02  0.00000000000E+00 0. -1.
        1    1    5    5  501    0  0.68443278146E+02 -0.15164057658E+03 -0.10293734172E+04  0.10427314989E+04  0.00000000000E+00 0. -1.
       -2    1    5    5    0  501 -0.18302080199E+02 -0.31487113063E+02 -0.33805585493E+03  0.34001200785E+03  0.00000000000E+00 0.  1.
</event>
<event>
 9   1  0.7335000E-04  0.1001905E+04  0.7818608E-02  0.9306458E-01
       21   -1    0    0  503  502  0.00000000000E+00  0.00000000000E+00  0.79851638742E+03  0.79851638742E+03  0.00000000000E+00 0.  1.
       21   -1    0    0  502  503 -0.00000000000E+00 -0.00000000000E+00 -0.31427462861E+03  0.31427462861E+03  0.00000000000E+00 0. -1.
       39    2    1    2    0    0  0.00000000000E+00  0.00000000000E+00  0.48424175881E+03  0.11127910160E+04  0.10019050676E+04 0.  0.
       24    2    3    3    0    0 -0.33632749758E+02  0.52973149700E+02  0.78708733795E+03  0.79325960874E+03  0.76269344089E+02 0.  0.
      -24    2    3    3    0    0  0.33632749758E+02 -0.52973149700E+02 -0.30284557915E+03  0.31953140729E+03  0.80296693526E+02 0.  0.
      -13    1    4    4    0    0  0.12059236965E+02  0.27608373679E+02  0.53314662546E+03  0.53399716454E+03  0.00000000000E+00 0.  1.
       14    1    4    4    0    0 -0.45691986723E+02  0.25364776021E+02  0.25394071249E+03  0.25926244420E+03  0.00000000000E+00 0. -1.
        3    1    5    5  501    0  0.50847742197E+02 -0.63402700817E+02 -0.25386608035E+03  0.26655840281E+03  0.00000000000E+00 0. -1.
       -4    1    5    5    0  501 -0.17214992439E+02  0.10429551116E+02 -0.48979498803E+02  0.52973004485E+02  0.14200000000E+01 0.  1.
</event>
<event>
 9   1  0.7335000E-04  0.9772472E+03  0.7818608E-02  0.9333858E-01
       21   -1    0    0  503  502  0.00000000000E+00  0.00000000000E+00  0.64336247857E+03  0.64336247857E+03  0.00000000000E+00 0. -1.
       21   -1    0    0  502  503 -0.00000000000E+00 -0.00000000000E+00 -0.37110191046E+03  0.37110191046E+03  0.00000000000E+00 0.  1.
       39    2    1    2    0    0  0.00000000000E+00 -0.28421709430E-13  0.27226056811E+03  0.10144643890E+04  0.97724724592E+03 0.  0.
       24    2    3    3    0    0 -0.37968498538E+03 -0.18439575458E+03 -0.10613102304E+03  0.44205638069E+03  0.77379372119E+02 0.  0.
      -24    2    3    3    0    0  0.37968498538E+03  0.18439575458E+03  0.37839159116E+03  0.57240800833E+03  0.79424488156E+02 0.  0.
      -13    1    4    4    0    0 -0.27266592870E+03 -0.13995854349E+03 -0.41252439422E+02  0.30925210804E+03  0.00000000000E+00 0.  1.
       14    1    4    4    0    0 -0.10701905668E+03 -0.44437211090E+02 -0.64878583621E+02  0.13280427266E+03  0.00000000000E+00 0. -1.
        3    1    5    5  501    0  0.38206695201E+03  0.18521050024E+03  0.36882526316E+03  0.56241458015E+03  0.00000000000E+00 0. -1.
       -4    1    5    5    0  501 -0.23819666310E+01 -0.81474566869E+00  0.95663279983E+01  0.99934281859E+01  0.14200000000E+01 0.  1.
</event>
<event>
 9   1  0.7335000E-04  0.9984193E+03  0.7818608E-02  0.9310280E-01
       21   -1    0    0  503  502  0.00000000000E+00  0.00000000000E+00  0.83326600872E+03  0.83326600872E+03  0.00000000000E+00 0. -1.
       21   -1    0    0  502  503 -0.00000000000E+00 -0.00000000000E+00 -0.29907650816E+03  0.29907650816E+03  0.00000000000E+00 0.  1.
       39    2    1    2    0    0  0.00000000000E+00 -0.26645352591E-14  0.53418950056E+03  0.11323425169E+04  0.99841932725E+03 0.  0.
       24    2    3    3    0    0 -0.27498299413E+03  0.78972205949E+00  0.72844574501E+03  0.78283516131E+03  0.81125924580E+02 0.  0.
      -24    2    3    3    0    0  0.27498299413E+03 -0.78972205949E+00 -0.19425624445E+03  0.34950735557E+03  0.93827673802E+02 0.  0.
      -13    1    4    4    0    0  0.48627475766E+01  0.47824889422E+01  0.18162710990E+02  0.19401097520E+02  0.00000000000E+00 0.  1.
       14    1    4    4    0    0 -0.27984574170E+03 -0.39927668827E+01  0.71028303402E+03  0.76343406379E+03  0.00000000000E+00 0. -1.
        3    1    5    5  501    0  0.30574882081E+02  0.18626463182E+02  0.13959496397E+01  0.35828999711E+02  0.00000000000E+00 0. -1.
       -4    1    5    5    0  501  0.24440811205E+03 -0.19416185241E+02 -0.19565219409E+03  0.31367835586E+03  0.14200000000E+01 0.  1.
</event>
<event>
 9   1  0.7335000E-04  0.1004085E+04  0.7818608E-02  0.9304076E-01
       21   -1    0    0  503  502  0.00000000000E+00  0.00000000000E+00  0.19730858613E+04  0.19730858613E+04  0.00000000000E+00 0.  1.
       21   -1    0    0  502  503 -0.00000000000E+00 -0.00000000000E+00 -0.12774231960E+03  0.12774231960E+03  0.00000000000E+00 0. -1.
       39    2    1    2    0    0  0.56843418861E-13  0.00000000000E+00  0.18453435417E+04  0.21008281809E+04  0.10040847866E+04 0.  0.
       24    2    3    3    0    0 -0.47421854398E+03 -0.13899309501E+03  0.99500295959E+03  0.11141406630E+04  0.84120268153E+02 0.  0.
      -24    2    3    3    0    0  0.47421854398E+03  0.13899309501E+03  0.85034058207E+03  0.98668751783E+03  0.79188663371E+02 0.  0.
      -13    1    4    4    0    0 -0.35600391573E+03 -0.13744196096E+03  0.72227730863E+03  0.81689264362E+03  0.00000000000E+00 0.  1.
       14    1    4    4    0    0 -0.11821462825E+03 -0.15511340439E+01  0.27272565097E+03  0.29724801941E+03  0.00000000000E+00 0. -1.
        1    1    5    5  501    0  0.46620791052E+03  0.12272952671E+03  0.82499338457E+03  0.95552416879E+03  0.00000000000E+00 0. -1.
       -2    1    5    5    0  501  0.80106334607E+01  0.16263568293E+02  0.25347197495E+02  0.31163349032E+02  0.00000000000E+00 0.  1.
</event>
<event>
 9   1  0.7335000E-04  0.1002227E+04  0.7818608E-02  0.9306106E-01
       21   -1    0    0  503  502  0.00000000000E+00  0.00000000000E+00  0.34463182503E+03  0.34463182503E+03  0.00000000000E+00 0. -1.
       21   -1    0    0  502  503 -0.00000000000E+00 -0.00000000000E+00 -0.72864636622E+03  0.72864636622E+03  0.00000000000E+00 0.  1.
       39    2    1    2    0    0  0.00000000000E+00  0.14210854715E-13 -0.38401454118E+03  0.10732781912E+04  0.10022269743E+04 0.  0.
       24    2    3    3    0    0  0.47885757433E+02 -0.10149748509E+03  0.32373592732E+03  0.35200265016E+03  0.80660584176E+02 0.  0.
      -24    2    3    3    0    0 -0.47885757433E+02  0.10149748509E+03 -0.70775046850E+03  0.72127554109E+03  0.82054221468E+02 0.  0.
      -13    1    4    4    0    0 -0.78221861852E+01  0.35123451606E+01  0.17183090855E+01  0.87450415297E+01  0.00000000000E+00 0.  1.
       14    1    4    4    0    0  0.55707943618E+02 -0.10500983025E+03  0.32201761823E+03  0.34325760863E+03  0.00000000000E+00 0. -1.
        1    1    5    5  501    0  0.19109802542E+01  0.86054263467E+02 -0.47750588192E+03  0.48520187075E+03  0.00000000000E+00 0. -1.
       -2    1    5    5    0  501 -0.49796737687E+02  0.15443221626E+02 -0.23024458658E+03  0.23607367034E+03  0.00000000000E+00 0.  1.
</event>
<event>
 9   1  0.7335000E-04  0.1000614E+04  0.7818608E-02  0.9307871E-01
       21   -1    0    0  503  502  0.00000000000E+00  0.00000000000E+00  0.37612413788E+03  0.37612413788E+03  0.00000000000E+00 0. -1.
       21   -1    0    0  502  503 -0.00000000000E+00 -0.00000000000E+00 -0.66549122006E+03  0.66549122006E+03  0.00000000000E+00 0.  1.
       39    2    1    2    0    0 -0.28421709430E-13  0.35527136788E-14 -0.28936708218E+03  0.10416153579E+04  0.10006144341E+04 0.  0.
       24    2    3    3    0    0  0.18037366114E+03 -0.17828079879E+01  0.33376776056E+03  0.38736454644E+03  0.78182720644E+02 0.  0.
      -24    2    3    3    0    0 -0.18037366114E+03  0.17828079879E+01 -0.62313484274E+03  0.65425081150E+03  0.84907338131E+02 0.  0.
      -13    1    4    4    0    0  0.31494872849E+01 -0.99950565281E+01  0.61553789031E+02  0.62439485658E+02  0.00000000000E+00 0.  1.
       14    1    4    4    0    0  0.17722417385E+03  0.82122485402E+01  0.27221397153E+03  0.32492506078E+03  0.00000000000E+00 0. -1.
        3    1    5    5  501    0 -0.54653452031E+02  0.40240045230E+02 -0.21644713294E+03  0.22683831779E+03  0.00000000000E+00 0. -1.
       -4    1    5    5    0  501 -0.12572020911E+03 -0.38457237242E+02 -0.40668770980E+03  0.42741249371E+03  0.14200000000E+01 0.  1.
</event>
<event>
 9   1  0.7335000E-04  0.9940612E+03  0.7818608E-02  0.9315082E-01
       21   -1    0    0  503  502  0.00000000000E+00  0.00000000000E+00  0.52620131783E+03  0.52620131783E+03  0.00000000000E+00 0. -1.
       21   -1    0    0  502  503 -0.00000000000E+00 -0.00000000000E+00 -0.46947698184E+03  0.46947698184E+03  0.00000000000E+00 0.  1.
       39    2    1    2    0    0  0.00000000000E+00  0.00000000000E+00  0.56724335983E+02  0.99567829967E+03  0.99406117827E+03 0.  0.
       24    2    3    3    0    0  0.37460884794E+03  0.92914311261E+02  0.33165958204E+03  0.51458950300E+03  0.76416098092E+02 0.  0.
      -24    2    3    3    0    0 -0.37460884794E+03 -0.92914311261E+02 -0.27493524606E+03  0.48108879667E+03  0.83019169861E+02 0.  0.
      -13    1    4    4    0    0  0.70606459430E+02  0.41734862546E+02  0.44636937495E+02  0.93378407857E+02  0.00000000000E+00 0.  1.
       14    1    4    4    0    0  0.30400238851E+03  0.51179448715E+02  0.28702264455E+03  0.42121109514E+03  0.00000000000E+00 0. -1.
        3    1    5    5  501    0  0.80852673886E+00 -0.10273004040E+02 -0.57372266598E+01  0.11794240002E+02  0.00000000000E+00 0. -1.
       -4    1    5    5    0  501 -0.37541737468E+03 -0.82641307222E+02 -0.26919801940E+03  0.46929455667E+03  0.14200000000E+01 0.  1.
</event>
<event>
 9   1  0.7335000E-04  0.9923408E+03  0.7818608E-02  0.9316985E-01
        2   -1    0    0  501    0  0.00000000000E+00  0.00000000000E+00  0.91544256930E+03  0.91544256930E+03  0.00000000000E+00 0.  1.
       -2   -1    0    0    0  501 -0.00000000000E+00 -0.00000000000E+00 -0.26892461662E+03  0.26892461662E+03  0.00000000000E+00 0. -1.
       39    2    1    2    0    0  0.56843418861E-13 -0.56843418861E-13  0.64651795267E+03  0.11843671859E+04  0.99234075194E+03 0.  0.
       24    2    3    3    0    0  0.35595828932E+03  0.32996989721E+03  0.24740568584E+03  0.55110676460E+03  0.83202498762E+02 0.  0.
      -24    2    3    3    0    0 -0.35595828932E+03 -0.32996989721E+03  0.39911226684E+03  0.63326042133E+03  0.78369144954E+02 0.  0.
      -13    1    4    4    0    0  0.39080845435E+02  0.12786942064E+02  0.39058973474E+02  0.56713506117E+02  0.00000000000E+00 0.  1.
       14    1    4    4    0    0  0.31687744388E+03  0.31718295515E+03  0.20834671236E+03  0.49439325848E+03  0.00000000000E+00 0. -1.
        3    1    5    5  502    0 -0.10216829030E+03 -0.97546740614E+02  0.16414193097E+03  0.21655553479E+03  0.00000000000E+00 0. -1.
       -4    1    5    5    0  502 -0.25378999902E+03 -0.23242315660E+03  0.23497033587E+03  0.41670488653E+03  0.14200000000E+01 0.  1.
</event>
<event>
 9   1  0.7335000E-04  0.9991030E+03  0.7818608E-02  0.9309529E-01
       21   -1    0    0  503  502  0.00000000000E+00  0.00000000000E+00  0.31605327175E+03  0.31605327175E+03  0.00000000000E+00 0. -1.
       21   -1    0    0  502  503 -0.00000000000E+00 -0.00000000000E+00 -0.78958741958E+03  0.78958741958E+03  0.00000000000E+00 0.  1.
       39    2    1    2    0    0  0.28421709430E-13  0.28421709430E-13 -0.47353414783E+03  0.11056406913E+04  0.99910297225E+03 0.  0.
       24    2    3    3    0    0 -0.17659938340E+03 -0.17886646850E+03 -0.70636199112E+03  0.75413465439E+03  0.81186567170E+02 0.  0.
      -24    2    3    3    0    0  0.17659938340E+03  0.17886646850E+03  0.23282784328E+03  0.35150603694E+03  0.78531099739E+02 0.  0.
      -13    1    4    4    0    0 -0.17194577096E+03 -0.14757009092E+03 -0.66154599309E+03  0.69927489649E+03  0.00000000000E+00 0.  1.
       14    1    4    4    0    0 -0.46536124453E+01 -0.31296377575E+02 -0.44815998029E+02  0.54859757906E+02  0.00000000000E+00 0. -1.
        1    1    5    5  501    0  0.14619396194E+03  0.16385782811E+03  0.16169151649E+03  0.27270168471E+03  0.00000000000E+00 0. -1.
       -2    1    5    5    0  501  0.30405421467E+02  0.15008640392E+02  0.71136326793E+02  0.78804352232E+02  0.00000000000E+00 0.  1.
</event>
<event>
 9   1  0.7335000E-04  0.1009986E+04  0.7818608E-02  0.9297660E-01
       21   -1    0    0  503  502  0.00000000000E+00  0.00000000000E+00  0.75887924391E+03  0.75887924391E+03  0.00000000000E+00 0.  1.
       21   -1    0    0  502  503 -0.00000000000E+00 -0.00000000000E+00 -0.33604546735E+03  0.33604546735E+03  0.00000000000E+00 0. -1.
       39    2    1    2    0    0  0.00000000000E+00  0.00000000000E+00  0.42283377656E+03  0.10949247113E+04  0.10099860003E+04 0.  0.
       24    2    3    3    0    0  0.15996157833E+03  0.57666328410E+02 -0.29678368035E+03  0.35113090019E+03  0.79367777896E+02 0.  0.
      -24    2    3    3    0    0 -0.15996157833E+03 -0.57666328410E+02  0.71961745691E+03  0.74379381107E+03  0.80416647083E+02 0.  0.
      -13    1    4    4    0    0  0.70502751248E+02 -0.10463829773E+02 -0.81657861390E+02  0.10838881858E+03  0.00000000000E+00 0.  1.
       14    1    4    4    0    0  0.89458827082E+02  0.68130158183E+02 -0.21512581896E+03  0.24274208160E+03  0.00000000000E+00 0. -1.
        1    1    5    5  501    0 -0.73095137969E+02 -0.68957169649E+02  0.38070528475E+03  0.39374421174E+03  0.00000000000E+00 0. -1.
       -2    1    5    5    0  501 -0.86866440361E+02  0.11290841239E+02  0.33891217215E+03  0.35004959933E+03  0.00000000000E+00 0.  1.
</event>
<event>
 9   1  0.7335000E-04  0.9995854E+03  0.7818608E-02  0.9309000E-01
        1   -1    0    0  501    0  0.00000000000E+00  0.00000000000E+00  0.15046899292E+04  0.15046899292E+04  0.00000000000E+00 0. -1.
       -1   -1    0    0    0  501 -0.00000000000E+00 -0.00000000000E+00 -0.16600946231E+03  0.16600946231E+03  0.00000000000E+00 0.  1.
       39    2    1    2    0    0  0.11368683772E-12 -0.17053025658E-12  0.13386804669E+04  0.16706993916E+04  0.99958544628E+03 0.  0.
       24    2    3    3    0    0  0.27504860899E+03 -0.39046061915E+03  0.87390880757E+03  0.99935680721E+03  0.82983081138E+02 0.  0.
      -24    2    3    3    0    0 -0.27504860899E+03  0.39046061915E+03  0.46477165936E+03  0.67134258434E+03  0.81098321770E+02 0.  0.
      -13    1    4    4    0    0  0.12717254663E+02 -0.13299479731E+02  0.10143242556E+02  0.21011665732E+02  0.00000000000E+00 0.  1.
       14    1    4    4    0    0  0.26233135433E+03 -0.37716113942E+03  0.86376556501E+03  0.97834514148E+03  0.00000000000E+00 0. -1.
        3    1    5    5  502    0 -0.52769895953E+02  0.48746369720E+02  0.38425702745E+02  0.81470271333E+02  0.00000000000E+00 0. -1.
       -4    1    5    5    0  502 -0.22227871304E+03  0.34171424943E+03  0.42634595661E+03  0.58987231301E+03  0.14200000000E+01 0.  1.
</event>
<event>
 9   1  0.7335000E-04  0.9641490E+03  0.7818608E-02  0.9348764E-01
        2   -1    0    0  501    0  0.00000000000E+00  0.00000000000E+00  0.23718667860E+04  0.23718667860E+04  0.00000000000E+00 0. -1.
       -2   -1    0    0    0  501 -0.00000000000E+00 -0.00000000000E+00 -0.97980142010E+02  0.97980142010E+02  0.00000000000E+00 0.  1.
       39    2    1    2    0    0  0.00000000000E+00  0.00000000000E+00  0.22738866439E+04  0.24698469280E+04  0.96414904349E+03 0.  0.
       24    2    3    3    0    0  0.33675329653E+03 -0.16434909682E+03  0.18845580835E+04  0.19231659728E+04  0.81208253100E+02 0.  0.
      -24    2    3    3    0    0 -0.33675329653E+03  0.16434909682E+03  0.38932856040E+03  0.54668095516E+03  0.82885043540E+02 0.  0.
      -13    1    4    4    0    0  0.16803752426E+02 -0.18164419070E+02  0.58219115400E+02  0.63259604913E+02  0.00000000000E+00 0.  1.
       14    1    4    4    0    0  0.31994954410E+03 -0.14618467775E+03  0.18263389681E+04  0.18599063679E+04  0.00000000000E+00 0. -1.
        3    1    5    5  502    0 -0.80951842022E+02  0.20175779066E+02  0.47324672091E+02  0.95916043372E+02  0.00000000000E+00 0. -1.
       -4    1    5    5    0  502 -0.25580145451E+03  0.14417331775E+03  0.34200388831E+03  0.45076491179E+03  0.14200000000E+01 0.  1.
</event>
<event>
 9   1  0.7335000E-04  0.1030888E+04  0.7818608E-02  0.9275301E-01
       21   -1    0    0  503  502  0.00000000000E+00  0.00000000000E+00  0.76261634479E+03  0.76261634479E+03  0.00000000000E+00 0.  1.
       21   -1    0    0  502  503 -0.00000000000E+00 -0.00000000000E+00 -0.34838304274E+03  0.34838304274E+03  0.00000000000E+00 0. -1.
       39    2    1    2    0    0  0.00000000000E+00  0.00000000000E+00  0.41423330205E+03  0.11109993875E+04  0.10308881659E+04 0.  0.
       24    2    3    3    0    0  0.41786234542E+03 -0.89160477028E+01 -0.10663436947E+03  0.43847823077E+03  0.78764423935E+02 0.  0.
      -24    2    3    3    0    0 -0.41786234542E+03  0.89160477028E+01  0.52086767153E+03  0.67252115677E+03  0.79329310030E+02 0.  0.
      -13    1    4    4    0    0  0.10536620797E+02  0.36218413943E+01 -0.18410071504E+02  0.21519034498E+02  0.00000000000E+00 0.  1.
       14    1    4    4    0    0  0.40732572462E+03 -0.12537889097E+02 -0.88224297970E+02  0.41695919627E+03  0.00000000000E+00 0. -1.
        3    1    5    5  501    0 -0.58573775737E+02  0.28509079151E+02  0.91387423506E+02  0.11222885535E+03  0.00000000000E+00 0. -1.
       -4    1    5    5    0  501 -0.35928856968E+03 -0.19593031448E+02  0.42948024802E+03  0.56029230142E+03  0.14200000000E+01 0.  1.
</event>
<event>
 9   1  0.7335000E-04  0.1002173E+04  0.7818608E-02  0.9306165E-01
       21   -1    0    0  503  502  0.00000000000E+00  0.00000000000E+00  0.24840219240E+03  0.24840219240E+03  0.00000000000E+00 0. -1.
       21   -1    0    0  502  503 -0.00000000000E+00 -0.00000000000E+00 -0.10108104339E+04  0.10108104339E+04  0.00000000000E+00 0.  1.
       39    2    1    2    0    0  0.00000000000E+00  0.00000000000E+00 -0.76240824153E+03  0.12592126263E+04  0.10021726955E+04 0.  0.
       24    2    3    3    0    0 -0.34702050978E+02  0.13008431503E+03 -0.97931906615E+03  0.99171869402E+03  0.79460514606E+02 0.  0.
      -24    2    3    3    0    0  0.34702050978E+02 -0.13008431503E+03  0.21691082462E+03  0.26749393230E+03  0.79853219212E+02 0.  0.
      -13    1    4    4    0    0  0.10940296631E+02  0.62412353463E+02 -0.62078346078E+03  0.62400889187E+03  0.00000000000E+00 0.  1.
       14    1    4    4    0    0 -0.45642347609E+02  0.67671961570E+02 -0.35853560537E+03  0.36770980215E+03  0.00000000000E+00 0. -1.
        1    1    5    5  501    0  0.14217520505E+02 -0.11203359997E+03  0.21135098202E+03  0.23963076391E+03  0.00000000000E+00 0. -1.
       -2    1    5    5    0  501  0.20484530473E+02 -0.18050715063E+02  0.55598426057E+01  0.27863168391E+02  0.00000000000E+00 0.  1.
</event>
<event>
 9   1  0.7335000E-04  0.1001394E+04  0.7818608E-02  0.9307017E-01
       21   -1    0    0  503  502  0.00000000000E+00  0.00000000000E+00  0.52004343908E+03  0.52004343908E+03  0.00000000000E+00 0.  1.
       21   -1    0    0  502  503 -0.00000000000E+00 -0.00000000000E+00 -0.48207045258E+03  0.48207045258E+03  0.00000000000E+00 0. -1.
       39    2    1    2    0    0 -0.56843418861E-13  0.00000000000E+00  0.37972986492E+02  0.10021138917E+04  0.10013941802E+04 0.  0.
       24    2    3    3    0    0 -0.41987870027E+03  0.23621283099E+03 -0.90932339852E+02  0.49674355154E+03  0.79942736381E+02 0.  0.
      -24    2    3    3    0    0  0.41987870027E+03 -0.23621283099E+03  0.12890532634E+03  0.50537034012E+03  0.81780028424E+02 0.  0.
      -13    1    4    4    0    0 -0.15238076299E+02  0.15941859730E+02 -0.21558453241E+02  0.30840051347E+02  0.00000000000E+00 0.  1.
       14    1    4    4    0    0 -0.40464062397E+03  0.22027097126E+03 -0.69373886610E+02  0.46590350019E+03  0.00000000000E+00 0. -1.
        1    1    5    5  501    0  0.10235173137E+02  0.18045096121E+01 -0.69521550871E+01  0.12503898769E+02  0.00000000000E+00 0. -1.
       -2    1    5    5    0  501  0.40964352713E+03 -0.23801734060E+03  0.13585748143E+03  0.49286644135E+03  0.00000000000E+00 0.  1.
</event>
<event>
 9   1  0.7335000E-04  0.1000517E+04  0.7818608E-02  0.9307978E-01
       21   -1    0    0  503  502  0.00000000000E+00  0.00000000000E+00  0.46553977151E+03  0.46553977151E+03  0.00000000000E+00 0. -1.
       21   -1    0    0  502  503 -0.00000000000E+00 -0.00000000000E+00 -0.53756634903E+03  0.53756634903E+03  0.00000000000E+00 0.  1.
       39    2    1    2    0    0  0.28421709430E-13  0.00000000000E+00 -0.72026577524E+02  0.10031061205E+04  0.10005168970E+04 0.  0.
       24    2    3    3    0    0 -0.23871115652E+03  0.15303152033E+03  0.36936689287E+03  0.47248347193E+03  0.80044158048E+02 0.  0.
      -24    2    3    3    0    0  0.23871115652E+03 -0.15303152033E+03 -0.44139347039E+03  0.53062264862E+03  0.79564672168E+02 0.  0.
      -13    1    4    4    0    0 -0.37071050470E+02 -0.16059058140E+01  0.25967759000E+02  0.45289802648E+02  0.00000000000E+00 0.  1.
       14    1    4    4    0    0 -0.20164010605E+03  0.15463742614E+03  0.34339913387E+03  0.42719366928E+03  0.00000000000E+00 0. -1.
        3    1    5    5  501    0  0.82435831987E+01 -0.32921121530E+02 -0.63261047253E+02  0.71789393411E+02  0.00000000000E+00 0. -1.
       -4    1    5    5    0  501  0.23046757332E+03 -0.12011039880E+03 -0.37813242314E+03  0.45883325520E+03  0.14200000000E+01 0.  1.
</event>
<event>
 9   1  0.7335000E-04  0.1024029E+04  0.7818608E-02  0.9282576E-01
       21   -1    0    0  503  502  0.00000000000E+00  0.00000000000E+00  0.27832033887E+03  0.27832033887E+03  0.00000000000E+00 0.  1.
       21   -1    0    0  502  503 -0.00000000000E+00 -0.00000000000E+00 -0.94193250931E+03  0.94193250931E+03  0.00000000000E+00 0. -1.
       39    2    1    2    0    0  0.00000000000E+00 -0.56843418861E-13 -0.66361217045E+03  0.12202528482E+04  0.10240292480E+04 0.  0.
       24    2    3    3    0    0 -0.75279364966E+02 -0.33971720922E+03  0.10534853053E+03  0.37230890265E+03  0.80254850807E+02 0.  0.
      -24    2    3    3    0    0  0.75279364966E+02  0.33971720922E+03 -0.76896070098E+03  0.84794394552E+03  0.81446977049E+02 0.  0.
      -13    1    4    4    0    0 -0.29783253271E+02 -0.15410624127E+03  0.89172175280E+02  0.18051995075E+03  0.00000000000E+00 0.  1.
       14    1    4    4    0    0 -0.45496111696E+02 -0.18561096795E+03  0.16176355251E+02  0.19178895191E+03  0.00000000000E+00 0. -1.
        1    1    5    5  501    0  0.73460902343E+02  0.25284291404E+03 -0.64395874766E+03  0.69570749028E+03  0.00000000000E+00 0. -1.
       -2    1    5    5    0  501  0.18184626228E+01  0.86874295186E+02 -0.12500195332E+03  0.15223645524E+03  0.00000000000E+00 0.  1.
</event>
<event>
 9   1  0.7335000E-04  0.1018558E+04  0.7818608E-02  0.9288422E-01
       21   -1    0    0  503  502  0.00000000000E+00  0.00000000000E+00  0.83289439993E+03  0.83289439993E+03  0.00000000000E+00 0. -1.
       21   -1    0    0  502  503 -0.00000000000E+00 -0.00000000000E+00 -0.31140185722E+03  0.31140185722E+03  0.00000000000E+00 0.  1.
       39    2    1    2    0    0 -0.71054273576E-14 -0.11368683772E-12  0.52149254271E+03  0.11442962571E+04  0.10185575350E+04 0.  0.
       24    2    3    3    0    0  0.48315477135E+02  0.35534691985E+03 -0.13598614788E+03  0.39102229271E+03  0.76160240324E+02 0.  0.
      -24    2    3    3    0    0 -0.48315477135E+02 -0.35534691985E+03  0.65747869059E+03  0.75327396444E+03  0.80855538711E+02 0.  0.
      -13    1    4    4    0    0  0.54187369121E+02  0.30564284021E+03 -0.90351443325E+02  0.32329120009E+03  0.00000000000E+00 0.  1.
       14    1    4    4    0    0 -0.58718919867E+01  0.49704079637E+02 -0.45634704553E+02  0.67731092621E+02  0.00000000000E+00 0. -1.
        3    1    5    5  501    0 -0.47695463543E+02 -0.35614366192E+03  0.62637143382E+03  0.72211795316E+03  0.00000000000E+00 0. -1.
       -4    1    5    5    0  501 -0.62001359135E+00  0.79674207592E+00  0.31107256772E+02  0.31156011277E+02  0.14200000000E+01 0.  1.
</event>
<event>
 9   1  0.7335000E-04  0.1001686E+04  0.7818608E-02  0.9306698E-01
       21   -1    0    0  503  502  0.00000000000E+00  0.00000000000E+00  0.87825520669E+03  0.87825520669E+03  0.00000000000E+00 0.  1.
       21   -1    0    0  502  503 -0.00000000000E+00 -0.00000000000E+00 -0.28561591503E+03  0.28561591503E+03  0.00000000000E+00 0. -1.
       39    2    1    2    0    0  0.00000000000E+00  0.14210854715E-13  0.59263929167E+03  0.11638711217E+04  0.10016859078E+04 0.  0.
       24    2    3    3    0    0  0.49167014466E+03  0.43413815719E+02  0.33602890968E+03  0.60162141408E+03  0.73543233523E+02 0.  0.
      -24    2    3    3    0    0 -0.49167014466E+03 -0.43413815719E+02  0.25661038199E+03  0.56224970764E+03  0.81557066231E+02 0.  0.
      -13    1    4    4    0    0  0.41415137581E+01  0.18739436803E+01  0.16785715341E+02  0.17390343315E+02  0.00000000000E+00 0.  1.
       14    1    4    4    0    0  0.48752863090E+03  0.41539872038E+02  0.31924319434E+03  0.58423107077E+03  0.00000000000E+00 0. -1.
        3    1    5    5  501    0 -0.16116143348E+03  0.23127329694E+02  0.93044290126E+02  0.18752365436E+03  0.00000000000E+00 0. -1.
       -4    1    5    5    0  501 -0.33050871118E+03 -0.66541145413E+02  0.16356609186E+03  0.37472605328E+03  0.14200000000E+01 0.  1.
</event>
<event>
 9   1  0.7335000E-04  0.9987078E+03  0.7818608E-02  0.9309963E-01
       21   -1    0    0  503  502  0.00000000000E+00  0.00000000000E+00  0.19323330729E+04  0.19323330729E+04  0.00000000000E+00 0.  1.
       21   -1    0    0  502  503 -0.00000000000E+00 -0.00000000000E+00 -0.12904312546E+03  0.12904312546E+03  0.00000000000E+00 0. -1.
       39    2    1    2    0    0 -0.56843418861E-13  0.28421709430E-13  0.18032899474E+04  0.20613761984E+04  0.99870776338E+03 0.  0.
       24    2    3    3    0    0 -0.23058049430E+03  0.12362303936E+03  0.39039755087E+02  0.27595833590E+03  0.78605855166E+02 0.  0.
      -24    2    3    3    0    0  0.23058049430E+03 -0.12362303936E+03  0.17642501924E+04  0.17854178625E+04  0.81781306893E+02 0.  0.
      -13    1    4    4    0    0 -0.10648381667E+03  0.28574980617E+02  0.46061870202E+02  0.11948652064E+03  0.00000000000E+00 0.  1.
       14    1    4    4    0    0 -0.12409667763E+03  0.95048058745E+02 -0.70221151144E+01  0.15647181526E+03  0.00000000000E+00 0. -1.
        3    1    5    5  501    0  0.14713350345E+02 -0.34988856073E+02  0.17050116470E+03  0.17467498359E+03  0.00000000000E+00 0. -1.
       -4    1    5    5    0  501  0.21586714395E+03 -0.88634183290E+02  0.15937490276E+04  0.16107428789E+04  0.14200000000E+01 0.  1.
</event>
<event>
 9   1  0.7335000E-04  0.1000107E+04  0.7818608E-02  0.9308428E-01
       21   -1    0    0  503  502  0.00000000000E+00  0.00000000000E+00  0.14263775565E+03  0.14263775565E+03  0.00000000000E+00 0.  1.
       21   -1    0    0  502  503 -0.00000000000E+00 -0.00000000000E+00 -0.17530654289E+04  0.17530654289E+04  0.00000000000E+00 0. -1.
       39    2    1    2    0    0  0.56843418861E-13 -0.88817841970E-15 -0.16104276733E+04  0.18957031846E+04  0.10001066309E+04 0.  0.
       24    2    3    3    0    0 -0.16498041602E+03  0.63746301228E+01  0.76389385956E+02  0.19896222722E+03  0.80569572384E+02 0.  0.
      -24    2    3    3    0    0  0.16498041602E+03 -0.63746301228E+01 -0.16868170593E+04  0.16967409574E+04  0.79491581207E+02 0.  0.
      -13    1    4    4    0    0 -0.91140273226E+02  0.11825020122E+02  0.84028989394E+02  0.12452811555E+03  0.00000000000E+00 0.  1.
       14    1    4    4    0    0 -0.73840142790E+02 -0.54503899989E+01 -0.76396034386E+01  0.74434111663E+02  0.00000000000E+00 0. -1.
        3    1    5    5  501    0  0.76847938940E+02 -0.14795039432E+02 -0.11509607607E+04  0.11536182955E+04  0.00000000000E+00 0. -1.
       -4    1    5    5    0  501  0.88132477076E+02  0.84204093094E+01 -0.53585629852E+03  0.54312266190E+03  0.14200000000E+01 0.  1.
</event>
<event>
 9   1  0.7335000E-04  0.1130456E+04  0.7818608E-02  0.9176005E-01
       21   -1    0    0  503  502  0.00000000000E+00  0.00000000000E+00  0.64911629860E+03  0.64911629860E+03  0.00000000000E+00 0. -1.
       21   -1    0    0  502  503 -0.00000000000E+00 -0.00000000000E+00 -0.49218096781E+03  0.49218096781E+03  0.00000000000E+00 0.  1.
       39    2    1    2    0    0  0.00000000000E+00  0.00000000000E+00  0.15693533079E+03  0.11412972664E+04  0.11304559931E+04 0.  0.
       24    2    3    3    0    0 -0.28988851678E+03 -0.26141046337E+03 -0.32633670104E+03  0.51510497915E+03  0.80415885140E+02 0.  0.
      -24    2    3    3    0    0  0.28988851678E+03  0.26141046337E+03  0.48327203182E+03  0.62619228725E+03  0.78702867486E+02 0.  0.
      -13    1    4    4    0    0 -0.20528153302E+03 -0.14065383539E+03 -0.23089014307E+03  0.33946173183E+03  0.00000000000E+00 0.  1.
       14    1    4    4    0    0 -0.84606983759E+02 -0.12075662798E+03 -0.95446557964E+02  0.17564324732E+03  0.00000000000E+00 0. -1.
        3    1    5    5  501    0  0.20379947490E+03  0.16395155048E+03  0.26655315189E+03  0.37345002298E+03  0.00000000000E+00 0. -1.
       -4    1    5    5    0  501  0.86089041872E+02  0.97458912890E+02  0.21671887993E+03  0.25274226428E+03  0.14200000000E+01 0.  1.
</event>
<event>
 9   1  0.7335000E-04  0.9964461E+03  0.7818608E-02  0.9312451E-01
       -2   -1    0    0    0  501 -0.00000000000E+00  0.00000000000E+00  0.13829511778E+04  0.13829511778E+04  0.00000000000E+00 0.  1.
        2   -1    0    0  501    0  0.00000000000E+00 -0.00000000000E+00 -0.17949022230E+03  0.17949022230E+03  0.00000000000E+00 0. -1.
       39    2    1    2    0    0 -0.56843418861E-13  0.28421709430E-13  0.12034609555E+04  0.15624414001E+04  0.99644611361E+03 0.  0.
       24    2    3    3    0    0  0.39378874107E+03 -0.23772263271E+03  0.32719468497E+03  0.56992679229E+03  0.78603842161E+02 0.  0.
      -24    2    3    3    0    0 -0.39378874107E+03  0.23772263271E+03  0.87626627055E+03  0.99251460782E+03  0.75239930470E+02 0.  0.
      -13    1    4    4    0    0  0.81815584144E+02 -0.77067194433E+02  0.51321472810E+02  0.12355984719E+03  0.00000000000E+00 0.  1.
       14    1    4    4    0    0  0.31197315693E+03 -0.16065543828E+03  0.27587321216E+03  0.44636694510E+03  0.00000000000E+00 0. -1.
        1    1    5    5  502    0 -0.12914138292E+02  0.19256050203E+02  0.79036976702E+02  0.82367555041E+02  0.00000000000E+00 0. -1.
       -2    1    5    5    0  502 -0.38087460278E+03  0.21846658251E+03  0.79722929385E+03  0.91014705278E+03  0.00000000000E+00 0.  1.
</event>
<event>
 9   1  0.7335000E-04  0.1023813E+04  0.7818608E-02  0.9282806E-01
       21   -1    0    0  503  502  0.00000000000E+00  0.00000000000E+00  0.21343824533E+03  0.21343824533E+03  0.00000000000E+00 0.  1.
       21   -1    0    0  502  503 -0.00000000000E+00 -0.00000000000E+00 -0.12277475494E+04  0.12277475494E+04  0.00000000000E+00 0. -1.
       39    2    1    2    0    0  0.00000000000E+00  0.00000000000E+00 -0.10143093040E+04  0.14411857947E+04  0.10238130350E+04 0.  0.
       24    2    3    3    0    0 -0.19307979007E+03 -0.36345131866E+03 -0.93845150548E+02  0.42962565967E+03  0.79966422932E+02 0.  0.
      -24    2    3    3    0    0  0.19307979007E+03  0.36345131866E+03 -0.92046415349E+03  0.10115601350E+04  0.81381708848E+02 0.  0.
      -13    1    4    4    0    0 -0.17987865567E+03 -0.26966348005E+03 -0.64862482475E+02  0.33057807681E+03  0.00000000000E+00 0.  1.
       14    1    4    4    0    0 -0.13201134399E+02 -0.93787838614E+02 -0.28982668072E+02  0.99047582858E+02  0.00000000000E+00 0. -1.
        3    1    5    5  501    0  0.12515425273E+03  0.25425672151E+03 -0.71564201871E+03  0.76971005344E+03  0.00000000000E+00 0. -1.
       -4    1    5    5    0  501  0.67925537334E+02  0.10919459715E+03 -0.20482213478E+03  0.24185008159E+03  0.14200000000E+01 0.  1.
</event>
<event>
 9   1  0.7335000E-04  0.1000172E+04  0.7818608E-02  0.9308356E-01
       21   -1    0    0  503  502  0.00000000000E+00  0.00000000000E+00  0.87615175597E+03  0.87615175597E+03  0.00000000000E+00 0.  1.
       21   -1    0    0  502  503 -0.00000000000E+00 -0.00000000000E+00 -0.28543670007E+03  0.28543670007E+03  0.00000000000E+00 0. -1.
       39    2    1    2    0    0  0.00000000000E+00  0.00000000000E+00  0.59071505590E+03  0.11615884560E+04  0.10001717172E+04 0.  0.
       24    2    3    3    0    0 -0.13930289905E+03  0.14365219531E+03  0.81884140465E+03  0.84672459400E+03  0.80000257560E+02 0.  0.
      -24    2    3    3    0    0  0.13930289905E+03 -0.14365219531E+03 -0.22812634875E+03  0.31486386204E+03  0.84002200737E+02 0.  0.
      -13    1    4    4    0    0 -0.95385289697E+02  0.10759776078E+03  0.70471979037E+03  0.71923960858E+03  0.00000000000E+00 0.  1.
       14    1    4    4    0    0 -0.43917609350E+02  0.36054434527E+02  0.11412161428E+03  0.12748498542E+03  0.00000000000E+00 0. -1.
        3    1    5    5  501    0  0.30125155585E+02 -0.65893779118E+02 -0.12969301288E+03  0.14855905464E+03  0.00000000000E+00 0. -1.
       -4    1    5    5    0  501  0.10917774346E+03 -0.77758416193E+02 -0.98433335866E+02  0.16630480740E+03  0.14200000000E+01 0.  1.
</event>
<event>
 8   1  0.7335000E-04  0.7006316E+03  0.7818608E-02  0.9716153E-01
        2   -1    0    0  501    0  0.00000000000E+00  0.00000000000E+00  0.19019662494E+04  0.19019662494E+04  0.00000000000E+00 0.  1.
       -2   -1    0    0    0  501 -0.00000000000E+00 -0.00000000000E+00 -0.64523313023E+02  0.64523313023E+02  0.00000000000E+00 0. -1.
       24    2    1    2    0    0 -0.34057135904E+03  0.14660548156E+02  0.96005624547E+03  0.10217924747E+04  0.78409723057E+02 0.  0.
      -24    2    1    2    0    0  0.34057135904E+03 -0.14660548156E+02  0.87738669087E+03  0.94469708766E+03  0.80258331948E+02 0.  0.
      -13    1    3    3    0    0 -0.67722589503E+02  0.29803285606E+02  0.25892976027E+03  0.26929390211E+03  0.00000000000E+00 0.  1.
       14    1    3    3    0    0 -0.27284876954E+03 -0.15142737450E+02  0.70112648521E+03  0.75249857262E+03  0.00000000000E+00 0. -1.
        1    1    4    4  502    0 -0.33948487167E+01 -0.25970151745E+01  0.26415005489E+02  0.26758587418E+02  0.00000000000E+00 0. -1.
       -2    1    4    4    0  502  0.34396620776E+03 -0.12063532981E+02  0.85097168538E+03  0.91793850025E+03  0.00000000000E+00 0.  1.
</event>
<event>
 9   1  0.7335000E-04  0.9921842E+03  0.7818608E-02  0.9317159E-01
       21   -1    0    0  503  502  0.00000000000E+00  0.00000000000E+00  0.16644808724E+03  0.16644808724E+03  0.00000000000E+00 0. -1.
       21   -1    0    0  502  503 -0.00000000000E+00 -0.00000000000E+00 -0.14785832281E+04  0.14785832281E+04  0.00000000000E+00 0.  1.
       39    2    1    2    0    0  0.00000000000E+00 -0.28421709430E-13 -0.13121351409E+04  0.16450313154E+04  0.99218415660E+03 0.  0.
       24    2    3    3    0    0 -0.41827605576E+03 -0.25431738138E+03 -0.66098029872E+03  0.82622282436E+03  0.78211322013E+02 0.  0.
      -24    2    3    3    0    0  0.41827605576E+03  0.25431738138E+03 -0.65115484217E+03  0.81880849102E+03  0.82538034777E+02 0.  0.
      -13    1    4    4    0    0 -0.21408557612E+03 -0.85325057402E+02 -0.29524417593E+03  0.37454255131E+03  0.00000000000E+00 0.  1.
       14    1    4    4    0    0 -0.20419047964E+03 -0.16899232398E+03 -0.36573612280E+03  0.45168027305E+03  0.00000000000E+00 0. -1.
        1    1    5    5  501    0  0.18420451651E+03  0.13441472598E+03 -0.24279599606E+03  0.33308935462E+03  0.00000000000E+00 0. -1.
       -2    1    5    5    0  501  0.23407153925E+03  0.11990265541E+03 -0.40835884611E+03  0.48571913640E+03  0.00000000000E+00 0.  1.
</event>
<event>
 9   1  0.7335000E-04  0.9437673E+03  0.7818608E-02  0.9372465E-01
       21   -1    0    0  503  502  0.00000000000E+00  0.00000000000E+00  0.21266650547E+04  0.21266650547E+04  0.00000000000E+00 0.  1.
       21   -1    0    0  502  503 -0.00000000000E+00 -0.00000000000E+00 -0.10470581361E+03  0.10470581361E+03  0.00000000000E+00 0. -1.
       39    2    1    2    0    0  0.00000000000E+00  0.00000000000E+00  0.20219592411E+04  0.22313708684E+04  0.94376733328E+03 0.  0.
       24    2    3    3    0    0  0.14381829969E+03  0.32467860675E+03  0.17062891868E+04  0.17447558040E+04  0.81548303560E+02 0.  0.
      -24    2    3    3    0    0 -0.14381829969E+03 -0.32467860675E+03  0.31567005435E+03  0.48661506431E+03  0.10510345664E+03 0.  0.
      -13    1    4    4    0    0  0.62217629806E+02  0.21807955043E+03  0.11815171111E+04  0.12030845388E+04  0.00000000000E+00 0.  1.
       14    1    4    4    0    0  0.81600669883E+02  0.10659905632E+03  0.52477207572E+03  0.54167126524E+03  0.00000000000E+00 0. -1.
        1    1    5    5  501    0 -0.44346793009E+02 -0.22515100464E+03  0.18909434084E+03  0.29734875597E+03  0.00000000000E+00 0. -1.
       -2    1    5    5    0  501 -0.99471506680E+02 -0.99527602110E+02  0.12657571351E+03  0.18926630834E+03  0.00000000000E+00 0.  1.
</event>
<event>
 9   1  0.7335000E-04  0.1015351E+04  0.7818608E-02  0.9291867E-01
       21   -1    0    0  503  502  0.00000000000E+00  0.00000000000E+00  0.39640990568E+03  0.39640990568E+03  0.00000000000E+00 0.  1.
       21   -1    0    0  502  503 -0.00000000000E+00 -0.00000000000E+00 -0.65017103267E+03  0.65017103267E+03  0.00000000000E+00 0. -1.
       39    2    1    2    0    0  0.00000000000E+00  0.00000000000E+00 -0.25376112698E+03  0.10465809384E+04  0.10153506542E+04 0.  0.
       24    2    3    3    0    0 -0.80035173171E+02 -0.24749516192E+03  0.31475961479E+03  0.41556062348E+03  0.77185054053E+02 0.  0.
      -24    2    3    3    0    0  0.80035173171E+02  0.24749516192E+03 -0.56852074177E+03  0.63102031487E+03  0.85506256157E+02 0.  0.
      -13    1    4    4    0    0 -0.91355844095E+02 -0.24156568848E+03  0.29559012341E+03  0.39252183782E+03  0.00000000000E+00 0.  1.
       14    1    4    4    0    0  0.11320670924E+02 -0.59294734355E+01  0.19169491372E+02  0.23038785664E+02  0.00000000000E+00 0. -1.
        3    1    5    5  501    0  0.16894892707E+02  0.12604920571E+03 -0.19116447831E+03  0.22960334803E+03  0.00000000000E+00 0. -1.
       -4    1    5    5    0  501  0.63140280464E+02  0.12144595621E+03 -0.37735626346E+03  0.40141696684E+03  0.14200000000E+01 0.  1.
</event>
<event>
 9   1  0.7335000E-04  0.9958047E+03  0.7818608E-02  0.9313158E-01
       21   -1    0    0  503  502  0.00000000000E+00  0.00000000000E+00  0.17429144287E+03  0.17429144287E+03  0.00000000000E+00 0.  1.
       21   -1    0    0  502  503 -0.00000000000E+00 -0.00000000000E+00 -0.14223688890E+04  0.14223688890E+04  0.00000000000E+00 0. -1.
       39    2    1    2    0    0  0.00000000000E+00  0.00000000000E+00 -0.12480774461E+04  0.15966603318E+04  0.99580465142E+03 0.  0.
       24    2    3    3    0    0 -0.28367345100E+03 -0.68245215435E+02 -0.12569451412E+04  0.12928661862E+04  0.80398079752E+02 0.  0.
      -24    2    3    3    0    0  0.28367345100E+03  0.68245215435E+02  0.88676950702E+01  0.30379414565E+03  0.84167753228E+02 0.  0.
      -13    1    4    4    0    0 -0.36442707681E+02  0.96194398011E+01 -0.91774220948E+02  0.99212459882E+02  0.00000000000E+00 0.  1.
       14    1    4    4    0    0 -0.24723074332E+03 -0.77864655236E+02 -0.11651709202E+04  0.11936537263E+04  0.00000000000E+00 0. -1.
        1    1    5    5  501    0  0.17291672226E+03  0.12359625427E+02 -0.25112060023E+02  0.17516725932E+03  0.00000000000E+00 0. -1.
       -2    1    5    5    0  501  0.11075672874E+03  0.55885590009E+02  0.33979755093E+02  0.12862688634E+03  0.00000000000E+00 0.  1.
</event>
<event>
 9   1  0.7335000E-04  0.9852335E+03  0.7818608E-02  0.9324890E-01
       21   -1    0    0  503  502  0.00000000000E+00  0.00000000000E+00  0.12012198598E+04  0.12012198598E+04  0.00000000000E+00 0.  1.
       21   -1    0    0  502  503 -0.00000000000E+00 -0.00000000000E+00 -0.20202069295E+03  0.20202069295E+03  0.00000000000E+00 0. -1.
       39    2    1    2    0    0  0.00000000000E+00 -0.71054273576E-14  0.99919916686E+03  0.14032405528E+04  0.98523351235E+03 0.  0.
       24    2    3    3    0    0  0.30981901247E+03  0.37113605710E+02  0.10302231087E+04  0.10794245914E+04  0.80203208678E+02 0.  0.
      -24    2    3    3    0    0 -0.30981901247E+03 -0.37113605710E+02 -0.31023941810E+02  0.32381596135E+03  0.80802547233E+02 0.  0.
      -13    1    4    4    0    0  0.28786759146E+03  0.51192774836E+02  0.98197563827E+03  0.10245802089E+04  0.00000000000E+00 0.  1.
       14    1    4    4    0    0  0.21951421013E+02 -0.14079169126E+02  0.48247470402E+02  0.54844382465E+02  0.00000000000E+00 0. -1.
        1    1    5    5  501    0 -0.20572226203E+03  0.11692860416E+02 -0.33821087312E+02  0.20881148921E+03  0.00000000000E+00 0. -1.
       -2    1    5    5    0  501 -0.10409675045E+03 -0.48806466127E+02  0.27971455018E+01  0.11500447214E+03  0.00000000000E+00 0.  1.
</event>
<event>
 9   1  0.7335000E-04  0.1001724E+04  0.7818608E-02  0.9306656E-01
        1   -1    0    0  501    0  0.00000000000E+00  0.00000000000E+00  0.18362604487E+04  0.18362604487E+04  0.00000000000E+00 0. -1.
       -1   -1    0    0    0  501 -0.00000000000E+00 -0.00000000000E+00 -0.13661611383E+03  0.13661611383E+03  0.00000000000E+00 0.  1.
       39    2    1    2    0    0  0.14210854715E-13  0.56843418861E-13  0.16996443349E+04  0.19728765625E+04  0.10017240468E+04 0.  0.
       24    2    3    3    0    0  0.11941709276E+03  0.41490405156E+03  0.13249401694E+04  0.13956240782E+04  0.76774352229E+02 0.  0.
      -24    2    3    3    0    0 -0.11941709276E+03 -0.41490405156E+03  0.37470416547E+03  0.57725248432E+03  0.80071249466E+02 0.  0.
      -13    1    4    4    0    0  0.13939954077E+02  0.97886383804E+01  0.27767044344E+02  0.32575274559E+02  0.00000000000E+00 0.  1.
       14    1    4    4    0    0  0.10547713868E+03  0.40511541318E+03  0.12971731251E+04  0.13630488037E+04  0.00000000000E+00 0. -1.
        3    1    5    5  502    0 -0.38764869588E+02 -0.99883776069E+02  0.51893176366E+02  0.11904782900E+03  0.00000000000E+00 0. -1.
       -4    1    5    5    0  502 -0.80652223169E+02 -0.31502027549E+03  0.32281098911E+03  0.45820465532E+03  0.14200000000E+01 0.  1.
</event>
<event>
 9   1  0.7335000E-04  0.9557438E+03  0.7818608E-02  0.9358462E-01
       -2   -1    0    0    0  501 -0.00000000000E+00  0.00000000000E+00  0.18902527901E+03  0.18902527901E+03  0.00000000000E+00 0. -1.
        2   -1    0    0  501    0  0.00000000000E+00 -0.00000000000E+00 -0.12081006574E+04  0.12081006574E+04  0.00000000000E+00 0.  1.
       39    2    1    2    0    0  0.14210854715E-13  0.00000000000E+00 -0.10190753784E+04  0.13971259364E+04  0.95574382307E+03 0.  0.
       24    2    3    3    0    0  0.11727633807E+03  0.20385474535E+03 -0.11056314599E+04  0.11339170176E+04  0.89645864171E+02 0.  0.
      -24    2    3    3    0    0 -0.11727633807E+03 -0.20385474535E+03  0.86556081541E+02  0.26320891880E+03  0.80476599137E+02 0.  0.
      -13    1    4    4    0    0  0.12466150038E+03  0.14400892372E+03 -0.79628612682E+03  0.81874944614E+03  0.00000000000E+00 0.  1.
       14    1    4    4    0    0 -0.73851623081E+01  0.59845821627E+02 -0.30934533312E+03  0.31516757147E+03  0.00000000000E+00 0. -1.
        3    1    5    5  502    0 -0.88593352690E+02 -0.74624381190E+02  0.47394054072E+02  0.12515501097E+03  0.00000000000E+00 0. -1.
       -4    1    5    5    0  502 -0.28682985383E+02 -0.12923036416E+03  0.39162027469E+02  0.13805390783E+03  0.14200000000E+01 0.  1.
</event>
<event>
 9   1  0.7335000E-04  0.9979533E+03  0.7818608E-02  0.9310792E-01
        2   -1    0    0  501    0  0.00000000000E+00  0.00000000000E+00  0.79831166083E+03  0.79831166083E+03  0.00000000000E+00 0. -1.
       -2   -1    0    0    0  501 -0.00000000000E+00 -0.00000000000E+00 -0.31188029717E+03  0.31188029717E+03  0.00000000000E+00 0.  1.
       39    2    1    2    0    0 -0.56843418861E-13  0.00000000000E+00  0.48643136366E+03  0.11101919580E+04  0.99795326147E+03 0.  0.
       24    2    3    3    0    0  0.40902346425E+03  0.19798470771E+03  0.45458894544E+03  0.64777423882E+03  0.80387911785E+02 0.  0.
      -24    2    3    3    0    0 -0.40902346425E+03 -0.19798470771E+03  0.31842418220E+02  0.46241771919E+03  0.79486279460E+02 0.  0.
      -13    1    4    4    0    0  0.39939951520E+03  0.18713096202E+03  0.45441094027E+03  0.63326714136E+03  0.00000000000E+00 0.  1.
       14    1    4    4    0    0  0.96239490580E+01  0.10853745690E+02  0.17800517526E+00  0.14507097464E+02  0.00000000000E+00 0. -1.
        3    1    5    5  502    0 -0.21394233088E+03 -0.13408674993E+03  0.46004151719E+02  0.25664559109E+03  0.00000000000E+00 0. -1.
       -4    1    5    5    0  502 -0.19508113337E+03 -0.63897957782E+02 -0.14161733500E+02  0.20577212810E+03  0.14200000000E+01 0.  1.
</event>
<event>
 9   1  0.7335000E-04  0.9942092E+03  0.7818608E-02  0.9314919E-01
       21   -1    0    0  503  502  0.00000000000E+00  0.00000000000E+00  0.12105436025E+03  0.12105436025E+03  0.00000000000E+00 0.  1.
       21   -1    0    0  502  503 -0.00000000000E+00 -0.00000000000E+00 -0.20413388315E+04  0.20413388315E+04  0.00000000000E+00 0. -1.
       39    2    1    2    0    0  0.00000000000E+00  0.14210854715E-13 -0.19202844713E+04  0.21623931918E+04  0.99420916572E+03 0.  0.
       24    2    3    3    0    0 -0.14871175656E+03  0.90232556834E+02  0.38880009534E+02  0.19397434808E+03  0.76532945338E+02 0.  0.
      -24    2    3    3    0    0  0.14871175656E+03 -0.90232556834E+02 -0.19591644808E+04  0.19684188437E+04  0.78039608237E+02 0.  0.
      -13    1    4    4    0    0 -0.73902945907E+02  0.85579230388E+02  0.37086817599E+02  0.11899950473E+03  0.00000000000E+00 0.  1.
       14    1    4    4    0    0 -0.74808810651E+02  0.46533264464E+01  0.17931919352E+01  0.74974843350E+02  0.00000000000E+00 0. -1.
        1    1    5    5  501    0  0.13476319145E+03 -0.48985242644E+02 -0.16473794877E+04  0.16536081302E+04  0.00000000000E+00 0. -1.
       -2    1    5    5    0  501  0.13948565109E+02 -0.41247314190E+02 -0.31178499310E+03  0.31481071347E+03  0.00000000000E+00 0.  1.
</event>
<event>
 9   1  0.7335000E-04  0.9607193E+03  0.7818608E-02  0.9352708E-01
       21   -1    0    0  503  502  0.00000000000E+00  0.00000000000E+00  0.16750126501E+03  0.16750126501E+03  0.00000000000E+00 0.  1.
       21   -1    0    0  502  503 -0.00000000000E+00 -0.00000000000E+00 -0.13775739593E+04  0.13775739593E+04  0.00000000000E+00 0. -1.
       39    2    1    2    0    0 -0.28421709430E-13  0.28421709430E-13 -0.12100726943E+04  0.15450752243E+04  0.96071927393E+03 0.  0.
       24    2    3    3    0    0  0.11424747052E+03 -0.22011707715E+03  0.42663192829E+02  0.26501144400E+03  0.83107792998E+02 0.  0.
      -24    2    3    3    0    0 -0.11424747052E+03  0.22011707715E+03 -0.12527358871E+04  0.12800637803E+04  0.87818372877E+02 0.  0.
      -13    1    4    4    0    0  0.10964513364E+03 -0.12977161251E+03  0.39868579332E+02  0.17450567430E+03  0.00000000000E+00 0.  1.
       14    1    4    4    0    0  0.46023368840E+01 -0.90345464637E+02  0.27946134966E+01  0.90505769705E+02  0.00000000000E+00 0. -1.
        3    1    5    5  501    0 -0.11109964260E+03  0.22753998283E+03 -0.11796315162E+04  0.12065024196E+04  0.00000000000E+00 0. -1.
       -4    1    5    5    0  501 -0.31478279195E+01 -0.74229056812E+01 -0.73104370862E+02  0.73561360703E+02  0.14200000000E+01 0.  1.
</event>
<event>
 9   1  0.7335000E-04  0.9984137E+03  0.7818608E-02  0.9310286E-01
       21   -1    0    0  503  502  0.00000000000E+00  0.00000000000E+00  0.13095893529E+04  0.13095893529E+04  0.00000000000E+00 0.  1.
       21   -1    0    0  502  503 -0.00000000000E+00 -0.00000000000E+00 -0.19029436399E+03  0.19029436399E+03  0.00000000000E+00 0. -1.
       39    2    1    2    0    0  0.00000000000E+00 -0.71054273576E-14  0.11192949889E+04  0.14998837169E+04  0.99841368780E+03 0.  0.
       24    2    3    3    0    0 -0.48719957625E+03 -0.58368210693E+02  0.63045933773E+03  0.80247442413E+03  0.75603900248E+02 0.  0.
      -24    2    3    3    0    0  0.48719957625E+03  0.58368210693E+02  0.48883565117E+03  0.69740929275E+03  0.81542336545E+02 0.  0.
      -13    1    4    4    0    0 -0.75079566222E+02 -0.13529304155E+02  0.14700638965E+03  0.16562264921E+03  0.00000000000E+00 0.  1.
       14    1    4    4    0    0 -0.41212001003E+03 -0.44838906538E+02  0.48345294808E+03  0.63685177492E+03  0.00000000000E+00 0. -1.
        3    1    5    5  501    0  0.29703900238E+02 -0.36614806905E+01  0.83710291724E+01  0.31077359276E+02  0.00000000000E+00 0. -1.
       -4    1    5    5    0  501  0.45749567601E+03  0.62029691384E+02  0.48046462199E+03  0.66633193347E+03  0.14200000000E+01 0.  1.
</event>
<event>
 9   1  0.7335000E-04  0.9869366E+03  0.7818608E-02  0.9322990E-01
       -1   -1    0    0    0  501 -0.00000000000E+00  0.00000000000E+00  0.69658656466E+03  0.69658656466E+03  0.00000000000E+00 0. -1.
        1   -1    0    0  501    0  0.00000000000E+00 -0.00000000000E+00 -0.34957745020E+03  0.34957745020E+03  0.00000000000E+00 0.  1.
       39    2    1    2    0    0  0.00000000000E+00  0.00000000000E+00  0.34700911446E+03  0.10461640149E+04  0.98693658382E+03 0.  0.
       24    2    3    3    0    0  0.27373145120E+03 -0.37699359357E+03  0.32294516224E+03  0.57240317011E+03  0.79364566240E+02 0.  0.
      -24    2    3    3    0    0 -0.27373145120E+03  0.37699359357E+03  0.24063952221E+02  0.47376084475E+03  0.82566259786E+02 0.  0.
      -13    1    4    4    0    0  0.16900281062E+03 -0.16696126445E+03  0.15160846871E+03  0.28182111633E+03  0.00000000000E+00 0.  1.
       14    1    4    4    0    0  0.10472864058E+03 -0.21003232911E+03  0.17133669353E+03  0.29058205378E+03  0.00000000000E+00 0. -1.
        1    1    5    5  502    0 -0.14916080847E+03  0.14275046606E+03 -0.74004759174E+01  0.20659479516E+03  0.00000000000E+00 0. -1.
       -2    1    5    5    0  502 -0.12457064273E+03  0.23424312751E+03  0.31464428139E+02  0.26716604959E+03  0.00000000000E+00 0.  1.
</event>
<event>
 9   1  0.7335000E-04  0.9819456E+03  0.7818608E-02  0.9328571E-01
       21   -1    0    0  503  502  0.00000000000E+00  0.00000000000E+00  0.52203149004E+03  0.52203149004E+03  0.00000000000E+00 0. -1.
       21   -1    0    0  502  503 -0.00000000000E+00 -0.00000000000E+00 -0.46176196401E+03  0.46176196401E+03  0.00000000000E+00 0.  1.
       39    2    1    2    0    0  0.00000000000E+00  0.00000000000E+00  0.60269526034E+02  0.98379345405E+03  0.98194559139E+03 0.  0.
       24    2    3    3    0    0 -0.37428063381E+03  0.24777630077E+03  0.20625448165E+03  0.50060790106E+03  0.81168166985E+02 0.  0.
      -24    2    3    3    0    0  0.37428063381E+03 -0.24777630077E+03 -0.14598495562E+03  0.48318555299E+03  0.10333239224E+03 0.  0.
      -13    1    4    4    0    0 -0.88663942634E+02  0.20172792480E+02  0.40593553295E+02  0.99579480060E+02  0.00000000000E+00 0.  1.
       14    1    4    4    0    0 -0.28561669117E+03  0.22760350829E+03  0.16566092836E+03  0.40102842100E+03  0.00000000000E+00 0. -1.
        1    1    5    5  501    0  0.22406786356E+03 -0.19108958105E+03 -0.12978818394E+03  0.32181766290E+03  0.00000000000E+00 0. -1.
       -2    1    5    5    0  501  0.15021277025E+03 -0.56686719719E+02 -0.16196771675E+02  0.16136789009E+03  0.00000000000E+00 0.  1.
</event>
<event>
 9   1  0.7335000E-04  0.1008410E+04  0.7818608E-02  0.9299368E-01
       21   -1    0    0  503  502  0.00000000000E+00  0.00000000000E+00  0.35321992154E+03  0.35321992154E+03  0.00000000000E+00 0. -1.
       21   -1    0    0  502  503 -0.00000000000E+00 -0.00000000000E+00 -0.71972952094E+03  0.71972952094E+03  0.00000000000E+00 0.  1.
       39    2    1    2    0    0  0.00000000000E+00  0.35527136788E-14 -0.36650959940E+03  0.10729494425E+04  0.10084102437E+04 0.  0.
       24    2    3    3    0    0  0.26243748011E+03 -0.20547306538E+02  0.26624832536E+03  0.38292351169E+03  0.80290860500E+02 0.  0.
      -24    2    3    3    0    0 -0.26243748011E+03  0.20547306538E+02 -0.63275792475E+03  0.69002593078E+03  0.80359013471E+02 0.  0.
      -13    1    4    4    0    0  0.18135877814E+03 -0.11090780476E+02  0.12758587576E+03  0.22201839454E+03  0.00000000000E+00 0.  1.
       14    1    4    4    0    0  0.81078701965E+02 -0.94565260617E+01  0.13866244959E+03  0.16090511715E+03  0.00000000000E+00 0. -1.
        3    1    5    5  501    0 -0.12215091653E+02 -0.13810517756E+02 -0.19725225127E+02  0.27000432794E+02  0.00000000000E+00 0. -1.
       -4    1    5    5    0  501 -0.25022238846E+03  0.34357824294E+02 -0.61303269962E+03  0.66302549799E+03  0.14200000000E+01 0.  1.
</event>
<event>
 9   1  0.7335000E-04  0.9964797E+03  0.7818608E-02  0.9312414E-01
       21   -1    0    0  503  502  0.00000000000E+00  0.00000000000E+00  0.18929877767E+04  0.18929877767E+04  0.00000000000E+00 0. -1.
       21   -1    0    0  502  503 -0.00000000000E+00 -0.00000000000E+00 -0.13113815834E+03  0.13113815834E+03  0.00000000000E+00 0.  1.
       39    2    1    2    0    0  0.56843418861E-13  0.28421709430E-13  0.17618496183E+04  0.20241259350E+04  0.99647966520E+03 0.  0.
       24    2    3    3    0    0  0.43384071730E+03 -0.21775378995E+03  0.72196014366E+03  0.87355812610E+03  0.79011832160E+02 0.  0.
      -24    2    3    3    0    0 -0.43384071730E+03  0.21775378995E+03  0.10398894747E+04  0.11505678089E+04  0.82472312464E+02 0.  0.
      -13    1    4    4    0    0  0.34583236286E+03 -0.15945973936E+03  0.50719037513E+03  0.63424719810E+03  0.00000000000E+00 0.  1.
       14    1    4    4    0    0  0.88008354441E+02 -0.58294050590E+02  0.21476976853E+03  0.23931092800E+03  0.00000000000E+00 0. -1.
        1    1    5    5  501    0 -0.20810260864E+03  0.10204115781E+03  0.59328308814E+03  0.63694891183E+03  0.00000000000E+00 0. -1.
       -2    1    5    5    0  501 -0.22573810866E+03  0.11571263214E+03  0.44660638655E+03  0.51361889709E+03  0.00000000000E+00 0.  1.
</event>
<event>
 9   1  0.7335000E-04  0.9957531E+03  0.7818608E-02  0.9313215E-01
       21   -1    0    0  503  502  0.00000000000E+00  0.00000000000E+00  0.13852646947E+03  0.13852646947E+03  0.00000000000E+00 0. -1.
       21   -1    0    0  502  503 -0.00000000000E+00 -0.00000000000E+00 -0.17894129989E+04  0.17894129989E+04  0.00000000000E+00 0.  1.
       39    2    1    2    0    0  0.00000000000E+00  0.00000000000E+00 -0.16508865294E+04  0.19279394683E+04  0.99575311229E+03 0.  0.
       24    2    3    3    0    0 -0.35626307997E+03 -0.22654029506E+03 -0.33963966725E+03  0.54792155646E+03  0.81357489061E+02 0.  0.
      -24    2    3    3    0    0  0.35626307997E+03  0.22654029506E+03 -0.13112468621E+04  0.13800179119E+04  0.82687460887E+02 0.  0.
      -13    1    4    4    0    0 -0.15105513369E+03 -0.77648164926E+02 -0.18410279431E+03  0.25048099689E+03  0.00000000000E+00 0.  1.
       14    1    4    4    0    0 -0.20520794628E+03 -0.14889213013E+03 -0.15553687294E+03  0.29744055957E+03  0.00000000000E+00 0. -1.
        1    1    5    5  501    0  0.19503094523E+03  0.16480088888E+03 -0.71218820754E+03  0.75657679420E+03  0.00000000000E+00 0. -1.
       -2    1    5    5    0  501  0.16123213474E+03  0.61739406179E+02 -0.59905865460E+03  0.62344111767E+03  0.00000000000E+00 0.  1.
</event>
<event>
 9   1  0.7335000E-04  0.9867923E+03  0.7818608E-02  0.9323151E-01
       21   -1    0    0  503  502  0.00000000000E+00  0.00000000000E+00  0.12250310729E+04  0.12250310729E+04  0.00000000000E+00 0. -1.
       21   -1    0    0  502  503 -0.00000000000E+00 -0.00000000000E+00 -0.19872130112E+03  0.19872130112E+03  0.00000000000E+00 0.  1.
       39    2    1    2    0    0  0.00000000000E+00  0.00000000000E+00  0.10263097718E+04  0.14237523740E+04  0.98679231598E+03 0.  0.
       24    2    3    3    0    0  0.18542211037E+03 -0.12680173951E+03 -0.10968189282E+03  0.26286094854E+03  0.81275583672E+02 0.  0.
      -24    2    3    3    0    0 -0.18542211037E+03  0.12680173951E+03  0.11359916646E+04  0.11608914255E+04  0.82047544417E+02 0.  0.
      -13    1    4    4    0    0  0.13919196065E+03 -0.11046736002E+03 -0.11774735076E+03  0.21317100682E+03  0.00000000000E+00 0.  1.
       14    1    4    4    0    0  0.46230149721E+02 -0.16334379487E+02  0.80654579411E+01  0.49689941721E+02  0.00000000000E+00 0. -1.
        1    1    5    5  501    0 -0.58922605953E+02  0.10062875521E+02  0.43432538941E+03  0.43841952379E+03  0.00000000000E+00 0. -1.
       -2    1    5    5    0  501 -0.12649950442E+03  0.11673886399E+03  0.70166627521E+03  0.72247190171E+03  0.00000000000E+00 0.  1.
</event>
<event>
 9   1  0.7335000E-04  0.1007532E+04  0.7818608E-02  0.9300322E-01
       21   -1    0    0  503  502  0.00000000000E+00  0.00000000000E+00  0.95230226321E+03  0.95230226321E+03  0.00000000000E+00 0.  1.
       21   -1    0    0  502  503 -0.00000000000E+00 -0.00000000000E+00 -0.26649124670E+03  0.26649124670E+03  0.00000000000E+00 0. -1.
       39    2    1    2    0    0  0.56843418861E-13  0.56843418861E-13  0.68581101652E+03  0.12187935099E+04  0.10075320687E+04 0.  0.
       24    2    3    3    0    0 -0.44882302013E+03 -0.13785230555E+03  0.53742528053E+03  0.71951598317E+03  0.91825684535E+02 0.  0.
      -24    2    3    3    0    0  0.44882302013E+03  0.13785230555E+03  0.14838573599E+03  0.49927752674E+03  0.82549140026E+02 0.  0.
      -13    1    4    4    0    0 -0.32514558594E+03 -0.13713529912E+03  0.36921114107E+03  0.51072752913E+03  0.00000000000E+00 0.  1.
       14    1    4    4    0    0 -0.12367743419E+03 -0.71700642921E+00  0.16821413946E+03  0.20878845404E+03  0.00000000000E+00 0. -1.
        3    1    5    5  501    0  0.39476028181E+03  0.14724734934E+03  0.13846027874E+03  0.44349600987E+03  0.00000000000E+00 0. -1.
       -4    1    5    5    0  501  0.54062738326E+02 -0.93950437917E+01  0.99254572434E+01  0.55781516873E+02  0.14200000000E+01 0.  1.
</event>
<event>
 9   1  0.7335000E-04  0.9968515E+03  0.7818608E-02  0.9312005E-01
       21   -1    0    0  503  502  0.00000000000E+00  0.00000000000E+00  0.15546540923E+04  0.15546540923E+04  0.00000000000E+00 0.  1.
       21   -1    0    0  502  503 -0.00000000000E+00 -0.00000000000E+00 -0.15979646025E+03  0.15979646025E+03  0.00000000000E+00 0. -1.
       39    2    1    2    0    0 -0.56843418861E-13  0.28421709430E-13  0.13948576321E+04  0.17144505526E+04  0.99685148516E+03 0.  0.
       24    2    3    3    0    0 -0.28843654089E+03  0.93957481556E+02  0.31251644512E+02  0.31508567322E+03  0.79238057291E+02 0.  0.
      -24    2    3    3    0    0  0.28843654089E+03 -0.93957481556E+02  0.13636059876E+04  0.13993648794E+04  0.82323324668E+02 0.  0.
      -13    1    4    4    0    0 -0.13922759608E+03  0.68992393674E+02  0.48609208409E+02  0.16281010115E+03  0.00000000000E+00 0.  1.
       14    1    4    4    0    0 -0.14920894481E+03  0.24965087882E+02 -0.17357563897E+02  0.15227557207E+03  0.00000000000E+00 0. -1.
        1    1    5    5  501    0  0.10532113653E+03  0.37048470114E+01  0.52380549287E+03  0.53430184545E+03  0.00000000000E+00 0. -1.
       -2    1    5    5    0  501  0.18311540436E+03 -0.97662328567E+02  0.83980049470E+03  0.86506303390E+03  0.00000000000E+00 0.  1.
</event>
<event>
 9   1  0.7335000E-04  0.9952120E+03  0.7818608E-02  0.9313812E-01
       21   -1    0    0  503  502  0.00000000000E+00  0.00000000000E+00  0.89199338278E+02  0.89199338278E+02  0.00000000000E+00 0. -1.
       21   -1    0    0  502  503 -0.00000000000E+00 -0.00000000000E+00 -0.27759370879E+04  0.27759370879E+04  0.00000000000E+00 0.  1.
       39    2    1    2    0    0  0.14210854715E-13  0.56843418861E-13 -0.26867377496E+04  0.28651364261E+04  0.99521204040E+03 0.  0.
       24    2    3    3    0    0  0.59308188301E+02  0.48401822399E+03 -0.14446432962E+04  0.15268307330E+04  0.80166898872E+02 0.  0.
      -24    2    3    3    0    0 -0.59308188301E+02 -0.48401822399E+03 -0.12420944534E+04  0.13383056931E+04  0.10233471931E+03 0.  0.
      -13    1    4    4    0    0  0.51965637418E+02  0.41992085188E+03 -0.13247336923E+04  0.13906664966E+04  0.00000000000E+00 0.  1.
       14    1    4    4    0    0  0.73425508824E+01  0.64097372105E+02 -0.11990960388E+03  0.13616423637E+03  0.00000000000E+00 0. -1.
        3    1    5    5  501    0 -0.69918144786E+02 -0.23062824752E+03 -0.52459966643E+03  0.57730645721E+03  0.00000000000E+00 0. -1.
       -4    1    5    5    0  501  0.10609956485E+02 -0.25338997647E+03 -0.71749478697E+03  0.76099923593E+03  0.14200000000E+01 0.  1.
</event>
<event>
 9   1  0.7335000E-04  0.9921263E+03  0.7818608E-02  0.9317223E-01
       -1   -1    0    0    0  501 -0.00000000000E+00  0.00000000000E+00  0.46178862566E+03  0.46178862566E+03  0.00000000000E+00 0. -1.
        1   -1    0    0  501    0  0.00000000000E+00 -0.00000000000E+00 -0.53288156511E+03  0.53288156511E+03  0.00000000000E+00 0.  1.
       39    2    1    2    0    0 -0.71054273576E-14  0.56843418861E-13 -0.71092939451E+02  0.99467019076E+03  0.99212629355E+03 0.  0.
       24    2    3    3    0    0  0.58700574447E+02 -0.46610994483E+03 -0.17361252674E+03  0.50680040881E+03  0.77466811096E+02 0.  0.
      -24    2    3    3    0    0 -0.58700574447E+02  0.46610994483E+03  0.10251958729E+03  0.48786978195E+03  0.82476786123E+02 0.  0.
      -13    1    4    4    0    0  0.77938173324E+02 -0.37664734988E+03 -0.14077831519E+03  0.40958041830E+03  0.00000000000E+00 0.  1.
       14    1    4    4    0    0 -0.19237598877E+02 -0.89462594956E+02 -0.32834211548E+02  0.97219990511E+02  0.00000000000E+00 0. -1.
        1    1    5    5  502    0 -0.33868271367E+02  0.43488922412E+03  0.10200679880E+03  0.44797442344E+03  0.00000000000E+00 0. -1.
       -2    1    5    5    0  502 -0.24832303079E+02  0.31220720715E+02  0.51278848771E+00  0.39895358505E+02  0.00000000000E+00 0.  1.
</event>
<event>
 9   1  0.7335000E-04  0.1006233E+04  0.7818608E-02  0.9301734E-01
       -2   -1    0    0    0  501 -0.00000000000E+00  0.00000000000E+00  0.13161473884E+03  0.13161473884E+03  0.00000000000E+00 0. -1.
        2   -1    0    0  501    0  0.00000000000E+00 -0.00000000000E+00 -0.19232377355E+04  0.19232377355E+04  0.00000000000E+00 0.  1.
       39    2    1    2    0    0 -0.14210854715E-13 -0.56843418861E-13 -0.17916229966E+04  0.20548524743E+04  0.10062334367E+04 0.  0.
       24    2    3    3    0    0  0.77197502366E+02 -0.29643083314E+03 -0.16946580570E+04  0.17239637874E+04  0.79715223970E+02 0.  0.
      -24    2    3    3    0    0 -0.77197502366E+02  0.29643083314E+03 -0.96964939639E+02  0.33088868690E+03  0.79084956801E+02 0.  0.
      -13    1    4    4    0    0  0.65706309080E+02 -0.10299809628E+03 -0.60541033093E+03  0.61761443934E+03  0.00000000000E+00 0.  1.
       14    1    4    4    0    0  0.11491193286E+02 -0.19343273686E+03 -0.10892477261E+04  0.11063493480E+04  0.00000000000E+00 0. -1.
        1    1    5    5  502    0 -0.49702391627E+02  0.14159860756E+03 -0.81563587201E+01  0.15028978536E+03  0.00000000000E+00 0. -1.
       -2    1    5    5    0  502 -0.27495110738E+02  0.15483222558E+03 -0.88808580918E+02  0.18059890154E+03  0.00000000000E+00 0.  1.
</event>
<event>
 9   1  0.7335000E-04  0.1008067E+04  0.7818608E-02  0.9299741E-01
       21   -1    0    0  503  502  0.00000000000E+00  0.00000000000E+00  0.47017573183E+03  0.47017573183E+03  0.00000000000E+00 0.  1.
       21   -1    0    0  502  503 -0.00000000000E+00 -0.00000000000E+00 -0.54032918090E+03  0.54032918090E+03  0.00000000000E+00 0. -1.
       39    2    1    2    0    0 -0.28421709430E-13  0.00000000000E+00 -0.70153449073E+02  0.10105049127E+04  0.10080667995E+04 0.  0.
       24    2    3    3    0    0  0.19254634442E+03 -0.45728498589E+03  0.30934446107E+01  0.50262907299E+03  0.80266820945E+02 0.  0.
      -24    2    3    3    0    0 -0.19254634442E+03  0.45728498589E+03 -0.73246893684E+02  0.50787583973E+03  0.79931896465E+02 0.  0.
      -13    1    4    4    0    0  0.13019432515E+03 -0.28869515845E+03  0.39747966786E+02  0.31917919368E+03  0.00000000000E+00 0.  1.
       14    1    4    4    0    0  0.62352019277E+02 -0.16858982744E+03 -0.36654522176E+02  0.18344987932E+03  0.00000000000E+00 0. -1.
        1    1    5    5  501    0  0.16761641129E+01  0.40752790922E+02 -0.19329234491E+02  0.45135560261E+02  0.00000000000E+00 0. -1.
       -2    1    5    5    0  501 -0.19422250854E+03  0.41653219497E+03 -0.53917659192E+02  0.46274027947E+03  0.00000000000E+00 0.  1.
</event>
<event>
 9   1  0.7335000E-04  0.1006127E+04  0.7818608E-02  0.9301850E-01
       21   -1    0    0  503  502  0.00000000000E+00  0.00000000000E+00  0.22242567966E+03  0.22242567966E+03  0.00000000000E+00 0.  1.
       21   -1    0    0  502  503 -0.00000000000E+00 -0.00000000000E+00 -0.11377857391E+04  0.11377857391E+04  0.00000000000E+00 0. -1.
       39    2    1    2    0    0  0.56843418861E-13  0.28421709430E-13 -0.91536005945E+03  0.13602114188E+04  0.10061267640E+04 0.  0.
       24    2    3    3    0    0 -0.32826245256E+03 -0.16689543195E+03 -0.63431490711E+01  0.37615240087E+03  0.76420351832E+02 0.  0.
      -24    2    3    3    0    0  0.32826245256E+03  0.16689543195E+03 -0.90901691038E+03  0.98405901791E+03  0.80312417434E+02 0.  0.
      -13    1    4    4    0    0 -0.20614645516E+03 -0.13085646460E+03  0.23742554411E+02  0.24532322392E+03  0.00000000000E+00 0.  1.
       14    1    4    4    0    0 -0.12211599740E+03 -0.36038967349E+02 -0.30085703482E+02  0.13082917696E+03  0.00000000000E+00 0. -1.
        1    1    5    5  501    0  0.26599660777E+03  0.11494450006E+03 -0.62900956198E+03  0.69254563930E+03  0.00000000000E+00 0. -1.
       -2    1    5    5    0  501  0.62265844788E+02  0.51950931883E+02 -0.28000734840E+03  0.29151337861E+03  0.00000000000E+00 0.  1.
</event>
<event>
 9   1  0.7335000E-04  0.1003162E+04  0.7818608E-02  0.9305083E-01
       21   -1    0    0  503  502  0.00000000000E+00  0.00000000000E+00  0.31196382885E+03  0.31196382885E+03  0.00000000000E+00 0.  1.
       21   -1    0    0  502  503 -0.00000000000E+00 -0.00000000000E+00 -0.80645105067E+03  0.80645105067E+03  0.00000000000E+00 0. -1.
       39    2    1    2    0    0  0.56843418861E-13 -0.14210854715E-13 -0.49448722182E+03  0.11184148795E+04  0.10031621156E+04 0.  0.
       24    2    3    3    0    0  0.33767786015E+03  0.96734236538E+02 -0.63613099098E+03  0.73116470243E+03  0.80965021102E+02 0.  0.
      -24    2    3    3    0    0 -0.33767786015E+03 -0.96734236538E+02  0.14164376916E+03  0.38725017709E+03  0.80721078811E+02 0.  0.
      -13    1    4    4    0    0  0.83238328771E+02  0.10124518158E+02 -0.93342029522E+02  0.12547453813E+03  0.00000000000E+00 0.  1.
       14    1    4    4    0    0  0.25443953138E+03  0.86609718380E+02 -0.54278896146E+03  0.60569016430E+03  0.00000000000E+00 0. -1.
        3    1    5    5  501    0 -0.53096809924E+02 -0.30510735053E+02 -0.28120426668E+01  0.61303211674E+02  0.00000000000E+00 0. -1.
       -4    1    5    5    0  501 -0.28458105022E+03 -0.66223501485E+02  0.14445581183E+03  0.32594696542E+03  0.14200000000E+01 0.  1.
</event>
<event>
 9   1  0.7335000E-04  0.1000103E+04  0.7818608E-02  0.9308431E-01
       21   -1    0    0  503  502  0.00000000000E+00  0.00000000000E+00  0.27727669855E+03  0.27727669855E+03  0.00000000000E+00 0. -1.
       21   -1    0    0  502  503 -0.00000000000E+00 -0.00000000000E+00 -0.90181278034E+03  0.90181278034E+03  0.00000000000E+00 0.  1.
       39    2    1    2    0    0 -0.56843418861E-13  0.00000000000E+00 -0.62453608179E+03  0.11790894789E+04  0.10001033355E+04 0.  0.
       24    2    3    3    0    0  0.25875718189E+03  0.70519286817E+02  0.17616189378E+03  0.33091019371E+03  0.80872087208E+02 0.  0.
      -24    2    3    3    0    0 -0.25875718189E+03 -0.70519286817E+02 -0.80069797557E+03  0.84817928517E+03  0.79765924505E+02 0.  0.
      -13    1    4    4    0    0  0.71655077479E+02  0.46665030949E+02  0.88011524168E+02  0.12271146494E+03  0.00000000000E+00 0.  1.
       14    1    4    4    0    0  0.18710210441E+03  0.23854255868E+02  0.88150369611E+02  0.20819872877E+03  0.00000000000E+00 0. -1.
        1    1    5    5  501    0 -0.45017366549E+02  0.15843191997E+02 -0.17402330377E+03  0.18044855300E+03  0.00000000000E+00 0. -1.
       -2    1    5    5    0  501 -0.21373981534E+03 -0.86362478814E+02 -0.62667467180E+03  0.66773073217E+03  0.00000000000E+00 0.  1.
</event>
<event>
 9   1  0.7335000E-04  0.1000679E+04  0.7818608E-02  0.9307800E-01
       21   -1    0    0  503  502  0.00000000000E+00  0.00000000000E+00  0.49105593830E+03  0.49105593830E+03  0.00000000000E+00 0.  1.
       21   -1    0    0  502  503 -0.00000000000E+00 -0.00000000000E+00 -0.50979875155E+03  0.50979875155E+03  0.00000000000E+00 0. -1.
       39    2    1    2    0    0  0.00000000000E+00  0.00000000000E+00 -0.18742813255E+02  0.10008546898E+04  0.10006791779E+04 0.  0.
       24    2    3    3    0    0 -0.30802779812E+03 -0.37808556043E+03  0.67366367022E+02  0.49952640551E+03  0.84608433268E+02 0.  0.
      -24    2    3    3    0    0  0.30802779812E+03  0.37808556043E+03 -0.86109180276E+02  0.50132828433E+03  0.78009245123E+02 0.  0.
      -13    1    4    4    0    0 -0.29089193240E+03 -0.32803238849E+03  0.40804236947E+02  0.44032754852E+03  0.00000000000E+00 0.  1.
       14    1    4    4    0    0 -0.17135865722E+02 -0.50053171944E+02  0.26562130075E+02  0.59198856997E+02  0.00000000000E+00 0. -1.
        1    1    5    5  501    0  0.30888257194E+03  0.37473387837E+03 -0.77140818050E+02  0.49171600407E+03  0.00000000000E+00 0. -1.
       -2    1    5    5    0  501 -0.85477381679E+00  0.33516820574E+01 -0.89683622266E+01  0.96122802663E+01  0.00000000000E+00 0.  1.
</event>
<event>
 9   1  0.7335000E-04  0.1004718E+04  0.7818608E-02  0.9303385E-01
       21   -1    0    0  503  502  0.00000000000E+00  0.00000000000E+00  0.73529519495E+03  0.73529519495E+03  0.00000000000E+00 0.  1.
       21   -1    0    0  502  503 -0.00000000000E+00 -0.00000000000E+00 -0.34321562679E+03  0.34321562679E+03  0.00000000000E+00 0. -1.
       39    2    1    2    0    0  0.56843418861E-13  0.00000000000E+00  0.39207956816E+03  0.10785108217E+04  0.10047184704E+04 0.  0.
       24    2    3    3    0    0 -0.49010673233E+03 -0.83428300177E+02  0.17472488998E+03  0.53127362436E+03  0.67512861156E+02 0.  0.
      -24    2    3    3    0    0  0.49010673233E+03  0.83428300177E+02  0.21735467818E+03  0.54723719737E+03  0.71137920398E+02 0.  0.
      -13    1    4    4    0    0 -0.31540728702E+03 -0.80153193928E+02  0.13346975305E+03  0.35173920194E+03  0.00000000000E+00 0.  1.
       14    1    4    4    0    0 -0.17469944531E+03 -0.32751062486E+01  0.41255136936E+02  0.17953442242E+03  0.00000000000E+00 0. -1.
        1    1    5    5  501    0  0.34148357655E+03  0.31262973336E+02  0.12716188290E+03  0.36573016148E+03  0.00000000000E+00 0. -1.
       -2    1    5    5    0  501  0.14862315578E+03  0.52165326841E+02  0.90192795273E+02  0.18150703589E+03  0.00000000000E+00 0.  1.
</event>
<event>
 9   1  0.7335000E-04  0.9958522E+03  0.7818608E-02  0.9313106E-01
       -2   -1    0    0    0  501 -0.00000000000E+00  0.00000000000E+00  0.10713397761E+03  0.10713397761E+03  0.00000000000E+00 0.  1.
        2   -1    0    0  501    0  0.00000000000E+00 -0.00000000000E+00 -0.23142086483E+04  0.23142086483E+04  0.00000000000E+00 0. -1.
       39    2    1    2    0    0  0.56843418861E-13  0.00000000000E+00 -0.22070746707E+04  0.24213426259E+04  0.99585215272E+03 0.  0.
       24    2    3    3    0    0  0.41755546805E+03  0.24300656878E+03 -0.13210700164E+04  0.14088779513E+04  0.79412417375E+02 0.  0.
      -24    2    3    3    0    0 -0.41755546805E+03 -0.24300656878E+03 -0.88600465428E+03  0.10124646746E+04  0.81705009447E+02 0.  0.
      -13    1    4    4    0    0  0.30384752313E+03  0.20244531103E+03 -0.91216110859E+03  0.98251987730E+03  0.00000000000E+00 0.  1.
       14    1    4    4    0    0  0.11370794492E+03  0.40561257753E+02 -0.40890890785E+03  0.42635807402E+03  0.00000000000E+00 0. -1.
        1    1    5    5  502    0 -0.16202880696E+03 -0.12687301711E+03 -0.43554869544E+03  0.48171855150E+03  0.00000000000E+00 0. -1.
       -2    1    5    5    0  502 -0.25552666109E+03 -0.11613355167E+03 -0.45045595884E+03  0.53074612312E+03  0.00000000000E+00 0.  1.
</event>
<event>
 9   1  0.7335000E-04  0.1000451E+04  0.7818608E-02  0.9308050E-01
       21   -1    0    0  503  502  0.00000000000E+00  0.00000000000E+00  0.22846659957E+03  0.22846659957E+03  0.00000000000E+00 0. -1.
       21   -1    0    0  502  503 -0.00000000000E+00 -0.00000000000E+00 -0.10952393711E+04  0.10952393711E+04  0.00000000000E+00 0.  1.
       39    2    1    2    0    0  0.28421709430E-13 -0.71054273576E-14 -0.86677277152E+03  0.13237059707E+04  0.10004511279E+04 0.  0.
       24    2    3    3    0    0  0.20577211016E+03 -0.10800756352E+02  0.16030991038E+03  0.27308245633E+03  0.80099581356E+02 0.  0.
      -24    2    3    3    0    0 -0.20577211016E+03  0.10800756352E+02 -0.10270826819E+04  0.10506235143E+04  0.80325062929E+02 0.  0.
      -13    1    4    4    0    0  0.85378155184E+02  0.33069487970E+02  0.51954544401E+02  0.10527248027E+03  0.00000000000E+00 0.  1.
       14    1    4    4    0    0  0.12039395498E+03 -0.43870244322E+02  0.10835536598E+03  0.16780997607E+03  0.00000000000E+00 0. -1.
        3    1    5    5  501    0 -0.72181853105E+02 -0.25512807448E+02 -0.25568163108E+03  0.26689739552E+03  0.00000000000E+00 0. -1.
       -4    1    5    5    0  501 -0.13359025706E+03  0.36313563800E+02 -0.77140105082E+03  0.78372611881E+03  0.14200000000E+01 0.  1.
</event>
<event>
 9   1  0.7335000E-04  0.9964334E+03  0.7818608E-02  0.9312465E-01
       21   -1    0    0  503  502  0.00000000000E+00  0.00000000000E+00  0.67982131341E+03  0.67982131341E+03  0.00000000000E+00 0. -1.
       21   -1    0    0  502  503 -0.00000000000E+00 -0.00000000000E+00 -0.36512519591E+03  0.36512519591E+03  0.00000000000E+00 0.  1.
       39    2    1    2    0    0  0.00000000000E+00 -0.14210854715E-13  0.31469611750E+03  0.10449465093E+04  0.99643342024E+03 0.  0.
       24    2    3    3    0    0 -0.48004880775E+03 -0.10493464492E+03  0.17076972941E+03  0.52671914309E+03  0.82538583040E+02 0.  0.
      -24    2    3    3    0    0  0.48004880775E+03  0.10493464492E+03  0.14392638810E+03  0.51822736623E+03  0.79916583927E+02 0.  0.
      -13    1    4    4    0    0 -0.42060236985E+03 -0.75498142646E+02  0.17130347722E+03  0.46038158561E+03  0.00000000000E+00 0.  1.
       14    1    4    4    0    0 -0.59446437903E+02 -0.29436502274E+02 -0.53374781164E+00  0.66337557479E+02  0.00000000000E+00 0. -1.
        3    1    5    5  501    0  0.34051329197E+03  0.10889266281E+03  0.90713378969E+02  0.36883035551E+03  0.00000000000E+00 0. -1.
       -4    1    5    5    0  501  0.13953551579E+03 -0.39580178912E+01  0.53213009129E+02  0.14939701072E+03  0.14200000000E+01 0.  1.
</event>
<event>
 9   1  0.7335000E-04  0.1003022E+04  0.7818608E-02  0.9305237E-01
       21   -1    0    0  503  502  0.00000000000E+00  0.00000000000E+00  0.25786752062E+03  0.25786752062E+03  0.00000000000E+00 0.  1.
       21   -1    0    0  502  503 -0.00000000000E+00 -0.00000000000E+00 -0.97535769715E+03  0.97535769715E+03  0.00000000000E+00 0. -1.
       39    2    1    2    0    0 -0.56843418861E-13  0.00000000000E+00 -0.71749017653E+03  0.12332252178E+04  0.10030215772E+04 0.  0.
       24    2    3    3    0    0 -0.38276013649E+03  0.57654831175E+02  0.20333359600E+02  0.39615030381E+03  0.81805965856E+02 0.  0.
      -24    2    3    3    0    0  0.38276013649E+03 -0.57654831175E+02 -0.73782353613E+03  0.83707491397E+03  0.80507387750E+02 0.  0.
      -13    1    4    4    0    0 -0.26266283245E+02 -0.27068591308E+00  0.23085689758E+02  0.34970558731E+02  0.00000000000E+00 0.  1.
       14    1    4    4    0    0 -0.35649385324E+03  0.57925517088E+02 -0.27523301581E+01  0.36117974507E+03  0.00000000000E+00 0. -1.
        3    1    5    5  501    0  0.74089873832E+02 -0.20489159505E+02 -0.22050009718E+03  0.23351532694E+03  0.00000000000E+00 0. -1.
       -4    1    5    5    0  501  0.30867026266E+03 -0.37165671670E+02 -0.51732343895E+03  0.60355958702E+03  0.14200000000E+01 0.  1.
</event>
<event>
 9   1  0.7335000E-04  0.9654197E+03  0.7818608E-02  0.9347307E-01
       21   -1    0    0  503  502  0.00000000000E+00  0.00000000000E+00  0.65966840133E+03  0.65966840133E+03  0.00000000000E+00 0. -1.
       21   -1    0    0  502  503 -0.00000000000E+00 -0.00000000000E+00 -0.35322111262E+03  0.35322111262E+03  0.00000000000E+00 0.  1.
       39    2    1    2    0    0  0.00000000000E+00  0.00000000000E+00  0.30644728871E+03  0.10128895139E+04  0.96541971531E+03 0.  0.
       24    2    3    3    0    0  0.40550800002E+03 -0.11919865329E+03  0.38377149262E+03  0.57668647830E+03  0.81496494908E+02 0.  0.
      -24    2    3    3    0    0 -0.40550800002E+03  0.11919865329E+03 -0.77324203914E+02  0.43620303564E+03  0.75159821517E+02 0.  0.
      -13    1    4    4    0    0  0.53646852158E+02 -0.31940190439E+02  0.26896643197E+02  0.67982276566E+02  0.00000000000E+00 0.  1.
       14    1    4    4    0    0  0.35186114786E+03 -0.87258462853E+02  0.35687484942E+03  0.50870420173E+03  0.00000000000E+00 0. -1.
        3    1    5    5  501    0 -0.82700941171E+02  0.43396693366E+02  0.82176077620E+01  0.93756321083E+02  0.00000000000E+00 0. -1.
       -4    1    5    5    0  501 -0.32280705885E+03  0.75801959926E+02 -0.85541811676E+02  0.34244671456E+03  0.14200000000E+01 0.  1.
</event>
<event>
 9   1  0.7335000E-04  0.1023846E+04  0.7818608E-02  0.9282771E-01
       21   -1    0    0  503  502  0.00000000000E+00  0.00000000000E+00  0.56980395369E+03  0.56980395369E+03  0.00000000000E+00 0.  1.
       21   -1    0    0  502  503 -0.00000000000E+00 -0.00000000000E+00 -0.45992131699E+03  0.45992131699E+03  0.00000000000E+00 0. -1.
       39    2    1    2    0    0 -0.14210854715E-13 -0.56843418861E-13  0.10988263670E+03  0.10297252707E+04  0.10238456618E+04 0.  0.
       24    2    3    3    0    0  0.73335235058E+02  0.28240470872E+03 -0.35917322592E+03  0.46959186235E+03  0.79878875540E+02 0.  0.
      -24    2    3    3    0    0 -0.73335235058E+02 -0.28240470872E+03  0.46905586262E+03  0.56013340832E+03  0.92766139608E+02 0.  0.
      -13    1    4    4    0    0  0.45527213919E+02  0.10482024256E+03 -0.19570313167E+03  0.22662684351E+03  0.00000000000E+00 0.  1.
       14    1    4    4    0    0  0.27808021139E+02  0.17758446616E+03 -0.16347009425E+03  0.24296501883E+03  0.00000000000E+00 0. -1.
        1    1    5    5  501    0  0.43903889117E+01  0.15206668305E+01  0.37215909488E+02  0.37504824508E+02  0.00000000000E+00 0. -1.
       -2    1    5    5    0  501 -0.77725623970E+02 -0.28392537555E+03  0.43183995313E+03  0.52262858382E+03  0.00000000000E+00 0.  1.
</event>
<event>
 9   1  0.7335000E-04  0.1001574E+04  0.7818608E-02  0.9306820E-01
       21   -1    0    0  503  502  0.00000000000E+00  0.00000000000E+00  0.90375125828E+03  0.90375125828E+03  0.00000000000E+00 0. -1.
       21   -1    0    0  502  503 -0.00000000000E+00 -0.00000000000E+00 -0.27749631874E+03  0.27749631874E+03  0.00000000000E+00 0.  1.
       39    2    1    2    0    0  0.56843418861E-13  0.00000000000E+00  0.62625493954E+03  0.11812475770E+04  0.10015740556E+04 0.  0.
       24    2    3    3    0    0  0.28910046501E+03 -0.35018223668E+02 -0.15752071575E+03  0.34140422266E+03  0.83298934554E+02 0.  0.
      -24    2    3    3    0    0 -0.28910046501E+03  0.35018223668E+02  0.78377565529E+03  0.83984335436E+03  0.78912782109E+02 0.  0.
      -13    1    4    4    0    0  0.26620499129E+03 -0.55707863336E+02 -0.13934246563E+03  0.30558924417E+03  0.00000000000E+00 0.  1.
       14    1    4    4    0    0  0.22895473725E+02  0.20689639667E+02 -0.18178250115E+02  0.35814978485E+02  0.00000000000E+00 0. -1.
        1    1    5    5  501    0 -0.16601924078E+03 -0.16140887284E+02  0.39194038850E+03  0.42595796118E+03  0.00000000000E+00 0. -1.
       -2    1    5    5    0  501 -0.12308122423E+03  0.51159110952E+02  0.39183526678E+03  0.41388539318E+03  0.00000000000E+00 0.  1.
</event>
<event>
 9   1  0.7335000E-04  0.9970350E+03  0.7818608E-02  0.9311803E-01
       21   -1    0    0  503  502  0.00000000000E+00  0.00000000000E+00  0.35979749412E+03  0.35979749412E+03  0.00000000000E+00 0. -1.
       21   -1    0    0  502  503 -0.00000000000E+00 -0.00000000000E+00 -0.69072110297E+03  0.69072110297E+03  0.00000000000E+00 0.  1.
       39    2    1    2    0    0  0.35527136788E-14 -0.71054273576E-14 -0.33092360885E+03  0.10505185971E+04  0.99703504850E+03 0.  0.
       24    2    3    3    0    0  0.19355852296E+02 -0.33876633818E+02  0.35148487591E+03  0.36244691277E+03  0.79396922117E+02 0.  0.
      -24    2    3    3    0    0 -0.19355852296E+02  0.33876633818E+02 -0.68240848477E+03  0.68807168432E+03  0.78987513856E+02 0.  0.
      -13    1    4    4    0    0  0.10124522656E+02 -0.47999148211E+02  0.11082757679E+03  0.12119891074E+03  0.00000000000E+00 0.  1.
       14    1    4    4    0    0  0.92313296397E+01  0.14122514393E+02  0.24065729912E+03  0.24124800202E+03  0.00000000000E+00 0. -1.
        3    1    5    5  501    0 -0.44823284518E+02 -0.98407418380E+00 -0.36109543759E+03  0.36386812210E+03  0.00000000000E+00 0. -1.
       -4    1    5    5    0  501  0.25467432222E+02  0.34860708001E+02 -0.32131304718E+03  0.32420356221E+03  0.14200000000E+01 0.  1.
</event>
<event>
 9   1  0.7335000E-04  0.1024949E+04  0.7818608E-02  0.9281597E-01
       21   -1    0    0  503  502  0.00000000000E+00  0.00000000000E+00  0.34654885071E+03  0.34654885071E+03  0.00000000000E+00 0.  1.
       21   -1    0    0  502  503 -0.00000000000E+00 -0.00000000000E+00 -0.75784442668E+03  0.75784442668E+03  0.00000000000E+00 0. -1.
       39    2    1    2    0    0  0.00000000000E+00  0.00000000000E+00 -0.41129557597E+03  0.11043932774E+04  0.10249490038E+04 0.  0.
       24    2    3    3    0    0 -0.25164465977E+03 -0.14456707340E+03  0.24194421931E+03  0.38516305145E+03  0.74758928841E+02 0.  0.
      -24    2    3    3    0    0  0.25164465977E+03  0.14456707340E+03 -0.65323979527E+03  0.71923022594E+03  0.79656853263E+02 0.  0.
      -13    1    4    4    0    0 -0.17118285655E+03 -0.12041449799E+03  0.20639529455E+03  0.29394257826E+03  0.00000000000E+00 0.  1.
       14    1    4    4    0    0 -0.80461803224E+02 -0.24152575409E+02  0.35548924754E+02  0.91220473185E+02  0.00000000000E+00 0. -1.
        3    1    5    5  501    0  0.23436745796E+03  0.15465371296E+03 -0.60495345882E+03  0.66694419828E+03  0.00000000000E+00 0. -1.
       -4    1    5    5    0  501  0.17277201813E+02 -0.10086639560E+02 -0.48286336450E+02  0.52286027654E+02  0.14200000000E+01 0.  1.
</event>
<event>
 9   1  0.7335000E-04  0.9928894E+03  0.7818608E-02  0.9316378E-01
       -2   -1    0    0    0  501 -0.00000000000E+00  0.00000000000E+00  0.55231135029E+03  0.55231135029E+03  0.00000000000E+00 0.  1.
        2   -1    0    0  501    0  0.00000000000E+00 -0.00000000000E+00 -0.44622899942E+03  0.44622899942E+03  0.00000000000E+00 0. -1.
       39    2    1    2    0    0  0.56843418861E-13 -0.14210854715E-13  0.10608235087E+03  0.99854034971E+03  0.99288940212E+03 0.  0.
       24    2    3    3    0    0  0.48128004366E+03 -0.73631604291E+02 -0.36581443375E+01  0.49303447332E+03  0.77572651693E+02 0.  0.
      -24    2    3    3    0    0 -0.48128004366E+03  0.73631604291E+02  0.10974049521E+03  0.50550587639E+03  0.80256595968E+02 0.  0.
      -13    1    4    4    0    0  0.38721336444E+03 -0.36062467856E+02 -0.24351582796E+02  0.38965072921E+03  0.00000000000E+00 0.  1.
       14    1    4    4    0    0  0.94066679215E+02 -0.37569136436E+02  0.20693438458E+02  0.10338374411E+03  0.00000000000E+00 0. -1.
        1    1    5    5  502    0 -0.44900774832E+03  0.83317832955E+02  0.11613895913E+03  0.47120916499E+03  0.00000000000E+00 0. -1.
       -2    1    5    5    0  502 -0.32272295340E+02 -0.96862286635E+01 -0.63984639221E+01  0.34296711399E+02  0.00000000000E+00 0.  1.
</event>
<event>
 9   1  0.7335000E-04  0.1005215E+04  0.7818608E-02  0.9302844E-01
       21   -1    0    0  503  502  0.00000000000E+00  0.00000000000E+00  0.13650171291E+04  0.13650171291E+04  0.00000000000E+00 0. -1.
       21   -1    0    0  502  503 -0.00000000000E+00 -0.00000000000E+00 -0.18506307396E+03  0.18506307396E+03  0.00000000000E+00 0.  1.
       39    2    1    2    0    0  0.56843418861E-13  0.56843418861E-13  0.11799540551E+04  0.15500802030E+04  0.10052149341E+04 0.  0.
       24    2    3    3    0    0 -0.31182190861E+03 -0.26162180784E+03  0.10274838928E+04  0.11081223156E+04  0.80827243807E+02 0.  0.
      -24    2    3    3    0    0  0.31182190861E+03  0.26162180784E+03  0.15247016235E+03  0.44195788746E+03  0.80004692734E+02 0.  0.
      -13    1    4    4    0    0 -0.90351906131E+02 -0.12412140142E+03  0.41408985256E+03  0.44163332667E+03  0.00000000000E+00 0.  1.
       14    1    4    4    0    0 -0.22147000248E+03 -0.13750040641E+03  0.61339404022E+03  0.66648898891E+03  0.00000000000E+00 0. -1.
        3    1    5    5  501    0  0.71529652833E+02  0.69641751286E+02  0.74765122090E+02  0.12472485012E+03  0.00000000000E+00 0. -1.
       -4    1    5    5    0  501  0.24029225578E+03  0.19198005655E+03  0.77705040256E+02  0.31723303734E+03  0.14200000000E+01 0.  1.
</event>
<event>
 9   1  0.7335000E-04  0.1098504E+04  0.7818608E-02  0.9206651E-01
       21   -1    0    0  503  502  0.00000000000E+00  0.00000000000E+00  0.22466991243E+03  0.22466991243E+03  0.00000000000E+00 0. -1.
       21   -1    0    0  502  503 -0.00000000000E+00 -0.00000000000E+00 -0.13427592073E+04  0.13427592073E+04  0.00000000000E+00 0.  1.
       39    2    1    2    0    0  0.00000000000E+00  0.00000000000E+00 -0.11180892949E+04  0.15674291198E+04  0.10985036978E+04 0.  0.
       24    2    3    3    0    0 -0.88165664246E+02 -0.52398121733E+03 -0.72018352457E+03  0.89860309677E+03  0.80583596364E+02 0.  0.
      -24    2    3    3    0    0  0.88165664246E+02  0.52398121733E+03 -0.39790577033E+03  0.66882602299E+03  0.81668516008E+02 0.  0.
      -13    1    4    4    0    0 -0.81797468754E+02 -0.26807174736E+03 -0.40580871426E+03  0.49318759129E+03  0.00000000000E+00 0.  1.
       14    1    4    4    0    0 -0.63681954917E+01 -0.25590946997E+03 -0.31437481031E+03  0.40541550549E+03  0.00000000000E+00 0. -1.
        1    1    5    5  501    0  0.91740724498E+02  0.50901511509E+03 -0.36666038273E+03  0.63399730613E+03  0.00000000000E+00 0. -1.
       -2    1    5    5    0  501 -0.35750602521E+01  0.14966102241E+02 -0.31245387595E+02  0.34828716859E+02  0.00000000000E+00 0.  1.
</event>
<event>
 9   1  0.7335000E-04  0.1001435E+04  0.7818608E-02  0.9306972E-01
       21   -1    0    0  503  502  0.00000000000E+00  0.00000000000E+00  0.10059886141E+04  0.10059886141E+04  0.00000000000E+00 0. -1.
       21   -1    0    0  502  503 -0.00000000000E+00 -0.00000000000E+00 -0.24922556261E+03  0.24922556261E+03  0.00000000000E+00 0.  1.
       39    2    1    2    0    0  0.28421709430E-13  0.28421709430E-13  0.75676305145E+03  0.12552141767E+04  0.10014351269E+04 0.  0.
       24    2    3    3    0    0 -0.13543289118E+03 -0.19550589269E+03  0.92166253316E+03  0.95492766688E+03  0.76553261514E+02 0.  0.
      -24    2    3    3    0    0  0.13543289118E+03  0.19550589269E+03 -0.16489948171E+03  0.30028650980E+03  0.80096983772E+02 0.  0.
      -13    1    4    4    0    0 -0.12437350569E+03 -0.14309949765E+03  0.61292820265E+03  0.64158180831E+03  0.00000000000E+00 0.  1.
       14    1    4    4    0    0 -0.11059385485E+02 -0.52406395039E+02  0.30873433051E+03  0.31334585857E+03  0.00000000000E+00 0. -1.
        1    1    5    5  501    0  0.93954655449E+01 -0.73456112831E+01 -0.53209782743E+01  0.13059310385E+02  0.00000000000E+00 0. -1.
       -2    1    5    5    0  501  0.12603742563E+03  0.20285150397E+03 -0.15957850344E+03  0.28722719941E+03  0.00000000000E+00 0.  1.
</event>
<event>
 9   1  0.7335000E-04  0.9960135E+03  0.7818608E-02  0.9312928E-01
       21   -1    0    0  503  502  0.00000000000E+00  0.00000000000E+00  0.54449622576E+03  0.54449622576E+03  0.00000000000E+00 0. -1.
       21   -1    0    0  502  503 -0.00000000000E+00 -0.00000000000E+00 -0.45548661657E+03  0.45548661657E+03  0.00000000000E+00 0.  1.
       39    2    1    2    0    0 -0.14210854715E-13  0.00000000000E+00  0.89009609186E+02  0.99998284233E+03  0.99601354129E+03 0.  0.
       24    2    3    3    0    0 -0.89287277441E+02 -0.43512071700E+03  0.25560259912E+03  0.51902268161E+03  0.82155943611E+02 0.  0.
      -24    2    3    3    0    0  0.89287277441E+02  0.43512071700E+03 -0.16659298993E+03  0.48096016072E+03  0.79165621538E+02 0.  0.
      -13    1    4    4    0    0  0.10590908127E+02 -0.10285417610E+03  0.76109335076E+02  0.12838917307E+03  0.00000000000E+00 0.  1.
       14    1    4    4    0    0 -0.99878185568E+02 -0.33226654090E+03  0.17949326404E+03  0.39063350854E+03  0.00000000000E+00 0. -1.
        1    1    5    5  501    0 -0.97309429894E+00  0.25111121371E+02  0.78591692972E+01  0.26330246316E+02  0.00000000000E+00 0. -1.
       -2    1    5    5    0  501  0.90260371740E+02  0.41000959563E+03 -0.17445215923E+03  0.45462991441E+03  0.00000000000E+00 0.  1.
</event>
<event>
 9   1  0.7335000E-04  0.1000130E+04  0.7818608E-02  0.9308403E-01
       21   -1    0    0  503  502  0.00000000000E+00  0.00000000000E+00  0.39510505426E+03  0.39510505426E+03  0.00000000000E+00 0. -1.
       21   -1    0    0  502  503 -0.00000000000E+00 -0.00000000000E+00 -0.63290703009E+03  0.63290703009E+03  0.00000000000E+00 0.  1.
       39    2    1    2    0    0  0.28421709430E-13  0.00000000000E+00 -0.23780197583E+03  0.10280120843E+04  0.10001295245E+04 0.  0.
       24    2    3    3    0    0 -0.17105310802E+03 -0.26865337051E+03  0.27089312418E+03  0.42264230470E+03  0.61722230500E+02 0.  0.
      -24    2    3    3    0    0  0.17105310802E+03  0.26865337051E+03 -0.50869510001E+03  0.60536977965E+03  0.79171118985E+02 0.  0.
      -13    1    4    4    0    0 -0.75991265450E+02 -0.68110579894E+02  0.95589792854E+02  0.13982536256E+03  0.00000000000E+00 0.  1.
       14    1    4    4    0    0 -0.95061842571E+02 -0.20054279062E+03  0.17530333133E+03  0.28281694213E+03  0.00000000000E+00 0. -1.
        3    1    5    5  501    0  0.14427789345E+03  0.20261021663E+03 -0.33199235961E+03  0.41483242070E+03  0.00000000000E+00 0. -1.
       -4    1    5    5    0  501  0.26775214575E+02  0.66043153879E+02 -0.17670274041E+03  0.19053735895E+03  0.14200000000E+01 0.  1.
</event>
<event>
 9   1  0.7335000E-04  0.9944249E+03  0.7818608E-02  0.9314681E-01
       21   -1    0    0  503  502  0.00000000000E+00  0.00000000000E+00  0.44978275513E+03  0.44978275513E+03  0.00000000000E+00 0.  1.
       21   -1    0    0  502  503 -0.00000000000E+00 -0.00000000000E+00 -0.54964365296E+03  0.54964365296E+03  0.00000000000E+00 0. -1.
       39    2    1    2    0    0 -0.71054273576E-14 -0.28421709430E-13 -0.99860897838E+02  0.99942640809E+03  0.99442493245E+03 0.  0.
       24    2    3    3    0    0  0.62805193047E+02 -0.14869293765E+03 -0.51565607965E+03  0.54627828443E+03  0.80403293287E+02 0.  0.
      -24    2    3    3    0    0 -0.62805193047E+02  0.14869293765E+03  0.41579518182E+03  0.45314812367E+03  0.80021914375E+02 0.  0.
      -13    1    4    4    0    0  0.25809307102E+02 -0.18401756957E+02 -0.20422100086E+03  0.20666630636E+03  0.00000000000E+00 0.  1.
       14    1    4    4    0    0  0.36995885945E+02 -0.13029118069E+03 -0.31143507879E+03  0.33961197807E+03  0.00000000000E+00 0. -1.
        1    1    5    5  501    0  0.17634578916E+02  0.14799615021E+02  0.70581342947E+02  0.74241046265E+02  0.00000000000E+00 0. -1.
       -2    1    5    5    0  501 -0.80439771963E+02  0.13389332263E+03  0.34521383887E+03  0.37890707740E+03  0.00000000000E+00 0.  1.
</event>
<event>
 9   1  0.7335000E-04  0.9887419E+03  0.7818608E-02  0.9320979E-01
       21   -1    0    0  503  502  0.00000000000E+00  0.00000000000E+00  0.14042310886E+04  0.14042310886E+04  0.00000000000E+00 0. -1.
       21   -1    0    0  502  503 -0.00000000000E+00 -0.00000000000E+00 -0.17404729028E+03  0.17404729028E+03  0.00000000000E+00 0.  1.
       39    2    1    2    0    0 -0.17763568394E-14  0.71054273576E-14  0.12301837983E+04  0.15782783789E+04  0.98874185892E+03 0.  0.
       24    2    3    3    0    0 -0.34742454434E+01 -0.45240622876E+02 -0.16058819573E+03  0.18437031453E+03  0.78390432655E+02 0.  0.
      -24    2    3    3    0    0  0.34742454434E+01  0.45240622876E+02  0.13907719941E+04  0.13939080643E+04  0.81695581661E+02 0.  0.
      -13    1    4    4    0    0 -0.39216026680E+02 -0.25469339511E+02 -0.10872281676E+03  0.11835216469E+03  0.00000000000E+00 0.  1.
       14    1    4    4    0    0  0.35741781236E+02 -0.19771283365E+02 -0.51865378975E+02  0.66018149838E+02  0.00000000000E+00 0. -1.
        3    1    5    5  501    0 -0.64780073403E+01  0.67933129979E+02  0.10734279311E+04  0.10755949043E+04  0.00000000000E+00 0. -1.
       -4    1    5    5    0  501  0.99522527836E+01 -0.22692507103E+02  0.31734406293E+03  0.31831316010E+03  0.14200000000E+01 0.  1.
</event>
<event>
 9   1  0.7335000E-04  0.1001678E+04  0.7818608E-02  0.9306706E-01
       21   -1    0    0  503  502  0.00000000000E+00  0.00000000000E+00  0.10376350590E+04  0.10376350590E+04  0.00000000000E+00 0. -1.
       21   -1    0    0  502  503 -0.00000000000E+00 -0.00000000000E+00 -0.24174197073E+03  0.24174197073E+03  0.00000000000E+00 0.  1.
       39    2    1    2    0    0  0.00000000000E+00  0.00000000000E+00  0.79589308830E+03  0.12793770298E+04  0.10016784795E+04 0.  0.
       24    2    3    3    0    0 -0.24758283447E+03  0.26943945640E+03  0.82270138088E+03  0.90388381200E+03  0.79205447460E+02 0.  0.
      -24    2    3    3    0    0  0.24758283447E+03 -0.26943945640E+03 -0.26808292573E+02  0.37549321777E+03  0.79884863718E+02 0.  0.
      -13    1    4    4    0    0 -0.14287897988E+03  0.17453732892E+03  0.58985505265E+03  0.63151141337E+03  0.00000000000E+00 0.  1.
       14    1    4    4    0    0 -0.10470385459E+03  0.94902127482E+02  0.23284632822E+03  0.27237239863E+03  0.00000000000E+00 0. -1.
        3    1    5    5  501    0  0.10219266050E+02 -0.10931272737E+02 -0.19346141014E+02  0.24458113058E+02  0.00000000000E+00 0. -1.
       -4    1    5    5    0  501  0.23736356842E+03 -0.25850818366E+03 -0.74621515592E+01  0.35103510471E+03  0.14200000000E+01 0.  1.
</event>
<event>
 9   1  0.7335000E-04  0.1003386E+04  0.7818608E-02  0.9304839E-01
       21   -1    0    0  503  502  0.00000000000E+00  0.00000000000E+00  0.34760851013E+03  0.34760851013E+03  0.00000000000E+00 0. -1.
       21   -1    0    0  502  503 -0.00000000000E+00 -0.00000000000E+00 -0.72407838792E+03  0.72407838792E+03  0.00000000000E+00 0.  1.
       39    2    1    2    0    0  0.00000000000E+00  0.00000000000E+00 -0.37646987779E+03  0.10716868981E+04  0.10033858872E+04 0.  0.
       24    2    3    3    0    0  0.40717409431E+03  0.14651387668E+03  0.69202130744E+02  0.44545693120E+03  0.79911723309E+02 0.  0.
      -24    2    3    3    0    0 -0.40717409431E+03 -0.14651387668E+03 -0.44567200853E+03  0.62622996685E+03  0.79267730204E+02 0.  0.
      -13    1    4    4    0    0  0.87338174674E+02  0.16500692904E+01  0.29039005849E+02  0.92054024055E+02  0.00000000000E+00 0.  1.
       14    1    4    4    0    0  0.31983591964E+03  0.14486380739E+03  0.40163124894E+02  0.35340290715E+03  0.00000000000E+00 0. -1.
        3    1    5    5  501    0 -0.29972634269E+03 -0.14337186201E+03 -0.34427135767E+03  0.47844972467E+03  0.00000000000E+00 0. -1.
       -4    1    5    5    0  501 -0.10744775162E+03 -0.31420146639E+01 -0.10140065086E+03  0.14778024218E+03  0.14200000000E+01 0.  1.
</event>
<event>
 9   1  0.7335000E-04  0.9648156E+03  0.7818608E-02  0.9347999E-01
       -1   -1    0    0    0  501 -0.00000000000E+00  0.00000000000E+00  0.20998171749E+03  0.20998171749E+03  0.00000000000E+00 0. -1.
        1   -1    0    0  501    0  0.00000000000E+00 -0.00000000000E+00 -0.11082740727E+04  0.11082740727E+04  0.00000000000E+00 0.  1.
       39    2    1    2    0    0 -0.71054273576E-14  0.00000000000E+00 -0.89829235520E+03  0.13182557902E+04  0.96481561604E+03 0.  0.
       24    2    3    3    0    0 -0.59681296125E+02  0.24986982572E+03 -0.99200562066E+03  0.10282221951E+04  0.84669617502E+02 0.  0.
      -24    2    3    3    0    0  0.59681296125E+02 -0.24986982572E+03  0.93713265467E+02  0.29003359510E+03  0.96646382489E+02 0.  0.
      -13    1    4    4    0    0 -0.48881099436E+01  0.13846394563E+03 -0.64396637746E+03  0.65870240105E+03  0.00000000000E+00 0.  1.
       14    1    4    4    0    0 -0.54793186182E+02  0.11140588009E+03 -0.34803924321E+03  0.36951979403E+03  0.00000000000E+00 0. -1.
        1    1    5    5  502    0  0.44899686290E+02 -0.22325020252E+03  0.44295477902E+02  0.23198862928E+03  0.00000000000E+00 0. -1.
       -2    1    5    5    0  502  0.14781609836E+02 -0.26619623201E+02  0.49417787565E+02  0.58044965816E+02  0.00000000000E+00 0.  1.
</event>
<event>
 9   1  0.7335000E-04  0.1006532E+04  0.7818608E-02  0.9301409E-01
       21   -1    0    0  503  502  0.00000000000E+00  0.00000000000E+00  0.47616407458E+03  0.47616407458E+03  0.00000000000E+00 0. -1.
       21   -1    0    0  502  503 -0.00000000000E+00 -0.00000000000E+00 -0.53191072239E+03  0.53191072239E+03  0.00000000000E+00 0.  1.
       39    2    1    2    0    0  0.00000000000E+00  0.35527136788E-14 -0.55746647816E+02  0.10080747970E+04  0.10065322188E+04 0.  0.
       24    2    3    3    0    0  0.35667605115E+03 -0.22741774731E+02 -0.37329601878E+03  0.52324737655E+03  0.81871274879E+02 0.  0.
      -24    2    3    3    0    0 -0.35667605115E+03  0.22741774731E+02  0.31754937096E+03  0.48482742042E+03  0.80529689044E+02 0.  0.
      -13    1    4    4    0    0  0.29344735535E+03 -0.49808958497E+02 -0.31038812108E+03  0.43003844993E+03  0.00000000000E+00 0.  1.
       14    1    4    4    0    0  0.63228695796E+02  0.27067183765E+02 -0.62907897696E+02  0.93208926620E+02  0.00000000000E+00 0. -1.
        1    1    5    5  501    0 -0.30620430835E+03  0.42144807066E+02  0.29127215218E+03  0.42470781703E+03  0.00000000000E+00 0. -1.
       -2    1    5    5    0  501 -0.50471742801E+02 -0.19403032334E+02  0.26277218779E+02  0.60119603391E+02  0.00000000000E+00 0.  1.
</event>
<event>
 9   1  0.7335000E-04  0.9891906E+03  0.7818608E-02  0.9320480E-01
       21   -1    0    0  503  502  0.00000000000E+00  0.00000000000E+00  0.12515866555E+04  0.12515866555E+04  0.00000000000E+00 0. -1.
       21   -1    0    0  502  503 -0.00000000000E+00 -0.00000000000E+00 -0.19545153651E+03  0.19545153651E+03  0.00000000000E+00 0.  1.
       39    2    1    2    0    0 -0.14210854715E-13  0.56843418861E-13  0.10561351190E+04  0.14470381920E+04  0.98919064876E+03 0.  0.
       24    2    3    3    0    0 -0.97747144498E+02 -0.36331566065E+03  0.72996559556E+02  0.39131554575E+03  0.79035340861E+02 0.  0.
      -24    2    3    3    0    0  0.97747144498E+02  0.36331566065E+03  0.98313855942E+03  0.10557226463E+04  0.80225340625E+02 0.  0.
      -13    1    4    4    0    0 -0.13600130834E+02 -0.15194984136E+03  0.54782294400E+00  0.15255824448E+03  0.00000000000E+00 0.  1.
       14    1    4    4    0    0 -0.84147013663E+02 -0.21136581929E+03  0.72448736612E+02  0.23875730127E+03  0.00000000000E+00 0. -1.
        3    1    5    5  501    0  0.66531792614E+02  0.20895653398E+03  0.67402993853E+03  0.70880580595E+03  0.00000000000E+00 0. -1.
       -4    1    5    5    0  501  0.31215351884E+02  0.15435912667E+03  0.30910862090E+03  0.34691684031E+03  0.14200000000E+01 0.  1.
</event>
<event>
 8   1  0.7335000E-04  0.1623756E+04  0.7818608E-02  0.8806085E-01
        2   -1    0    0  501    0  0.00000000000E+00  0.00000000000E+00  0.19102124451E+04  0.19102124451E+04  0.00000000000E+00 0.  1.
       -2   -1    0    0    0  501 -0.00000000000E+00 -0.00000000000E+00 -0.34506436412E+03  0.34506436412E+03  0.00000000000E+00 0. -1.
       24    2    1    2    0    0 -0.32470918728E+03  0.62070269405E+03  0.13416112563E+04  0.15155742078E+04  0.79602296679E+02 0.  0.
      -24    2    1    2    0    0  0.32470918728E+03 -0.62070269405E+03  0.22353682471E+03  0.73970260143E+03  0.80519164549E+02 0.  0.
      -13    1    3    3    0    0 -0.30746272552E+03  0.56171741397E+03  0.11779608053E+04  0.13407652440E+04  0.00000000000E+00 0.  1.
       14    1    3    3    0    0 -0.17246461766E+02  0.58985280076E+02  0.16365045099E+03  0.17480896378E+03  0.00000000000E+00 0. -1.
        1    1    4    4  502    0  0.29842844594E+03 -0.60132877320E+03  0.20385323366E+03  0.70157820070E+03  0.00000000000E+00 0. -1.
       -2    1    4    4    0  502  0.26280741343E+02 -0.19373920848E+02  0.19683591050E+02  0.38124400732E+02  0.00000000000E+00 0.  1.
</event>
<event>
 9   1  0.7335000E-04  0.9989760E+03  0.7818608E-02  0.9309669E-01
       -2   -1    0    0    0  501 -0.00000000000E+00  0.00000000000E+00  0.11254349003E+03  0.11254349003E+03  0.00000000000E+00 0. -1.
        2   -1    0    0  501    0  0.00000000000E+00 -0.00000000000E+00 -0.22168165064E+04  0.22168165064E+04  0.00000000000E+00 0.  1.
       39    2    1    2    0    0  0.00000000000E+00  0.00000000000E+00 -0.21042730164E+04  0.23293599965E+04  0.99897600848E+03 0.  0.
       24    2    3    3    0    0 -0.29243083836E+02 -0.47027292028E+03 -0.13905522643E+04  0.14705463085E+04  0.82819491355E+02 0.  0.
      -24    2    3    3    0    0  0.29243083836E+02  0.47027292028E+03 -0.71372075209E+03  0.85881368795E+03  0.78433801070E+02 0.  0.
      -13    1    4    4    0    0 -0.11799736392E+02 -0.20454251937E+03 -0.73356320170E+03  0.76163760865E+03  0.00000000000E+00 0.  1.
       14    1    4    4    0    0 -0.17443347444E+02 -0.26573040091E+03 -0.65698906263E+03  0.70890869987E+03  0.00000000000E+00 0. -1.
        3    1    5    5  502    0  0.92200128557E+01  0.33378199083E+01 -0.20970151091E+02  0.23149447414E+02  0.00000000000E+00 0. -1.
       -4    1    5    5    0  502  0.20023070980E+02  0.46693510038E+03 -0.69275060099E+03  0.83566424054E+03  0.14200000000E+01 0.  1.
</event>
<event>
 9   1  0.7335000E-04  0.1017576E+04  0.7818608E-02  0.9289475E-01
       21   -1    0    0  503  502  0.00000000000E+00  0.00000000000E+00  0.17468060989E+03  0.17468060989E+03  0.00000000000E+00 0.  1.
       21   -1    0    0  502  503 -0.00000000000E+00 -0.00000000000E+00 -0.14819337476E+04  0.14819337476E+04  0.00000000000E+00 0. -1.
       39    2    1    2    0    0 -0.11368683772E-12 -0.14210854715E-13 -0.13072531377E+04  0.16566143575E+04  0.10175757286E+04 0.  0.
       24    2    3    3    0    0  0.31828620409E+03  0.75668580296E+02 -0.32911452807E+02  0.33849687463E+03  0.80406023724E+02 0.  0.
      -24    2    3    3    0    0 -0.31828620409E+03 -0.75668580296E+02 -0.12743416849E+04  0.13181174828E+04  0.80343804788E+02 0.  0.
      -13    1    4    4    0    0  0.27478641286E+03  0.40915723773E+02 -0.91655531774E+01  0.27796704213E+03  0.00000000000E+00 0.  1.
       14    1    4    4    0    0  0.43499791228E+02  0.34752856523E+02 -0.23745899630E+02  0.60529832501E+02  0.00000000000E+00 0. -1.
        3    1    5    5  501    0 -0.28156357738E+03 -0.54002834308E+02 -0.99295919673E+03  0.10335193857E+04  0.00000000000E+00 0. -1.
       -4    1    5    5    0  501 -0.36722626713E+02 -0.21665745988E+02 -0.28138248814E+03  0.28459809713E+03  0.14200000000E+01 0.  1.
</event>
<event>
 9   1  0.7335000E-04  0.9976593E+03  0.7818608E-02  0.9311116E-01
       21   -1    0    0  503  502  0.00000000000E+00  0.00000000000E+00  0.23120575216E+03  0.23120575216E+03  0.00000000000E+00 0. -1.
       21   -1    0    0  502  503 -0.00000000000E+00 -0.00000000000E+00 -0.10762318628E+04  0.10762318628E+04  0.00000000000E+00 0.  1.
       39    2    1    2    0    0  0.14210854715E-13 -0.56843418861E-13 -0.84502611068E+03  0.13074376150E+04  0.99765925514E+03 0.  0.
       24    2    3    3    0    0 -0.11108839183E+03  0.25655360687E+03 -0.95342488713E+03  0.99689459364E+03  0.81359888333E+02 0.  0.
      -24    2    3    3    0    0  0.11108839183E+03 -0.25655360687E+03  0.10839877646E+03  0.31054302135E+03  0.80785452718E+02 0.  0.
      -13    1    4    4    0    0 -0.80664963231E+02  0.24583622614E+03 -0.85834045299E+03  0.89648793612E+03  0.00000000000E+00 0.  1.
       14    1    4    4    0    0 -0.30423428604E+02  0.10717380729E+02 -0.95084434144E+02  0.10040665752E+03  0.00000000000E+00 0. -1.
        3    1    5    5  501    0  0.97202560892E+02 -0.19174440474E+03  0.11520644728E+03  0.24389911867E+03  0.00000000000E+00 0. -1.
       -4    1    5    5    0  501  0.13885830943E+02 -0.64809202130E+02 -0.68076708251E+01  0.66643902675E+02  0.14200000000E+01 0.  1.
</event>
<event>
 9   1  0.7335000E-04  0.1016336E+04  0.7818608E-02  0.9290808E-01
       21   -1    0    0  503  502  0.00000000000E+00  0.00000000000E+00  0.69451120996E+03  0.69451120996E+03  0.00000000000E+00 0. -1.
       21   -1    0    0  502  503 -0.00000000000E+00 -0.00000000000E+00 -0.37182189934E+03  0.37182189934E+03  0.00000000000E+00 0.  1.
       39    2    1    2    0    0 -0.56843418861E-13  0.00000000000E+00  0.32268931062E+03  0.10663331093E+04  0.10163355296E+04 0.  0.
       24    2    3    3    0    0 -0.28444496167E+03  0.16018244053E+03  0.56116665431E+03  0.65418618941E+03  0.80524567911E+02 0.  0.
      -24    2    3    3    0    0  0.28444496167E+03 -0.16018244053E+03 -0.23847734369E+03  0.41214691988E+03  0.80164141879E+02 0.  0.
      -13    1    4    4    0    0 -0.87789954990E+02  0.33420701574E+02  0.10085345864E+03  0.13782394425E+03  0.00000000000E+00 0.  1.
       14    1    4    4    0    0 -0.19665500668E+03  0.12676173895E+03  0.46031319567E+03  0.51636224516E+03  0.00000000000E+00 0. -1.
        3    1    5    5  501    0  0.31223418192E+02 -0.10547289963E+02  0.82078128669E+00  0.32966966058E+02  0.00000000000E+00 0. -1.
       -4    1    5    5    0  501  0.25322154348E+03 -0.14963515057E+03 -0.23929812497E+03  0.37917995382E+03  0.14200000000E+01 0.  1.
</event>
<event>
 9   1  0.7335000E-04  0.1138290E+04  0.7818608E-02  0.9168655E-01
       21   -1    0    0  503  502  0.00000000000E+00  0.00000000000E+00  0.85284714564E+03  0.85284714564E+03  0.00000000000E+00 0. -1.
       21   -1    0    0  502  503 -0.00000000000E+00 -0.00000000000E+00 -0.37981689370E+03  0.37981689370E+03  0.00000000000E+00 0.  1.
       39    2    1    2    0    0  0.00000000000E+00  0.00000000000E+00  0.47303025194E+03  0.12326640393E+04  0.11382895127E+04 0.  0.
       24    2    3    3    0    0 -0.36177500330E+03  0.36477201844E+03 -0.12941425185E+02  0.52030183659E+03  0.81281868994E+02 0.  0.
      -24    2    3    3    0    0  0.36177500330E+03 -0.36477201844E+03  0.48597167712E+03  0.71236220274E+03  0.85741812960E+02 0.  0.
      -13    1    4    4    0    0 -0.22965976125E+03  0.17436204351E+03 -0.10209761035E+02  0.28853070439E+03  0.00000000000E+00 0.  1.
       14    1    4    4    0    0 -0.13211524205E+03  0.19040997493E+03 -0.27316641504E+01  0.23177113220E+03  0.00000000000E+00 0. -1.
        3    1    5    5  501    0  0.16265506853E+03 -0.22397702533E+03  0.24910330751E+03  0.37239070477E+03  0.00000000000E+00 0. -1.
       -4    1    5    5    0  501  0.19911993477E+03 -0.14079499311E+03  0.23686836962E+03  0.33997149797E+03  0.14200000000E+01 0.  1.
</event>
<event>
 9   1  0.7335000E-04  0.9965446E+03  0.7818608E-02  0.9312343E-01
       21   -1    0    0  503  502  0.00000000000E+00  0.00000000000E+00  0.33386669177E+03  0.33386669177E+03  0.00000000000E+00 0.  1.
       21   -1    0    0  502  503 -0.00000000000E+00 -0.00000000000E+00 -0.74363595079E+03  0.74363595079E+03  0.00000000000E+00 0. -1.
       39    2    1    2    0    0  0.00000000000E+00 -0.56843418861E-13 -0.40976925902E+03  0.10775026426E+04  0.99654457958E+03 0.  0.
       24    2    3    3    0    0 -0.30095629537E+03  0.26104501704E+03  0.10292557617E+03  0.42306382208E+03  0.98336822594E+02 0.  0.
      -24    2    3    3    0    0  0.30095629537E+03 -0.26104501704E+03 -0.51269483519E+03  0.65443882048E+03  0.81945000281E+02 0.  0.
      -13    1    4    4    0    0 -0.25188995045E+03  0.25462051198E+03  0.10589741596E+03  0.37348951118E+03  0.00000000000E+00 0.  1.
       14    1    4    4    0    0 -0.49066344922E+02  0.64245050648E+01 -0.29718397876E+01  0.49574310898E+02  0.00000000000E+00 0. -1.
        1    1    5    5  501    0  0.22036380628E+03 -0.17160265716E+03 -0.41057034832E+03  0.49656388309E+03  0.00000000000E+00 0. -1.
       -2    1    5    5    0  501  0.80592489092E+02 -0.89442359876E+02 -0.10212448687E+03  0.15787493739E+03  0.00000000000E+00 0.  1.
</event>
<event>
 9   1  0.7335000E-04  0.1054475E+04  0.7818608E-02  0.9250736E-01
       21   -1    0    0  503  502  0.00000000000E+00  0.00000000000E+00  0.59324901562E+03  0.59324901562E+03  0.00000000000E+00 0.  1.
       21   -1    0    0  502  503 -0.00000000000E+00 -0.00000000000E+00 -0.46857114350E+03  0.46857114350E+03  0.00000000000E+00 0. -1.
       39    2    1    2    0    0  0.71054273576E-14  0.00000000000E+00  0.12467787212E+03  0.10618201591E+04  0.10544749777E+04 0.  0.
       24    2    3    3    0    0 -0.30387249491E+02 -0.41721846423E+03  0.37368277119E+03  0.56654965780E+03  0.79655944178E+02 0.  0.
      -24    2    3    3    0    0  0.30387249491E+02  0.41721846423E+03 -0.24900489907E+03  0.49527050133E+03  0.91075781085E+02 0.  0.
      -13    1    4    4    0    0 -0.44232996078E+02 -0.18598924194E+03  0.20273579214E+03  0.27865813728E+03  0.00000000000E+00 0.  1.
       14    1    4    4    0    0  0.13845746588E+02 -0.23122922229E+03  0.17094697906E+03  0.28789152052E+03  0.00000000000E+00 0. -1.
        3    1    5    5  501    0 -0.22154002357E+02  0.28128767764E+03 -0.15653351090E+03  0.32267057109E+03  0.00000000000E+00 0. -1.
       -4    1    5    5    0  501  0.52541251847E+02  0.13593078659E+03 -0.92471388174E+02  0.17259993024E+03  0.14200000000E+01 0.  1.
</event>
<event>
 8   1  0.7335000E-04  0.7262426E+03  0.7818608E-02  0.9673377E-01
       21   -1    0    0  503  502  0.00000000000E+00  0.00000000000E+00  0.19889132738E+03  0.19889132738E+03  0.00000000000E+00 0. -1.
       21   -1    0    0  502  503 -0.00000000000E+00 -0.00000000000E+00 -0.66296045198E+03  0.66296045198E+03  0.00000000000E+00 0.  1.
       24    2    1    2    0    0  0.74393828314E+02  0.78936968897E+02  0.16803360957E+03  0.21585712782E+03  0.81200486048E+02 0.  0.
      -24    2    1    2    0    0 -0.74393828314E+02 -0.78936968897E+02 -0.63210273417E+03  0.64599465154E+03  0.77393388084E+02 0.  0.
      -13    1    3    3    0    0  0.27378849514E+02  0.72104844040E+01  0.12790145231E+01  0.28341283743E+02  0.00000000000E+00 0.  1.
       14    1    3    3    0    0  0.47014978800E+02  0.71726484493E+02  0.16675459505E+03  0.18751584407E+03  0.00000000000E+00 0. -1.
        1    1    4    4  501    0  0.11252152198E+02 -0.58428086445E+01 -0.20426613378E+02  0.24041544794E+02  0.00000000000E+00 0. -1.
       -2    1    4    4    0  501 -0.85645980513E+02 -0.73094160253E+02 -0.61167612080E+03  0.62195310675E+03  0.00000000000E+00 0.  1.
</event>
<event>
 9   1  0.7335000E-04  0.9990119E+03  0.7818608E-02  0.9309629E-01
       21   -1    0    0  503  502  0.00000000000E+00  0.00000000000E+00  0.10393299654E+03  0.10393299654E+03  0.00000000000E+00 0. -1.
       21   -1    0    0  502  503 -0.00000000000E+00 -0.00000000000E+00 -0.24006448424E+04  0.24006448424E+04  0.00000000000E+00 0.  1.
       39    2    1    2    0    0  0.28421709430E-13 -0.56843418861E-13 -0.22967118459E+04  0.25045778389E+04  0.99901193608E+03 0.  0.
       24    2    3    3    0    0  0.25133993914E+03 -0.21857034912E+03 -0.23688521954E+03  0.41642498818E+03  0.79689403440E+02 0.  0.
      -24    2    3    3    0    0 -0.25133993914E+03  0.21857034912E+03 -0.20598266263E+04  0.20881528508E+04  0.80943407128E+02 0.  0.
      -13    1    4    4    0    0  0.13737053865E+02 -0.11495712296E+02 -0.42516013945E+02  0.46135338862E+02  0.00000000000E+00 0.  1.
       14    1    4    4    0    0  0.23760288527E+03 -0.20707463683E+03 -0.19436920559E+03  0.37028964932E+03  0.00000000000E+00 0. -1.
        3    1    5    5  501    0  0.59243917499E+01  0.77748489950E+01 -0.44049447509E+02  0.45120954338E+02  0.00000000000E+00 0. -1.
       -4    1    5    5    0  501 -0.25726433089E+03  0.21079550013E+03 -0.20157771788E+04  0.20430318964E+04  0.14200000000E+01 0.  1.
</event>
<event>
 9   1  0.7335000E-04  0.9977109E+03  0.7818608E-02  0.9311059E-01
       21   -1    0    0  503  502  0.00000000000E+00  0.00000000000E+00  0.18224922694E+04  0.18224922694E+04  0.00000000000E+00 0.  1.
       21   -1    0    0  502  503 -0.00000000000E+00 -0.00000000000E+00 -0.13654749339E+03  0.13654749339E+03  0.00000000000E+00 0. -1.
       39    2    1    2    0    0 -0.28421709430E-13  0.00000000000E+00  0.16859447760E+04  0.19590397628E+04  0.99771088220E+03 0.  0.
       24    2    3    3    0    0 -0.19872805007E+03 -0.32524252735E+03  0.23101014663E+03  0.45296773777E+03  0.80861264739E+02 0.  0.
      -24    2    3    3    0    0  0.19872805007E+03  0.32524252735E+03  0.14549346294E+04  0.15060720250E+04  0.78374927966E+02 0.  0.
      -13    1    4    4    0    0  0.44558028813E+01 -0.15842939328E+02  0.23283258698E+02  0.28512506755E+02  0.00000000000E+00 0.  1.
       14    1    4    4    0    0 -0.20318385295E+03 -0.30939958802E+03  0.20772688793E+03  0.42445523101E+03  0.00000000000E+00 0. -1.
        1    1    5    5  501    0  0.15640014091E+02  0.54174355223E+01  0.12251604653E+03  0.12362904313E+03  0.00000000000E+00 0. -1.
       -2    1    5    5    0  501  0.18308803597E+03  0.31982509182E+03  0.13324185828E+04  0.13824429819E+04  0.00000000000E+00 0.  1.
</event>
<event>
 9   1  0.7335000E-04  0.9973542E+03  0.7818608E-02  0.9311451E-01
       21   -1    0    0  503  502  0.00000000000E+00  0.00000000000E+00  0.23890155432E+03  0.23890155432E+03  0.00000000000E+00 0. -1.
       21   -1    0    0  502  503 -0.00000000000E+00 -0.00000000000E+00 -0.10409260847E+04  0.10409260847E+04  0.00000000000E+00 0.  1.
       39    2    1    2    0    0  0.00000000000E+00  0.56843418861E-13 -0.80202453042E+03  0.12798276391E+04  0.99735421909E+03 0.  0.
       24    2    3    3    0    0  0.16682632373E+03 -0.44313419946E+03 -0.57366133589E+03  0.74805299294E+03  0.79353707753E+02 0.  0.
      -24    2    3    3    0    0 -0.16682632373E+03  0.44313419946E+03 -0.22836319453E+03  0.53177464612E+03  0.80222095646E+02 0.  0.
      -13    1    4    4    0    0  0.17070890211E+02 -0.88562926600E+02 -0.15513211864E+03  0.17944576198E+03  0.00000000000E+00 0.  1.
       14    1    4    4    0    0  0.14975543351E+03 -0.35457127286E+03 -0.41852921726E+03  0.56860723096E+03  0.00000000000E+00 0. -1.
        3    1    5    5  501    0 -0.14032355843E+03  0.28284770956E+03 -0.12731136421E+03  0.34044340397E+03  0.00000000000E+00 0. -1.
       -4    1    5    5    0  501 -0.26502765296E+02  0.16028648990E+03 -0.10105183031E+03  0.19133124215E+03  0.14200000000E+01 0.  1.
</event>
<event>
 9   1  0.7335000E-04  0.9944642E+03  0.7818608E-02  0.9314637E-01
        2   -1    0    0  501    0  0.00000000000E+00  0.00000000000E+00  0.13201825643E+04  0.13201825643E+04  0.00000000000E+00 0.  1.
       -2   -1    0    0    0  501 -0.00000000000E+00 -0.00000000000E+00 -0.18727693902E+03  0.18727693902E+03  0.00000000000E+00 0. -1.
       39    2    1    2    0    0  0.56843418861E-13  0.00000000000E+00  0.11329056253E+04  0.15074595033E+04  0.99446417652E+03 0.  0.
       24    2    3    3    0    0 -0.38402156321E+03  0.26165952694E+03  0.34297697923E+03  0.58516184259E+03  0.94036719932E+02 0.  0.
      -24    2    3    3    0    0  0.38402156321E+03 -0.26165952694E+03  0.78992864607E+03  0.92229766075E+03  0.10347676109E+03 0.  0.
      -13    1    4    4    0    0 -0.34255913319E+02  0.17923129055E+02  0.10658741827E+01  0.38676119767E+02  0.00000000000E+00 0.  1.
       14    1    4    4    0    0 -0.34976564989E+03  0.24373639788E+03  0.34191110504E+03  0.54648572283E+03  0.00000000000E+00 0. -1.
        3    1    5    5  502    0 -0.17712801737E+00 -0.18340950962E+01 -0.30935254754E+01  0.36007192369E+01  0.00000000000E+00 0. -1.
       -4    1    5    5    0  502  0.38419869123E+03 -0.25982543184E+03  0.79302217155E+03  0.91869694151E+03  0.14200000000E+01 0.  1.
</event>
<event>
 9   1  0.7335000E-04  0.1001558E+04  0.7818608E-02  0.9306838E-01
       21   -1    0    0  503  502  0.00000000000E+00  0.00000000000E+00  0.34226780317E+03  0.34226780317E+03  0.00000000000E+00 0.  1.
       21   -1    0    0  502  503 -0.00000000000E+00 -0.00000000000E+00 -0.73269966399E+03  0.73269966399E+03  0.00000000000E+00 0. -1.
       39    2    1    2    0    0  0.14210854715E-13  0.00000000000E+00 -0.39043186081E+03  0.10749674672E+04  0.10015577954E+04 0.  0.
       24    2    3    3    0    0  0.81929066962E+02  0.53861885492E+02 -0.71354167995E+03  0.72441657464E+03  0.77615525875E+02 0.  0.
      -24    2    3    3    0    0 -0.81929066962E+02 -0.53861885492E+02  0.32310981914E+03  0.35055089252E+03  0.94193939838E+02 0.  0.
      -13    1    4    4    0    0  0.41392426131E+01 -0.14564774732E+02 -0.36842759391E+02  0.39832837106E+02  0.00000000000E+00 0.  1.
       14    1    4    4    0    0  0.77789824349E+02  0.68426660224E+02 -0.67669892056E+03  0.68458373753E+03  0.00000000000E+00 0. -1.
        1    1    5    5  501    0 -0.10516384566E+02  0.26288130708E+02  0.77328861065E+02  0.82349334631E+02  0.00000000000E+00 0. -1.
       -2    1    5    5    0  501 -0.71412682396E+02 -0.80150016200E+02  0.24578095807E+03  0.26820155789E+03  0.00000000000E+00 0.  1.
</event>
<event>
 9   1  0.7335000E-04  0.9981681E+03  0.7818608E-02  0.9310556E-01
       21   -1    0    0  503  502  0.00000000000E+00  0.00000000000E+00  0.18440360860E+04  0.18440360860E+04  0.00000000000E+00 0. -1.
       21   -1    0    0  502  503 -0.00000000000E+00 -0.00000000000E+00 -0.13507593423E+03  0.13507593423E+03  0.00000000000E+00 0.  1.
       39    2    1    2    0    0  0.00000000000E+00  0.00000000000E+00  0.17089601517E+04  0.19791120202E+04  0.99816811623E+03 0.  0.
       24    2    3    3    0    0  0.82811070068E+02  0.15217193134E+03 -0.57147941586E+02  0.20273610616E+03  0.88442475660E+02 0.  0.
      -24    2    3    3    0    0 -0.82811070068E+02 -0.15217193134E+03  0.17661080933E+04  0.17763759140E+04  0.79747229649E+02 0.  0.
      -13    1    4    4    0    0  0.81779042974E+02  0.78116190025E+02 -0.61147928887E+02  0.12856523722E+03  0.00000000000E+00 0.  1.
       14    1    4    4    0    0  0.10320270943E+01  0.74055741315E+02  0.39999873006E+01  0.74170868944E+02  0.00000000000E+00 0. -1.
        1    1    5    5  501    0 -0.57093527213E+02 -0.87873532103E+02  0.13900733291E+04  0.13940176788E+04  0.00000000000E+00 0. -1.
       -2    1    5    5    0  501 -0.25717542855E+02 -0.64298399237E+02  0.37603476417E+03  0.38235823519E+03  0.00000000000E+00 0.  1.
</event>
<event>
 9   1  0.7335000E-04  0.9909932E+03  0.7818608E-02  0.9318479E-01
       21   -1    0    0  503  502  0.00000000000E+00  0.00000000000E+00  0.15097532465E+03  0.15097532465E+03  0.00000000000E+00 0. -1.
       21   -1    0    0  502  503 -0.00000000000E+00 -0.00000000000E+00 -0.16262053785E+04  0.16262053785E+04  0.00000000000E+00 0.  1.
       39    2    1    2    0    0  0.00000000000E+00  0.00000000000E+00 -0.14752300538E+04  0.17771807031E+04  0.99099320879E+03 0.  0.
       24    2    3    3    0    0 -0.94447082561E+02  0.14794145489E+03 -0.15560846569E+04  0.15679688620E+04  0.79498222046E+02 0.  0.
      -24    2    3    3    0    0  0.94447082561E+02 -0.14794145489E+03  0.80854603123E+02  0.20921184107E+03  0.80157358485E+02 0.  0.
      -13    1    4    4    0    0 -0.69723093583E+02  0.62451749432E+02 -0.10459495301E+04  0.10501294922E+04  0.00000000000E+00 0.  1.
       14    1    4    4    0    0 -0.24723988978E+02  0.85489705459E+02 -0.51013512680E+03  0.51783936985E+03  0.00000000000E+00 0. -1.
        3    1    5    5  501    0  0.75519253084E+02 -0.89832104723E+02  0.89340697079E+02  0.14749482967E+03  0.00000000000E+00 0. -1.
       -4    1    5    5    0  501  0.18927829476E+02 -0.58109350168E+02 -0.84860939557E+01  0.61717011401E+02  0.14200000000E+01 0.  1.
</event>
<event>
 9   1  0.7335000E-04  0.9986735E+03  0.7818608E-02  0.9310001E-01
       -2   -1    0    0    0  501 -0.00000000000E+00  0.00000000000E+00  0.44009049428E+03  0.44009049428E+03  0.00000000000E+00 0.  1.
        2   -1    0    0  501    0  0.00000000000E+00 -0.00000000000E+00 -0.56655887909E+03  0.56655887909E+03  0.00000000000E+00 0. -1.
       39    2    1    2    0    0  0.28421709430E-13  0.56843418861E-13 -0.12646838482E+03  0.10066493734E+04  0.99867347444E+03 0.  0.
       24    2    3    3    0    0 -0.16543312336E+03 -0.38721144631E+03  0.19508385664E+03  0.47078929025E+03  0.79271825001E+02 0.  0.
      -24    2    3    3    0    0  0.16543312336E+03  0.38721144631E+03 -0.32155224146E+03  0.53586008312E+03  0.80307921357E+02 0.  0.
      -13    1    4    4    0    0 -0.10910482357E+03 -0.17320491543E+03  0.11899862296E+03  0.23677938576E+03  0.00000000000E+00 0.  1.
       14    1    4    4    0    0 -0.56328299786E+02 -0.21400653088E+03  0.76085233683E+02  0.23400990449E+03  0.00000000000E+00 0. -1.
        3    1    5    5  502    0  0.14417655847E+03  0.25256536305E+03 -0.19748905033E+03  0.35153672301E+03  0.00000000000E+00 0. -1.
       -4    1    5    5    0  502  0.21256564893E+02  0.13464608326E+03 -0.12406319113E+03  0.18432336011E+03  0.14200000000E+01 0.  1.
</event>
<event>
 9   1  0.7335000E-04  0.8773166E+03  0.7818608E-02  0.9454390E-01
       21   -1    0    0  503  502  0.00000000000E+00  0.00000000000E+00  0.53873207842E+03  0.53873207842E+03  0.00000000000E+00 0.  1.
       21   -1    0    0  502  503 -0.00000000000E+00 -0.00000000000E+00 -0.35717406274E+03  0.35717406274E+03  0.00000000000E+00 0. -1.
       39    2    1    2    0    0  0.00000000000E+00 -0.28421709430E-13  0.18155801569E+03  0.89590614116E+03  0.87731664791E+03 0.  0.
       24    2    3    3    0    0 -0.23970843836E+03  0.21441043702E+03 -0.20277979916E+03  0.38851562624E+03  0.79954824509E+02 0.  0.
      -24    2    3    3    0    0  0.23970843836E+03 -0.21441043702E+03  0.38433781485E+03  0.50739051492E+03  0.79357468337E+02 0.  0.
      -13    1    4    4    0    0 -0.11313545035E+03  0.53571361375E+02 -0.58965485122E+02  0.13837069531E+03  0.00000000000E+00 0.  1.
       14    1    4    4    0    0 -0.12657298802E+03  0.16083907565E+03 -0.14381431404E+03  0.25014493093E+03  0.00000000000E+00 0. -1.
        3    1    5    5  501    0  0.74239406609E+02 -0.10847287345E+03  0.18999367826E+03  0.23103127829E+03  0.00000000000E+00 0. -1.
       -4    1    5    5    0  501  0.16546903176E+03 -0.10593756357E+03  0.19434413659E+03  0.27635923663E+03  0.14200000000E+01 0.  1.
</event>
<event>
 9   1  0.7335000E-04  0.8730582E+03  0.7818608E-02  0.9459901E-01
        2   -1    0    0  501    0  0.00000000000E+00  0.00000000000E+00  0.70000399933E+03  0.70000399933E+03  0.00000000000E+00 0.  1.
       -2   -1    0    0    0  501 -0.00000000000E+00 -0.00000000000E+00 -0.27222366447E+03  0.27222366447E+03  0.00000000000E+00 0. -1.
       39    2    1    2    0    0  0.00000000000E+00  0.00000000000E+00  0.42778033487E+03  0.97222766380E+03  0.87305819700E+03 0.  0.
       24    2    3    3    0    0  0.27376972195E+03  0.25072351568E+03  0.45310466939E+03  0.59105816963E+03  0.78954268344E+02 0.  0.
      -24    2    3    3    0    0 -0.27376972195E+03 -0.25072351568E+03 -0.25324334521E+02  0.38116949417E+03  0.82684456819E+02 0.  0.
      -13    1    4    4    0    0  0.18907474968E+03  0.21197805861E+03  0.36817395496E+03  0.46501184868E+03  0.00000000000E+00 0.  1.
       14    1    4    4    0    0  0.84694972273E+02  0.38745457063E+02  0.84930714428E+02  0.12604632095E+03  0.00000000000E+00 0. -1.
        1    1    5    5  502    0 -0.19077439957E+03 -0.16812815893E+03 -0.55456177271E+02  0.26026397552E+03  0.00000000000E+00 0. -1.
       -2    1    5    5    0  502 -0.82995322380E+02 -0.82595356748E+02  0.30131842750E+02  0.12090551865E+03  0.00000000000E+00 0.  1.
</event>
<event>
 9   1  0.7335000E-04  0.8992092E+03  0.7818608E-02  0.9426571E-01
       21   -1    0    0  503  502  0.00000000000E+00  0.00000000000E+00  0.15755237917E+04  0.15755237917E+04  0.00000000000E+00 0.  1.
       21   -1    0    0  502  503 -0.00000000000E+00 -0.00000000000E+00 -0.12830290660E+03  0.12830290660E+03  0.00000000000E+00 0. -1.
       39    2    1    2    0    0  0.00000000000E+00  0.00000000000E+00  0.14472208851E+04  0.17038266983E+04  0.89920916788E+03 0.  0.
       24    2    3    3    0    0  0.13178109060E+03  0.37638519568E+03  0.10867585074E+04  0.11604158603E+04  0.80553361978E+02 0.  0.
      -24    2    3    3    0    0 -0.13178109060E+03 -0.37638519568E+03  0.36046237772E+03  0.54341083800E+03  0.79562187844E+02 0.  0.
      -13    1    4    4    0    0  0.13152404415E+03  0.32504089506E+03  0.99888528579E+03  0.10586415691E+04  0.00000000000E+00 0.  1.
       14    1    4    4    0    0  0.25704644595E+00  0.51344300629E+02  0.87873221611E+02  0.10177429123E+03  0.00000000000E+00 0. -1.
        1    1    5    5  501    0 -0.10947134315E+03 -0.22614214155E+03  0.18933538376E+03  0.31459836411E+03  0.00000000000E+00 0. -1.
       -2    1    5    5    0  501 -0.22309747444E+02 -0.15024305414E+03  0.17112699395E+03  0.22881247389E+03  0.00000000000E+00 0.  1.
</event>
<event>
 9   1  0.7335000E-04  0.9990582E+03  0.7818608E-02  0.9309578E-01
       21   -1    0    0  503  502  0.00000000000E+00  0.00000000000E+00  0.19716820688E+03  0.19716820688E+03  0.00000000000E+00 0. -1.
       21   -1    0    0  502  503 -0.00000000000E+00 -0.00000000000E+00 -0.12655656990E+04  0.12655656990E+04  0.00000000000E+00 0.  1.
       39    2    1    2    0    0  0.00000000000E+00 -0.56843418861E-13 -0.10683974922E+04  0.14627339059E+04  0.99905819564E+03 0.  0.
       24    2    3    3    0    0  0.11121751063E+03 -0.32733111743E+03 -0.10485853035E+04  0.11070228432E+04  0.80333314992E+02 0.  0.
      -24    2    3    3    0    0 -0.11121751063E+03  0.32733111743E+03 -0.19812188608E+02  0.35571106269E+03  0.81380846586E+02 0.  0.
      -13    1    4    4    0    0  0.95455431078E+02 -0.25615162276E+03 -0.91345623781E+03  0.95348187794E+03  0.00000000000E+00 0.  1.
       14    1    4    4    0    0  0.15762079555E+02 -0.71179494676E+02 -0.13512906573E+03  0.15354096528E+03  0.00000000000E+00 0. -1.
        1    1    5    5  501    0 -0.98724916313E+02  0.23486103440E+03  0.17156982439E+02  0.25534423163E+03  0.00000000000E+00 0. -1.
       -2    1    5    5    0  501 -0.12492594321E+02  0.92470083028E+02 -0.36969171048E+02  0.10036683106E+03  0.00000000000E+00 0.  1.
</event>
<event>
 9   1  0.7335000E-04  0.9910985E+03  0.7818608E-02  0.9318362E-01
       21   -1    0    0  503  502  0.00000000000E+00  0.00000000000E+00  0.52942920397E+03  0.52942920397E+03  0.00000000000E+00 0. -1.
       21   -1    0    0  502  503 -0.00000000000E+00 -0.00000000000E+00 -0.46383743028E+03  0.46383743028E+03  0.00000000000E+00 0.  1.
       39    2    1    2    0    0 -0.56843418861E-13  0.28421709430E-13  0.65591773686E+02  0.99326663425E+03  0.99109854502E+03 0.  0.
       24    2    3    3    0    0  0.29679589044E+03 -0.17122788447E+03 -0.31481626413E+03  0.47513103382E+03  0.96090739056E+02 0.  0.
      -24    2    3    3    0    0 -0.29679589044E+03  0.17122788447E+03  0.38040803782E+03  0.51813560043E+03  0.79670798892E+02 0.  0.
      -13    1    4    4    0    0  0.27922621958E+03 -0.13848126606E+03 -0.24655201608E+03  0.39740689398E+03  0.00000000000E+00 0.  1.
       14    1    4    4    0    0  0.17569670861E+02 -0.32746618408E+02 -0.68264248051E+02  0.77724139836E+02  0.00000000000E+00 0. -1.
        3    1    5    5  501    0 -0.30053733269E+03  0.16205013740E+03  0.36545703852E+03  0.50014176227E+03  0.00000000000E+00 0. -1.
       -4    1    5    5    0  501  0.37414422508E+01  0.91777470741E+01  0.14950999303E+02  0.17993838157E+02  0.14200000000E+01 0.  1.
</event>
<event>
 9   1  0.7335000E-04  0.1009316E+04  0.7818608E-02  0.9298386E-01
       21   -1    0    0  503  502  0.00000000000E+00  0.00000000000E+00  0.41026770778E+03  0.41026770778E+03  0.00000000000E+00 0. -1.
       21   -1    0    0  502  503 -0.00000000000E+00 -0.00000000000E+00 -0.62076422921E+03  0.62076422921E+03  0.00000000000E+00 0.  1.
       39    2    1    2    0    0  0.56843418861E-13  0.28421709430E-13 -0.21049652143E+03  0.10310319370E+04  0.10093156442E+04 0.  0.
       24    2    3    3    0    0 -0.18026648716E+03 -0.12340041359E+03 -0.56250701388E+03  0.60879757447E+03  0.80601969918E+02 0.  0.
      -24    2    3    3    0    0  0.18026648716E+03  0.12340041359E+03  0.35201049245E+03  0.42223436252E+03  0.81527919332E+02 0.  0.
      -13    1    4    4    0    0 -0.14928983771E+03 -0.10184578434E+03 -0.36012155560E+03  0.40292375735E+03  0.00000000000E+00 0.  1.
       14    1    4    4    0    0 -0.30976649453E+02 -0.21554629248E+02 -0.20238545828E+03  0.20587381712E+03  0.00000000000E+00 0. -1.
        1    1    5    5  501    0  0.74667716844E+02  0.14356039540E+02  0.16263331799E+03  0.17952983020E+03  0.00000000000E+00 0. -1.
       -2    1    5    5    0  501  0.10559877032E+03  0.10904437405E+03  0.18937717446E+03  0.24270453232E+03  0.00000000000E+00 0.  1.
</event>
<event>
 9   1  0.7335000E-04  0.1096208E+04  0.7818608E-02  0.9208895E-01
       21   -1    0    0  503  502  0.00000000000E+00  0.00000000000E+00  0.43384776750E+03  0.43384776750E+03  0.00000000000E+00 0. -1.
       21   -1    0    0  502  503 -0.00000000000E+00 -0.00000000000E+00 -0.69245051056E+03  0.69245051056E+03  0.00000000000E+00 0.  1.
       39    2    1    2    0    0  0.56843418861E-13 -0.28421709430E-13 -0.25860274306E+03  0.11262982781E+04  0.10962082067E+04 0.  0.
       24    2    3    3    0    0 -0.46758906857E+03 -0.13690048039E+03  0.11445752718E+03  0.50738727028E+03  0.83426841838E+02 0.  0.
      -24    2    3    3    0    0  0.46758906857E+03  0.13690048039E+03 -0.37306027023E+03  0.61891100779E+03  0.80595234103E+02 0.  0.
      -13    1    4    4    0    0 -0.21241346563E+03 -0.86422072603E+02  0.89142450746E+02  0.24603786607E+03  0.00000000000E+00 0.  1.
       14    1    4    4    0    0 -0.25517560294E+03 -0.50478407782E+02  0.25315076433E+02  0.26134940421E+03  0.00000000000E+00 0. -1.
        1    1    5    5  501    0  0.10252774010E+03  0.38614329780E+00 -0.58395807432E+02  0.11799219009E+03  0.00000000000E+00 0. -1.
       -2    1    5    5    0  501  0.36506132847E+03  0.13651433709E+03 -0.31466446280E+03  0.50091881770E+03  0.00000000000E+00 0.  1.
</event>
<event>
 9   1  0.7335000E-04  0.1010942E+04  0.7818608E-02  0.9296624E-01
       21   -1    0    0  503  502  0.00000000000E+00  0.00000000000E+00  0.41632128513E+03  0.41632128513E+03  0.00000000000E+00 0.  1.
       21   -1    0    0  502  503 -0.00000000000E+00 -0.00000000000E+00 -0.61371113960E+03  0.61371113960E+03  0.00000000000E+00 0. -1.
       39    2    1    2    0    0 -0.14210854715E-13 -0.11368683772E-12 -0.19738985447E+03  0.10300324247E+04  0.10109421553E+04 0.  0.
       24    2    3    3    0    0 -0.79001572448E+02 -0.40639088696E+03 -0.38342436997E+03  0.56926025320E+03  0.75154420632E+02 0.  0.
      -24    2    3    3    0    0  0.79001572448E+02  0.40639088696E+03  0.18603451550E+03  0.46077217153E+03  0.79418836850E+02 0.  0.
      -13    1    4    4    0    0  0.98047560190E+01 -0.11755493311E+03 -0.93996831792E+02  0.15083335151E+03  0.00000000000E+00 0.  1.
       14    1    4    4    0    0 -0.88806328467E+02 -0.28883595384E+03 -0.28942753817E+03  0.41842690170E+03  0.00000000000E+00 0. -1.
        3    1    5    5  501    0  0.12864957805E+01  0.55090494101E+02 -0.13131044928E+01  0.55121156148E+02  0.00000000000E+00 0. -1.
       -4    1    5    5    0  501  0.77715076668E+02  0.35130039285E+03  0.18734761999E+03  0.40565101538E+03  0.14200000000E+01 0.  1.
</event>
<event>
 9   1  0.7335000E-04  0.1004531E+04  0.7818608E-02  0.9303589E-01
       21   -1    0    0  503  502  0.00000000000E+00  0.00000000000E+00  0.38226801011E+03  0.38226801011E+03  0.00000000000E+00 0.  1.
       21   -1    0    0  502  503 -0.00000000000E+00 -0.00000000000E+00 -0.65993170011E+03  0.65993170011E+03  0.00000000000E+00 0. -1.
       39    2    1    2    0    0  0.00000000000E+00  0.00000000000E+00 -0.27766369000E+03  0.10421997102E+04  0.10045312893E+04 0.  0.
       24    2    3    3    0    0 -0.26886677712E+03  0.62933629990E+02 -0.56574822158E+03  0.63466893056E+03  0.80520901446E+02 0.  0.
      -24    2    3    3    0    0  0.26886677712E+03 -0.62933629990E+02  0.28808453158E+03  0.40753077966E+03  0.82696151124E+02 0.  0.
      -13    1    4    4    0    0 -0.44510997296E+02  0.28706685284E+01 -0.17044798313E+03  0.17618735645E+03  0.00000000000E+00 0.  1.
       14    1    4    4    0    0 -0.22435577983E+03  0.60062961461E+02 -0.39530023845E+03  0.45848157411E+03  0.00000000000E+00 0. -1.
        3    1    5    5  501    0  0.20016417242E+03 -0.67521554527E+02  0.17138682726E+03  0.27202628697E+03  0.00000000000E+00 0. -1.
       -4    1    5    5    0  501  0.68702604705E+02  0.45879245372E+01  0.11669770433E+03  0.13550449269E+03  0.14200000000E+01 0.  1.
</event>
<event>
 9   1  0.7335000E-04  0.9983371E+03  0.7818608E-02  0.9310370E-01
       21   -1    0    0  503  502  0.00000000000E+00  0.00000000000E+00  0.14009273005E+04  0.14009273005E+04  0.00000000000E+00 0. -1.
       21   -1    0    0  502  503 -0.00000000000E+00 -0.00000000000E+00 -0.17786022984E+03  0.17786022984E+03  0.00000000000E+00 0.  1.
       39    2    1    2    0    0 -0.28421709430E-13  0.00000000000E+00  0.12230670707E+04  0.15787875304E+04  0.99833712075E+03 0.  0.
       24    2    3    3    0    0 -0.23440668753E+03 -0.22110441437E+03  0.22139897673E+02  0.33270687224E+03  0.79812471186E+02 0.  0.
      -24    2    3    3    0    0  0.23440668753E+03  0.22110441437E+03  0.12009271730E+04  0.12460806581E+04  0.81592122692E+02 0.  0.
      -13    1    4    4    0    0 -0.19968098345E+03 -0.14609532268E+03  0.11332528530E+01  0.24742195279E+03  0.00000000000E+00 0.  1.
       14    1    4    4    0    0 -0.34725704080E+02 -0.75009091683E+02  0.21006644820E+02  0.85284919450E+02  0.00000000000E+00 0. -1.
        1    1    5    5  501    0  0.21654365460E+03  0.19195669805E+03  0.95773051427E+03  0.10004930116E+04  0.00000000000E+00 0. -1.
       -2    1    5    5    0  501  0.17863032924E+02  0.29147716320E+02  0.24319665875E+03  0.24558764655E+03  0.00000000000E+00 0.  1.
</event>
<event>
 9   1  0.7335000E-04  0.1000383E+04  0.7818608E-02  0.9308124E-01
       21   -1    0    0  503  502  0.00000000000E+00  0.00000000000E+00  0.22141013926E+03  0.22141013926E+03  0.00000000000E+00 0.  1.
       21   -1    0    0  502  503 -0.00000000000E+00 -0.00000000000E+00 -0.11299921048E+04  0.11299921048E+04  0.00000000000E+00 0. -1.
       39    2    1    2    0    0  0.35527136788E-14  0.00000000000E+00 -0.90858196549E+03  0.13514022440E+04  0.10003833451E+04 0.  0.
       24    2    3    3    0    0 -0.23765059635E+02 -0.13424770940E+03  0.18667045512E+03  0.24492638021E+03  0.80968187401E+02 0.  0.
      -24    2    3    3    0    0  0.23765059635E+02  0.13424770940E+03 -0.10952524206E+04  0.11064758638E+04  0.78254372398E+02 0.  0.
      -13    1    4    4    0    0  0.28717425747E+02 -0.30856566287E+02  0.58314619547E+02  0.71954242943E+02  0.00000000000E+00 0.  1.
       14    1    4    4    0    0 -0.52482485382E+02 -0.10339114312E+03  0.12835583557E+03  0.17297213727E+03  0.00000000000E+00 0. -1.
        1    1    5    5  501    0  0.51885420114E+02  0.94125471336E+02 -0.79962270369E+03  0.80681359026E+03  0.00000000000E+00 0. -1.
       -2    1    5    5    0  501 -0.28120360479E+02  0.40122238065E+02 -0.29562971691E+03  0.29966227354E+03  0.00000000000E+00 0.  1.
</event>
<event>
 9   1  0.7335000E-04  0.1001607E+04  0.7818608E-02  0.9306784E-01
       21   -1    0    0  503  502  0.00000000000E+00  0.00000000000E+00  0.28548982067E+03  0.28548982067E+03  0.00000000000E+00 0. -1.
       21   -1    0    0  502  503 -0.00000000000E+00 -0.00000000000E+00 -0.87850534557E+03  0.87850534557E+03  0.00000000000E+00 0.  1.
       39    2    1    2    0    0  0.00000000000E+00  0.00000000000E+00 -0.59301552490E+03  0.11639951662E+04  0.10016073753E+04 0.  0.
       24    2    3    3    0    0 -0.35576235948E+03  0.99259996184E+02 -0.67946386599E+03  0.77742282598E+03  0.79345459298E+02 0.  0.
      -24    2    3    3    0    0  0.35576235948E+03 -0.99259996184E+02  0.86448341086E+02  0.38657234026E+03  0.74467813950E+02 0.  0.
      -13    1    4    4    0    0 -0.26346362304E+03  0.80224195209E+02 -0.56952408775E+03  0.63261891268E+03  0.00000000000E+00 0.  1.
       14    1    4    4    0    0 -0.92298736437E+02  0.19035800975E+02 -0.10993977824E+03  0.14480391330E+03  0.00000000000E+00 0. -1.
        1    1    5    5  501    0  0.32545208717E+03 -0.75648535680E+02  0.94669768979E+02  0.34728104923E+03  0.00000000000E+00 0. -1.
       -2    1    5    5    0  501  0.30310272310E+02 -0.23611460504E+02 -0.82214278930E+01  0.39291291035E+02  0.00000000000E+00 0.  1.
</event>
<event>
 9   1  0.7335000E-04  0.1005823E+04  0.7818608E-02  0.9302181E-01
       21   -1    0    0  503  502  0.00000000000E+00  0.00000000000E+00  0.12777909293E+04  0.12777909293E+04  0.00000000000E+00 0. -1.
       21   -1    0    0  502  503 -0.00000000000E+00 -0.00000000000E+00 -0.19793526225E+03  0.19793526225E+03  0.00000000000E+00 0.  1.
       39    2    1    2    0    0  0.56843418861E-13  0.00000000000E+00  0.10798556670E+04  0.14757261915E+04  0.10058228128E+04 0.  0.
       24    2    3    3    0    0 -0.29995859069E+03 -0.36454600706E+03  0.31354963813E+03  0.57219682961E+03  0.78910638375E+02 0.  0.
      -24    2    3    3    0    0  0.29995859069E+03  0.36454600706E+03  0.76630602890E+03  0.90352936193E+03  0.79192364132E+02 0.  0.
      -13    1    4    4    0    0 -0.17415358587E+03 -0.15087601968E+03  0.16054905367E+03  0.28083632853E+03  0.00000000000E+00 0.  1.
       14    1    4    4    0    0 -0.12580500482E+03 -0.21366998738E+03  0.15300058445E+03  0.29136050108E+03  0.00000000000E+00 0. -1.
        1    1    5    5  501    0  0.17903335623E+03  0.27326406140E+03  0.50428354540E+03  0.60085612593E+03  0.00000000000E+00 0. -1.
       -2    1    5    5    0  501  0.12092523445E+03  0.91281945660E+02  0.26202248350E+03  0.30267323600E+03  0.00000000000E+00 0.  1.
</event>
<event>
 9   1  0.7335000E-04  0.9893846E+03  0.7818608E-02  0.9320265E-01
       21   -1    0    0  503  502  0.00000000000E+00  0.00000000000E+00  0.11853425868E+04  0.11853425868E+04  0.00000000000E+00 0. -1.
       21   -1    0    0  502  503 -0.00000000000E+00 -0.00000000000E+00 -0.20645547760E+03  0.20645547760E+03  0.00000000000E+00 0.  1.
       39    2    1    2    0    0  0.56843418861E-13  0.00000000000E+00  0.97888710922E+03  0.13917980644E+04  0.98938459637E+03 0.  0.
       24    2    3    3    0    0 -0.33942926474E+03 -0.33089533136E+03  0.65493851673E+03  0.81238376021E+03  0.79491930853E+02 0.  0.
      -24    2    3    3    0    0  0.33942926474E+03  0.33089533136E+03  0.32394859249E+03  0.57941430422E+03  0.77937791063E+02 0.  0.
      -13    1    4    4    0    0 -0.33295831250E+02 -0.60406183665E+02  0.64739952958E+02  0.94597996346E+02  0.00000000000E+00 0.  1.
       14    1    4    4    0    0 -0.30613343348E+03 -0.27048914770E+03  0.59019856378E+03  0.71778576386E+03  0.00000000000E+00 0. -1.
        3    1    5    5  501    0  0.20220071014E+03  0.18800184161E+03  0.23361322586E+03  0.36166968206E+03  0.00000000000E+00 0. -1.
       -4    1    5    5    0  501  0.13722855459E+03  0.14289348976E+03  0.90335366632E+02  0.21774462215E+03  0.14200000000E+01 0.  1.
</event>
<event>
 9   1  0.7335000E-04  0.9919460E+03  0.7818608E-02  0.9317423E-01
       21   -1    0    0  503  502  0.00000000000E+00  0.00000000000E+00  0.84598624518E+03  0.84598624518E+03  0.00000000000E+00 0. -1.
       21   -1    0    0  502  503 -0.00000000000E+00 -0.00000000000E+00 -0.29077214361E+03  0.29077214361E+03  0.00000000000E+00 0.  1.
       39    2    1    2    0    0  0.56843418861E-13  0.56843418861E-13  0.55521410157E+03  0.11367583888E+04  0.99194603477E+03 0.  0.
       24    2    3    3    0    0 -0.21587589749E+03 -0.34006934637E+03  0.59606550310E+03  0.72403388074E+03  0.81739910842E+02 0.  0.
      -24    2    3    3    0    0  0.21587589749E+03  0.34006934637E+03 -0.40851401525E+02  0.41272450804E+03  0.80144363989E+02 0.  0.
      -13    1    4    4    0    0 -0.83824966966E+02 -0.16144538847E+03  0.20330422399E+03  0.27280734235E+03  0.00000000000E+00 0.  1.
       14    1    4    4    0    0 -0.13205093052E+03 -0.17862395789E+03  0.39276127911E+03  0.45122653840E+03  0.00000000000E+00 0. -1.
        3    1    5    5  501    0  0.19179779390E+02  0.24594475759E+01 -0.68549048136E+01  0.20515909433E+02  0.00000000000E+00 0. -1.
       -4    1    5    5    0  501  0.19669611810E+03  0.33760989879E+03 -0.33996496712E+02  0.39220859861E+03  0.14200000000E+01 0.  1.
</event>
<event>
 9   1  0.7335000E-04  0.1001647E+04  0.7818608E-02  0.9306741E-01
       21   -1    0    0  503  502  0.00000000000E+00  0.00000000000E+00  0.21801858573E+03  0.21801858573E+03  0.00000000000E+00 0.  1.
       21   -1    0    0  502  503 -0.00000000000E+00 -0.00000000000E+00 -0.11504706484E+04  0.11504706484E+04  0.00000000000E+00 0. -1.
       39    2    1    2    0    0 -0.28421709430E-13  0.21316282073E-13 -0.93245206269E+03  0.13684892342E+04  0.10016466117E+04 0.  0.
       24    2    3    3    0    0  0.15990817157E+03 -0.55667304369E+02  0.16833383551E+03  0.25189076197E+03  0.80269568799E+02 0.  0.
      -24    2    3    3    0    0 -0.15990817157E+03  0.55667304369E+02 -0.11007858982E+04  0.11165984722E+04  0.79956752624E+02 0.  0.
      -13    1    4    4    0    0  0.12705029044E+03 -0.72681447187E+02  0.11119292233E+03  0.18381576386E+03  0.00000000000E+00 0.  1.
       14    1    4    4    0    0  0.32857881133E+02  0.17014142818E+02  0.57140913187E+02  0.68074998114E+02  0.00000000000E+00 0. -1.
        3    1    5    5  501    0 -0.12244054282E+03  0.75242020419E+02 -0.90046777255E+03  0.91186361785E+03  0.00000000000E+00 0. -1.
       -4    1    5    5    0  501 -0.37467628757E+02 -0.19574716050E+02 -0.20031812565E+03  0.20473485433E+03  0.14200000000E+01 0.  1.
</event>
<event>
 9   1  0.7335000E-04  0.1002338E+04  0.7818608E-02  0.9305984E-01
       21   -1    0    0  503  502  0.00000000000E+00  0.00000000000E+00  0.98641148637E+03  0.98641148637E+03  0.00000000000E+00 0.  1.
       21   -1    0    0  502  503 -0.00000000000E+00 -0.00000000000E+00 -0.25463064756E+03  0.25463064756E+03  0.00000000000E+00 0. -1.
       39    2    1    2    0    0 -0.56843418861E-13  0.14210854715E-13  0.73178083880E+03  0.12410421339E+04  0.10023384569E+04 0.  0.
       24    2    3    3    0    0 -0.26378589580E+03  0.10784411588E+03  0.86650964041E+03  0.91564309978E+03  0.79686743547E+02 0.  0.
      -24    2    3    3    0    0  0.26378589580E+03 -0.10784411588E+03 -0.13472880160E+03  0.32539903416E+03  0.80742363713E+02 0.  0.
      -13    1    4    4    0    0 -0.17000428168E+03  0.55594311181E+02  0.64729630337E+03  0.67155393497E+03  0.00000000000E+00 0.  1.
       14    1    4    4    0    0 -0.93781614120E+02  0.52249804701E+02  0.21921333704E+03  0.24408916480E+03  0.00000000000E+00 0. -1.
        3    1    5    5  501    0  0.26115302801E+03 -0.11685599761E+03 -0.12645714093E+03  0.31280606885E+03  0.00000000000E+00 0. -1.
       -4    1    5    5    0  501  0.26328677857E+01  0.90118817252E+01 -0.82716606727E+01  0.12592965310E+02  0.14200000000E+01 0.  1.
</event>
<event>
 9   1  0.7335000E-04  0.9955342E+03  0.7818608E-02  0.9313456E-01
       21   -1    0    0  503  502  0.00000000000E+00  0.00000000000E+00  0.13282417422E+03  0.13282417422E+03  0.00000000000E+00 0. -1.
       21   -1    0    0  502  503 -0.00000000000E+00 -0.00000000000E+00 -0.18654139549E+04  0.18654139549E+04  0.00000000000E+00 0.  1.
       39    2    1    2    0    0 -0.10658141036E-13  0.00000000000E+00 -0.17325897806E+04  0.19982381291E+04  0.99553416443E+03 0.  0.
       24    2    3    3    0    0 -0.26985463066E+02  0.20437872457E+03  0.27618038361E+02  0.22382100419E+03  0.82669266353E+02 0.  0.
      -24    2    3    3    0    0  0.26985463066E+02 -0.20437872457E+03 -0.17602078190E+04  0.17744171249E+04  0.87895897364E+02 0.  0.
      -13    1    4    4    0    0 -0.43558769439E+02  0.54556595597E+02 -0.35249017851E+01  0.69901455284E+02  0.00000000000E+00 0.  1.
       14    1    4    4    0    0  0.16573306373E+02  0.14982212897E+03  0.31142940146E+02  0.15391954891E+03  0.00000000000E+00 0. -1.
        1    1    5    5  501    0 -0.25247876594E+02 -0.56839254876E+02 -0.69425794260E+03  0.69703819625E+03  0.00000000000E+00 0. -1.
       -2    1    5    5    0  501  0.52233339660E+02 -0.14753946970E+03 -0.10659498764E+04  0.10773789287E+04  0.00000000000E+00 0.  1.
</event>
<event>
 9   1  0.7335000E-04  0.1005075E+04  0.7818608E-02  0.9302996E-01
       21   -1    0    0  503  502  0.00000000000E+00  0.00000000000E+00  0.11072953567E+04  0.11072953567E+04  0.00000000000E+00 0. -1.
       21   -1    0    0  502  503 -0.00000000000E+00 -0.00000000000E+00 -0.22807280934E+03  0.22807280934E+03  0.00000000000E+00 0.  1.
       39    2    1    2    0    0 -0.14210854715E-13  0.56843418861E-13  0.87922254735E+03  0.13353681660E+04  0.10050750475E+04 0.  0.
       24    2    3    3    0    0  0.10240607852E+03 -0.19219254727E+03 -0.15324028512E+03  0.27717839745E+03  0.76943478496E+02 0.  0.
      -24    2    3    3    0    0 -0.10240607852E+03  0.19219254727E+03  0.10324628325E+04  0.10581897686E+04  0.79756540427E+02 0.  0.
      -13    1    4    4    0    0  0.10335776169E+03 -0.16602930328E+03 -0.15691573966E+03  0.25074111311E+03  0.00000000000E+00 0.  1.
       14    1    4    4    0    0 -0.95168317377E+00 -0.26163243994E+02  0.36754545409E+01  0.26437284339E+02  0.00000000000E+00 0. -1.
        3    1    5    5  501    0 -0.95505739606E+02  0.19953885227E+03  0.99964901936E+03  0.10238336104E+04  0.00000000000E+00 0. -1.
       -4    1    5    5    0  501 -0.69003389104E+01 -0.73463049984E+01  0.32813813112E+02  0.34356158184E+02  0.14200000000E+01 0.  1.
</event>
<event>
 9   1  0.7335000E-04  0.9890848E+03  0.7818608E-02  0.9320598E-01
       21   -1    0    0  503  502  0.00000000000E+00  0.00000000000E+00  0.13519206374E+04  0.13519206374E+04  0.00000000000E+00 0.  1.
       21   -1    0    0  502  503 -0.00000000000E+00 -0.00000000000E+00 -0.18090722061E+03  0.18090722061E+03  0.00000000000E+00 0. -1.
       39    2    1    2    0    0  0.00000000000E+00  0.00000000000E+00  0.11710134168E+04  0.15328278580E+04  0.98908483964E+03 0.  0.
       24    2    3    3    0    0  0.47283563451E+03 -0.12013876420E+03  0.57380969631E+03  0.75737508568E+03  0.79703154960E+02 0.  0.
      -24    2    3    3    0    0 -0.47283563451E+03  0.12013876420E+03  0.59720372047E+03  0.77545277232E+03  0.81656955870E+02 0.  0.
      -13    1    4    4    0    0  0.22777672509E+03 -0.96900167192E+02  0.30692552145E+03  0.39430337890E+03  0.00000000000E+00 0.  1.
       14    1    4    4    0    0  0.24505890941E+03 -0.23238597008E+02  0.26688417486E+03  0.36307170678E+03  0.00000000000E+00 0. -1.
        3    1    5    5  501    0 -0.30951788575E+03  0.52384377620E+02  0.42743759362E+03  0.53032852182E+03  0.00000000000E+00 0. -1.
       -4    1    5    5    0  501 -0.16331774876E+03  0.67754386580E+02  0.16976612685E+03  0.24512425051E+03  0.14200000000E+01 0.  1.
</event>
<event>
 9   1  0.7335000E-04  0.1007233E+04  0.7818608E-02  0.9300648E-01
       21   -1    0    0  503  502  0.00000000000E+00  0.00000000000E+00  0.66466764576E+03  0.66466764576E+03  0.00000000000E+00 0. -1.
       21   -1    0    0  502  503 -0.00000000000E+00 -0.00000000000E+00 -0.38158823300E+03  0.38158823300E+03  0.00000000000E+00 0.  1.
       39    2    1    2    0    0  0.00000000000E+00 -0.28421709430E-13  0.28307941276E+03  0.10462558788E+04  0.10072325501E+04 0.  0.
       24    2    3    3    0    0  0.19787943890E+03  0.24683916448E+03  0.53985224431E+03  0.63090790614E+03  0.80737196416E+02 0.  0.
      -24    2    3    3    0    0 -0.19787943890E+03 -0.24683916448E+03 -0.25677283154E+03  0.41534797262E+03  0.80596562485E+02 0.  0.
      -13    1    4    4    0    0  0.19866877039E+02  0.90669345633E+01  0.11236745689E+02  0.24559449491E+02  0.00000000000E+00 0.  1.
       14    1    4    4    0    0  0.17801256186E+03  0.23777222992E+03  0.52861549862E+03  0.60634845665E+03  0.00000000000E+00 0. -1.
        1    1    5    5  501    0 -0.48988198265E+02 -0.46422821759E+02 -0.99642240040E+02  0.12034740525E+03  0.00000000000E+00 0. -1.
       -2    1    5    5    0  501 -0.14889124063E+03 -0.20041634272E+03 -0.15713059150E+03  0.29500056738E+03  0.00000000000E+00 0.  1.
</event>
<event>
 9   1  0.7335000E-04  0.9923510E+03  0.7818608E-02  0.9316974E-01
       21   -1    0    0  503  502  0.00000000000E+00  0.00000000000E+00  0.52355165861E+03  0.52355165861E+03  0.00000000000E+00 0.  1.
       21   -1    0    0  502  503 -0.00000000000E+00 -0.00000000000E+00 -0.47023082652E+03  0.47023082652E+03  0.00000000000E+00 0. -1.
       39    2    1    2    0    0  0.00000000000E+00  0.28421709430E-13  0.53320832088E+02  0.99378248513E+03  0.99235100474E+03 0.  0.
       24    2    3    3    0    0  0.16691144313E+02  0.13457689075E+03  0.49519482936E+03  0.52457244547E+03  0.10755834554E+03 0.  0.
      -24    2    3    3    0    0 -0.16691144313E+02 -0.13457689075E+03 -0.44187399728E+03  0.46921003966E+03  0.80721112632E+02 0.  0.
      -13    1    4    4    0    0  0.53950419275E+02  0.12255751384E+03  0.38708260514E+03  0.40958995977E+03  0.00000000000E+00 0.  1.
       14    1    4    4    0    0 -0.37259274962E+02  0.12019376907E+02  0.10811222423E+03  0.11498248570E+03  0.00000000000E+00 0. -1.
        1    1    5    5  501    0 -0.85000808581E+01 -0.11689419946E+03 -0.43149833098E+03  0.44713232368E+03  0.00000000000E+00 0. -1.
       -2    1    5    5    0  501 -0.81910634552E+01 -0.17682691285E+02 -0.10375666296E+02  0.22077715976E+02  0.00000000000E+00 0.  1.
</event>
<event>
 9   1  0.7335000E-04  0.9961752E+03  0.7818608E-02  0.9312750E-01
       21   -1    0    0  503  502  0.00000000000E+00  0.00000000000E+00  0.11150217354E+03  0.11150217354E+03  0.00000000000E+00 0. -1.
       21   -1    0    0  502  503 -0.00000000000E+00 -0.00000000000E+00 -0.22249902111E+04  0.22249902111E+04  0.00000000000E+00 0.  1.
       39    2    1    2    0    0  0.71054273576E-14  0.00000000000E+00 -0.21134880375E+04  0.23364923846E+04  0.99617517463E+03 0.  0.
       24    2    3    3    0    0 -0.31340426638E+02 -0.18310622603E+03 -0.21241651682E+04  0.21337895869E+04  0.80437721069E+02 0.  0.
      -24    2    3    3    0    0  0.31340426638E+02  0.18310622603E+03  0.10677130699E+02  0.20270279769E+03  0.80400937303E+02 0.  0.
      -13    1    4    4    0    0  0.14477083118E+01 -0.11541640888E+03 -0.90901878448E+03  0.91631773629E+03  0.00000000000E+00 0.  1.
       14    1    4    4    0    0 -0.32788134950E+02 -0.67689817150E+02 -0.12151463837E+04  0.12174718506E+04  0.00000000000E+00 0. -1.
        3    1    5    5  501    0  0.47697216648E+02  0.17840783947E+03  0.51223185747E+01  0.18474474230E+03  0.00000000000E+00 0. -1.
       -4    1    5    5    0  501 -0.16356790009E+02  0.46983865595E+01  0.55548121240E+01  0.17958055390E+02  0.14200000000E+01 0.  1.
</event>
<event>
 9   1  0.7335000E-04  0.1049503E+04  0.7818608E-02  0.9255857E-01
       21   -1    0    0  503  502  0.00000000000E+00  0.00000000000E+00  0.69774048913E+03  0.69774048913E+03  0.00000000000E+00 0. -1.
       21   -1    0    0  502  503 -0.00000000000E+00 -0.00000000000E+00 -0.39465142970E+03  0.39465142970E+03  0.00000000000E+00 0.  1.
       39    2    1    2    0    0  0.00000000000E+00  0.00000000000E+00  0.30308905942E+03  0.10923919188E+04  0.10495032760E+04 0.  0.
       24    2    3    3    0    0 -0.33655386046E+03 -0.87212646388E+02  0.55162488793E+03  0.65704200575E+03  0.80868001461E+02 0.  0.
      -24    2    3    3    0    0  0.33655386046E+03  0.87212646388E+02 -0.24853582851E+03  0.43534991308E+03  0.82975551127E+02 0.  0.
      -13    1    4    4    0    0 -0.40054161683E+02 -0.12285963513E+02  0.27169781663E+02  0.49934735438E+02  0.00000000000E+00 0.  1.
       14    1    4    4    0    0 -0.29649969878E+03 -0.74926682875E+02  0.52445510626E+03  0.60710727032E+03  0.00000000000E+00 0. -1.
        1    1    5    5  501    0  0.10947088127E+03  0.21912629324E+02 -0.35347260019E+02  0.11710450871E+03  0.00000000000E+00 0. -1.
       -2    1    5    5    0  501  0.22708297919E+03  0.65300017064E+02 -0.21318856849E+03  0.31824540437E+03  0.00000000000E+00 0.  1.
</event>
<event>
 9   1  0.7335000E-04  0.1001471E+04  0.7818608E-02  0.9306933E-01
       21   -1    0    0  503  502  0.00000000000E+00  0.00000000000E+00  0.11894741826E+04  0.11894741826E+04  0.00000000000E+00 0.  1.
       21   -1    0    0  502  503 -0.00000000000E+00 -0.00000000000E+00 -0.21079572199E+03  0.21079572199E+03  0.00000000000E+00 0. -1.
       39    2    1    2    0    0  0.00000000000E+00  0.00000000000E+00  0.97867846060E+03  0.14002699046E+04  0.10014710562E+04 0.  0.
       24    2    3    3    0    0 -0.25559967704E+03  0.19726617686E+03 -0.31326509973E+02  0.33607075854E+03  0.87846827395E+02 0.  0.
      -24    2    3    3    0    0  0.25559967704E+03 -0.19726617686E+03  0.10100049706E+04  0.10641991460E+04  0.90358410855E+02 0.  0.
      -13    1    4    4    0    0 -0.81454979959E+02  0.78359407780E+02  0.29105537619E+02  0.11671436445E+03  0.00000000000E+00 0.  1.
       14    1    4    4    0    0 -0.17414469708E+03  0.11890676908E+03 -0.60432047591E+02  0.21935639410E+03  0.00000000000E+00 0. -1.
        3    1    5    5  501    0  0.44221358278E+02 -0.94098129014E+01  0.77148158498E+02  0.89419860582E+02  0.00000000000E+00 0. -1.
       -4    1    5    5    0  501  0.21137831876E+03 -0.18785636395E+03  0.93285681207E+03  0.97477928546E+03  0.14200000000E+01 0.  1.
</event>
<event>
 9   1  0.7335000E-04  0.9991243E+03  0.7818608E-02  0.9309506E-01
       21   -1    0    0  503  502  0.00000000000E+00  0.00000000000E+00  0.36352410112E+03  0.36352410112E+03  0.00000000000E+00 0.  1.
       21   -1    0    0  502  503 -0.00000000000E+00 -0.00000000000E+00 -0.68650831830E+03  0.68650831830E+03  0.00000000000E+00 0. -1.
       39    2    1    2    0    0  0.00000000000E+00  0.88817841970E-15 -0.32298421718E+03  0.10500324194E+04  0.99912425517E+03 0.  0.
       24    2    3    3    0    0 -0.84546580219E+02  0.34046769021E+00  0.34865193783E+03  0.36791960709E+03  0.81599162922E+02 0.  0.
      -24    2    3    3    0    0  0.84546580219E+02 -0.34046769021E+00 -0.67163615501E+03  0.68211281232E+03  0.83872068487E+02 0.  0.
      -13    1    4    4    0    0 -0.97887633453E+02 -0.95441538515E+01  0.32033841987E+03  0.33509667695E+03  0.00000000000E+00 0.  1.
       14    1    4    4    0    0  0.13341053234E+02  0.98846215417E+01  0.28313517953E+02  0.32822930145E+02  0.00000000000E+00 0. -1.
        3    1    5    5  501    0  0.57104595471E+02  0.42393805426E+01 -0.62622677877E+03  0.62883931621E+03  0.00000000000E+00 0. -1.
       -4    1    5    5    0  501  0.27441984748E+02 -0.45798482328E+01 -0.45409376239E+02  0.53273496104E+02  0.14200000000E+01 0.  1.
</event>
<event>
 9   1  0.7335000E-04  0.9973767E+03  0.7818608E-02  0.9311427E-01
       21   -1    0    0  503  502  0.00000000000E+00  0.00000000000E+00  0.22174844740E+03  0.22174844740E+03  0.00000000000E+00 0.  1.
       21   -1    0    0  502  503 -0.00000000000E+00 -0.00000000000E+00 -0.11214962555E+04  0.11214962555E+04  0.00000000000E+00 0. -1.
       39    2    1    2    0    0  0.00000000000E+00  0.56843418861E-13 -0.89974780810E+03  0.13432447029E+04  0.99737666591E+03 0.  0.
       24    2    3    3    0    0 -0.13162028394E+03  0.39650561501E+03 -0.99702613120E+02  0.43694116214E+03  0.80226967007E+02 0.  0.
      -24    2    3    3    0    0  0.13162028394E+03 -0.39650561501E+03 -0.80004519498E+03  0.90630354076E+03  0.82299405268E+02 0.  0.
      -13    1    4    4    0    0 -0.10834261823E+03  0.24298175288E+03 -0.91897692124E+02  0.28146658945E+03  0.00000000000E+00 0.  1.
       14    1    4    4    0    0 -0.23277665712E+02  0.15352386212E+03 -0.78049209959E+01  0.15547457269E+03  0.00000000000E+00 0. -1.
        1    1    5    5  501    0  0.81968586009E+02 -0.33669606889E+03 -0.68154707176E+03  0.76458452961E+03  0.00000000000E+00 0. -1.
       -2    1    5    5    0  501  0.49651697930E+02 -0.59809546113E+02 -0.11849812323E+03  0.14171901115E+03  0.00000000000E+00 0.  1.
</event>
<event>
 9   1  0.7335000E-04  0.9874661E+03  0.7818608E-02  0.9322400E-01
       21   -1    0    0  503  502  0.00000000000E+00  0.00000000000E+00  0.58670888166E+03  0.58670888166E+03  0.00000000000E+00 0.  1.
       21   -1    0    0  502  503 -0.00000000000E+00 -0.00000000000E+00 -0.41549107254E+03  0.41549107254E+03  0.00000000000E+00 0. -1.
       39    2    1    2    0    0  0.71054273576E-14  0.00000000000E+00  0.17121780912E+03  0.10021999542E+04  0.98746605513E+03 0.  0.
       24    2    3    3    0    0  0.11644859888E+02  0.31445596964E+03  0.46300787692E+03  0.56592469231E+03  0.82923480767E+02 0.  0.
      -24    2    3    3    0    0 -0.11644859888E+02 -0.31445596964E+03 -0.29179006780E+03  0.43627526189E+03  0.78590717385E+02 0.  0.
      -13    1    4    4    0    0 -0.18736943105E+02  0.27477103657E+03  0.39442842531E+03  0.48106546151E+03  0.00000000000E+00 0.  1.
       14    1    4    4    0    0  0.30381802993E+02  0.39684933077E+02  0.68579451617E+02  0.84859230792E+02  0.00000000000E+00 0. -1.
        3    1    5    5  501    0 -0.38010819174E+02 -0.26898081034E+03 -0.24838370161E+03  0.36808961128E+03  0.00000000000E+00 0. -1.
       -4    1    5    5    0  501  0.26365959286E+02 -0.45475159303E+02 -0.43406366197E+02  0.68185650610E+02  0.14200000000E+01 0.  1.
</event>
<event>
 9   1  0.7335000E-04  0.9981138E+03  0.7818608E-02  0.9310616E-01
       21   -1    0    0  503  502  0.00000000000E+00  0.00000000000E+00  0.67569651528E+03  0.67569651528E+03  0.00000000000E+00 0. -1.
       21   -1    0    0  502  503 -0.00000000000E+00 -0.00000000000E+00 -0.36859419435E+03  0.36859419435E+03  0.00000000000E+00 0.  1.
       39    2    1    2    0    0  0.56843418861E-13  0.00000000000E+00  0.30710232093E+03  0.10442907096E+04  0.99811384656E+03 0.  0.
       24    2    3    3    0    0  0.32616738637E+03  0.34439952245E+03  0.29091396483E+03  0.56291555714E+03  0.85128106644E+02 0.  0.
      -24    2    3    3    0    0 -0.32616738637E+03 -0.34439952245E+03  0.16188356095E+02  0.48137515249E+03  0.80397634103E+02 0.  0.
      -13    1    4    4    0    0  0.17077959648E+03  0.18296140623E+03  0.20284328871E+03  0.32215826315E+03  0.00000000000E+00 0.  1.
       14    1    4    4    0    0  0.15538778989E+03  0.16143811621E+03  0.88070676124E+02  0.24075729398E+03  0.00000000000E+00 0. -1.
        1    1    5    5  501    0 -0.14647302386E+03 -0.20078039760E+03 -0.16263571612E+02  0.24906147543E+03  0.00000000000E+00 0. -1.
       -2    1    5    5    0  501 -0.17969436251E+03 -0.14361912484E+03  0.32451927706E+02  0.23231367706E+03  0.00000000000E+00 0.  1.
</event>
<event>
 9   1  0.7335000E-04  0.1007473E+04  0.7818608E-02  0.9300387E-01
       21   -1    0    0  503  502  0.00000000000E+00  0.00000000000E+00  0.37003762892E+03  0.37003762892E+03  0.00000000000E+00 0. -1.
       21   -1    0    0  502  503 -0.00000000000E+00 -0.00000000000E+00 -0.68574199928E+03  0.68574199928E+03  0.00000000000E+00 0.  1.
       39    2    1    2    0    0  0.00000000000E+00  0.56843418861E-13 -0.31570437036E+03  0.10557796282E+04  0.10074727658E+04 0.  0.
       24    2    3    3    0    0 -0.10405270478E+03 -0.38238878723E+03 -0.47269581953E+03  0.62199730760E+03  0.79944749000E+02 0.  0.
      -24    2    3    3    0    0  0.10405270478E+03  0.38238878723E+03  0.15699144916E+03  0.43378232060E+03  0.80452697802E+02 0.  0.
      -13    1    4    4    0    0 -0.82644868338E+02 -0.36366686427E+03 -0.45575605434E+03  0.58889501908E+03  0.00000000000E+00 0.  1.
       14    1    4    4    0    0 -0.21407836446E+02 -0.18721922956E+02 -0.16939765182E+02  0.33102288514E+02  0.00000000000E+00 0. -1.
        1    1    5    5  501    0  0.25374406902E+02  0.24269075637E+03  0.92025632788E+02  0.26078991706E+03  0.00000000000E+00 0. -1.
       -2    1    5    5    0  501  0.78678297882E+02  0.13969803086E+03  0.64965816373E+02  0.17299240353E+03  0.00000000000E+00 0.  1.
</event>
<event>
 9   1  0.7335000E-04  0.9987947E+03  0.7818608E-02  0.9309868E-01
       21   -1    0    0  503  502  0.00000000000E+00  0.00000000000E+00  0.33390939143E+03  0.33390939143E+03  0.00000000000E+00 0.  1.
       21   -1    0    0  502  503 -0.00000000000E+00 -0.00000000000E+00 -0.74690236998E+03  0.74690236998E+03  0.00000000000E+00 0. -1.
       39    2    1    2    0    0  0.00000000000E+00  0.00000000000E+00 -0.41299297854E+03  0.10808117614E+04  0.99879470527E+03 0.  0.
       24    2    3    3    0    0 -0.38413193601E+03 -0.16286000372E+02 -0.54007682670E+03  0.66795796680E+03  0.81622843682E+02 0.  0.
      -24    2    3    3    0    0  0.38413193601E+03  0.16286000372E+02  0.12708384815E+03  0.41285379460E+03  0.80469703541E+02 0.  0.
      -13    1    4    4    0    0 -0.11892775045E+03 -0.24935833338E+02 -0.22770509871E+03  0.25809923981E+03  0.00000000000E+00 0.  1.
       14    1    4    4    0    0 -0.26520418556E+03  0.86498329660E+01 -0.31237172799E+03  0.40985872700E+03  0.00000000000E+00 0. -1.
        1    1    5    5  501    0  0.96150781947E+02 -0.25946518399E+02  0.51598667491E+02  0.11216335040E+03  0.00000000000E+00 0. -1.
       -2    1    5    5    0  501  0.28798115406E+03  0.42232518771E+02  0.75485180661E+02  0.30069044420E+03  0.00000000000E+00 0.  1.
</event>
<event>
 9   1  0.7335000E-04  0.9938106E+03  0.7818608E-02  0.9315359E-01
       21   -1    0    0  503  502  0.00000000000E+00  0.00000000000E+00  0.17652484062E+03  0.17652484062E+03  0.00000000000E+00 0.  1.
       21   -1    0    0  502  503 -0.00000000000E+00 -0.00000000000E+00 -0.13987542658E+04  0.13987542658E+04  0.00000000000E+00 0. -1.
       39    2    1    2    0    0  0.00000000000E+00  0.14210854715E-13 -0.12222294252E+04  0.15752791065E+04  0.99381059332E+03 0.  0.
       24    2    3    3    0    0 -0.18656216565E+02  0.88986975375E+02  0.15389892765E+03  0.19386951233E+03  0.75058455080E+02 0.  0.
      -24    2    3    3    0    0  0.18656216565E+02 -0.88986975375E+02 -0.13761283529E+04  0.13814095941E+04  0.79350406406E+02 0.  0.
      -13    1    4    4    0    0  0.36123821582E+01  0.70323863855E+02  0.14845493117E+03  0.16430873903E+03  0.00000000000E+00 0.  1.
       14    1    4    4    0    0 -0.22268598724E+02  0.18663111519E+02  0.54439964742E+01  0.29560773304E+02  0.00000000000E+00 0. -1.
        3    1    5    5  501    0  0.18984174721E+02 -0.10151426161E+03 -0.10572726656E+04  0.10623045861E+04  0.00000000000E+00 0. -1.
       -4    1    5    5    0  501 -0.32795815537E+00  0.12527286232E+02 -0.31885568730E+03  0.31910500808E+03  0.14200000000E+01 0.  1.
</event>
<event>
 9   1  0.7335000E-04  0.1001479E+04  0.7818608E-02  0.9306924E-01
       21   -1    0    0  503  502  0.00000000000E+00  0.00000000000E+00  0.57449828408E+03  0.57449828408E+03  0.00000000000E+00 0.  1.
       21   -1    0    0  502  503 -0.00000000000E+00 -0.00000000000E+00 -0.43645086283E+03  0.43645086283E+03  0.00000000000E+00 0. -1.
       39    2    1    2    0    0  0.71054273576E-14 -0.71054273576E-14  0.13804742125E+03  0.10109491469E+04  0.10014794492E+04 0.  0.
       24    2    3    3    0    0  0.42167524707E+02 -0.46664437500E+02  0.56396488290E+03  0.57300934818E+03  0.79546552976E+02 0.  0.
      -24    2    3    3    0    0 -0.42167524707E+02  0.46664437500E+02 -0.42591746165E+03  0.43793979873E+03  0.80186740225E+02 0.  0.
      -13    1    4    4    0    0  0.60699665704E+02 -0.15523631047E+02  0.29238473629E+03  0.29902218405E+03  0.00000000000E+00 0.  1.
       14    1    4    4    0    0 -0.18532140998E+02 -0.31140806453E+02  0.27158014661E+03  0.27398716413E+03  0.00000000000E+00 0. -1.
        1    1    5    5  501    0 -0.47283981762E+02  0.60212169643E+02 -0.40688106369E+03  0.41402111093E+03  0.00000000000E+00 0. -1.
       -2    1    5    5    0  501  0.51164570549E+01 -0.13547732143E+02 -0.19036397964E+02  0.23918687808E+02  0.00000000000E+00 0.  1.
</event>
<event>
 9   1  0.7335000E-04  0.1011426E+04  0.7818608E-02  0.9296101E-01
       21   -1    0    0  503  502  0.00000000000E+00  0.00000000000E+00  0.14470197951E+04  0.14470197951E+04  0.00000000000E+00 0. -1.
       21   -1    0    0  502  503 -0.00000000000E+00 -0.00000000000E+00 -0.17673955001E+03  0.17673955001E+03  0.00000000000E+00 0.  1.
       39    2    1    2    0    0  0.00000000000E+00  0.00000000000E+00  0.12702802451E+04  0.16237593451E+04  0.10114259784E+04 0.  0.
       24    2    3    3    0    0 -0.14479496926E+03  0.38463026805E+03  0.10904235930E+04  0.11681031387E+04  0.80841229540E+02 0.  0.
      -24    2    3    3    0    0  0.14479496926E+03 -0.38463026805E+03  0.17985665210E+03  0.45565620635E+03  0.79800606894E+02 0.  0.
      -13    1    4    4    0    0 -0.10956617648E+03  0.19541702460E+03  0.52440147757E+03  0.57025386471E+03  0.00000000000E+00 0.  1.
       14    1    4    4    0    0 -0.35228792782E+02  0.18921324344E+03  0.56602211539E+03  0.59784927402E+03  0.00000000000E+00 0. -1.
        1    1    5    5  501    0  0.57963681762E+02 -0.25156073043E+03  0.13056961456E+03  0.28929399190E+03  0.00000000000E+00 0. -1.
       -2    1    5    5    0  501  0.86831287502E+02 -0.13306953761E+03  0.49287037540E+02  0.16636221446E+03  0.00000000000E+00 0.  1.
</event>
<event>
 9   1  0.7335000E-04  0.1042053E+04  0.7818608E-02  0.9263588E-01
       21   -1    0    0  503  502  0.00000000000E+00  0.00000000000E+00  0.44159324317E+03  0.44159324317E+03  0.00000000000E+00 0. -1.
       21   -1    0    0  502  503 -0.00000000000E+00 -0.00000000000E+00 -0.61474752973E+03  0.61474752973E+03  0.00000000000E+00 0.  1.
       39    2    1    2    0    0 -0.14210854715E-13  0.00000000000E+00 -0.17315428655E+03  0.10563407729E+04  0.10420525042E+04 0.  0.
       24    2    3    3    0    0  0.70764932613E+02  0.38446953906E+03  0.25292827312E+03  0.47245493777E+03  0.80102776025E+02 0.  0.
      -24    2    3    3    0    0 -0.70764932613E+02 -0.38446953906E+03 -0.42608255968E+03  0.58388583512E+03  0.80943305130E+02 0.  0.
      -13    1    4    4    0    0  0.43660540740E+02  0.28923485780E+03  0.22655338105E+03  0.36998578385E+03  0.00000000000E+00 0.  1.
       14    1    4    4    0    0  0.27104391873E+02  0.95234681264E+02  0.26374892068E+02  0.10246915392E+03  0.00000000000E+00 0. -1.
        1    1    5    5  501    0 -0.66603754613E+01 -0.35296199071E+00 -0.26882112108E-01  0.66697755659E+01  0.00000000000E+00 0. -1.
       -2    1    5    5    0  501 -0.64104557152E+02 -0.38411657707E+03 -0.42605567756E+03  0.57721605956E+03  0.00000000000E+00 0.  1.
</event>
<event>
 9   1  0.7335000E-04  0.1006686E+04  0.7818608E-02  0.9301241E-01
       21   -1    0    0  503  502  0.00000000000E+00  0.00000000000E+00  0.33433994378E+03  0.33433994378E+03  0.00000000000E+00 0. -1.
       21   -1    0    0  502  503 -0.00000000000E+00 -0.00000000000E+00 -0.75777488245E+03  0.75777488245E+03  0.00000000000E+00 0.  1.
       39    2    1    2    0    0 -0.88817841970E-15 -0.56843418861E-13 -0.42343493867E+03  0.10921148262E+04  0.10066864688E+04 0.  0.
       24    2    3    3    0    0 -0.61267178764E+01 -0.37488579476E+03  0.14356809106E+03  0.40946258525E+03  0.80442004936E+02 0.  0.
      -24    2    3    3    0    0  0.61267178764E+01  0.37488579476E+03 -0.56700302973E+03  0.68265224098E+03  0.62807249649E+02 0.  0.
      -13    1    4    4    0    0  0.54212786457E+01  0.23003914111E+01  0.57925861531E+00  0.59175673500E+01  0.00000000000E+00 0.  1.
       14    1    4    4    0    0 -0.11547996522E+02 -0.37718618617E+03  0.14298883245E+03  0.40354501790E+03  0.00000000000E+00 0. -1.
        3    1    5    5  501    0 -0.14326565210E+01  0.34308948216E+02 -0.24977613029E+02  0.42462190064E+02  0.00000000000E+00 0. -1.
       -4    1    5    5    0  501  0.75593743974E+01  0.34057684655E+03 -0.54202541670E+03  0.64019005092E+03  0.14200000000E+01 0.  1.
</event>
<event>
 9   1  0.7335000E-04  0.1014777E+04  0.7818608E-02  0.9292485E-01
       21   -1    0    0  503  502  0.00000000000E+00  0.00000000000E+00  0.10924850149E+03  0.10924850149E+03  0.00000000000E+00 0. -1.
       21   -1    0    0  502  503 -0.00000000000E+00 -0.00000000000E+00 -0.23564896733E+04  0.23564896733E+04  0.00000000000E+00 0.  1.
       39    2    1    2    0    0  0.00000000000E+00  0.28421709430E-13 -0.22472411718E+04  0.24657381748E+04  0.10147767549E+04 0.  0.
       24    2    3    3    0    0 -0.90169594247E+02 -0.23464697000E+03 -0.21764725207E+04  0.21923758087E+04  0.79305088288E+02 0.  0.
      -24    2    3    3    0    0  0.90169594247E+02  0.23464697000E+03 -0.70768651128E+02  0.27336236608E+03  0.80802382068E+02 0.  0.
      -13    1    4    4    0    0 -0.98619688476E+02 -0.16690233905E+03 -0.17050996595E+04  0.17160848122E+04  0.00000000000E+00 0.  1.
       14    1    4    4    0    0  0.84500942286E+01 -0.67744630955E+02 -0.47137286117E+03  0.47629099652E+03  0.00000000000E+00 0. -1.
        1    1    5    5  501    0  0.61002636518E+02  0.22522852926E+03 -0.60843350322E+02  0.24114544436E+03  0.00000000000E+00 0. -1.
       -2    1    5    5    0  501  0.29166957729E+02  0.94184407401E+01 -0.99253008066E+01  0.32216921722E+02  0.00000000000E+00 0.  1.
</event>
<event>
 9   1  0.7335000E-04  0.9922007E+03  0.7818608E-02  0.9317141E-01
       21   -1    0    0  503  502  0.00000000000E+00  0.00000000000E+00  0.12782986520E+03  0.12782986520E+03  0.00000000000E+00 0. -1.
       21   -1    0    0  502  503 -0.00000000000E+00 -0.00000000000E+00 -0.19253368416E+04  0.19253368416E+04  0.00000000000E+00 0.  1.
       39    2    1    2    0    0  0.28421709430E-13 -0.14210854715E-13 -0.17975069764E+04  0.20531667068E+04  0.99220068316E+03 0.  0.
       24    2    3    3    0    0 -0.22239849543E+03  0.83535020630E+02 -0.17862551659E+04  0.18037027275E+04  0.78719890572E+02 0.  0.
      -24    2    3    3    0    0  0.22239849543E+03 -0.83535020630E+02 -0.11251810521E+02  0.24946397928E+03  0.75276047162E+02 0.  0.
      -13    1    4    4    0    0 -0.17086588169E+03  0.43713746571E+02 -0.10641192130E+04  0.10786360557E+04  0.00000000000E+00 0.  1.
       14    1    4    4    0    0 -0.51532613741E+02  0.39821274059E+02 -0.72213595281E+03  0.72506667176E+03  0.00000000000E+00 0. -1.
        1    1    5    5  501    0  0.22256924338E+03 -0.87832874766E+02 -0.20227073483E+01  0.23928178647E+03  0.00000000000E+00 0. -1.
       -2    1    5    5    0  501 -0.17074795556E+00  0.42978541361E+01 -0.92291031726E+01  0.10182192810E+02  0.00000000000E+00 0.  1.
</event>
<event>
 9   1  0.7335000E-04  0.1056746E+04  0.7818608E-02  0.9248407E-01
       21   -1    0    0  503  502  0.00000000000E+00  0.00000000000E+00  0.22576885247E+03  0.22576885247E+03  0.00000000000E+00 0.  1.
       21   -1    0    0  502  503 -0.00000000000E+00 -0.00000000000E+00 -0.12365656692E+04  0.12365656692E+04  0.00000000000E+00 0. -1.
       39    2    1    2    0    0 -0.71054273576E-14  0.00000000000E+00 -0.10107968167E+04  0.14623345217E+04  0.10567459716E+04 0.  0.
       24    2    3    3    0    0 -0.22198827502E+02  0.24576704678E+03  0.13117307129E+03  0.29119561142E+03  0.81818581358E+02 0.  0.
      -24    2    3    3    0    0  0.22198827502E+02 -0.24576704678E+03 -0.11419698880E+04  0.11711389102E+04  0.81098043807E+02 0.  0.
      -13    1    4    4    0    0 -0.31544864144E+02  0.80096242110E+02  0.12035470899E+02  0.86921453127E+02  0.00000000000E+00 0.  1.
       14    1    4    4    0    0  0.93460366420E+01  0.16567080467E+03  0.11913760039E+03  0.20427415829E+03  0.00000000000E+00 0. -1.
        1    1    5    5  501    0  0.24401821465E+02 -0.25019228442E+03 -0.10755720569E+04  0.11045573221E+04  0.00000000000E+00 0. -1.
       -2    1    5    5    0  501 -0.22029939634E+01  0.44252376443E+01 -0.66397831105E+02  0.66581588191E+02  0.00000000000E+00 0.  1.
</event>
<event>
 9   1  0.7335000E-04  0.1080260E+04  0.7818608E-02  0.9224648E-01
        2   -1    0    0  501    0  0.00000000000E+00  0.00000000000E+00  0.10301340310E+04  0.10301340310E+04  0.00000000000E+00 0. -1.
       -2   -1    0    0    0  501 -0.00000000000E+00 -0.00000000000E+00 -0.28320628240E+03  0.28320628240E+03  0.00000000000E+00 0.  1.
       39    2    1    2    0    0  0.00000000000E+00  0.11368683772E-12  0.74692774860E+03  0.13133403134E+04  0.10802600229E+04 0.  0.
       24    2    3    3    0    0 -0.11665101170E+03  0.37603265058E+03  0.81234354244E+03  0.90619039153E+03  0.79189531672E+02 0.  0.
      -24    2    3    3    0    0  0.11665101170E+03 -0.37603265058E+03 -0.65415793839E+02  0.40714992187E+03  0.80522170640E+02 0.  0.
      -13    1    4    4    0    0  0.34548985148E+01  0.31693315346E+02  0.11380072659E+03  0.11818209650E+03  0.00000000000E+00 0.  1.
       14    1    4    4    0    0 -0.12010591021E+03  0.34433933523E+03  0.69854281585E+03  0.78800829503E+03  0.00000000000E+00 0. -1.
        3    1    5    5  502    0 -0.17126296465E+01  0.18123017791E+01 -0.63418352967E+01  0.68144268266E+01  0.00000000000E+00 0. -1.
       -4    1    5    5    0  502  0.11836364135E+03 -0.37784495236E+03 -0.59073958543E+02  0.40033549504E+03  0.14200000000E+01 0.  1.
</event>
<event>
 9   1  0.7335000E-04  0.9989482E+03  0.7818608E-02  0.9309699E-01
       21   -1    0    0  503  502  0.00000000000E+00  0.00000000000E+00  0.11615896611E+03  0.11615896611E+03  0.00000000000E+00 0. -1.
       21   -1    0    0  502  503 -0.00000000000E+00 -0.00000000000E+00 -0.21476979342E+04  0.21476979342E+04  0.00000000000E+00 0.  1.
       39    2    1    2    0    0  0.00000000000E+00  0.00000000000E+00 -0.20315389681E+04  0.22638569003E+04  0.99894818995E+03 0.  0.
       24    2    3    3    0    0 -0.15609679989E+03 -0.37564148579E+03 -0.16482662152E+04  0.16996181065E+04  0.80296044861E+02 0.  0.
      -24    2    3    3    0    0  0.15609679989E+03  0.37564148579E+03 -0.38327275289E+03  0.56423879386E+03  0.77425296882E+02 0.  0.
      -13    1    4    4    0    0 -0.16414209991E+03 -0.36491812877E+03 -0.16130077447E+04  0.16618970648E+04  0.00000000000E+00 0.  1.
       14    1    4    4    0    0  0.80453000193E+01 -0.10723357024E+02 -0.35258470574E+02  0.37721041681E+02  0.00000000000E+00 0. -1.
        1    1    5    5  501    0  0.10551133577E+03  0.32376146190E+03 -0.33106748377E+03  0.47493136872E+03  0.00000000000E+00 0. -1.
       -2    1    5    5    0  501  0.50585464124E+02  0.51880023896E+02 -0.52205269119E+02  0.89307425133E+02  0.00000000000E+00 0.  1.
</event>
<event>
 9   1  0.7335000E-04  0.1005023E+04  0.7818608E-02  0.9303053E-01
       21   -1    0    0  503  502  0.00000000000E+00  0.00000000000E+00  0.27649902516E+03  0.27649902516E+03  0.00000000000E+00 0.  1.
       21   -1    0    0  502  503 -0.00000000000E+00 -0.00000000000E+00 -0.91326766035E+03  0.91326766035E+03  0.00000000000E+00 0. -1.
       39    2    1    2    0    0  0.00000000000E+00 -0.14210854715E-13 -0.63676863519E+03  0.11897666855E+04  0.10050226222E+04 0.  0.
       24    2    3    3    0    0 -0.48936390790E+03 -0.74909358948E+02 -0.27179435445E+03  0.56938102112E+03  0.72347285262E+02 0.  0.
      -24    2    3    3    0    0  0.48936390790E+03  0.74909358948E+02 -0.36497428075E+03  0.62038566440E+03  0.81140005972E+02 0.  0.
      -13    1    4    4    0    0 -0.47917082462E+03 -0.65766935875E+02 -0.25217460050E+03  0.54545577104E+03  0.00000000000E+00 0.  1.
       14    1    4    4    0    0 -0.10193083279E+02 -0.91424230728E+01 -0.19619753944E+02  0.23925250076E+02  0.00000000000E+00 0. -1.
        3    1    5    5  501    0  0.41964270290E+03  0.43251223099E+02 -0.33272979285E+03  0.53728929028E+03  0.00000000000E+00 0. -1.
       -4    1    5    5    0  501  0.69721204997E+02  0.31658135849E+02 -0.32244487897E+02  0.83096374117E+02  0.14200000000E+01 0.  1.
</event>
<event>
 9   1  0.7335000E-04  0.1009197E+04  0.7818608E-02  0.9298515E-01
       21   -1    0    0  503  502  0.00000000000E+00  0.00000000000E+00  0.53169099187E+03  0.53169099187E+03  0.00000000000E+00 0.  1.
       21   -1    0    0  502  503 -0.00000000000E+00 -0.00000000000E+00 -0.47888661553E+03  0.47888661553E+03  0.00000000000E+00 0. -1.
       39    2    1    2    0    0  0.00000000000E+00 -0.56843418861E-13  0.52804376338E+02  0.10105776074E+04  0.10091971058E+04 0.  0.
       24    2    3    3    0    0  0.10721901513E+03 -0.47385226507E+03 -0.85519499569E+02  0.49976488115E+03  0.80121565819E+02 0.  0.
      -24    2    3    3    0    0 -0.10721901513E+03  0.47385226507E+03  0.13832387591E+03  0.51081272624E+03  0.75922726024E+02 0.  0.
      -13    1    4    4    0    0  0.50131643233E+02 -0.99240211901E+02  0.51136912972E+00  0.11118481376E+03  0.00000000000E+00 0.  1.
       14    1    4    4    0    0  0.57087371902E+02 -0.37461205317E+03 -0.86030868699E+02  0.38858006740E+03  0.00000000000E+00 0. -1.
        3    1    5    5  501    0 -0.26743247565E+01  0.12741077291E+03  0.58569938638E+02  0.14025368009E+03  0.00000000000E+00 0. -1.
       -4    1    5    5    0  501 -0.10454469038E+03  0.34644149216E+03  0.79753937269E+02  0.37055904615E+03  0.14200000000E+01 0.  1.
</event>
<event>
 9   1  0.7335000E-04  0.9988755E+03  0.7818608E-02  0.9309779E-01
       21   -1    0    0  503  502  0.00000000000E+00  0.00000000000E+00  0.94231473935E+02  0.94231473935E+02  0.00000000000E+00 0. -1.
       21   -1    0    0  502  503 -0.00000000000E+00 -0.00000000000E+00 -0.26470778956E+04  0.26470778956E+04  0.00000000000E+00 0.  1.
       39    2    1    2    0    0 -0.17763568394E-14  0.00000000000E+00 -0.25528464217E+04  0.27413093695E+04  0.99887547116E+03 0.  0.
       24    2    3    3    0    0 -0.15160843202E+02 -0.56398351208E+02  0.65290929181E+02  0.12128052231E+03  0.83877496822E+02 0.  0.
      -24    2    3    3    0    0  0.15160843202E+02  0.56398351208E+02 -0.26181373509E+04  0.26200288472E+04  0.80606123872E+02 0.  0.
      -13    1    4    4    0    0  0.28299007491E+01 -0.22625153229E+01  0.64119246654E+02  0.64221531478E+02  0.00000000000E+00 0.  1.
       14    1    4    4    0    0 -0.17990743951E+02 -0.54135835886E+02  0.11716825264E+01  0.57058990833E+02  0.00000000000E+00 0. -1.
        3    1    5    5  501    0  0.26298735192E+01 -0.97709565934E+01 -0.50276147718E+02  0.51284294446E+02  0.00000000000E+00 0. -1.
       -4    1    5    5    0  501  0.12530969683E+02  0.66169307802E+02 -0.25678612031E+04  0.25687445528E+04  0.14200000000E+01 0.  1.
</event>
<event>
 9   1  0.7335000E-04  0.9955025E+03  0.7818608E-02  0.9313491E-01
       -4   -1    0    0    0  501 -0.00000000000E+00  0.00000000000E+00  0.25380441062E+03  0.25380838294E+03  0.14200000000E+01 0. -1.
        4   -1    0    0  501    0  0.00000000000E+00 -0.00000000000E+00 -0.97615812232E+03  0.97615915514E+03  0.14200000000E+01 0.  1.
       39    2    1    2    0    0  0.00000000000E+00  0.00000000000E+00 -0.72235371170E+03  0.12299675381E+04  0.99550251629E+03 0.  0.
       24    2    3    3    0    0 -0.46319891418E+03 -0.13685352616E+03 -0.46957992110E+03  0.67845672428E+03  0.80722380423E+02 0.  0.
      -24    2    3    3    0    0  0.46319891418E+03  0.13685352616E+03 -0.25277379060E+03  0.55151081380E+03  0.83591068932E+02 0.  0.
      -13    1    4    4    0    0 -0.10429803543E+03 -0.20241559894E+01 -0.12658712321E+03  0.16403193947E+03  0.00000000000E+00 0.  1.
       14    1    4    4    0    0 -0.35890087875E+03 -0.13482937017E+03 -0.34299279789E+03  0.51442478481E+03  0.00000000000E+00 0. -1.
        1    1    5    5  502    0  0.11037992291E+03  0.73273687772E+01 -0.30053550976E+02  0.11463260287E+03  0.00000000000E+00 0. -1.
       -2    1    5    5    0  502  0.35281899127E+03  0.12952615738E+03 -0.22272023962E+03  0.43687821093E+03  0.00000000000E+00 0.  1.
</event>
<event>
 9   1  0.7335000E-04  0.9964609E+03  0.7818608E-02  0.9312435E-01
       21   -1    0    0  503  502  0.00000000000E+00  0.00000000000E+00  0.20927081463E+03  0.20927081463E+03  0.00000000000E+00 0.  1.
       21   -1    0    0  502  503 -0.00000000000E+00 -0.00000000000E+00 -0.11861834389E+04  0.11861834389E+04  0.00000000000E+00 0. -1.
       39    2    1    2    0    0  0.00000000000E+00 -0.28421709430E-13 -0.97691262428E+03  0.13954542535E+04  0.99646088647E+03 0.  0.
       24    2    3    3    0    0  0.20456204144E+03  0.16898562689E+03 -0.10684356444E+04  0.11037804114E+04  0.79841715495E+02 0.  0.
      -24    2    3    3    0    0 -0.20456204144E+03 -0.16898562689E+03  0.91523020078E+02  0.29167384216E+03  0.79343532223E+02 0.  0.
      -13    1    4    4    0    0  0.13827575290E+03  0.14739839966E+03 -0.69053010295E+03  0.71949864152E+03  0.00000000000E+00 0.  1.
       14    1    4    4    0    0  0.66286288540E+02  0.21587227221E+02 -0.37790554141E+03  0.38428176987E+03  0.00000000000E+00 0. -1.
        3    1    5    5  501    0 -0.80017228257E+02 -0.21169697713E+02  0.16921583940E+02  0.84482263950E+02  0.00000000000E+00 0. -1.
       -4    1    5    5    0  501 -0.12454481318E+03 -0.14781592917E+03  0.74601436139E+02  0.20719157821E+03  0.14200000000E+01 0.  1.
</event>
<event>
 9   1  0.7335000E-04  0.9952300E+03  0.7818608E-02  0.9313792E-01
       21   -1    0    0  503  502  0.00000000000E+00  0.00000000000E+00  0.21091740114E+03  0.21091740114E+03  0.00000000000E+00 0. -1.
       21   -1    0    0  502  503 -0.00000000000E+00 -0.00000000000E+00 -0.11740173922E+04  0.11740173922E+04  0.00000000000E+00 0.  1.
       39    2    1    2    0    0  0.11368683772E-12  0.11368683772E-12 -0.96309999108E+03  0.13849347934E+04  0.99523001816E+03 0.  0.
       24    2    3    3    0    0 -0.28891967705E+03 -0.39379031461E+03 -0.41463203481E+03  0.64570030054E+03  0.80397525877E+02 0.  0.
      -24    2    3    3    0    0  0.28891967705E+03  0.39379031461E+03 -0.54846795627E+03  0.73923449281E+03  0.84292020043E+02 0.  0.
      -13    1    4    4    0    0 -0.14296251817E+03 -0.22359738690E+03 -0.17706343821E+03  0.31903845252E+03  0.00000000000E+00 0.  1.
       14    1    4    4    0    0 -0.14595715888E+03 -0.17019292770E+03 -0.23756859659E+03  0.32666184803E+03  0.00000000000E+00 0. -1.
        1    1    5    5  501    0  0.39350177161E+02  0.15865471839E+02 -0.54593586783E+02  0.69141950776E+02  0.00000000000E+00 0. -1.
       -2    1    5    5    0  501  0.24956949989E+03  0.37792484277E+03 -0.49387436949E+03  0.67009254204E+03  0.00000000000E+00 0.  1.
</event>
<event>
 9   1  0.7335000E-04  0.1009341E+04  0.7818608E-02  0.9298359E-01
       21   -1    0    0  503  502  0.00000000000E+00  0.00000000000E+00  0.56020219890E+03  0.56020219890E+03  0.00000000000E+00 0. -1.
       21   -1    0    0  502  503 -0.00000000000E+00 -0.00000000000E+00 -0.45464315331E+03  0.45464315331E+03  0.00000000000E+00 0.  1.
       39    2    1    2    0    0  0.00000000000E+00  0.00000000000E+00  0.10555904559E+03  0.10148453522E+04  0.10093405653E+04 0.  0.
       24    2    3    3    0    0  0.22735737275E+03  0.30493980755E+03 -0.27121942852E+03  0.47413659440E+03  0.81030059654E+02 0.  0.
      -24    2    3    3    0    0 -0.22735737275E+03 -0.30493980755E+03  0.37677847412E+03  0.54070875781E+03  0.75658978617E+02 0.  0.
      -13    1    4    4    0    0  0.90940727933E+02  0.17709138326E+03 -0.16850889785E+03  0.26081952127E+03  0.00000000000E+00 0.  1.
       14    1    4    4    0    0  0.13641664482E+03  0.12784842430E+03 -0.10271053067E+03  0.21331707313E+03  0.00000000000E+00 0. -1.
        1    1    5    5  501    0 -0.94108289926E+02 -0.18886104804E+03  0.21088645695E+03  0.29832526447E+03  0.00000000000E+00 0. -1.
       -2    1    5    5    0  501 -0.13324908283E+03 -0.11607875951E+03  0.16589201717E+03  0.24238349334E+03  0.00000000000E+00 0.  1.
</event>
<event>
 9   1  0.7335000E-04  0.9938074E+03  0.7818608E-02  0.9315363E-01
       21   -1    0    0  503  502  0.00000000000E+00  0.00000000000E+00  0.43969342489E+03  0.43969342489E+03  0.00000000000E+00 0.  1.
       21   -1    0    0  502  503 -0.00000000000E+00 -0.00000000000E+00 -0.56155787866E+03  0.56155787866E+03  0.00000000000E+00 0. -1.
       39    2    1    2    0    0  0.71054273576E-14  0.00000000000E+00 -0.12186445377E+03  0.10012513036E+04  0.99380743999E+03 0.  0.
       24    2    3    3    0    0 -0.45866418080E+02 -0.15496409647E+03 -0.52738200113E+03  0.55735914757E+03  0.79999029809E+02 0.  0.
      -24    2    3    3    0    0  0.45866418080E+02  0.15496409647E+03  0.40551754736E+03  0.44389215598E+03  0.80487051280E+02 0.  0.
      -13    1    4    4    0    0 -0.19484026596E+01 -0.12950371089E+03 -0.37333946884E+03  0.39516751688E+03  0.00000000000E+00 0.  1.
       14    1    4    4    0    0 -0.43918015420E+02 -0.25460385576E+02 -0.15404253229E+03  0.16219163069E+03  0.00000000000E+00 0. -1.
        3    1    5    5  501    0  0.60095065302E+02  0.67771872579E+02  0.23478158657E+03  0.25164824056E+03  0.00000000000E+00 0. -1.
       -4    1    5    5    0  501 -0.14228647222E+02  0.87192223887E+02  0.17073596079E+03  0.19224391541E+03  0.14200000000E+01 0.  1.
</event>
<event>
 9   1  0.7335000E-04  0.1050012E+04  0.7818608E-02  0.9255331E-01
       -1   -1    0    0    0  501 -0.00000000000E+00  0.00000000000E+00  0.13608575125E+03  0.13608575125E+03  0.00000000000E+00 0. -1.
        1   -1    0    0  501    0  0.00000000000E+00 -0.00000000000E+00 -0.20254246530E+04  0.20254246530E+04  0.00000000000E+00 0.  1.
       39    2    1    2    0    0  0.00000000000E+00  0.00000000000E+00 -0.18893389017E+04  0.21615104042E+04  0.10500122580E+04 0.  0.
       24    2    3    3    0    0  0.67410906761E+02  0.21793963819E+03 -0.19039241756E+04  0.19192639914E+04  0.81271681465E+02 0.  0.
      -24    2    3    3    0    0 -0.67410906761E+02 -0.21793963819E+03  0.14585273846E+02  0.24224641280E+03  0.80179037519E+02 0.  0.
      -13    1    4    4    0    0  0.37430577490E+02  0.20605405211E+03 -0.16888082151E+04  0.17017439608E+04  0.00000000000E+00 0.  1.
       14    1    4    4    0    0  0.29980329271E+02  0.11885586075E+02 -0.21511596045E+03  0.21752003067E+03  0.00000000000E+00 0. -1.
        1    1    5    5  502    0 -0.66093884749E+02 -0.22126805369E+03  0.24001855772E+02  0.23217244080E+03  0.00000000000E+00 0. -1.
       -2    1    5    5    0  502 -0.13170220121E+01  0.33284155033E+01 -0.94165819253E+01  0.10073972002E+02  0.00000000000E+00 0.  1.
</event>
<event>
 9   1  0.7335000E-04  0.9682073E+03  0.7818608E-02  0.9344119E-01
       21   -1    0    0  503  502  0.00000000000E+00  0.00000000000E+00  0.18191120627E+03  0.18191120627E+03  0.00000000000E+00 0.  1.
       21   -1    0    0  502  503 -0.00000000000E+00 -0.00000000000E+00 -0.12883006892E+04  0.12883006892E+04  0.00000000000E+00 0. -1.
       39    2    1    2    0    0 -0.56843418861E-13  0.28421709430E-13 -0.11063894830E+04  0.14702118955E+04  0.96820727618E+03 0.  0.
       24    2    3    3    0    0 -0.28045744015E+03  0.15281909067E+03 -0.14159977936E+02  0.32958552758E+03  0.80100342104E+02 0.  0.
      -24    2    3    3    0    0  0.28045744015E+03 -0.15281909067E+03 -0.10922295050E+04  0.11406263679E+04  0.77802116559E+02 0.  0.
      -13    1    4    4    0    0 -0.27651772228E+03  0.15716055159E+03 -0.42689232580E+01  0.31808758765E+03  0.00000000000E+00 0.  1.
       14    1    4    4    0    0 -0.39397178623E+01 -0.43414609224E+01 -0.98910546783E+01  0.11497939921E+02  0.00000000000E+00 0. -1.
        1    1    5    5  501    0  0.26796571599E+03 -0.16175332773E+03 -0.10285360350E+04  0.10751075013E+04  0.00000000000E+00 0. -1.
       -2    1    5    5    0  501  0.12491724157E+02  0.89342370629E+01 -0.63693469984E+02  0.65518866618E+02  0.00000000000E+00 0.  1.
</event>
<event>
 9   1  0.7335000E-04  0.1000691E+04  0.7818608E-02  0.9307787E-01
       21   -1    0    0  503  502  0.00000000000E+00  0.00000000000E+00  0.55535435383E+03  0.55535435383E+03  0.00000000000E+00 0.  1.
       21   -1    0    0  502  503 -0.00000000000E+00 -0.00000000000E+00 -0.45078546603E+03  0.45078546603E+03  0.00000000000E+00 0. -1.
       39    2    1    2    0    0  0.00000000000E+00  0.17763568394E-14  0.10456888779E+03  0.10061398199E+04  0.10006911036E+04 0.  0.
       24    2    3    3    0    0 -0.98991916507E+02  0.99907023337E+01  0.53879697059E+03  0.55349302581E+03  0.78441955838E+02 0.  0.
      -24    2    3    3    0    0  0.98991916507E+02 -0.99907023337E+01 -0.43422808279E+03  0.45264679405E+03  0.80223927922E+02 0.  0.
      -13    1    4    4    0    0 -0.10500395698E+03  0.26785989213E+02  0.47819316070E+03  0.49031828351E+03  0.00000000000E+00 0.  1.
       14    1    4    4    0    0  0.60120404719E+01 -0.16795286879E+02  0.60603809882E+02  0.63174742297E+02  0.00000000000E+00 0. -1.
        3    1    5    5  501    0  0.11236170014E+03 -0.92353572627E+01 -0.36114339964E+03  0.37833186304E+03  0.00000000000E+00 0. -1.
       -4    1    5    5    0  501 -0.13369783634E+02 -0.75534507105E+00 -0.73084683151E+02  0.74314931016E+02  0.14200000000E+01 0.  1.
</event>
<event>
 9   1  0.7335000E-04  0.9907700E+03  0.7818608E-02  0.9318726E-01
       21   -1    0    0  503  502  0.00000000000E+00  0.00000000000E+00  0.76741555704E+03  0.76741555704E+03  0.00000000000E+00 0. -1.
       21   -1    0    0  502  503 -0.00000000000E+00 -0.00000000000E+00 -0.31978283061E+03  0.31978283061E+03  0.00000000000E+00 0.  1.
       39    2    1    2    0    0  0.17763568394E-14 -0.56843418861E-13  0.44763272643E+03  0.10871983876E+04  0.99077004211E+03 0.  0.
       24    2    3    3    0    0 -0.26146342528E+01  0.37136957709E+03  0.57239624010E+03  0.68722458174E+03  0.81963229355E+02 0.  0.
      -24    2    3    3    0    0  0.26146342528E+01 -0.37136957709E+03 -0.12476351367E+03  0.39997380591E+03  0.80566196169E+02 0.  0.
      -13    1    4    4    0    0  0.18401924944E+02  0.21328592624E+02  0.28425184443E+02  0.40019130620E+02  0.00000000000E+00 0.  1.
       14    1    4    4    0    0 -0.21016559197E+02  0.35004098447E+03  0.54397105566E+03  0.64720545112E+03  0.00000000000E+00 0. -1.
        1    1    5    5  501    0 -0.10563926465E+02 -0.60620629716E+02  0.75032373114E+01  0.61989965799E+02  0.00000000000E+00 0. -1.
       -2    1    5    5    0  501  0.13178560718E+02 -0.31074894738E+03 -0.13226675099E+03  0.33798384011E+03  0.00000000000E+00 0.  1.
</event>
<event>
 9   1  0.7335000E-04  0.1010191E+04  0.7818608E-02  0.9297437E-01
       21   -1    0    0  503  502  0.00000000000E+00  0.00000000000E+00  0.19585558856E+04  0.19585558856E+04  0.00000000000E+00 0.  1.
       21   -1    0    0  502  503 -0.00000000000E+00 -0.00000000000E+00 -0.13026001121E+03  0.13026001121E+03  0.00000000000E+00 0. -1.
       39    2    1    2    0    0  0.00000000000E+00  0.00000000000E+00  0.18282958744E+04  0.20888158968E+04  0.10101910940E+04 0.  0.
       24    2    3    3    0    0 -0.29564002982E+03 -0.27043036810E+03  0.15275081577E+04  0.15812032634E+04  0.79918564335E+02 0.  0.
      -24    2    3    3    0    0  0.29564002982E+03  0.27043036810E+03  0.30078771663E+03  0.50761263341E+03  0.81619384359E+02 0.  0.
      -13    1    4    4    0    0 -0.20133689778E+03 -0.22975872105E+03  0.11133302495E+04  0.11544825078E+04  0.00000000000E+00 0.  1.
       14    1    4    4    0    0 -0.94303132042E+02 -0.40671647046E+02  0.41417790820E+03  0.42672075557E+03  0.00000000000E+00 0. -1.
        1    1    5    5  501    0  0.18375703660E+03  0.12215711104E+03  0.19103419310E+03  0.29186139041E+03  0.00000000000E+00 0. -1.
       -2    1    5    5    0  501  0.11188299322E+03  0.14827325706E+03  0.10975352353E+03  0.21575124300E+03  0.00000000000E+00 0.  1.
</event>
<event>
 9   1  0.7335000E-04  0.1005462E+04  0.7818608E-02  0.9302575E-01
       21   -1    0    0  503  502  0.00000000000E+00  0.00000000000E+00  0.62437062175E+03  0.62437062175E+03  0.00000000000E+00 0.  1.
       21   -1    0    0  502  503 -0.00000000000E+00 -0.00000000000E+00 -0.40478894028E+03  0.40478894028E+03  0.00000000000E+00 0. -1.
       39    2    1    2    0    0  0.00000000000E+00  0.00000000000E+00  0.21958168147E+03  0.10291595620E+04  0.10054617294E+04 0.  0.
       24    2    3    3    0    0  0.20923656080E+03 -0.45002386335E+03  0.10169873622E+03  0.51293181445E+03  0.80342998202E+02 0.  0.
      -24    2    3    3    0    0 -0.20923656080E+03  0.45002386335E+03  0.11788294526E+03  0.51622774759E+03  0.79330212632E+02 0.  0.
      -13    1    4    4    0    0  0.14126274703E+03 -0.20931461060E+03  0.56290964634E+02  0.25872078117E+03  0.00000000000E+00 0.  1.
       14    1    4    4    0    0  0.67973813765E+02 -0.24070925275E+03  0.45407771582E+02  0.25421103327E+03  0.00000000000E+00 0. -1.
        1    1    5    5  501    0 -0.21364686958E+03  0.44066813169E+03  0.10713150553E+03  0.50130883359E+03  0.00000000000E+00 0. -1.
       -2    1    5    5    0  501  0.44103087776E+01  0.93557316698E+01  0.10751439729E+02  0.14918913997E+02  0.00000000000E+00 0.  1.
</event>
<event>
 9   1  0.7335000E-04  0.1003364E+04  0.7818608E-02  0.9304862E-01
       21   -1    0    0  503  502  0.00000000000E+00  0.00000000000E+00  0.62305301696E+03  0.62305301696E+03  0.00000000000E+00 0. -1.
       21   -1    0    0  502  503 -0.00000000000E+00 -0.00000000000E+00 -0.40395445426E+03  0.40395445426E+03  0.00000000000E+00 0.  1.
       39    2    1    2    0    0  0.00000000000E+00  0.00000000000E+00  0.21909856270E+03  0.10270074712E+04  0.10033644232E+04 0.  0.
       24    2    3    3    0    0  0.15094115910E+02  0.12839798876E+03  0.59820790709E+03  0.61842831219E+03  0.88808791059E+02 0.  0.
      -24    2    3    3    0    0 -0.15094115910E+02 -0.12839798876E+03 -0.37910934438E+03  0.40857915903E+03  0.80617357580E+02 0.  0.
      -13    1    4    4    0    0  0.39676526168E+02  0.10523925422E+03  0.53570799113E+03  0.54738704690E+03  0.00000000000E+00 0.  1.
       14    1    4    4    0    0 -0.24582410258E+02  0.23158734534E+02  0.62499915957E+02  0.71041265290E+02  0.00000000000E+00 0. -1.
        1    1    5    5  501    0  0.21954738134E+02 -0.51945265222E+02 -0.81698972395E+02  0.99272570209E+02  0.00000000000E+00 0. -1.
       -2    1    5    5    0  501 -0.37048854045E+02 -0.76452723536E+02 -0.29741037199E+03  0.30930658882E+03  0.00000000000E+00 0.  1.
</event>
<event>
 9   1  0.7335000E-04  0.1001468E+04  0.7818608E-02  0.9306936E-01
       21   -1    0    0  503  502  0.00000000000E+00  0.00000000000E+00  0.56935275380E+03  0.56935275380E+03  0.00000000000E+00 0.  1.
       21   -1    0    0  502  503 -0.00000000000E+00 -0.00000000000E+00 -0.44038559694E+03  0.44038559694E+03  0.00000000000E+00 0. -1.
       39    2    1    2    0    0 -0.56843418861E-13  0.00000000000E+00  0.12896715686E+03  0.10097383507E+04  0.10014684266E+04 0.  0.
       24    2    3    3    0    0 -0.45360513985E+03 -0.86455674353E+02  0.24169581556E+03  0.52724851347E+03  0.79636180057E+02 0.  0.
      -24    2    3    3    0    0  0.45360513985E+03  0.86455674353E+02 -0.11272865870E+03  0.48248983727E+03  0.82803901188E+02 0.  0.
      -13    1    4    4    0    0 -0.43372992418E+03 -0.69656397780E+02  0.21201490732E+03  0.48777451943E+03  0.00000000000E+00 0.  1.
       14    1    4    4    0    0 -0.19875215662E+02 -0.16799276573E+02  0.29680908243E+02  0.39473994035E+02  0.00000000000E+00 0. -1.
        1    1    5    5  501    0  0.44972991734E+02  0.29900663273E+02  0.28395085186E+01  0.54080333378E+02  0.00000000000E+00 0. -1.
       -2    1    5    5    0  501  0.40863214811E+03  0.56555011080E+02 -0.11556816721E+03  0.42840950389E+03  0.00000000000E+00 0.  1.
</event>
<event>
 9   1  0.7335000E-04  0.9930324E+03  0.7818608E-02  0.9316220E-01
       21   -1    0    0  503  502  0.00000000000E+00  0.00000000000E+00  0.30476515755E+03  0.30476515755E+03  0.00000000000E+00 0. -1.
       21   -1    0    0  502  503 -0.00000000000E+00 -0.00000000000E+00 -0.80891243053E+03  0.80891243053E+03  0.00000000000E+00 0.  1.
       39    2    1    2    0    0 -0.56843418861E-13  0.00000000000E+00 -0.50414727297E+03  0.11136775881E+04  0.99303237477E+03 0.  0.
       24    2    3    3    0    0  0.47864994312E+03 -0.79805801430E+02 -0.17705034394E+03  0.52268252658E+03  0.79846510959E+02 0.  0.
      -24    2    3    3    0    0 -0.47864994312E+03  0.79805801430E+02 -0.32709692903E+03  0.59099506149E+03  0.82510773433E+02 0.  0.
      -13    1    4    4    0    0  0.20697979034E+02  0.26819331396E+01  0.73894854128E+01  0.22140541911E+02  0.00000000000E+00 0.  1.
       14    1    4    4    0    0  0.45795196409E+03 -0.82487734570E+02 -0.18443982935E+03  0.50054198467E+03  0.00000000000E+00 0. -1.
        1    1    5    5  501    0 -0.16852639906E+03 -0.18037412189E+01 -0.14430764586E+03  0.22187631085E+03  0.00000000000E+00 0. -1.
       -2    1    5    5    0  501 -0.31012354406E+03  0.81609542649E+02 -0.18278928317E+03  0.36911875064E+03  0.00000000000E+00 0.  1.
</event>
<event>
 9   1  0.7335000E-04  0.1000271E+04  0.7818608E-02  0.9308247E-01
       -2   -1    0    0    0  501 -0.00000000000E+00  0.00000000000E+00  0.25567600948E+03  0.25567600948E+03  0.00000000000E+00 0.  1.
        2   -1    0    0  501    0  0.00000000000E+00 -0.00000000000E+00 -0.97833032268E+03  0.97833032268E+03  0.00000000000E+00 0. -1.
       39    2    1    2    0    0 -0.28421709430E-13  0.00000000000E+00 -0.72265431320E+03  0.12340063322E+04  0.10002711489E+04 0.  0.
       24    2    3    3    0    0 -0.22399321174E+03 -0.43964726774E+03 -0.37604574931E+03  0.62560676449E+03  0.80689152052E+02 0.  0.
      -24    2    3    3    0    0  0.22399321174E+03  0.43964726774E+03 -0.34660856389E+03  0.60839956767E+03  0.80931195677E+02 0.  0.
      -13    1    4    4    0    0 -0.19324342715E+03 -0.38798852950E+03 -0.29342029254E+03  0.52342486494E+03  0.00000000000E+00 0.  1.
       14    1    4    4    0    0 -0.30749784590E+02 -0.51658738241E+02 -0.82625456770E+02  0.10218189955E+03  0.00000000000E+00 0. -1.
        1    1    5    5  502    0  0.21538006802E+03  0.37218080705E+03 -0.27956766866E+03  0.51289882842E+03  0.00000000000E+00 0. -1.
       -2    1    5    5    0  502  0.86131437254E+01  0.67466460699E+02 -0.67040895225E+02  0.95500739247E+02  0.00000000000E+00 0.  1.
</event>
<event>
 9   1  0.7335000E-04  0.1004218E+04  0.7818608E-02  0.9303931E-01
       21   -1    0    0  503  502  0.00000000000E+00  0.00000000000E+00  0.57906021894E+03  0.57906021894E+03  0.00000000000E+00 0. -1.
       21   -1    0    0  502  503 -0.00000000000E+00 -0.00000000000E+00 -0.43538345095E+03  0.43538345095E+03  0.00000000000E+00 0.  1.
       39    2    1    2    0    0 -0.56843418861E-13  0.00000000000E+00  0.14367676799E+03  0.10144436699E+04  0.10042175789E+04 0.  0.
       24    2    3    3    0    0  0.43361140000E+03  0.16306544202E+03 -0.10870494904E+03  0.48267910720E+03  0.80951652175E+02 0.  0.
      -24    2    3    3    0    0 -0.43361140000E+03 -0.16306544202E+03  0.25238171704E+03  0.53176456270E+03  0.66841861541E+02 0.  0.
      -13    1    4    4    0    0  0.34607783814E+03  0.14476783457E+03 -0.11677069899E+03  0.39289055998E+03  0.00000000000E+00 0.  1.
       14    1    4    4    0    0  0.87533561857E+02  0.18297607451E+02  0.80657499426E+01  0.89788547220E+02  0.00000000000E+00 0. -1.
        1    1    5    5  501    0 -0.14327088706E+03 -0.47241894287E+02  0.11793939336E+03  0.19148901838E+03  0.00000000000E+00 0. -1.
       -2    1    5    5    0  501 -0.29034051294E+03 -0.11582354774E+03  0.13444232368E+03  0.34027554431E+03  0.00000000000E+00 0.  1.
</event>
<event>
 9   1  0.7335000E-04  0.9835664E+03  0.7818608E-02  0.9326755E-01
       21   -1    0    0  503  502  0.00000000000E+00  0.00000000000E+00  0.14408947940E+04  0.14408947940E+04  0.00000000000E+00 0.  1.
       21   -1    0    0  502  503 -0.00000000000E+00 -0.00000000000E+00 -0.16784759724E+03  0.16784759724E+03  0.00000000000E+00 0. -1.
       39    2    1    2    0    0  0.56843418861E-13 -0.56843418861E-13  0.12730471968E+04  0.16087423912E+04  0.98356642694E+03 0.  0.
       24    2    3    3    0    0 -0.33388228988E+03  0.33669686260E+03  0.80392006580E+03  0.93680885014E+03  0.80505830392E+02 0.  0.
      -24    2    3    3    0    0  0.33388228988E+03 -0.33669686260E+03  0.46912713095E+03  0.67193354110E+03  0.81069463298E+02 0.  0.
      -13    1    4    4    0    0 -0.27817107978E+03  0.23567676903E+03  0.63577522667E+03  0.73289346288E+03  0.00000000000E+00 0.  1.
       14    1    4    4    0    0 -0.55711210096E+02  0.10102009356E+03  0.16814483913E+03  0.20391538725E+03  0.00000000000E+00 0. -1.
        3    1    5    5  501    0  0.13747408731E+03 -0.18759985677E+03  0.19806572315E+03  0.30548790750E+03  0.00000000000E+00 0. -1.
       -4    1    5    5    0  501  0.19640820257E+03 -0.14909700583E+03  0.27106140780E+03  0.36644563360E+03  0.14200000000E+01 0.  1.
</event>
<event>
 9   1  0.7335000E-04  0.1016132E+04  0.7818608E-02  0.9291026E-01
       21   -1    0    0  503  502  0.00000000000E+00  0.00000000000E+00  0.12637917183E+04  0.12637917183E+04  0.00000000000E+00 0.  1.
       21   -1    0    0  502  503 -0.00000000000E+00 -0.00000000000E+00 -0.20425134335E+03  0.20425134335E+03  0.00000000000E+00 0. -1.
       39    2    1    2    0    0  0.56843418861E-13  0.00000000000E+00  0.10595403750E+04  0.14680430617E+04  0.10161321886E+04 0.  0.
       24    2    3    3    0    0 -0.45667443419E+03  0.51428523688E+02  0.82076066190E+03  0.94411474123E+03  0.80673097018E+02 0.  0.
      -24    2    3    3    0    0  0.45667443419E+03 -0.51428523688E+02  0.23877971310E+03  0.52392832046E+03  0.79301334805E+02 0.  0.
      -13    1    4    4    0    0 -0.27187712322E+03  0.35373861123E+02  0.56677328603E+03  0.62960339733E+03  0.00000000000E+00 0.  1.
       14    1    4    4    0    0 -0.18479731098E+03  0.16054662565E+02  0.25398737588E+03  0.31451134390E+03  0.00000000000E+00 0. -1.
        1    1    5    5  501    0  0.11614150212E+03 -0.31733905035E+02  0.30273315533E+02  0.12414653791E+03  0.00000000000E+00 0. -1.
       -2    1    5    5    0  501  0.34053293208E+03 -0.19694618653E+02  0.20850639757E+03  0.39978178255E+03  0.00000000000E+00 0.  1.
</event>
<event>
 9   1  0.7335000E-04  0.1003569E+04  0.7818608E-02  0.9304639E-01
       21   -1    0    0  503  502  0.00000000000E+00  0.00000000000E+00  0.62787223017E+03  0.62787223017E+03  0.00000000000E+00 0.  1.
       21   -1    0    0  502  503 -0.00000000000E+00 -0.00000000000E+00 -0.40101766318E+03  0.40101766318E+03  0.00000000000E+00 0. -1.
       39    2    1    2    0    0  0.14210854715E-13  0.00000000000E+00  0.22685456699E+03  0.10288898934E+04  0.10035693390E+04 0.  0.
       24    2    3    3    0    0 -0.53067117500E+02  0.28810890502E+03 -0.29610517188E+03  0.42425710192E+03  0.80578878143E+02 0.  0.
      -24    2    3    3    0    0  0.53067117500E+02 -0.28810890502E+03  0.52295973887E+03  0.60463279144E+03  0.79190049227E+02 0.  0.
      -13    1    4    4    0    0 -0.54011544840E+01  0.35208430874E+02 -0.82300041241E+02  0.89677772400E+02  0.00000000000E+00 0.  1.
       14    1    4    4    0    0 -0.47665963016E+02  0.25290047414E+03 -0.21380513064E+03  0.33457932952E+03  0.00000000000E+00 0. -1.
        1    1    5    5  501    0  0.56597558759E+02 -0.10073421680E+03  0.18253197045E+03  0.21602913305E+03  0.00000000000E+00 0. -1.
       -2    1    5    5    0  501 -0.35304412589E+01 -0.18737468822E+03  0.34042776842E+03  0.38860365839E+03  0.00000000000E+00 0.  1.
</event>
<event>
 9   1  0.7335000E-04  0.9676489E+03  0.7818608E-02  0.9344756E-01
       21   -1    0    0  503  502  0.00000000000E+00  0.00000000000E+00  0.35544145511E+03  0.35544145511E+03  0.00000000000E+00 0.  1.
       21   -1    0    0  502  503 -0.00000000000E+00 -0.00000000000E+00 -0.65857845560E+03  0.65857845560E+03  0.00000000000E+00 0. -1.
       39    2    1    2    0    0  0.14210854715E-13  0.00000000000E+00 -0.30313700049E+03  0.10140199107E+04  0.96764887136E+03 0.  0.
       24    2    3    3    0    0  0.87335178444E+02 -0.43838857774E+03  0.22056731744E+02  0.45532123746E+03  0.83779182250E+02 0.  0.
      -24    2    3    3    0    0 -0.87335178444E+02  0.43838857774E+03 -0.32519373223E+03  0.55869867325E+03  0.81124999356E+02 0.  0.
      -13    1    4    4    0    0  0.47827783564E+02 -0.25865679484E+03  0.54052536713E+02  0.26853772756E+03  0.00000000000E+00 0.  1.
       14    1    4    4    0    0  0.39507394880E+02 -0.17973178290E+03 -0.31995804969E+02  0.18678350990E+03  0.00000000000E+00 0. -1.
        3    1    5    5  501    0 -0.74116756860E+02  0.42951069291E+03 -0.30096864359E+03  0.52967428991E+03  0.00000000000E+00 0. -1.
       -4    1    5    5    0  501 -0.13218421584E+02  0.88778848298E+01 -0.24225088644E+02  0.29024383336E+02  0.14200000000E+01 0.  1.
</event>
<event>
 9   1  0.7335000E-04  0.9994450E+03  0.7818608E-02  0.9309154E-01
       21   -1    0    0  503  502  0.00000000000E+00  0.00000000000E+00  0.69312385578E+03  0.69312385578E+03  0.00000000000E+00 0. -1.
       21   -1    0    0  502  503 -0.00000000000E+00 -0.00000000000E+00 -0.36028566277E+03  0.36028566277E+03  0.00000000000E+00 0.  1.
       39    2    1    2    0    0  0.00000000000E+00  0.00000000000E+00  0.33283819300E+03  0.10534095185E+04  0.99944502152E+03 0.  0.
       24    2    3    3    0    0 -0.27738110786E+03 -0.25810650157E+03  0.49955503718E+03  0.63181417722E+03  0.77940196411E+02 0.  0.
      -24    2    3    3    0    0  0.27738110786E+03  0.25810650157E+03 -0.16671684418E+03  0.42159534132E+03  0.79930473165E+02 0.  0.
      -13    1    4    4    0    0 -0.82477800249E+02 -0.12869488505E+03  0.20013488678E+03  0.25183116145E+03  0.00000000000E+00 0.  1.
       14    1    4    4    0    0 -0.19490330762E+03 -0.12941161652E+03  0.29942015040E+03  0.37998301578E+03  0.00000000000E+00 0. -1.
        3    1    5    5  501    0 -0.35378259955E+01  0.60048249701E+01  0.31861706893E+01  0.76632773248E+01  0.00000000000E+00 0. -1.
       -4    1    5    5    0  501  0.28091893386E+03  0.25210167660E+03 -0.16990301487E+03  0.41393206400E+03  0.14200000000E+01 0.  1.
</event>
<event>
 9   1  0.7335000E-04  0.1003019E+04  0.7818608E-02  0.9305240E-01
       21   -1    0    0  503  502  0.00000000000E+00  0.00000000000E+00  0.81343557561E+03  0.81343557561E+03  0.00000000000E+00 0.  1.
       21   -1    0    0  502  503 -0.00000000000E+00 -0.00000000000E+00 -0.30919674081E+03  0.30919674081E+03  0.00000000000E+00 0. -1.
       39    2    1    2    0    0 -0.28421709430E-13  0.00000000000E+00  0.50423883480E+03  0.11226323164E+04  0.10030187014E+04 0.  0.
       24    2    3    3    0    0 -0.23988407461E+03 -0.27361370060E+03 -0.12343007583E+03  0.39254925033E+03  0.80318764366E+02 0.  0.
      -24    2    3    3    0    0  0.23988407461E+03  0.27361370060E+03  0.62766891062E+03  0.73008306609E+03  0.81511935444E+02 0.  0.
      -13    1    4    4    0    0 -0.96668597580E+01 -0.40440925790E+02 -0.31679428137E+02  0.52273347161E+02  0.00000000000E+00 0.  1.
       14    1    4    4    0    0 -0.23021721485E+03 -0.23317277481E+03 -0.91750647689E+02  0.34027590317E+03  0.00000000000E+00 0. -1.
        1    1    5    5  501    0  0.36155846505E+02  0.13664944512E+02  0.37889172328E+02  0.54125459118E+02  0.00000000000E+00 0. -1.
       -2    1    5    5    0  501  0.20372822810E+03  0.25994875609E+03  0.58977973829E+03  0.67595760697E+03  0.00000000000E+00 0.  1.
</event>
<event>
 9   1  0.7335000E-04  0.1006611E+04  0.7818608E-02  0.9301323E-01
       21   -1    0    0  503  502  0.00000000000E+00  0.00000000000E+00  0.10110052633E+04  0.10110052633E+04  0.00000000000E+00 0. -1.
       21   -1    0    0  502  503 -0.00000000000E+00 -0.00000000000E+00 -0.25055910526E+03  0.25055910526E+03  0.00000000000E+00 0.  1.
       39    2    1    2    0    0  0.00000000000E+00 -0.14210854715E-13  0.76044615807E+03  0.12615643686E+04  0.10066112938E+04 0.  0.
       24    2    3    3    0    0  0.39296879742E+03  0.64463921088E+02  0.66145534463E+01  0.40615113275E+03  0.79592194626E+02 0.  0.
      -24    2    3    3    0    0 -0.39296879742E+03 -0.64463921088E+02  0.75383160462E+03  0.85541323585E+03  0.69925982793E+02 0.  0.
      -13    1    4    4    0    0  0.34545820992E+03  0.42587804455E+02 -0.17588995337E+02  0.34851752989E+03  0.00000000000E+00 0.  1.
       14    1    4    4    0    0  0.47510587505E+02  0.21876116633E+02  0.24203548784E+02  0.57633602852E+02  0.00000000000E+00 0. -1.
        1    1    5    5  501    0 -0.38099683944E+03 -0.72544462682E+02  0.73967418154E+03  0.83518811388E+03  0.00000000000E+00 0. -1.
       -2    1    5    5    0  501 -0.11971957978E+02  0.80805415942E+01  0.14157423083E+02  0.20225121968E+02  0.00000000000E+00 0.  1.
</event>
<event>
 9   1  0.7335000E-04  0.9988907E+03  0.7818608E-02  0.9309762E-01
       21   -1    0    0  503  502  0.00000000000E+00  0.00000000000E+00  0.48437160480E+03  0.48437160480E+03  0.00000000000E+00 0. -1.
       21   -1    0    0  502  503 -0.00000000000E+00 -0.00000000000E+00 -0.51498817226E+03  0.51498817226E+03  0.00000000000E+00 0.  1.
       39    2    1    2    0    0  0.00000000000E+00  0.00000000000E+00 -0.30616567459E+02  0.99935977706E+03  0.99889067961E+03 0.  0.
       24    2    3    3    0    0 -0.11915218765E+03  0.24272926988E+03  0.39714348484E+03  0.48702002342E+03  0.79691990657E+02 0.  0.
      -24    2    3    3    0    0  0.11915218765E+03 -0.24272926988E+03 -0.42776005230E+03  0.51233975364E+03  0.79991365402E+02 0.  0.
      -13    1    4    4    0    0 -0.26607371517E+02  0.12045587798E+02  0.20225938950E+02  0.35526567676E+02  0.00000000000E+00 0.  1.
       14    1    4    4    0    0 -0.92544816135E+02  0.23068368209E+03  0.37691754589E+03  0.45149345574E+03  0.00000000000E+00 0. -1.
        1    1    5    5  501    0  0.99910007644E+02 -0.12435610587E+03 -0.27757193812E+03  0.32014470404E+03  0.00000000000E+00 0. -1.
       -2    1    5    5    0  501  0.19242180008E+02 -0.11837316401E+03 -0.15018811418E+03  0.19219504960E+03  0.00000000000E+00 0.  1.
</event>
<event>
 9   1  0.7335000E-04  0.9971426E+03  0.7818608E-02  0.9311684E-01
       21   -1    0    0  503  502  0.00000000000E+00  0.00000000000E+00  0.29903318151E+03  0.29903318151E+03  0.00000000000E+00 0. -1.
       21   -1    0    0  502  503 -0.00000000000E+00 -0.00000000000E+00 -0.83125663849E+03  0.83125663849E+03  0.00000000000E+00 0.  1.
       39    2    1    2    0    0  0.71054273576E-14 -0.56843418861E-13 -0.53222345698E+03  0.11302898200E+04  0.99714255202E+03 0.  0.
       24    2    3    3    0    0 -0.11656057215E+02 -0.34826412589E+03 -0.65873806351E+03  0.74955368864E+03  0.80443338953E+02 0.  0.
      -24    2    3    3    0    0  0.11656057215E+02  0.34826412589E+03  0.12651460653E+03  0.38073613137E+03  0.86777249385E+02 0.  0.
      -13    1    4    4    0    0 -0.50237167446E+01 -0.24133293810E+03 -0.52773596119E+03  0.58032066091E+03  0.00000000000E+00 0.  1.
       14    1    4    4    0    0 -0.66323404703E+01 -0.10693118780E+03 -0.13100210232E+03  0.16923302773E+03  0.00000000000E+00 0. -1.
        1    1    5    5  501    0 -0.21286111839E+02  0.26534785534E+03  0.11776971341E+03  0.29108811087E+03  0.00000000000E+00 0. -1.
       -2    1    5    5    0  501  0.32942169054E+02  0.82916270547E+02  0.87448931174E+01  0.89648020497E+02  0.00000000000E+00 0.  1.
</event>
<event>
 9   1  0.7335000E-04  0.1000752E+04  0.7818608E-02  0.9307721E-01
       21   -1    0    0  503  502  0.00000000000E+00  0.00000000000E+00  0.34685407561E+03  0.34685407561E+03  0.00000000000E+00 0. -1.
       21   -1    0    0  502  503 -0.00000000000E+00 -0.00000000000E+00 -0.72184823907E+03  0.72184823907E+03  0.00000000000E+00 0.  1.
       39    2    1    2    0    0  0.00000000000E+00  0.14210854715E-13 -0.37499416346E+03  0.10687023147E+04  0.10007517248E+04 0.  0.
       24    2    3    3    0    0 -0.36380577678E+03 -0.57531992617E+02 -0.53887533147E+03  0.65763319691E+03  0.80188686303E+02 0.  0.
      -24    2    3    3    0    0  0.36380577678E+03  0.57531992617E+02  0.16388116802E+03  0.41106911777E+03  0.80350538028E+02 0.  0.
      -13    1    4    4    0    0 -0.27568542937E+03 -0.38032238906E+02 -0.46069773967E+03  0.53822979712E+03  0.00000000000E+00 0.  1.
       14    1    4    4    0    0 -0.88120347405E+02 -0.19499753712E+02 -0.78177591802E+02  0.11940339979E+03  0.00000000000E+00 0. -1.
        3    1    5    5  501    0  0.31739738765E+03  0.67342193394E+02  0.16412965288E+03  0.36361327761E+03  0.00000000000E+00 0. -1.
       -4    1    5    5    0  501  0.46408389129E+02 -0.98102007769E+01 -0.24848486187E+00  0.47455840163E+02  0.14200000000E+01 0.  1.
</event>
<event>
 9   1  0.7335000E-04  0.9954488E+03  0.7818608E-02  0.9313551E-01
       21   -1    0    0  503  502  0.00000000000E+00  0.00000000000E+00  0.72884559162E+03  0.72884559162E+03  0.00000000000E+00 0. -1.
       21   -1    0    0  502  503 -0.00000000000E+00 -0.00000000000E+00 -0.33989305812E+03  0.33989305812E+03  0.00000000000E+00 0.  1.
       39    2    1    2    0    0  0.28421709430E-13  0.00000000000E+00  0.38895253349E+03  0.10687386497E+04  0.99544875716E+03 0.  0.
       24    2    3    3    0    0 -0.13661718726E+03  0.14307711217E+03 -0.28816524660E+03  0.35866735364E+03  0.80422293790E+02 0.  0.
      -24    2    3    3    0    0  0.13661718726E+03 -0.14307711217E+03  0.67711778009E+03  0.71007129609E+03  0.81101427461E+02 0.  0.
      -13    1    4    4    0    0 -0.12140607643E+03  0.10283149166E+03 -0.26678122714E+03  0.31062191524E+03  0.00000000000E+00 0.  1.
       14    1    4    4    0    0 -0.15211110824E+02  0.40245620516E+02 -0.21384019460E+02  0.48045438404E+02  0.00000000000E+00 0. -1.
        3    1    5    5  501    0  0.73108828792E+02 -0.47038658483E+02  0.41127696651E+03  0.42036446022E+03  0.00000000000E+00 0. -1.
       -4    1    5    5    0  501  0.63508358463E+02 -0.96038453692E+02  0.26584081359E+03  0.28970683587E+03  0.14200000000E+01 0.  1.
</event>
<event>
 9   1  0.7335000E-04  0.1048008E+04  0.7818608E-02  0.9257403E-01
       21   -1    0    0  503  502  0.00000000000E+00  0.00000000000E+00  0.51099915662E+03  0.51099915662E+03  0.00000000000E+00 0. -1.
       21   -1    0    0  502  503 -0.00000000000E+00 -0.00000000000E+00 -0.53733976407E+03  0.53733976407E+03  0.00000000000E+00 0.  1.
       39    2    1    2    0    0  0.00000000000E+00  0.00000000000E+00 -0.26340607449E+02  0.10483389207E+04  0.10480079508E+04 0.  0.
       24    2    3    3    0    0 -0.51378052108E+02 -0.32052445891E+03 -0.41684195748E+03  0.53430216520E+03  0.79661491470E+02 0.  0.
      -24    2    3    3    0    0  0.51378052108E+02  0.32052445891E+03  0.39050135003E+03  0.51403675548E+03  0.79792534789E+02 0.  0.
      -13    1    4    4    0    0 -0.84050182926E+01 -0.19538338106E+03 -0.29807781349E+03  0.35650482860E+03  0.00000000000E+00 0.  1.
       14    1    4    4    0    0 -0.42973033815E+02 -0.12514107786E+03 -0.11876414399E+03  0.17779733660E+03  0.00000000000E+00 0. -1.
        1    1    5    5  501    0  0.48683833189E+02  0.20017531865E+03  0.19042947151E+03  0.28054172137E+03  0.00000000000E+00 0. -1.
       -2    1    5    5    0  501  0.26942189190E+01  0.12034914026E+03  0.20007187852E+03  0.23349503411E+03  0.00000000000E+00 0.  1.
</event>
<event>
 9   1  0.7335000E-04  0.1004674E+04  0.7818608E-02  0.9303434E-01
       21   -1    0    0  503  502  0.00000000000E+00  0.00000000000E+00  0.64650920939E+03  0.64650920939E+03  0.00000000000E+00 0. -1.
       21   -1    0    0  502  503 -0.00000000000E+00 -0.00000000000E+00 -0.39031502210E+03  0.39031502210E+03  0.00000000000E+00 0.  1.
       39    2    1    2    0    0  0.00000000000E+00  0.00000000000E+00  0.25619418729E+03  0.10368242315E+04  0.10046735915E+04 0.  0.
       24    2    3    3    0    0  0.23639025957E+03  0.23536448721E+03 -0.25058815603E+03  0.42472085324E+03  0.79476931117E+02 0.  0.
      -24    2    3    3    0    0 -0.23639025957E+03 -0.23536448721E+03  0.50678234332E+03  0.61210337824E+03  0.81027189857E+02 0.  0.
      -13    1    4    4    0    0  0.20320620044E+03  0.21719103747E+03 -0.18887399335E+03  0.35233236016E+03  0.00000000000E+00 0.  1.
       14    1    4    4    0    0  0.33184059132E+02  0.18173449743E+02 -0.61714162674E+02  0.72388493081E+02  0.00000000000E+00 0. -1.
        1    1    5    5  501    0 -0.23287106039E+03 -0.23782191831E+03  0.50827232670E+03  0.60755983547E+03  0.00000000000E+00 0. -1.
       -2    1    5    5    0  501 -0.35191991787E+01  0.24574310969E+01 -0.14899833745E+01  0.45435427710E+01  0.00000000000E+00 0.  1.
</event>
<event>
 9   1  0.7335000E-04  0.9913254E+03  0.7818608E-02  0.9318110E-01
        2   -1    0    0  501    0  0.00000000000E+00  0.00000000000E+00  0.24011685914E+04  0.24011685914E+04  0.00000000000E+00 0. -1.
       -2   -1    0    0    0  501 -0.00000000000E+00 -0.00000000000E+00 -0.10231748624E+03  0.10231748624E+03  0.00000000000E+00 0.  1.
       39    2    1    2    0    0 -0.28421709430E-13  0.56843418861E-13  0.22988511052E+04  0.25034860777E+04  0.99132544469E+03 0.  0.
       24    2    3    3    0    0 -0.19753548013E+03  0.29854025819E+03  0.30642968580E+03  0.47755978276E+03  0.77573462606E+02 0.  0.
      -24    2    3    3    0    0  0.19753548013E+03 -0.29854025819E+03  0.19924214194E+04  0.20259262949E+04  0.80546187461E+02 0.  0.
      -13    1    4    4    0    0 -0.14202069839E+03  0.24081493328E+03  0.27305777272E+03  0.39079695253E+03  0.00000000000E+00 0.  1.
       14    1    4    4    0    0 -0.55514781736E+02  0.57725324911E+02  0.33371913078E+02  0.86762830231E+02  0.00000000000E+00 0. -1.
        1    1    5    5  502    0  0.15633525154E+03 -0.26674236418E+03  0.18103867391E+04  0.18365980358E+04  0.00000000000E+00 0. -1.
       -2    1    5    5    0  502  0.41200228584E+02 -0.31797894017E+02  0.18203468026E+03  0.18932825916E+03  0.00000000000E+00 0.  1.
</event>
<event>
 9   1  0.7335000E-04  0.9948991E+03  0.7818608E-02  0.9314157E-01
        1   -1    0    0  501    0  0.00000000000E+00  0.00000000000E+00  0.13806479097E+03  0.13806479097E+03  0.00000000000E+00 0. -1.
       -1   -1    0    0    0  501 -0.00000000000E+00 -0.00000000000E+00 -0.17923182910E+04  0.17923182910E+04  0.00000000000E+00 0.  1.
       39    2    1    2    0    0  0.00000000000E+00  0.00000000000E+00 -0.16542535000E+04  0.19303830819E+04  0.99489909075E+03 0.  0.
       24    2    3    3    0    0  0.55445556467E+02  0.27292552284E+03 -0.42745541604E+02  0.29304483422E+03  0.80532867743E+02 0.  0.
      -24    2    3    3    0    0 -0.55445556467E+02 -0.27292552284E+03 -0.16115079584E+04  0.16373382477E+04  0.79725069547E+02 0.  0.
      -13    1    4    4    0    0  0.69603883856E+02  0.18931876857E+03 -0.94013358966E+01  0.20192741740E+03  0.00000000000E+00 0.  1.
       14    1    4    4    0    0 -0.14158327389E+02  0.83606754270E+02 -0.33344205707E+02  0.91117416822E+02  0.00000000000E+00 0. -1.
        3    1    5    5  502    0 -0.29508360521E+02 -0.82464676383E+02 -0.32697880849E+03  0.33850599314E+03  0.00000000000E+00 0. -1.
       -4    1    5    5    0  502 -0.25937195946E+02 -0.19046084646E+03 -0.12845291499E+04  0.12988322546E+04  0.14200000000E+01 0.  1.
</event>
<event>
 9   1  0.7335000E-04  0.1148518E+04  0.7818608E-02  0.9159152E-01
       21   -1    0    0  503  502  0.00000000000E+00  0.00000000000E+00  0.18670289768E+04  0.18670289768E+04  0.00000000000E+00 0.  1.
       21   -1    0    0  502  503 -0.00000000000E+00 -0.00000000000E+00 -0.17663000196E+03  0.17663000196E+03  0.00000000000E+00 0. -1.
       39    2    1    2    0    0  0.56843418861E-13 -0.14210854715E-13  0.16903989748E+04  0.20436589788E+04  0.11485178829E+04 0.  0.
       24    2    3    3    0    0  0.35291654125E+03 -0.10966438764E+03  0.16083048518E+04  0.16521632340E+04  0.80140455787E+02 0.  0.
      -24    2    3    3    0    0 -0.35291654125E+03  0.10966438764E+03  0.82094123060E+02  0.39149574472E+03  0.99765274985E+02 0.  0.
      -13    1    4    4    0    0  0.22244950621E+03 -0.39638206356E+02  0.10870575230E+04  0.11102923167E+04  0.00000000000E+00 0.  1.
       14    1    4    4    0    0  0.13046703504E+03 -0.70026181283E+02  0.52124732875E+03  0.54187091731E+03  0.00000000000E+00 0. -1.
        3    1    5    5  501    0 -0.16974761735E+03  0.77163229628E+02 -0.39971182549E+01  0.18650574940E+03  0.00000000000E+00 0. -1.
       -4    1    5    5    0  501 -0.18316892389E+03  0.32501158011E+02  0.86091241315E+02  0.20498999533E+03  0.14200000000E+01 0.  1.
</event>
<event>
 9   1  0.7335000E-04  0.9994825E+03  0.7818608E-02  0.9309113E-01
       21   -1    0    0  503  502  0.00000000000E+00  0.00000000000E+00  0.33267569806E+03  0.33267569806E+03  0.00000000000E+00 0. -1.
       21   -1    0    0  502  503 -0.00000000000E+00 -0.00000000000E+00 -0.75070509266E+03  0.75070509266E+03  0.00000000000E+00 0.  1.
       39    2    1    2    0    0  0.00000000000E+00  0.28421709430E-13 -0.41802939460E+03  0.10833807907E+04  0.99948254759E+03 0.  0.
       24    2    3    3    0    0 -0.18227749925E+01 -0.25156769997E+03 -0.66989057858E+03  0.71965869224E+03  0.76587308848E+02 0.  0.
      -24    2    3    3    0    0  0.18227749925E+01  0.25156769997E+03  0.25186118398E+03  0.36372209847E+03  0.74632960156E+02 0.  0.
      -13    1    4    4    0    0  0.31834345224E+02 -0.19051297569E+03 -0.50096583096E+03  0.53691282648E+03  0.00000000000E+00 0.  1.
       14    1    4    4    0    0 -0.33657120216E+02 -0.61054724281E+02 -0.16892474762E+03  0.18274586577E+03  0.00000000000E+00 0. -1.
        3    1    5    5  501    0 -0.16889350897E+02  0.23936591391E+03  0.22803347587E+03  0.33102954103E+03  0.00000000000E+00 0. -1.
       -4    1    5    5    0  501  0.18712125889E+02  0.12201786065E+02  0.23827708111E+02  0.32692557445E+02  0.14200000000E+01 0.  1.
</event>
<event>
 9   1  0.7335000E-04  0.1007684E+04  0.7818608E-02  0.9300158E-01
       21   -1    0    0  503  502  0.00000000000E+00  0.00000000000E+00  0.93567826606E+03  0.93567826606E+03  0.00000000000E+00 0. -1.
       21   -1    0    0  502  503 -0.00000000000E+00 -0.00000000000E+00 -0.27130750763E+03  0.27130750763E+03  0.00000000000E+00 0.  1.
       39    2    1    2    0    0  0.00000000000E+00 -0.71054273576E-14  0.66437075843E+03  0.12069857737E+04  0.10076835581E+04 0.  0.
       24    2    3    3    0    0 -0.26562926860E+03 -0.13694189700E+02  0.83540814200E+03  0.88038735738E+03  0.80179150334E+02 0.  0.
      -24    2    3    3    0    0  0.26562926860E+03  0.13694189700E+02 -0.17103738356E+03  0.32659841631E+03  0.81647411422E+02 0.  0.
      -13    1    4    4    0    0 -0.10618255644E+03 -0.38186916345E+02  0.27577240316E+03  0.29796542453E+03  0.00000000000E+00 0.  1.
       14    1    4    4    0    0 -0.15944671217E+03  0.24492726645E+02  0.55963573883E+03  0.58242193284E+03  0.00000000000E+00 0. -1.
        3    1    5    5  501    0  0.76422196229E+02  0.41500380783E+02 -0.51505803026E+02  0.10107166481E+03  0.00000000000E+00 0. -1.
       -4    1    5    5    0  501  0.18920707237E+03 -0.27806191084E+02 -0.11953158053E+03  0.22552675150E+03  0.14200000000E+01 0.  1.
</event>
<event>
 9   1  0.7335000E-04  0.1013894E+04  0.7818608E-02  0.9293436E-01
       21   -1    0    0  503  502  0.00000000000E+00  0.00000000000E+00  0.60740518173E+03  0.60740518173E+03  0.00000000000E+00 0.  1.
       21   -1    0    0  502  503 -0.00000000000E+00 -0.00000000000E+00 -0.42310336982E+03  0.42310336982E+03  0.00000000000E+00 0. -1.
       39    2    1    2    0    0  0.00000000000E+00  0.14210854715E-13  0.18430181190E+03  0.10305085515E+04  0.10138938391E+04 0.  0.
       24    2    3    3    0    0 -0.31457449923E+03 -0.36448262110E+02 -0.30237821468E+03  0.44524029639E+03  0.80751132758E+02 0.  0.
      -24    2    3    3    0    0  0.31457449923E+03  0.36448262110E+02  0.48668002658E+03  0.58526825516E+03  0.73456727711E+02 0.  0.
      -13    1    4    4    0    0 -0.24888488006E+03 -0.48143826661E+01 -0.26397270308E+03  0.36283391486E+03  0.00000000000E+00 0.  1.
       14    1    4    4    0    0 -0.65689619175E+02 -0.31633879444E+02 -0.38405511596E+02  0.82406381530E+02  0.00000000000E+00 0. -1.
        3    1    5    5  501    0  0.21642040667E+03  0.43051793967E+02  0.38519030564E+03  0.44391758351E+03  0.00000000000E+00 0. -1.
       -4    1    5    5    0  501  0.98154092564E+02 -0.66035318577E+01  0.10148972094E+03  0.14135067165E+03  0.14200000000E+01 0.  1.
</event>
<event>
 9   1  0.7335000E-04  0.9847940E+03  0.7818608E-02  0.9325382E-01
       21   -1    0    0  503  502  0.00000000000E+00  0.00000000000E+00  0.54648994942E+03  0.54648994942E+03  0.00000000000E+00 0.  1.
       21   -1    0    0  502  503 -0.00000000000E+00 -0.00000000000E+00 -0.44365828025E+03  0.44365828025E+03  0.00000000000E+00 0. -1.
       39    2    1    2    0    0 -0.28421709430E-13  0.28421709430E-13  0.10283166916E+03  0.99014822967E+03  0.98479397060E+03 0.  0.
       24    2    3    3    0    0  0.25159364842E+03 -0.23698662257E+03  0.39484054303E+03  0.53098874250E+03  0.81166292436E+02 0.  0.
      -24    2    3    3    0    0 -0.25159364842E+03  0.23698662257E+03 -0.29200887387E+03  0.45915948717E+03  0.78078351907E+02 0.  0.
      -13    1    4    4    0    0  0.21905599280E+03 -0.23595706982E+03  0.36640798383E+03  0.48776641684E+03  0.00000000000E+00 0.  1.
       14    1    4    4    0    0  0.32537655622E+02 -0.10295527513E+01  0.28432559198E+02  0.43222325653E+02  0.00000000000E+00 0. -1.
        1    1    5    5  501    0 -0.16186681395E+03  0.16951141751E+03 -0.15056411932E+03  0.27857591452E+03  0.00000000000E+00 0. -1.
       -2    1    5    5    0  501 -0.89726834479E+02  0.67475205066E+02 -0.14144475454E+03  0.18058357265E+03  0.00000000000E+00 0.  1.
</event>
<event>
 9   1  0.7335000E-04  0.1014634E+04  0.7818608E-02  0.9292638E-01
       21   -1    0    0  503  502  0.00000000000E+00  0.00000000000E+00  0.24371012413E+03  0.24371012413E+03  0.00000000000E+00 0. -1.
       21   -1    0    0  502  503 -0.00000000000E+00 -0.00000000000E+00 -0.10560529350E+04  0.10560529350E+04  0.00000000000E+00 0.  1.
       39    2    1    2    0    0  0.00000000000E+00 -0.56843418861E-13 -0.81234281091E+03  0.12997630592E+04  0.10146344995E+04 0.  0.
       24    2    3    3    0    0  0.75578101417E+02 -0.44333496868E+03 -0.12315434118E+03  0.47291979550E+03  0.78918929026E+02 0.  0.
      -24    2    3    3    0    0 -0.75578101417E+02  0.44333496868E+03 -0.68918846972E+03  0.82684326366E+03  0.80194089572E+02 0.  0.
      -13    1    4    4    0    0 -0.74187221150E+01 -0.98178246119E+01  0.50285818771E+01  0.13293372545E+02  0.00000000000E+00 0.  1.
       14    1    4    4    0    0  0.82996823532E+02 -0.43351714406E+03 -0.12818292306E+03  0.45962642295E+03  0.00000000000E+00 0. -1.
        3    1    5    5  501    0 -0.14384287216E+02  0.60057160216E+02 -0.15234557149E+03  0.16438656686E+03  0.00000000000E+00 0. -1.
       -4    1    5    5    0  501 -0.61193814201E+02  0.38327780846E+03 -0.53684289823E+03  0.66245669680E+03  0.14200000000E+01 0.  1.
</event>
<event>
 9   1  0.7335000E-04  0.9910949E+03  0.7818608E-02  0.9318366E-01
       21   -1    0    0  503  502  0.00000000000E+00  0.00000000000E+00  0.21143107139E+03  0.21143107139E+03  0.00000000000E+00 0.  1.
       21   -1    0    0  502  503 -0.00000000000E+00 -0.00000000000E+00 -0.11614530491E+04  0.11614530491E+04  0.00000000000E+00 0. -1.
       39    2    1    2    0    0  0.71054273576E-14  0.00000000000E+00 -0.95002197775E+03  0.13728841205E+04  0.99109487446E+03 0.  0.
       24    2    3    3    0    0  0.35330469282E+02  0.46186340893E+03 -0.69349016035E+03  0.83778611814E+03  0.79943271687E+02 0.  0.
      -24    2    3    3    0    0 -0.35330469282E+02 -0.46186340893E+03 -0.25653181740E+03  0.53509800238E+03  0.77170254950E+02 0.  0.
      -13    1    4    4    0    0  0.32471058220E+02  0.11280021284E+03 -0.13209228183E+03  0.17671057851E+03  0.00000000000E+00 0.  1.
       14    1    4    4    0    0  0.28594110627E+01  0.34906319608E+03 -0.56139787852E+03  0.66107553963E+03  0.00000000000E+00 0. -1.
        3    1    5    5  501    0  0.23515540528E+02 -0.16177873186E+03 -0.98750873096E+02  0.19098972136E+03  0.00000000000E+00 0. -1.
       -4    1    5    5    0  501 -0.58846009811E+02 -0.30008467707E+03 -0.15778094430E+03  0.34410828102E+03  0.14200000000E+01 0.  1.
</event>
<event>
 9   1  0.7335000E-04  0.1000459E+04  0.7818608E-02  0.9308041E-01
       21   -1    0    0  503  502  0.00000000000E+00  0.00000000000E+00  0.15904426659E+04  0.15904426659E+04  0.00000000000E+00 0.  1.
       21   -1    0    0  502  503 -0.00000000000E+00 -0.00000000000E+00 -0.15733330370E+03  0.15733330370E+03  0.00000000000E+00 0. -1.
       39    2    1    2    0    0  0.00000000000E+00  0.00000000000E+00  0.14331093622E+04  0.17477759696E+04  0.10004590926E+04 0.  0.
       24    2    3    3    0    0 -0.18281862394E+03  0.41712980115E+03  0.38372227067E+03  0.60091473386E+03  0.80223538319E+02 0.  0.
      -24    2    3    3    0    0  0.18281862394E+03 -0.41712980115E+03  0.10493870915E+04  0.11468612357E+04  0.81593540817E+02 0.  0.
      -13    1    4    4    0    0 -0.15874275560E+03  0.27807991330E+03  0.28530653157E+03  0.42886771573E+03  0.00000000000E+00 0.  1.
       14    1    4    4    0    0 -0.24075868343E+02  0.13904988785E+03  0.98415739096E+02  0.17204701813E+03  0.00000000000E+00 0. -1.
        1    1    5    5  501    0  0.90061420409E+01 -0.62877591666E+02  0.96791544672E+02  0.11577264465E+03  0.00000000000E+00 0. -1.
       -2    1    5    5    0  501  0.17381248190E+03 -0.35425220948E+03  0.95259554687E+03  0.10310885911E+04  0.00000000000E+00 0.  1.
</event>
<event>
 9   1  0.7335000E-04  0.9946312E+03  0.7818608E-02  0.9314453E-01
       21   -1    0    0  503  502  0.00000000000E+00  0.00000000000E+00  0.33317175607E+03  0.33317175607E+03  0.00000000000E+00 0.  1.
       21   -1    0    0  502  503 -0.00000000000E+00 -0.00000000000E+00 -0.74232830464E+03  0.74232830464E+03  0.00000000000E+00 0. -1.
       39    2    1    2    0    0 -0.14210854715E-13  0.00000000000E+00 -0.40915654857E+03  0.10755000607E+04  0.99463123788E+03 0.  0.
       24    2    3    3    0    0  0.62391992203E+02  0.37039900761E+03 -0.54605981942E+03  0.66831668746E+03  0.85893438748E+02 0.  0.
      -24    2    3    3    0    0 -0.62391992203E+02 -0.37039900761E+03  0.13690327084E+03  0.40718337326E+03  0.77250296844E+02 0.  0.
      -13    1    4    4    0    0  0.56709841195E+02  0.10083969706E+03 -0.16479793969E+03  0.20135295259E+03  0.00000000000E+00 0.  1.
       14    1    4    4    0    0  0.56821510081E+01  0.26955931055E+03 -0.38126187973E+03  0.46696373487E+03  0.00000000000E+00 0. -1.
        3    1    5    5  501    0 -0.80919762024E+01 -0.73073370834E+02 -0.41626953052E+01  0.73637800321E+02  0.00000000000E+00 0. -1.
       -4    1    5    5    0  501 -0.54300016000E+02 -0.29732563678E+03  0.14106596615E+03  0.33354557294E+03  0.14200000000E+01 0.  1.
</event>
<event>
 9   1  0.7335000E-04  0.1005671E+04  0.7818608E-02  0.9302347E-01
       21   -1    0    0  503  502  0.00000000000E+00  0.00000000000E+00  0.12701048939E+04  0.12701048939E+04  0.00000000000E+00 0.  1.
       21   -1    0    0  502  503 -0.00000000000E+00 -0.00000000000E+00 -0.19907278190E+03  0.19907278190E+03  0.00000000000E+00 0. -1.
       39    2    1    2    0    0  0.00000000000E+00  0.00000000000E+00  0.10710321120E+04  0.14691776758E+04  0.10056705515E+04 0.  0.
       24    2    3    3    0    0  0.75514471052E+02  0.10598144396E+03 -0.16443191317E+03  0.22433193270E+03  0.79702322162E+02 0.  0.
      -24    2    3    3    0    0 -0.75514471052E+02 -0.10598144396E+03  0.12354640251E+04  0.12448457431E+04  0.79593120602E+02 0.  0.
      -13    1    4    4    0    0  0.42155333242E+02  0.10779447567E+03 -0.10561116602E+03  0.15668579863E+03  0.00000000000E+00 0.  1.
       14    1    4    4    0    0  0.33359137810E+02 -0.18130317032E+01 -0.58820747144E+02  0.67646134065E+02  0.00000000000E+00 0. -1.
        1    1    5    5  501    0 -0.17371765153E+02 -0.90805682346E+02  0.75056081141E+03  0.75623341754E+03  0.00000000000E+00 0. -1.
       -2    1    5    5    0  501 -0.58142705899E+02 -0.15175761616E+02  0.48490321372E+03  0.48861232553E+03  0.00000000000E+00 0.  1.
</event>
<event>
 9   1  0.7335000E-04  0.1059609E+04  0.7818608E-02  0.9245479E-01
       21   -1    0    0  503  502  0.00000000000E+00  0.00000000000E+00  0.23672349359E+03  0.23672349359E+03  0.00000000000E+00 0.  1.
       21   -1    0    0  502  503 -0.00000000000E+00 -0.00000000000E+00 -0.11857417172E+04  0.11857417172E+04  0.00000000000E+00 0. -1.
       39    2    1    2    0    0  0.00000000000E+00  0.00000000000E+00 -0.94901822357E+03  0.14224652107E+04  0.10596092143E+04 0.  0.
       24    2    3    3    0    0  0.43560173714E+03  0.47897848906E+02 -0.90505786588E+02  0.45515188925E+03  0.83239819530E+02 0.  0.
      -24    2    3    3    0    0 -0.43560173714E+03 -0.47897848906E+02 -0.85851243698E+03  0.96731332149E+03  0.81291943976E+02 0.  0.
      -13    1    4    4    0    0  0.19693201925E+03 -0.13579167696E+01 -0.53711567866E+01  0.19700993242E+03  0.00000000000E+00 0.  1.
       14    1    4    4    0    0  0.23866971788E+03  0.49255765676E+02 -0.85134629801E+02  0.25814195683E+03  0.00000000000E+00 0. -1.
        3    1    5    5  501    0 -0.42659815730E+03 -0.48484189831E+02 -0.79848783516E+03  0.90659777596E+03  0.00000000000E+00 0. -1.
       -4    1    5    5    0  501 -0.90035798380E+01  0.58634092465E+00 -0.60024601814E+02  0.60715545526E+02  0.14200000000E+01 0.  1.
</event>
<event>
 9   1  0.7335000E-04  0.9956540E+03  0.7818608E-02  0.9313324E-01
       21   -1    0    0  503  502  0.00000000000E+00  0.00000000000E+00  0.12867057384E+03  0.12867057384E+03  0.00000000000E+00 0. -1.
       21   -1    0    0  502  503 -0.00000000000E+00 -0.00000000000E+00 -0.19260948663E+04  0.19260948663E+04  0.00000000000E+00 0.  1.
       39    2    1    2    0    0 -0.28421709430E-13 -0.56843418861E-13 -0.17974242924E+04  0.20547654401E+04  0.99565401968E+03 0.  0.
       24    2    3    3    0    0  0.20813518711E+03 -0.36991004711E+03 -0.38852254552E+03  0.58103507714E+03  0.80611993049E+02 0.  0.
      -24    2    3    3    0    0 -0.20813518711E+03  0.36991004711E+03 -0.14089017469E+04  0.14737303630E+04  0.81996044203E+02 0.  0.
      -13    1    4    4    0    0  0.14424450931E+03 -0.23861562007E+03 -0.20275306870E+03  0.34475019866E+03  0.00000000000E+00 0.  1.
       14    1    4    4    0    0  0.63890677804E+02 -0.13129442704E+03 -0.18576947682E+03  0.23628487848E+03  0.00000000000E+00 0. -1.
        1    1    5    5  501    0 -0.65765145264E+02  0.10633974791E+03 -0.55174357217E+03  0.56573329914E+03  0.00000000000E+00 0. -1.
       -2    1    5    5    0  501 -0.14237004185E+03  0.26357029920E+03 -0.85715817475E+03  0.90799706386E+03  0.00000000000E+00 0.  1.
</event>
<event>
 9   1  0.7335000E-04  0.9984261E+03  0.7818608E-02  0.9310273E-01
       21   -1    0    0  503  502  0.00000000000E+00  0.00000000000E+00  0.94315457913E+03  0.94315457913E+03  0.00000000000E+00 0.  1.
       21   -1    0    0  502  503 -0.00000000000E+00 -0.00000000000E+00 -0.26423415111E+03  0.26423415111E+03  0.00000000000E+00 0. -1.
       39    2    1    2    0    0 -0.56843418861E-13  0.00000000000E+00  0.67892042803E+03  0.12073887302E+04  0.99842606052E+03 0.  0.
       24    2    3    3    0    0 -0.31800774723E+03  0.24470842788E+03  0.68495795123E+03  0.79809501006E+03  0.82323193287E+02 0.  0.
      -24    2    3    3    0    0  0.31800774723E+03 -0.24470842788E+03 -0.60375232055E+01  0.40929372018E+03  0.80459652736E+02 0.  0.
      -13    1    4    4    0    0 -0.23430567040E+03  0.13114762881E+03  0.44423681892E+03  0.51908111024E+03  0.00000000000E+00 0.  1.
       14    1    4    4    0    0 -0.83702076827E+02  0.11356079907E+03  0.24072113232E+03  0.27901389982E+03  0.00000000000E+00 0. -1.
        3    1    5    5  501    0  0.30111647536E+03 -0.24777425691E+03  0.27356154830E+01  0.38996243115E+03  0.00000000000E+00 0. -1.
       -4    1    5    5    0  501  0.16891271871E+02  0.30658290256E+01 -0.87731386885E+01  0.19331289028E+02  0.14200000000E+01 0.  1.
</event>
<event>
 9   1  0.7335000E-04  0.9967636E+03  0.7818608E-02  0.9312102E-01
       21   -1    0    0  503  502  0.00000000000E+00  0.00000000000E+00  0.24265936977E+03  0.24265936977E+03  0.00000000000E+00 0. -1.
       21   -1    0    0  502  503 -0.00000000000E+00 -0.00000000000E+00 -0.10235930241E+04  0.10235930241E+04  0.00000000000E+00 0.  1.
       39    2    1    2    0    0  0.00000000000E+00  0.00000000000E+00 -0.78093365430E+03  0.12662523938E+04  0.99676363923E+03 0.  0.
       24    2    3    3    0    0  0.32086308466E+03 -0.95429490907E+02  0.66597599035E+02  0.35070265168E+03  0.80605228526E+02 0.  0.
      -24    2    3    3    0    0 -0.32086308466E+03  0.95429490907E+02 -0.84753125334E+03  0.91554974217E+03  0.88669037230E+02 0.  0.
      -13    1    4    4    0    0  0.18717477236E+03 -0.14321499919E+02  0.42723991744E+02  0.19252231102E+03  0.00000000000E+00 0.  1.
       14    1    4    4    0    0  0.13368831230E+03 -0.81107990987E+02  0.23873607290E+02  0.15818034066E+03  0.00000000000E+00 0. -1.
        3    1    5    5  501    0 -0.25773818273E+03  0.50101725794E+02 -0.57422510855E+03  0.63140607303E+03  0.00000000000E+00 0. -1.
       -4    1    5    5    0  501 -0.63124901930E+02  0.45327765113E+02 -0.27330614478E+03  0.28414366914E+03  0.14200000000E+01 0.  1.
</event>
<event>
 9   1  0.7335000E-04  0.1002695E+04  0.7818608E-02  0.9305594E-01
       21   -1    0    0  503  502  0.00000000000E+00  0.00000000000E+00  0.15824000863E+03  0.15824000863E+03  0.00000000000E+00 0. -1.
       21   -1    0    0  502  503 -0.00000000000E+00 -0.00000000000E+00 -0.15884065959E+04  0.15884065959E+04  0.00000000000E+00 0.  1.
       39    2    1    2    0    0  0.56843418861E-13  0.00000000000E+00 -0.14301665873E+04  0.17466466045E+04  0.10026953145E+04 0.  0.
       24    2    3    3    0    0  0.40987671879E+03  0.11296917957E+03 -0.27378304887E+03  0.51195067301E+03  0.79845936724E+02 0.  0.
      -24    2    3    3    0    0 -0.40987671879E+03 -0.11296917957E+03 -0.11563835384E+04  0.12346959315E+04  0.80561748237E+02 0.  0.
      -13    1    4    4    0    0  0.38698940715E+02  0.27270838273E+02 -0.94363565570E+01  0.48273713940E+02  0.00000000000E+00 0.  1.
       14    1    4    4    0    0  0.37117777808E+03  0.85698341297E+02 -0.26434669231E+03  0.46367695907E+03  0.00000000000E+00 0. -1.
        3    1    5    5  501    0 -0.65033863878E+02 -0.38729426526E+02 -0.27824902017E+03  0.28836069280E+03  0.00000000000E+00 0. -1.
       -4    1    5    5    0  501 -0.34484285491E+03 -0.74239753043E+02 -0.87813451822E+03  0.94633523870E+03  0.14200000000E+01 0.  1.
</event>
<event>
 9   1  0.7335000E-04  0.9803968E+03  0.7818608E-02  0.9330310E-01
       21   -1    0    0  503  502  0.00000000000E+00  0.00000000000E+00  0.48712632028E+03  0.48712632028E+03  0.00000000000E+00 0.  1.
       21   -1    0    0  502  503 -0.00000000000E+00 -0.00000000000E+00 -0.49328985084E+03  0.49328985084E+03  0.00000000000E+00 0. -1.
       39    2    1    2    0    0  0.00000000000E+00  0.00000000000E+00 -0.61635305551E+01  0.98041617112E+03  0.98039679696E+03 0.  0.
       24    2    3    3    0    0  0.71240554883E+02 -0.53626486428E+02  0.47251404678E+03  0.48731622727E+03  0.79098446617E+02 0.  0.
      -24    2    3    3    0    0 -0.71240554883E+02  0.53626486428E+02 -0.47867757733E+03  0.49309994385E+03  0.77873711074E+02 0.  0.
      -13    1    4    4    0    0  0.85504730577E+02 -0.59073631158E+02  0.41209456653E+03  0.42499727601E+03  0.00000000000E+00 0.  1.
       14    1    4    4    0    0 -0.14264175693E+02  0.54471447302E+01  0.60419480241E+02  0.62318951263E+02  0.00000000000E+00 0. -1.
        1    1    5    5  501    0 -0.49816450559E+02  0.67448892236E+02 -0.43051804205E+03  0.43860781609E+03  0.00000000000E+00 0. -1.
       -2    1    5    5    0  501 -0.21424104325E+02 -0.13822405808E+02 -0.48159535284E+02  0.54492127755E+02  0.00000000000E+00 0.  1.
</event>
<event>
 9   1  0.7335000E-04  0.1012841E+04  0.7818608E-02  0.9294572E-01
       21   -1    0    0  503  502  0.00000000000E+00  0.00000000000E+00  0.85085491079E+03  0.85085491079E+03  0.00000000000E+00 0.  1.
       21   -1    0    0  502  503 -0.00000000000E+00 -0.00000000000E+00 -0.30141653547E+03  0.30141653547E+03  0.00000000000E+00 0. -1.
       39    2    1    2    0    0 -0.56843418861E-13  0.00000000000E+00  0.54943837532E+03  0.11522714463E+04  0.10128410327E+04 0.  0.
       24    2    3    3    0    0  0.36825074310E+03  0.88089886933E+02  0.64618537063E+03  0.75331685654E+03  0.81008117895E+02 0.  0.
      -24    2    3    3    0    0 -0.36825074310E+03 -0.88089886933E+02 -0.96746995308E+02  0.39895458972E+03  0.80226838327E+02 0.  0.
      -13    1    4    4    0    0  0.36286222434E+03  0.84964026160E+02  0.59724187965E+03  0.70397850990E+03  0.00000000000E+00 0.  1.
       14    1    4    4    0    0  0.53885187542E+01  0.31258607730E+01  0.48943490982E+02  0.49338346643E+02  0.00000000000E+00 0. -1.
        3    1    5    5  501    0 -0.24548335458E+03 -0.51723348378E+02 -0.10195788628E+03  0.27080028197E+03  0.00000000000E+00 0. -1.
       -4    1    5    5    0  501 -0.12276738852E+03 -0.36366538556E+02  0.52108909676E+01  0.12815430775E+03  0.14200000000E+01 0.  1.
</event>
<event>
 9   1  0.7335000E-04  0.1012527E+04  0.7818608E-02  0.9294911E-01
       21   -1    0    0  503  502  0.00000000000E+00  0.00000000000E+00  0.58791251108E+03  0.58791251108E+03  0.00000000000E+00 0. -1.
       21   -1    0    0  502  503 -0.00000000000E+00 -0.00000000000E+00 -0.43595364287E+03  0.43595364287E+03  0.00000000000E+00 0.  1.
       39    2    1    2    0    0 -0.11368683772E-12 -0.56843418861E-13  0.15195886821E+03  0.10238661540E+04  0.10125267422E+04 0.  0.
       24    2    3    3    0    0 -0.40245077094E+03 -0.28447994057E+03  0.15954402114E+03  0.52419397932E+03  0.80184622317E+02 0.  0.
      -24    2    3    3    0    0  0.40245077094E+03  0.28447994057E+03 -0.75851529355E+01  0.49967217464E+03  0.81971262921E+02 0.  0.
      -13    1    4    4    0    0 -0.33721890168E+02 -0.36019558213E+02 -0.60930110628E+01  0.49716186843E+02  0.00000000000E+00 0.  1.
       14    1    4    4    0    0 -0.36872888077E+03 -0.24846038236E+03  0.16563703221E+03  0.47447779248E+03  0.00000000000E+00 0. -1.
        1    1    5    5  501    0  0.69446839903E+02  0.25787689484E+02 -0.23425239994E+02  0.77695626455E+02  0.00000000000E+00 0. -1.
       -2    1    5    5    0  501  0.33300393104E+03  0.25869225108E+03  0.15840087059E+02  0.42197654818E+03  0.00000000000E+00 0.  1.
</event>
<event>
 9   1  0.7335000E-04  0.1007561E+04  0.7818608E-02  0.9300291E-01
       21   -1    0    0  503  502  0.00000000000E+00  0.00000000000E+00  0.21702013444E+04  0.21702013444E+04  0.00000000000E+00 0.  1.
       21   -1    0    0  502  503 -0.00000000000E+00 -0.00000000000E+00 -0.11694517802E+03  0.11694517802E+03  0.00000000000E+00 0. -1.
       39    2    1    2    0    0  0.00000000000E+00  0.28421709430E-13  0.20532561664E+04  0.22871465224E+04  0.10075605839E+04 0.  0.
       24    2    3    3    0    0  0.25146086065E+02 -0.14626478489E+03  0.21038149200E+04  0.21103246973E+04  0.73535008961E+02 0.  0.
      -24    2    3    3    0    0 -0.25146086065E+02  0.14626478489E+03 -0.50558753578E+02  0.17682182514E+03  0.81756084414E+02 0.  0.
      -13    1    4    4    0    0 -0.27971015754E+01 -0.13458111404E+03  0.16345744533E+04  0.16401077840E+04  0.00000000000E+00 0.  1.
       14    1    4    4    0    0  0.27943187641E+02 -0.11683670853E+02  0.46924046671E+03  0.47021691324E+03  0.00000000000E+00 0. -1.
        3    1    5    5  501    0  0.24616249398E+02  0.86096404388E+02 -0.14146474547E+02  0.90656898938E+02  0.00000000000E+00 0. -1.
       -4    1    5    5    0  501 -0.49762335463E+02  0.60168380505E+02 -0.36412279032E+02  0.86164926203E+02  0.14200000000E+01 0.  1.
</event>
<event>
 9   1  0.7335000E-04  0.1003948E+04  0.7818608E-02  0.9304226E-01
       21   -1    0    0  503  502  0.00000000000E+00  0.00000000000E+00  0.34343523277E+03  0.34343523277E+03  0.00000000000E+00 0.  1.
       21   -1    0    0  502  503 -0.00000000000E+00 -0.00000000000E+00 -0.73369772665E+03  0.73369772665E+03  0.00000000000E+00 0. -1.
       39    2    1    2    0    0  0.56843418861E-13 -0.14210854715E-13 -0.39026249387E+03  0.10771329594E+04  0.10039475077E+04 0.  0.
       24    2    3    3    0    0 -0.30125889663E+03  0.93939952871E+02  0.21467006744E+03  0.38960165405E+03  0.78259653936E+02 0.  0.
      -24    2    3    3    0    0  0.30125889663E+03 -0.93939952871E+02 -0.60493256131E+03  0.68753130537E+03  0.84700971570E+02 0.  0.
      -13    1    4    4    0    0 -0.29969542608E+03  0.89952519371E+02  0.22019170028E+03  0.38261362891E+03  0.00000000000E+00 0.  1.
       14    1    4    4    0    0 -0.15634705521E+01  0.39874335003E+01 -0.55216328397E+01  0.69880251361E+01  0.00000000000E+00 0. -1.
        3    1    5    5  501    0  0.22015808368E+03 -0.10040546140E+03 -0.40657154639E+03  0.47312922212E+03  0.00000000000E+00 0. -1.
       -4    1    5    5    0  501  0.81100812951E+02  0.64655085298E+01 -0.19836101493E+03  0.21440208326E+03  0.14200000000E+01 0.  1.
</event>
<event>
 9   1  0.7335000E-04  0.9959090E+03  0.7818608E-02  0.9313043E-01
       21   -1    0    0  503  502  0.00000000000E+00  0.00000000000E+00  0.11705750352E+03  0.11705750352E+03  0.00000000000E+00 0. -1.
       21   -1    0    0  502  503 -0.00000000000E+00 -0.00000000000E+00 -0.21182639860E+04  0.21182639860E+04  0.00000000000E+00 0.  1.
       39    2    1    2    0    0  0.00000000000E+00  0.00000000000E+00 -0.20012064825E+04  0.22353214895E+04  0.99590901992E+03 0.  0.
       24    2    3    3    0    0 -0.13733717109E+03 -0.33723227002E+03 -0.26009901274E+03  0.45471132430E+03  0.80769979063E+02 0.  0.
      -24    2    3    3    0    0  0.13733717109E+03  0.33723227002E+03 -0.17411074697E+04  0.17806101652E+04  0.80809880389E+02 0.  0.
      -13    1    4    4    0    0 -0.47884971247E+02 -0.22171863418E+03 -0.15472801719E+03  0.27457764388E+03  0.00000000000E+00 0.  1.
       14    1    4    4    0    0 -0.89452199840E+02 -0.11551363584E+03 -0.10537099554E+03  0.18013368042E+03  0.00000000000E+00 0. -1.
        3    1    5    5  501    0  0.66167933536E+02  0.17159973158E+03 -0.68671461431E+03  0.71091604625E+03  0.00000000000E+00 0. -1.
       -4    1    5    5    0  501  0.71169237551E+02  0.16563253843E+03 -0.10543928554E+04  0.10696941190E+04  0.14200000000E+01 0.  1.
</event>
<event>
 9   1  0.7335000E-04  0.1009536E+04  0.7818608E-02  0.9298147E-01
       -2   -1    0    0    0  501 -0.00000000000E+00  0.00000000000E+00  0.24179305797E+03  0.24179305797E+03  0.00000000000E+00 0.  1.
        2   -1    0    0  501    0  0.00000000000E+00 -0.00000000000E+00 -0.10537556210E+04  0.10537556210E+04  0.00000000000E+00 0. -1.
       39    2    1    2    0    0  0.28421709430E-13  0.00000000000E+00 -0.81196256304E+03  0.12955486790E+04  0.10095361191E+04 0.  0.
       24    2    3    3    0    0 -0.23375430457E+03  0.43292344265E+03 -0.31165807411E+03  0.58854429603E+03  0.84792989838E+02 0.  0.
      -24    2    3    3    0    0  0.23375430457E+03 -0.43292344265E+03 -0.50030448893E+03  0.70700438295E+03  0.86526491732E+02 0.  0.
      -13    1    4    4    0    0 -0.54682691177E+02  0.13914207480E+03 -0.54975778799E+02  0.15928920224E+03  0.00000000000E+00 0.  1.
       14    1    4    4    0    0 -0.17907161339E+03  0.29378136785E+03 -0.25668229531E+03  0.42925509379E+03  0.00000000000E+00 0. -1.
        3    1    5    5  502    0  0.59535622711E+02 -0.19452537012E+03 -0.22441104687E+03  0.30289425209E+03  0.00000000000E+00 0. -1.
       -4    1    5    5    0  502  0.17421868186E+03 -0.23839807253E+03 -0.27589344206E+03  0.40411013086E+03  0.14200000000E+01 0.  1.
</event>
<event>
 9   1  0.7335000E-04  0.9963285E+03  0.7818608E-02  0.9312581E-01
       21   -1    0    0  503  502  0.00000000000E+00  0.00000000000E+00  0.54481675388E+03  0.54481675388E+03  0.00000000000E+00 0.  1.
       21   -1    0    0  502  503 -0.00000000000E+00 -0.00000000000E+00 -0.45550661515E+03  0.45550661515E+03  0.00000000000E+00 0. -1.
       39    2    1    2    0    0  0.00000000000E+00  0.00000000000E+00  0.89310138726E+02  0.10003233690E+04  0.99632853104E+03 0.  0.
       24    2    3    3    0    0  0.18726408620E+03 -0.23009219856E+02 -0.41133450793E+03  0.45983616417E+03  0.81584056531E+02 0.  0.
      -24    2    3    3    0    0 -0.18726408620E+03  0.23009219856E+02  0.50064464666E+03  0.54048720487E+03  0.76707849798E+02 0.  0.
      -13    1    4    4    0    0  0.75704650995E+02 -0.31002652730E+02 -0.25363003390E+03  0.26649681566E+03  0.00000000000E+00 0.  1.
       14    1    4    4    0    0  0.11155943520E+03  0.79934328743E+01 -0.15770447403E+03  0.19333934851E+03  0.00000000000E+00 0. -1.
        1    1    5    5  501    0 -0.41985084548E+02  0.23028247528E+02  0.61553789076E+02  0.77986642820E+02  0.00000000000E+00 0. -1.
       -2    1    5    5    0  501 -0.14527900165E+03 -0.19027671871E-01  0.43909085758E+03  0.46250056205E+03  0.00000000000E+00 0.  1.
</event>
<event>
 9   1  0.7335000E-04  0.9961529E+03  0.7818608E-02  0.9312774E-01
       21   -1    0    0  503  502  0.00000000000E+00  0.00000000000E+00  0.24747556887E+03  0.24747556887E+03  0.00000000000E+00 0. -1.
       21   -1    0    0  502  503 -0.00000000000E+00 -0.00000000000E+00 -0.10024429847E+04  0.10024429847E+04  0.00000000000E+00 0.  1.
       39    2    1    2    0    0  0.11368683772E-12 -0.71054273576E-14 -0.75496741585E+03  0.12499185536E+04  0.99615289570E+03 0.  0.
       24    2    3    3    0    0 -0.47063255013E+03  0.47438630499E+02 -0.21144097589E+03  0.52428892323E+03  0.80163382154E+02 0.  0.
      -24    2    3    3    0    0  0.47063255013E+03 -0.47438630499E+02 -0.54352643997E+03  0.72562963036E+03  0.85860052464E+02 0.  0.
      -13    1    4    4    0    0 -0.67260231307E+02  0.35814905946E+02 -0.31802447089E+02  0.82571434796E+02  0.00000000000E+00 0.  1.
       14    1    4    4    0    0 -0.40337231882E+03  0.11623724553E+02 -0.17963852880E+03  0.44171748844E+03  0.00000000000E+00 0. -1.
        3    1    5    5  501    0  0.62458414091E+02 -0.20785480496E+02 -0.11970833120E+03  0.13661322868E+03  0.00000000000E+00 0. -1.
       -4    1    5    5    0  501  0.40817413604E+03 -0.26653150003E+02 -0.42381810876E+03  0.58901640168E+03  0.14200000000E+01 0.  1.
</event>
<event>
 9   1  0.7335000E-04  0.1000302E+04  0.7818608E-02  0.9308214E-01
       21   -1    0    0  503  502  0.00000000000E+00  0.00000000000E+00  0.86098282500E+03  0.86098282500E+03  0.00000000000E+00 0. -1.
       21   -1    0    0  502  503 -0.00000000000E+00 -0.00000000000E+00 -0.29054108240E+03  0.29054108240E+03  0.00000000000E+00 0.  1.
       39    2    1    2    0    0  0.00000000000E+00 -0.56843418861E-13  0.57044174260E+03  0.11515239074E+04  0.10003017183E+04 0.  0.
       24    2    3    3    0    0  0.36203687651E+03  0.33069678818E+03  0.21961653027E+03  0.54288415417E+03  0.77850618614E+02 0.  0.
      -24    2    3    3    0    0 -0.36203687651E+03 -0.33069678818E+03  0.35082521233E+03  0.60863975322E+03  0.83264361685E+02 0.  0.
      -13    1    4    4    0    0  0.34175512491E+02  0.57496366551E+02  0.50581303671E+02  0.83858607797E+02  0.00000000000E+00 0.  1.
       14    1    4    4    0    0  0.32786136402E+03  0.27320042163E+03  0.16903522660E+03  0.45902554638E+03  0.00000000000E+00 0. -1.
        1    1    5    5  501    0 -0.12362040926E+02 -0.29504369241E+02  0.60236905486E+01  0.32551692859E+02  0.00000000000E+00 0. -1.
       -2    1    5    5    0  501 -0.34967483558E+03 -0.30119241894E+03  0.34480152178E+03  0.57608806036E+03  0.00000000000E+00 0.  1.
</event>
<event>
 9   1  0.7335000E-04  0.9649708E+03  0.7818608E-02  0.9347821E-01
       21   -1    0    0  503  502  0.00000000000E+00  0.00000000000E+00  0.55416680805E+03  0.55416680805E+03  0.00000000000E+00 0.  1.
       21   -1    0    0  502  503 -0.00000000000E+00 -0.00000000000E+00 -0.42007594539E+03  0.42007594539E+03  0.00000000000E+00 0. -1.
       39    2    1    2    0    0  0.00000000000E+00  0.00000000000E+00  0.13409086266E+03  0.97424275344E+03  0.96497076804E+03 0.  0.
       24    2    3    3    0    0  0.35864418156E+03  0.14994439351E+03  0.34387212053E+03  0.52551183069E+03  0.82496538149E+02 0.  0.
      -24    2    3    3    0    0 -0.35864418156E+03 -0.14994439351E+03 -0.20978125787E+03  0.44873092275E+03  0.79008194323E+02 0.  0.
      -13    1    4    4    0    0  0.22321299981E+03  0.84233656508E+02  0.15721734072E+03  0.28572127046E+03  0.00000000000E+00 0.  1.
       14    1    4    4    0    0  0.13543118175E+03  0.65710736999E+02  0.18665477981E+03  0.23979056023E+03  0.00000000000E+00 0. -1.
        1    1    5    5  501    0 -0.24934591225E+03 -0.12061705911E+03 -0.11059079728E+03  0.29824852615E+03  0.00000000000E+00 0. -1.
       -2    1    5    5    0  501 -0.10929826930E+03 -0.29327334392E+02 -0.99190460585E+02  0.15048239660E+03  0.00000000000E+00 0.  1.
</event>
<event>
 9   1  0.7335000E-04  0.1004849E+04  0.7818608E-02  0.9303242E-01
       21   -1    0    0  503  502  0.00000000000E+00  0.00000000000E+00  0.21400134999E+04  0.21400134999E+04  0.00000000000E+00 0. -1.
       21   -1    0    0  502  503 -0.00000000000E+00 -0.00000000000E+00 -0.11795741544E+03  0.11795741544E+03  0.00000000000E+00 0.  1.
       39    2    1    2    0    0  0.14210854715E-13  0.00000000000E+00  0.20220560845E+04  0.22579709154E+04  0.10048491657E+04 0.  0.
       24    2    3    3    0    0  0.77453319092E+02 -0.37277445663E+02  0.21083169167E+04  0.21114760690E+04  0.77086601317E+02 0.  0.
      -24    2    3    3    0    0 -0.77453319092E+02  0.37277445663E+02 -0.86260832155E+02  0.14649484642E+03  0.81432083797E+02 0.  0.
      -13    1    4    4    0    0  0.33550153558E+02 -0.31381480059E+01  0.24244277237E+03  0.24477328010E+03  0.00000000000E+00 0.  1.
       14    1    4    4    0    0  0.43903165534E+02 -0.34139297657E+02  0.18658741443E+04  0.18667027889E+04  0.00000000000E+00 0. -1.
        3    1    5    5  501    0 -0.68464610739E+02  0.97208278474E+01 -0.16723319200E+02  0.71144689350E+02  0.00000000000E+00 0. -1.
       -4    1    5    5    0  501 -0.89887083535E+01  0.27556617815E+02 -0.69537512955E+02  0.75350157075E+02  0.14200000000E+01 0.  1.
</event>
<event>
 9   1  0.7335000E-04  0.1001880E+04  0.7818608E-02  0.9306485E-01
       -2   -1    0    0    0  501 -0.00000000000E+00  0.00000000000E+00  0.99234802192E+02  0.99234802192E+02  0.00000000000E+00 0. -1.
        2   -1    0    0  501    0  0.00000000000E+00 -0.00000000000E+00 -0.25287600813E+04  0.25287600813E+04  0.00000000000E+00 0.  1.
       39    2    1    2    0    0 -0.56843418861E-13  0.14210854715E-13 -0.24295252791E+04  0.26279948835E+04  0.10018802453E+04 0.  0.
       24    2    3    3    0    0 -0.30093899743E+03  0.54613822687E+02 -0.19590934141E+03  0.37205752054E+03  0.80618724482E+02 0.  0.
      -24    2    3    3    0    0  0.30093899743E+03 -0.54613822687E+02 -0.22336159377E+04  0.22559373630E+04  0.81647281742E+02 0.  0.
      -13    1    4    4    0    0 -0.54932258292E+02 -0.17222447886E+02 -0.54878204674E+02  0.79534791510E+02  0.00000000000E+00 0.  1.
       14    1    4    4    0    0 -0.24600673914E+03  0.71836270573E+02 -0.14103113673E+03  0.29252272903E+03  0.00000000000E+00 0. -1.
        3    1    5    5  502    0  0.19975079365E+03 -0.30294476066E+02 -0.11776528359E+04  0.11948574546E+04  0.00000000000E+00 0. -1.
       -4    1    5    5    0  502  0.10118820377E+03 -0.24319346621E+02 -0.10559631018E+04  0.10610799084E+04  0.14200000000E+01 0.  1.
</event>
<event>
 9   1  0.7335000E-04  0.1000948E+04  0.7818608E-02  0.9307506E-01
       -1   -1    0    0    0  501 -0.00000000000E+00  0.00000000000E+00  0.53429044843E+03  0.53429044843E+03  0.00000000000E+00 0. -1.
        1   -1    0    0  501    0  0.00000000000E+00 -0.00000000000E+00 -0.46879787832E+03  0.46879787832E+03  0.00000000000E+00 0.  1.
       39    2    1    2    0    0 -0.71054273576E-14  0.11368683772E-12  0.65492570107E+02  0.10030883267E+04  0.10009480079E+04 0.  0.
       24    2    3    3    0    0 -0.57801490664E+02  0.45869574370E+03 -0.14155996257E+03  0.49000241721E+03  0.79500617930E+02 0.  0.
      -24    2    3    3    0    0  0.57801490664E+02 -0.45869574370E+03  0.20705253268E+03  0.51308590954E+03  0.81508291990E+02 0.  0.
      -13    1    4    4    0    0 -0.29086171592E+02  0.43404386945E+02 -0.23583768171E+02  0.57324866376E+02  0.00000000000E+00 0.  1.
       14    1    4    4    0    0 -0.28715319072E+02  0.41529135676E+03 -0.11797619440E+03  0.43267755083E+03  0.00000000000E+00 0. -1.
        1    1    5    5  502    0 -0.16174044737E+02 -0.51989889714E+02  0.10893435167E+02  0.55526707857E+02  0.00000000000E+00 0. -1.
       -2    1    5    5    0  502  0.73975535401E+02 -0.40670585399E+03  0.19615909751E+03  0.45755920168E+03  0.00000000000E+00 0.  1.
</event>
<event>
 9   1  0.7335000E-04  0.9902224E+03  0.7818608E-02  0.9319334E-01
       21   -1    0    0  503  502  0.00000000000E+00  0.00000000000E+00  0.27159309337E+03  0.27159309337E+03  0.00000000000E+00 0.  1.
       21   -1    0    0  502  503 -0.00000000000E+00 -0.00000000000E+00 -0.90258231357E+03  0.90258231357E+03  0.00000000000E+00 0. -1.
       39    2    1    2    0    0  0.00000000000E+00 -0.28421709430E-13 -0.63098922019E+03  0.11741754069E+04  0.99022244484E+03 0.  0.
       24    2    3    3    0    0 -0.22428635534E+03  0.13868206285E+03  0.17211343359E+03  0.32505649851E+03  0.80632558263E+02 0.  0.
      -24    2    3    3    0    0  0.22428635534E+03 -0.13868206285E+03 -0.80310265378E+03  0.84911890843E+03  0.80572727318E+02 0.  0.
      -13    1    4    4    0    0 -0.12846289886E+03  0.11922947692E+03  0.13180232335E+03  0.21929486312E+03  0.00000000000E+00 0.  1.
       14    1    4    4    0    0 -0.95823456487E+02  0.19452585932E+02  0.40311110244E+02  0.10576163540E+03  0.00000000000E+00 0. -1.
        1    1    5    5  501    0  0.86661604820E+02 -0.49120272486E+02 -0.43159842815E+03  0.44294496057E+03  0.00000000000E+00 0. -1.
       -2    1    5    5    0  501  0.13762475052E+03 -0.89561790367E+02 -0.37150422564E+03  0.40617394786E+03  0.00000000000E+00 0.  1.
</event>
<event>
 9   1  0.7335000E-04  0.9974289E+03  0.7818608E-02  0.9311369E-01
       21   -1    0    0  503  502  0.00000000000E+00  0.00000000000E+00  0.37580982201E+03  0.37580982201E+03  0.00000000000E+00 0. -1.
       21   -1    0    0  502  503 -0.00000000000E+00 -0.00000000000E+00 -0.66181370189E+03  0.66181370189E+03  0.00000000000E+00 0.  1.
       39    2    1    2    0    0  0.00000000000E+00  0.14210854715E-13 -0.28600387988E+03  0.10376235239E+04  0.99742887368E+03 0.  0.
       24    2    3    3    0    0  0.38251298450E+03 -0.90069882418E+02 -0.44753103798E+03  0.60136990620E+03  0.83264440745E+02 0.  0.
      -24    2    3    3    0    0 -0.38251298450E+03  0.90069882418E+02  0.16152715810E+03  0.43625361771E+03  0.98981963643E+02 0.  0.
      -13    1    4    4    0    0  0.16017943567E+01 -0.10133637634E+02 -0.33467495589E+01  0.10791528597E+02  0.00000000000E+00 0.  1.
       14    1    4    4    0    0  0.38091119014E+03 -0.79936244784E+02 -0.44418428842E+03  0.59057837760E+03  0.00000000000E+00 0. -1.
        1    1    5    5  501    0 -0.57722690181E+02 -0.18069616782E+02  0.42120651504E+02  0.73705965128E+02  0.00000000000E+00 0. -1.
       -2    1    5    5    0  501 -0.32479029432E+03  0.10813949920E+03  0.11940650659E+03  0.36254765258E+03  0.00000000000E+00 0.  1.
</event>
<event>
 9   1  0.7335000E-04  0.1001341E+04  0.7818608E-02  0.9307075E-01
       21   -1    0    0  503  502  0.00000000000E+00  0.00000000000E+00  0.10554461136E+04  0.10554461136E+04  0.00000000000E+00 0.  1.
       21   -1    0    0  502  503 -0.00000000000E+00 -0.00000000000E+00 -0.23750252991E+03  0.23750252991E+03  0.00000000000E+00 0. -1.
       39    2    1    2    0    0  0.56843418861E-13 -0.14210854715E-13  0.81794358364E+03  0.12929486435E+04  0.10013413447E+04 0.  0.
       24    2    3    3    0    0  0.34891260852E+03 -0.88798641474E+02 -0.28152845599E+02  0.36999188809E+03  0.80474886932E+02 0.  0.
      -24    2    3    3    0    0 -0.34891260852E+03  0.88798641474E+02  0.84609642924E+03  0.92295675537E+03  0.79654237876E+02 0.  0.
      -13    1    4    4    0    0  0.42989160369E+02 -0.40662789963E+02 -0.21065135749E+01  0.59211213433E+02  0.00000000000E+00 0.  1.
       14    1    4    4    0    0  0.30592344815E+03 -0.48135851511E+02 -0.26046332025E+02  0.31078067466E+03  0.00000000000E+00 0. -1.
        3    1    5    5  501    0 -0.10743365569E+03 -0.40841861538E+01  0.20181021429E+03  0.22866139495E+03  0.00000000000E+00 0. -1.
       -4    1    5    5    0  501 -0.24147895283E+03  0.92882827628E+02  0.64428621495E+03  0.69429536042E+03  0.14200000000E+01 0.  1.
</event>
<event>
 9   1  0.7335000E-04  0.9890825E+03  0.7818608E-02  0.9320601E-01
       -2   -1    0    0    0  501 -0.00000000000E+00  0.00000000000E+00  0.17500471277E+03  0.17500471277E+03  0.00000000000E+00 0. -1.
        2   -1    0    0  501    0  0.00000000000E+00 -0.00000000000E+00 -0.13975111546E+04  0.13975111546E+04  0.00000000000E+00 0.  1.
       39    2    1    2    0    0  0.14210854715E-13  0.00000000000E+00 -0.12225064418E+04  0.15725158673E+04  0.98908248027E+03 0.  0.
       24    2    3    3    0    0 -0.12551262837E+03  0.76729878977E+02 -0.13531885920E+04  0.13632620470E+04  0.75651497255E+02 0.  0.
      -24    2    3    3    0    0  0.12551262837E+03 -0.76729878977E+02  0.13068215021E+03  0.20925382034E+03  0.71192996392E+02 0.  0.
      -13    1    4    4    0    0 -0.13218814801E+03  0.78598805420E+02 -0.13344436789E+04  0.13432763718E+04  0.00000000000E+00 0.  1.
       14    1    4    4    0    0  0.66755196388E+01 -0.18689264425E+01 -0.18744913076E+02  0.19985675238E+02  0.00000000000E+00 0. -1.
        3    1    5    5  502    0  0.11443313107E+03 -0.69165225631E+02  0.77843834492E+02  0.15472049797E+03  0.00000000000E+00 0. -1.
       -4    1    5    5    0  502  0.11079497292E+02 -0.75646533464E+01  0.52838315716E+02  0.54533322365E+02  0.14200000000E+01 0.  1.
</event>
<event>
 9   1  0.7335000E-04  0.1007913E+04  0.7818608E-02  0.9299908E-01
       21   -1    0    0  503  502  0.00000000000E+00  0.00000000000E+00  0.36592492291E+03  0.36592492291E+03  0.00000000000E+00 0. -1.
       21   -1    0    0  502  503 -0.00000000000E+00 -0.00000000000E+00 -0.69405594180E+03  0.69405594180E+03  0.00000000000E+00 0.  1.
       39    2    1    2    0    0 -0.28421709430E-13 -0.35527136788E-14 -0.32813101890E+03  0.10599808647E+04  0.10079134229E+04 0.  0.
       24    2    3    3    0    0  0.17254968392E+03  0.19534613638E+02  0.32629169463E+03  0.37837509882E+03  0.80910140718E+02 0.  0.
      -24    2    3    3    0    0 -0.17254968392E+03 -0.19534613638E+02 -0.65442271352E+03  0.68160576590E+03  0.78500557793E+02 0.  0.
      -13    1    4    4    0    0  0.12312049711E+03  0.50939874057E+01  0.14690665417E+03  0.19174506657E+03  0.00000000000E+00 0.  1.
       14    1    4    4    0    0  0.49429186811E+02  0.14440626233E+02  0.17938504046E+03  0.18663003225E+03  0.00000000000E+00 0. -1.
        3    1    5    5  501    0 -0.30837856280E+02 -0.76563130762E+01 -0.40771163265E+02  0.51690233737E+02  0.00000000000E+00 0. -1.
       -4    1    5    5    0  501 -0.14171182764E+03 -0.11878300562E+02 -0.61365155026E+03  0.62991553216E+03  0.14200000000E+01 0.  1.
</event>
<event>
 9   1  0.7335000E-04  0.9989663E+03  0.7818608E-02  0.9309679E-01
       21   -1    0    0  503  502  0.00000000000E+00  0.00000000000E+00  0.49368079303E+03  0.49368079303E+03  0.00000000000E+00 0. -1.
       21   -1    0    0  502  503 -0.00000000000E+00 -0.00000000000E+00 -0.50535374518E+03  0.50535374518E+03  0.00000000000E+00 0.  1.
       39    2    1    2    0    0  0.00000000000E+00  0.00000000000E+00 -0.11672952151E+02  0.99903453821E+03  0.99896634114E+03 0.  0.
       24    2    3    3    0    0  0.47384358626E+02  0.87141544373E+02  0.47775349300E+03  0.49332882819E+03  0.72704927265E+02 0.  0.
      -24    2    3    3    0    0 -0.47384358626E+02 -0.87141544373E+02 -0.48942644515E+03  0.50570571002E+03  0.79756465201E+02 0.  0.
      -13    1    4    4    0    0  0.44082360189E+02  0.34455440445E+02  0.12911555221E+03  0.14071694169E+03  0.00000000000E+00 0.  1.
       14    1    4    4    0    0  0.33019984374E+01  0.52686103927E+02  0.34863794079E+03  0.35261188650E+03  0.00000000000E+00 0. -1.
        3    1    5    5  501    0  0.16111864499E+02  0.35857178987E+01 -0.66907373387E+02  0.68913323560E+02  0.00000000000E+00 0. -1.
       -4    1    5    5    0  501 -0.63496223125E+02 -0.90727262271E+02 -0.42251907176E+03  0.43679238646E+03  0.14200000000E+01 0.  1.
</event>
<event>
 9   1  0.7335000E-04  0.9968059E+03  0.7818608E-02  0.9312055E-01
       21   -1    0    0  503  502  0.00000000000E+00  0.00000000000E+00  0.75122333434E+03  0.75122333434E+03  0.00000000000E+00 0. -1.
       21   -1    0    0  502  503 -0.00000000000E+00 -0.00000000000E+00 -0.33066796257E+03  0.33066796257E+03  0.00000000000E+00 0.  1.
       39    2    1    2    0    0  0.00000000000E+00  0.00000000000E+00  0.42055537177E+03  0.10818912969E+04  0.99680587759E+03 0.  0.
       24    2    3    3    0    0  0.15875054356E+03 -0.18333146190E+03  0.67470947960E+03  0.72140712223E+03  0.79894894342E+02 0.  0.
      -24    2    3    3    0    0 -0.15875054356E+03  0.18333146190E+03 -0.25415410783E+03  0.36048417468E+03  0.80884916192E+02 0.  0.
      -13    1    4    4    0    0  0.62830694997E+02 -0.54915515823E+02  0.13793599411E+03  0.16121336354E+03  0.00000000000E+00 0.  1.
       14    1    4    4    0    0  0.95919848560E+02 -0.12841594608E+03  0.53677348549E+03  0.56019375869E+03  0.00000000000E+00 0. -1.
        3    1    5    5  501    0  0.28095956690E+01  0.36756675899E+02 -0.28236495020E+02  0.46435403540E+02  0.00000000000E+00 0. -1.
       -4    1    5    5    0  501 -0.16156013923E+03  0.14657478600E+03 -0.22591761281E+03  0.31404877114E+03  0.14200000000E+01 0.  1.
</event>
<event>
 9   1  0.7335000E-04  0.9893711E+03  0.7818608E-02  0.9320280E-01
       21   -1    0    0  503  502  0.00000000000E+00  0.00000000000E+00  0.64884341678E+03  0.64884341678E+03  0.00000000000E+00 0. -1.
       21   -1    0    0  502  503 -0.00000000000E+00 -0.00000000000E+00 -0.37715387265E+03  0.37715387265E+03  0.00000000000E+00 0.  1.
       39    2    1    2    0    0  0.00000000000E+00  0.00000000000E+00  0.27168954413E+03  0.10259972894E+04  0.98937112831E+03 0.  0.
       24    2    3    3    0    0  0.97350892628E+02 -0.39659428580E+03  0.41301690266E+03  0.58659374702E+03  0.82128182358E+02 0.  0.
      -24    2    3    3    0    0 -0.97350892628E+02  0.39659428580E+03 -0.14132735853E+03  0.43940354241E+03  0.79610470338E+02 0.  0.
      -13    1    4    4    0    0  0.69344872015E+02 -0.18422247546E+03  0.24544139793E+03  0.31462376191E+03  0.00000000000E+00 0.  1.
       14    1    4    4    0    0  0.28006020613E+02 -0.21237181033E+03  0.16757550473E+03  0.27196998511E+03  0.00000000000E+00 0. -1.
        1    1    5    5  501    0 -0.20850249849E+02  0.27123988758E+02  0.52750781171E+01  0.34616038682E+02  0.00000000000E+00 0. -1.
       -2    1    5    5    0  501 -0.76500642778E+02  0.36947029704E+03 -0.14660243665E+03  0.40478750373E+03  0.00000000000E+00 0.  1.
</event>
<event>
 9   1  0.7335000E-04  0.9923689E+03  0.7818608E-02  0.9316954E-01
        2   -1    0    0  501    0  0.00000000000E+00  0.00000000000E+00  0.43634597146E+03  0.43634597146E+03  0.00000000000E+00 0. -1.
       -2   -1    0    0    0  501 -0.00000000000E+00 -0.00000000000E+00 -0.56422893581E+03  0.56422893581E+03  0.00000000000E+00 0.  1.
       39    2    1    2    0    0  0.00000000000E+00  0.00000000000E+00 -0.12788296435E+03  0.10005749073E+04  0.99236892963E+03 0.  0.
       24    2    3    3    0    0 -0.30295563362E+03  0.23154448183E+03  0.24603100100E+03  0.46093590892E+03  0.80843649551E+02 0.  0.
      -24    2    3    3    0    0  0.30295563362E+03 -0.23154448183E+03 -0.37391396535E+03  0.53963899836E+03  0.77483108203E+02 0.  0.
      -13    1    4    4    0    0 -0.26685473733E+03  0.16444733781E+03  0.19306197972E+03  0.36814033433E+03  0.00000000000E+00 0.  1.
       14    1    4    4    0    0 -0.36100896293E+02  0.67097144016E+02  0.52969021276E+02  0.92795574588E+02  0.00000000000E+00 0. -1.
        1    1    5    5  502    0  0.87741167311E+02 -0.89322390277E+02 -0.80031578200E+02  0.14860032084E+03  0.00000000000E+00 0. -1.
       -2    1    5    5    0  502  0.21521446631E+03 -0.14222209155E+03 -0.29388238715E+03  0.39103867751E+03  0.00000000000E+00 0.  1.
</event>
<event>
 9   1  0.7335000E-04  0.9929915E+03  0.7818608E-02  0.9316265E-01
       21   -1    0    0  503  502  0.00000000000E+00  0.00000000000E+00  0.26114794796E+04  0.26114794796E+04  0.00000000000E+00 0. -1.
       21   -1    0    0  502  503 -0.00000000000E+00 -0.00000000000E+00 -0.94394006810E+02  0.94394006810E+02  0.00000000000E+00 0.  1.
       39    2    1    2    0    0  0.00000000000E+00 -0.56843418861E-13  0.25170854728E+04  0.27058734864E+04  0.99299146378E+03 0.  0.
       24    2    3    3    0    0 -0.33197790516E+02 -0.39822159036E+03  0.48785135079E+03  0.63573185664E+03  0.80458217458E+02 0.  0.
      -24    2    3    3    0    0  0.33197790516E+02  0.39822159036E+03  0.20292341220E+04  0.20701416298E+04  0.89513781587E+02 0.  0.
      -13    1    4    4    0    0 -0.33037246007E+02 -0.39272364363E+03  0.45297554100E+03  0.60042498335E+03  0.00000000000E+00 0.  1.
       14    1    4    4    0    0 -0.16054450954E+00 -0.54979467298E+01  0.34875809796E+02  0.35306873293E+02  0.00000000000E+00 0. -1.
        1    1    5    5  501    0  0.10011688305E+02  0.29936895628E+03  0.16780321605E+04  0.17045568156E+04  0.00000000000E+00 0. -1.
       -2    1    5    5    0  501  0.23186102211E+02  0.98852634081E+02  0.35120196148E+03  0.36558481416E+03  0.00000000000E+00 0.  1.
</event>
<event>
 9   1  0.7335000E-04  0.9870099E+03  0.7818608E-02  0.9322908E-01
       21   -1    0    0  503  502  0.00000000000E+00  0.00000000000E+00  0.54980024315E+03  0.54980024315E+03  0.00000000000E+00 0. -1.
       21   -1    0    0  502  503 -0.00000000000E+00 -0.00000000000E+00 -0.44297382837E+03  0.44297382837E+03  0.00000000000E+00 0.  1.
       39    2    1    2    0    0  0.00000000000E+00 -0.28421709430E-13  0.10682641478E+03  0.99277407152E+03  0.98700986529E+03 0.  0.
       24    2    3    3    0    0  0.25176112376E+03  0.97413633212E+02 -0.35366074842E+03  0.45196972711E+03  0.79546400758E+02 0.  0.
      -24    2    3    3    0    0 -0.25176112376E+03 -0.97413633212E+02  0.46048716320E+03  0.54080434441E+03  0.86878260128E+02 0.  0.
      -13    1    4    4    0    0  0.17097549779E+03  0.74006899458E+02 -0.29685756843E+03  0.35047690073E+03  0.00000000000E+00 0.  1.
       14    1    4    4    0    0  0.80785625975E+02  0.23406733754E+02 -0.56803179997E+02  0.10149282638E+03  0.00000000000E+00 0. -1.
        1    1    5    5  501    0 -0.10639785775E+03  0.11037054204E+01  0.20201645306E+03  0.22832514011E+03  0.00000000000E+00 0. -1.
       -2    1    5    5    0  501 -0.14536326601E+03 -0.98517338632E+02  0.25847071014E+03  0.31247920429E+03  0.00000000000E+00 0.  1.
</event>
<event>
 9   1  0.7335000E-04  0.1003932E+04  0.7818608E-02  0.9304243E-01
       -2   -1    0    0    0  501 -0.00000000000E+00  0.00000000000E+00  0.16195948585E+03  0.16195948585E+03  0.00000000000E+00 0.  1.
        2   -1    0    0  501    0  0.00000000000E+00 -0.00000000000E+00 -0.15557578950E+04  0.15557578950E+04  0.00000000000E+00 0. -1.
       39    2    1    2    0    0 -0.56843418861E-13  0.28421709430E-13 -0.13937984092E+04  0.17177173809E+04  0.10039317682E+04 0.  0.
       24    2    3    3    0    0 -0.45567223982E+03  0.18932857547E+03 -0.62122165175E+03  0.79749124109E+03  0.81199996274E+02 0.  0.
      -24    2    3    3    0    0  0.45567223982E+03 -0.18932857547E+03 -0.77257675746E+03  0.92022613980E+03  0.80366675832E+02 0.  0.
      -13    1    4    4    0    0 -0.41685352237E+03  0.17711760857E+03 -0.59951696437E+03  0.75137081188E+03  0.00000000000E+00 0.  1.
       14    1    4    4    0    0 -0.38818717443E+02  0.12210966900E+02 -0.21704687374E+02  0.46120429211E+02  0.00000000000E+00 0. -1.
        1    1    5    5  502    0  0.33636848600E+03 -0.10252749211E+03 -0.56683326544E+03  0.66704992004E+03  0.00000000000E+00 0. -1.
       -2    1    5    5    0  502  0.11930375381E+03 -0.86801083360E+02 -0.20574349202E+03  0.25317621976E+03  0.00000000000E+00 0.  1.
</event>
<event>
 9   1  0.7335000E-04  0.1005260E+04  0.7818608E-02  0.9302794E-01
       21   -1    0    0  503  502  0.00000000000E+00  0.00000000000E+00  0.53004626551E+03  0.53004626551E+03  0.00000000000E+00 0.  1.
       21   -1    0    0  502  503 -0.00000000000E+00 -0.00000000000E+00 -0.47663204688E+03  0.47663204688E+03  0.00000000000E+00 0. -1.
       39    2    1    2    0    0 -0.56843418861E-13 -0.14210854715E-13  0.53414218638E+02  0.10066783124E+04  0.10052602379E+04 0.  0.
       24    2    3    3    0    0  0.46903098595E+03  0.91767698802E+02 -0.10913586602E+03  0.49671262164E+03  0.80008842761E+02 0.  0.
      -24    2    3    3    0    0 -0.46903098595E+03 -0.91767698802E+02  0.16255008466E+03  0.50996569075E+03  0.72326339542E+02 0.  0.
      -13    1    4    4    0    0  0.14315877650E+03  0.32786513791E+02  0.35236309338E+01  0.14690747683E+03  0.00000000000E+00 0.  1.
       14    1    4    4    0    0  0.32587220945E+03  0.58981185011E+02 -0.11265949695E+03  0.34980514481E+03  0.00000000000E+00 0. -1.
        3    1    5    5  501    0 -0.11820655350E+03 -0.47010507138E+02  0.66198806277E+02  0.14340522663E+03  0.00000000000E+00 0. -1.
       -4    1    5    5    0  501 -0.35082443245E+03 -0.44757191664E+02  0.96351278383E+02  0.36656046412E+03  0.14200000000E+01 0.  1.
</event>
<event>
 9   1  0.7335000E-04  0.9931346E+03  0.7818608E-02  0.9316107E-01
       21   -1    0    0  503  502  0.00000000000E+00  0.00000000000E+00  0.65977873749E+03  0.65977873749E+03  0.00000000000E+00 0. -1.
       21   -1    0    0  502  503 -0.00000000000E+00 -0.00000000000E+00 -0.37372996663E+03  0.37372996663E+03  0.00000000000E+00 0.  1.
       39    2    1    2    0    0  0.56843418861E-13  0.56843418861E-13  0.28604877085E+03  0.10335087041E+04  0.99313460427E+03 0.  0.
       24    2    3    3    0    0  0.26861073562E+03  0.31832189953E+03 -0.12565221327E+03  0.44245015810E+03  0.80579803297E+02 0.  0.
      -24    2    3    3    0    0 -0.26861073562E+03 -0.31832189953E+03  0.41170098412E+03  0.59105854602E+03  0.79824466717E+02 0.  0.
      -13    1    4    4    0    0  0.79961279985E+02  0.78113816252E+02 -0.70276171106E+02  0.13203906548E+03  0.00000000000E+00 0.  1.
       14    1    4    4    0    0  0.18864945563E+03  0.24020808328E+03 -0.55376042160E+02  0.31041109263E+03  0.00000000000E+00 0. -1.
        1    1    5    5  501    0 -0.83615674815E+02 -0.10799338398E+03  0.18912334857E+03  0.23328478954E+03  0.00000000000E+00 0. -1.
       -2    1    5    5    0  501 -0.18499506080E+03 -0.21032851555E+03  0.22257763555E+03  0.35777375648E+03  0.00000000000E+00 0.  1.
</event>
<event>
 9   1  0.7335000E-04  0.9997889E+03  0.7818608E-02  0.9308776E-01
       21   -1    0    0  503  502  0.00000000000E+00  0.00000000000E+00  0.11983747749E+04  0.11983747749E+04  0.00000000000E+00 0.  1.
       21   -1    0    0  502  503 -0.00000000000E+00 -0.00000000000E+00 -0.20852781854E+03  0.20852781854E+03  0.00000000000E+00 0. -1.
       39    2    1    2    0    0  0.00000000000E+00  0.00000000000E+00  0.98984695638E+03  0.14069025935E+04  0.99978893293E+03 0.  0.
       24    2    3    3    0    0 -0.45416075778E+02 -0.38563114291E+03  0.92341065074E+03  0.10050028455E+04  0.81052397568E+02 0.  0.
      -24    2    3    3    0    0  0.45416075778E+02  0.38563114291E+03  0.66436305637E+02  0.40189974800E+03  0.79596648270E+02 0.  0.
      -13    1    4    4    0    0 -0.55506503763E+02 -0.23078990855E+03  0.62710010617E+03  0.67052180949E+03  0.00000000000E+00 0.  1.
       14    1    4    4    0    0  0.10090427985E+02 -0.15484123435E+03  0.29631054458E+03  0.33448103597E+03  0.00000000000E+00 0. -1.
        3    1    5    5  501    0  0.58427121614E+02  0.15999227875E+03  0.30808317641E+02  0.17309075722E+03  0.00000000000E+00 0. -1.
       -4    1    5    5    0  501 -0.13011045835E+02  0.22563886416E+03  0.35627987996E+02  0.22880899078E+03  0.14200000000E+01 0.  1.
</event>
<event>
 9   1  0.7335000E-04  0.1136648E+04  0.7818608E-02  0.9170190E-01
       21   -1    0    0  503  502  0.00000000000E+00  0.00000000000E+00  0.39443422762E+03  0.39443422762E+03  0.00000000000E+00 0.  1.
       21   -1    0    0  502  503 -0.00000000000E+00 -0.00000000000E+00 -0.81887513035E+03  0.81887513035E+03  0.00000000000E+00 0. -1.
       39    2    1    2    0    0  0.00000000000E+00  0.14210854715E-13 -0.42444090273E+03  0.12133093580E+04  0.11366483705E+04 0.  0.
       24    2    3    3    0    0  0.54027862163E+03 -0.57133936940E+02 -0.36787978323E+03  0.66093834431E+03  0.79615854765E+02 0.  0.
      -24    2    3    3    0    0 -0.54027862163E+03  0.57133936940E+02 -0.56561119499E+02  0.55237101366E+03  0.82154128009E+02 0.  0.
      -13    1    4    4    0    0  0.46851804747E+02 -0.27755074662E+02 -0.29754876280E+02  0.62054721335E+02  0.00000000000E+00 0.  1.
       14    1    4    4    0    0  0.49342681688E+03 -0.29378862278E+02 -0.33812490695E+03  0.59888362298E+03  0.00000000000E+00 0. -1.
        1    1    5    5  501    0 -0.19738959350E+03  0.12321603783E+02 -0.59578895941E+02  0.20655294329E+03  0.00000000000E+00 0. -1.
       -2    1    5    5    0  501 -0.34288902813E+03  0.44812333156E+02  0.30177764420E+01  0.34581807037E+03  0.00000000000E+00 0.  1.
</event>
<event>
 9   1  0.7335000E-04  0.9788352E+03  0.7818608E-02  0.9332067E-01
       21   -1    0    0  503  502  0.00000000000E+00  0.00000000000E+00  0.40106078855E+03  0.40106078855E+03  0.00000000000E+00 0. -1.
       21   -1    0    0  502  503 -0.00000000000E+00 -0.00000000000E+00 -0.59724008019E+03  0.59724008019E+03  0.00000000000E+00 0.  1.
       39    2    1    2    0    0  0.00000000000E+00 -0.14210854715E-13 -0.19617929163E+03  0.99830086874E+03  0.97883518023E+03 0.  0.
       24    2    3    3    0    0 -0.14159963523E+03  0.12721188382E+03  0.35413805497E+03  0.41050444836E+03  0.82866278190E+02 0.  0.
      -24    2    3    3    0    0  0.14159963523E+03 -0.12721188382E+03 -0.55031734661E+03  0.58779642038E+03  0.80138191617E+02 0.  0.
      -13    1    4    4    0    0 -0.46108902401E+02  0.35523053894E+02  0.19499897710E+03  0.20350066169E+03  0.00000000000E+00 0.  1.
       14    1    4    4    0    0 -0.95490732827E+02  0.91688829922E+02  0.15913907787E+03  0.20700378667E+03  0.00000000000E+00 0. -1.
        1    1    5    5  501    0 -0.11902473533E+00 -0.59270603495E+00 -0.87205425961E+02  0.87207521375E+02  0.00000000000E+00 0. -1.
       -2    1    5    5    0  501  0.14171865996E+03 -0.12661917778E+03 -0.46311192064E+03  0.50058889901E+03  0.00000000000E+00 0.  1.
</event>
<event>
 9   1  0.7335000E-04  0.9993754E+03  0.7818608E-02  0.9309230E-01
       21   -1    0    0  503  502  0.00000000000E+00  0.00000000000E+00  0.61120507039E+03  0.61120507039E+03  0.00000000000E+00 0. -1.
       21   -1    0    0  502  503 -0.00000000000E+00 -0.00000000000E+00 -0.40851720743E+03  0.40851720743E+03  0.00000000000E+00 0.  1.
       39    2    1    2    0    0  0.00000000000E+00 -0.28421709430E-13  0.20268786296E+03  0.10197222778E+04  0.99937538198E+03 0.  0.
       24    2    3    3    0    0 -0.35432937973E+03 -0.23297614104E+03 -0.15575286578E+03  0.45865489962E+03  0.79234904667E+02 0.  0.
      -24    2    3    3    0    0  0.35432937973E+03  0.23297614104E+03  0.35844072874E+03  0.56106737820E+03  0.80558396399E+02 0.  0.
      -13    1    4    4    0    0 -0.32530832175E+03 -0.21311543020E+03 -0.11654803755E+03  0.40598908341E+03  0.00000000000E+00 0.  1.
       14    1    4    4    0    0 -0.29021057980E+02 -0.19860710837E+02 -0.39204828229E+02  0.52665816216E+02  0.00000000000E+00 0. -1.
        3    1    5    5  501    0  0.31854223242E+03  0.23471155425E+03  0.33211014902E+03  0.51658089262E+03  0.00000000000E+00 0. -1.
       -4    1    5    5    0  501  0.35787147307E+02 -0.17354132096E+01  0.26330579721E+02  0.44486485587E+02  0.14200000000E+01 0.  1.
</event>
<event>
 9   1  0.7335000E-04  0.1010558E+04  0.7818608E-02  0.9297040E-01
       21   -1    0    0  503  502  0.00000000000E+00  0.00000000000E+00  0.18913059915E+03  0.18913059915E+03  0.00000000000E+00 0.  1.
       21   -1    0    0  502  503 -0.00000000000E+00 -0.00000000000E+00 -0.13498980014E+04  0.13498980014E+04  0.00000000000E+00 0. -1.
       39    2    1    2    0    0  0.00000000000E+00 -0.56843418861E-13 -0.11607674022E+04  0.15390286005E+04  0.10105582968E+04 0.  0.
       24    2    3    3    0    0  0.25635836988E+03 -0.34053014711E+03 -0.18544753505E+03  0.47147441445E+03  0.78847576501E+02 0.  0.
      -24    2    3    3    0    0 -0.25635836988E+03  0.34053014711E+03 -0.97531986716E+03  0.10675541861E+04  0.82113957550E+02 0.  0.
      -13    1    4    4    0    0  0.23063406053E+03 -0.31811360363E+03 -0.14564270951E+03  0.41904669611E+03  0.00000000000E+00 0.  1.
       14    1    4    4    0    0  0.25724309354E+02 -0.22416543483E+02 -0.39804825537E+02  0.52427718332E+02  0.00000000000E+00 0. -1.
        1    1    5    5  501    0 -0.23963411732E+03  0.32278777720E+03 -0.85511104964E+03  0.94489754287E+03  0.00000000000E+00 0. -1.
       -2    1    5    5    0  501 -0.16724252561E+02  0.17742369913E+02 -0.12020881752E+03  0.12265664321E+03  0.00000000000E+00 0.  1.
</event>
<event>
 9   1  0.7335000E-04  0.1002253E+04  0.7818608E-02  0.9306078E-01
       21   -1    0    0  503  502  0.00000000000E+00  0.00000000000E+00  0.10616347002E+03  0.10616347002E+03  0.00000000000E+00 0. -1.
       21   -1    0    0  502  503 -0.00000000000E+00 -0.00000000000E+00 -0.23654801590E+04  0.23654801590E+04  0.00000000000E+00 0.  1.
       39    2    1    2    0    0  0.00000000000E+00  0.00000000000E+00 -0.22593166890E+04  0.24716436291E+04  0.10022526267E+04 0.  0.
       24    2    3    3    0    0  0.18343540960E+02 -0.47497812660E+02  0.82573027848E+02  0.12777052101E+03  0.83153312677E+02 0.  0.
      -24    2    3    3    0    0 -0.18343540960E+02  0.47497812660E+02 -0.23418897169E+04  0.23438731081E+04  0.81860692476E+02 0.  0.
      -13    1    4    4    0    0  0.31599290039E+02  0.13904525776E+02  0.25784246035E+02  0.43089190195E+02  0.00000000000E+00 0.  1.
       14    1    4    4    0    0 -0.13255749079E+02 -0.61402338436E+02  0.56788781813E+02  0.84681330817E+02  0.00000000000E+00 0. -1.
        1    1    5    5  501    0  0.23366580189E+02  0.49397400794E+02 -0.13396619375E+04  0.13407759720E+04  0.00000000000E+00 0. -1.
       -2    1    5    5    0  501 -0.41710121149E+02 -0.18995881339E+01 -0.10022277794E+04  0.10030971361E+04  0.00000000000E+00 0.  1.
</event>
<event>
 9   1  0.7335000E-04  0.1004672E+04  0.7818608E-02  0.9303436E-01
        2   -1    0    0  501    0  0.00000000000E+00  0.00000000000E+00  0.27383638075E+03  0.27383638075E+03  0.00000000000E+00 0. -1.
       -2   -1    0    0    0  501 -0.00000000000E+00 -0.00000000000E+00 -0.92150385790E+03  0.92150385790E+03  0.00000000000E+00 0.  1.
       39    2    1    2    0    0 -0.28421709430E-13  0.00000000000E+00 -0.64766747715E+03  0.11953402387E+04  0.10046716504E+04 0.  0.
       24    2    3    3    0    0 -0.22102452561E+03  0.43606692042E+03 -0.22583329085E+03  0.54450270665E+03  0.80475600582E+02 0.  0.
      -24    2    3    3    0    0  0.22102452561E+03 -0.43606692042E+03 -0.42183418630E+03  0.65083753200E+03  0.81481361908E+02 0.  0.
      -13    1    4    4    0    0 -0.22649622281E+03  0.40856154017E+03 -0.20873874512E+03  0.51165900243E+03  0.00000000000E+00 0.  1.
       14    1    4    4    0    0  0.54716972088E+01  0.27505380248E+02 -0.17094545730E+02  0.32843704217E+02  0.00000000000E+00 0. -1.
        3    1    5    5  502    0  0.16942114708E+03 -0.25154063561E+03 -0.27567559709E+03  0.40984539923E+03  0.00000000000E+00 0. -1.
       -4    1    5    5    0  502  0.51603378523E+02 -0.18452628481E+03 -0.14615858921E+03  0.24099213277E+03  0.14200000000E+01 0.  1.
</event>
<event>
 9   1  0.7335000E-04  0.1012080E+04  0.7818608E-02  0.9295394E-01
       21   -1    0    0  503  502  0.00000000000E+00  0.00000000000E+00  0.36820642540E+03  0.36820642540E+03  0.00000000000E+00 0. -1.
       21   -1    0    0  502  503 -0.00000000000E+00 -0.00000000000E+00 -0.69546931067E+03  0.69546931067E+03  0.00000000000E+00 0.  1.
       39    2    1    2    0    0 -0.56843418861E-13 -0.56843418861E-13 -0.32726288526E+03  0.10636757361E+04  0.10120795796E+04 0.  0.
       24    2    3    3    0    0 -0.25032516619E+03  0.40330362348E+03 -0.32717872753E+03  0.58223486389E+03  0.81455604163E+02 0.  0.
      -24    2    3    3    0    0  0.25032516619E+03 -0.40330362348E+03 -0.84157737434E-01  0.48144087218E+03  0.80428880272E+02 0.  0.
      -13    1    4    4    0    0 -0.18165869572E+03  0.32544012600E+03 -0.21893984515E+03  0.43225665193E+03  0.00000000000E+00 0.  1.
       14    1    4    4    0    0 -0.68666470473E+02  0.77863497474E+02 -0.10823888237E+03  0.14997821196E+03  0.00000000000E+00 0. -1.
        1    1    5    5  501    0  0.22603780774E+03 -0.32099508407E+03 -0.20845493511E+02  0.39314815162E+03  0.00000000000E+00 0. -1.
       -2    1    5    5    0  501  0.24287358454E+02 -0.82308539407E+02  0.20761335774E+02  0.88292720555E+02  0.00000000000E+00 0.  1.
</event>
<event>
 9   1  0.7335000E-04  0.9787182E+03  0.7818608E-02  0.9332199E-01
       21   -1    0    0  503  502  0.00000000000E+00  0.00000000000E+00  0.11289130786E+03  0.11289130786E+03  0.00000000000E+00 0. -1.
       21   -1    0    0  502  503 -0.00000000000E+00 -0.00000000000E+00 -0.21212644078E+04  0.21212644078E+04  0.00000000000E+00 0.  1.
       39    2    1    2    0    0  0.00000000000E+00  0.28421709430E-13 -0.20083730999E+04  0.22341557157E+04  0.97871816845E+03 0.  0.
       24    2    3    3    0    0  0.40898270989E+03 -0.19095276500E+03 -0.13938277113E+04  0.14673107874E+04  0.80718292345E+02 0.  0.
      -24    2    3    3    0    0 -0.40898270989E+03  0.19095276500E+03 -0.61454538865E+03  0.76684492823E+03  0.81579983953E+02 0.  0.
      -13    1    4    4    0    0  0.34887731494E+03 -0.19237603269E+03 -0.12121695249E+04  0.12759619414E+04  0.00000000000E+00 0.  1.
       14    1    4    4    0    0  0.60105394948E+02  0.14232676897E+01 -0.18165818637E+03  0.19134884600E+03  0.00000000000E+00 0. -1.
        1    1    5    5  501    0 -0.22397538416E+03  0.83619246969E+02 -0.26369590190E+03  0.35593915190E+03  0.00000000000E+00 0. -1.
       -2    1    5    5    0  501 -0.18500732573E+03  0.10733351803E+03 -0.35084948676E+03  0.41090577633E+03  0.00000000000E+00 0.  1.
</event>
<event>
 9   1  0.7335000E-04  0.9957351E+03  0.7818608E-02  0.9313235E-01
       21   -1    0    0  503  502  0.00000000000E+00  0.00000000000E+00  0.15294153123E+03  0.15294153123E+03  0.00000000000E+00 0. -1.
       21   -1    0    0  502  503 -0.00000000000E+00 -0.00000000000E+00 -0.16206983483E+04  0.16206983483E+04  0.00000000000E+00 0.  1.
       39    2    1    2    0    0  0.14210854715E-13  0.56843418861E-13 -0.14677568170E+04  0.17736398795E+04  0.99573507933E+03 0.  0.
       24    2    3    3    0    0  0.80413770575E+02  0.33320922458E+03 -0.13613574832E+04  0.14061663481E+04  0.80714557574E+02 0.  0.
      -24    2    3    3    0    0 -0.80413770575E+02 -0.33320922458E+03 -0.10639933389E+03  0.36747353139E+03  0.78874686518E+02 0.  0.
      -13    1    4    4    0    0  0.67597431415E+02  0.31441249113E+03 -0.11676699682E+04  0.12111472999E+04  0.00000000000E+00 0.  1.
       14    1    4    4    0    0  0.12816339160E+02  0.18796733456E+02 -0.19368751491E+03  0.19501904822E+03  0.00000000000E+00 0. -1.
        3    1    5    5  501    0 -0.73762426498E+02 -0.33144197099E+03 -0.92540962291E+02  0.35193537105E+03  0.00000000000E+00 0. -1.
       -4    1    5    5    0  501 -0.66513440773E+01 -0.17672535927E+01 -0.13858371595E+02  0.15538160334E+02  0.14200000000E+01 0.  1.
</event>
<event>
 9   1  0.7335000E-04  0.9888533E+03  0.7818608E-02  0.9320855E-01
       21   -1    0    0  503  502  0.00000000000E+00  0.00000000000E+00  0.53935295164E+03  0.53935295164E+03  0.00000000000E+00 0.  1.
       21   -1    0    0  502  503 -0.00000000000E+00 -0.00000000000E+00 -0.45324257401E+03  0.45324257401E+03  0.00000000000E+00 0. -1.
       39    2    1    2    0    0  0.35527136788E-14 -0.56843418861E-13  0.86110377627E+02  0.99259552565E+03  0.98885331592E+03 0.  0.
       24    2    3    3    0    0 -0.30644048646E+02  0.29064492598E+03 -0.34907310060E+03  0.46219626772E+03  0.79748539889E+02 0.  0.
      -24    2    3    3    0    0  0.30644048646E+02 -0.29064492598E+03  0.43518347823E+03  0.53039925793E+03  0.80778600983E+02 0.  0.
      -13    1    4    4    0    0 -0.47150024046E+02  0.89938029241E+02 -0.11535331529E+03  0.15368266402E+03  0.00000000000E+00 0.  1.
       14    1    4    4    0    0  0.16505975400E+02  0.20070689674E+03 -0.23371978531E+03  0.30851360370E+03  0.00000000000E+00 0. -1.
        3    1    5    5  501    0  0.26040757422E+02 -0.99080792777E+02  0.93748308015E+02  0.13886637390E+03  0.00000000000E+00 0. -1.
       -4    1    5    5    0  501  0.46032912241E+01 -0.19156413320E+03  0.34143517022E+03  0.39153288403E+03  0.14200000000E+01 0.  1.
</event>
<event>
 9   1  0.7335000E-04  0.1004903E+04  0.7818608E-02  0.9303183E-01
       -2   -1    0    0    0  501 -0.00000000000E+00  0.00000000000E+00  0.16800136069E+03  0.16800136069E+03  0.00000000000E+00 0. -1.
        2   -1    0    0  501    0  0.00000000000E+00 -0.00000000000E+00 -0.15027125036E+04  0.15027125036E+04  0.00000000000E+00 0.  1.
       39    2    1    2    0    0  0.28421709430E-13  0.56843418861E-13 -0.13347111429E+04  0.16707138643E+04  0.10049034686E+04 0.  0.
       24    2    3    3    0    0 -0.18440041740E+03 -0.36683913999E+03 -0.20591924737E+03  0.46716017067E+03  0.85213966356E+02 0.  0.
      -24    2    3    3    0    0  0.18440041740E+03  0.36683913999E+03 -0.11287918955E+04  0.12035536936E+04  0.76130686425E+02 0.  0.
      -13    1    4    4    0    0 -0.11608510295E+02 -0.89543456055E+02 -0.65443283206E+02  0.11151507230E+03  0.00000000000E+00 0.  1.
       14    1    4    4    0    0 -0.17279190710E+03 -0.27729568393E+03 -0.14047596416E+03  0.35564509837E+03  0.00000000000E+00 0. -1.
        1    1    5    5  502    0  0.76401288859E+02  0.23044567915E+03 -0.61998335651E+03  0.66582409863E+03  0.00000000000E+00 0. -1.
       -2    1    5    5    0  502  0.10799912854E+03  0.13639346083E+03 -0.50880853902E+03  0.53772959497E+03  0.00000000000E+00 0.  1.
</event>
<event>
 9   1  0.7335000E-04  0.1005496E+04  0.7818608E-02  0.9302538E-01
        1   -1    0    0  501    0  0.00000000000E+00  0.00000000000E+00  0.19791685370E+04  0.19791685370E+04  0.00000000000E+00 0.  1.
       -1   -1    0    0    0  501 -0.00000000000E+00 -0.00000000000E+00 -0.12770784582E+03  0.12770784582E+03  0.00000000000E+00 0. -1.
       39    2    1    2    0    0 -0.56843418861E-13 -0.11368683772E-12  0.18514606912E+04  0.21068763829E+04  0.10054956000E+04 0.  0.
       24    2    3    3    0    0 -0.41038293980E+03 -0.26998497152E+03  0.10715292324E+04  0.11814722236E+04  0.79972977467E+02 0.  0.
      -24    2    3    3    0    0  0.41038293980E+03  0.26998497152E+03  0.77993145882E+03  0.92540415926E+03  0.82302705901E+02 0.  0.
      -13    1    4    4    0    0 -0.39914293747E+03 -0.27162759695E+03  0.10621898858E+04  0.11667664674E+04  0.00000000000E+00 0.  1.
       14    1    4    4    0    0 -0.11240002327E+02  0.16426254326E+01  0.93393466264E+01  0.14705756221E+02  0.00000000000E+00 0. -1.
        3    1    5    5  502    0  0.35120806599E+03  0.23488805547E+03  0.71657714751E+03  0.83186676370E+03  0.00000000000E+00 0. -1.
       -4    1    5    5    0  502  0.59174873811E+02  0.35096916053E+02  0.63354311311E+02  0.93537395563E+02  0.14200000000E+01 0.  1.
</event>
<event>
 9   1  0.7335000E-04  0.9922429E+03  0.7818608E-02  0.9317094E-01
       21   -1    0    0  503  502  0.00000000000E+00  0.00000000000E+00  0.23536517294E+03  0.23536517294E+03  0.00000000000E+00 0.  1.
       21   -1    0    0  502  503 -0.00000000000E+00 -0.00000000000E+00 -0.10457643287E+04  0.10457643287E+04  0.00000000000E+00 0. -1.
       39    2    1    2    0    0  0.28421709430E-13  0.00000000000E+00 -0.81039915573E+03  0.12811295016E+04  0.99224291798E+03 0.  0.
       24    2    3    3    0    0 -0.13524330817E+03 -0.10458883731E+03  0.18727482092E+03  0.26600256043E+03  0.80348779131E+02 0.  0.
      -24    2    3    3    0    0  0.13524330817E+03  0.10458883731E+03 -0.99767397666E+03  0.10151269412E+04  0.76809932418E+02 0.  0.
      -13    1    4    4    0    0 -0.14315588404E+03 -0.10887481553E+03  0.17695129229E+03  0.25230753543E+03  0.00000000000E+00 0.  1.
       14    1    4    4    0    0  0.79125758717E+01  0.42859782191E+01  0.10323528636E+02  0.13695024999E+02  0.00000000000E+00 0. -1.
        3    1    5    5  501    0  0.72218497498E+02  0.17135389370E+02 -0.29305029649E+03  0.30230383594E+03  0.00000000000E+00 0. -1.
       -4    1    5    5    0  501  0.63024810674E+02  0.87453447937E+02 -0.70462368017E+03  0.71282310524E+03  0.14200000000E+01 0.  1.
</event>
<event>
 9   1  0.7335000E-04  0.1026014E+04  0.7818608E-02  0.9280465E-01
       21   -1    0    0  503  502  0.00000000000E+00  0.00000000000E+00  0.16276291187E+03  0.16276291187E+03  0.00000000000E+00 0. -1.
       21   -1    0    0  502  503 -0.00000000000E+00 -0.00000000000E+00 -0.16169288955E+04  0.16169288955E+04  0.00000000000E+00 0.  1.
       39    2    1    2    0    0  0.00000000000E+00 -0.56843418861E-13 -0.14541659836E+04  0.17796918074E+04  0.10260137530E+04 0.  0.
       24    2    3    3    0    0 -0.21849287170E+03  0.18195645528E+03  0.80828485238E+00  0.29498874402E+03  0.78552015709E+02 0.  0.
      -24    2    3    3    0    0  0.21849287170E+03 -0.18195645528E+03 -0.14549742685E+04  0.14847030633E+04  0.80905981132E+02 0.  0.
      -13    1    4    4    0    0 -0.71556015843E+01  0.31474212581E+02 -0.13879000799E+02  0.35134816846E+02  0.00000000000E+00 0.  1.
       14    1    4    4    0    0 -0.21133727011E+03  0.15048224270E+03  0.14687285651E+02  0.25985392717E+03  0.00000000000E+00 0. -1.
        3    1    5    5  501    0  0.68512876342E+01  0.45388045977E+01 -0.11840462269E+03  0.11868949222E+03  0.00000000000E+00 0. -1.
       -4    1    5    5    0  501  0.21164158406E+03 -0.18649525988E+03 -0.13365696458E+04  0.13660135711E+04  0.14200000000E+01 0.  1.
</event>
<event>
 9   1  0.7335000E-04  0.9892939E+03  0.7818608E-02  0.9320366E-01
       -2   -1    0    0    0  501 -0.00000000000E+00  0.00000000000E+00  0.14714244551E+04  0.14714244551E+04  0.00000000000E+00 0. -1.
        2   -1    0    0  501    0  0.00000000000E+00 -0.00000000000E+00 -0.16628487327E+03  0.16628487327E+03  0.00000000000E+00 0.  1.
       39    2    1    2    0    0  0.56843418861E-13 -0.35527136788E-14  0.13051395818E+04  0.16377093284E+04  0.98929394830E+03 0.  0.
       24    2    3    3    0    0  0.43196945303E+03 -0.29179382487E+02  0.10257392096E+04  0.11162414193E+04  0.80030841000E+02 0.  0.
      -24    2    3    3    0    0 -0.43196945303E+03  0.29179382487E+02  0.27940037226E+03  0.52146790901E+03  0.80094740098E+02 0.  0.
      -13    1    4    4    0    0  0.61821975937E+02  0.21976715905E+02  0.12785271679E+03  0.14370542767E+03  0.00000000000E+00 0.  1.
       14    1    4    4    0    0  0.37014747710E+03 -0.51156098391E+02  0.89788649277E+03  0.97253599167E+03  0.00000000000E+00 0. -1.
        1    1    5    5  502    0 -0.23182580776E+01 -0.76061373690E+01  0.61495352014E+00  0.79753253239E+01  0.00000000000E+00 0. -1.
       -2    1    5    5    0  502 -0.42965119496E+03  0.36785519856E+02  0.27878541874E+03  0.51349258369E+03  0.00000000000E+00 0.  1.
</event>
<event>
 9   1  0.7335000E-04  0.9910808E+03  0.7818608E-02  0.9318382E-01
       21   -1    0    0  503  502  0.00000000000E+00  0.00000000000E+00  0.19712735525E+03  0.19712735525E+03  0.00000000000E+00 0. -1.
       21   -1    0    0  502  503 -0.00000000000E+00 -0.00000000000E+00 -0.12456936513E+04  0.12456936513E+04  0.00000000000E+00 0.  1.
       39    2    1    2    0    0  0.17763568394E-14 -0.14210854715E-13 -0.10485662960E+04  0.14428210065E+04  0.99108081392E+03 0.  0.
       24    2    3    3    0    0 -0.12668858671E+02  0.84402416944E+02  0.17702703195E+03  0.21151813885E+03  0.78211796138E+02 0.  0.
      -24    2    3    3    0    0  0.12668858671E+02 -0.84402416944E+02 -0.12255933280E+04  0.12313028677E+04  0.82118685046E+02 0.  0.
      -13    1    4    4    0    0 -0.14148105958E+02  0.52684778568E+02  0.32402390735E+02  0.63448953658E+02  0.00000000000E+00 0.  1.
       14    1    4    4    0    0  0.14792472873E+01  0.31717638376E+02  0.14462464121E+03  0.14806918519E+03  0.00000000000E+00 0. -1.
        3    1    5    5  501    0  0.11283728280E+02 -0.66128022072E+02 -0.40610757290E+03  0.41161097968E+03  0.00000000000E+00 0. -1.
       -4    1    5    5    0  501  0.13851303906E+01 -0.18274394873E+02 -0.81948575506E+03  0.81969188799E+03  0.14200000000E+01 0.  1.
</event>
<event>
 9   1  0.7335000E-04  0.1006132E+04  0.7818608E-02  0.9301844E-01
       21   -1    0    0  503  502  0.00000000000E+00  0.00000000000E+00  0.75567566387E+03  0.75567566387E+03  0.00000000000E+00 0.  1.
       21   -1    0    0  502  503 -0.00000000000E+00 -0.00000000000E+00 -0.33489981357E+03  0.33489981357E+03  0.00000000000E+00 0. -1.
       39    2    1    2    0    0  0.00000000000E+00  0.28421709430E-13  0.42077585030E+03  0.10905754774E+04  0.10061324743E+04 0.  0.
       24    2    3    3    0    0  0.32104942274E+02  0.16080698362E+03  0.71866074053E+03  0.74120420139E+03  0.77593781178E+02 0.  0.
      -24    2    3    3    0    0 -0.32104942274E+02 -0.16080698362E+03 -0.29788489024E+03  0.34937127604E+03  0.80220118390E+02 0.  0.
      -13    1    4    4    0    0  0.57049779421E+02  0.10941213805E+03  0.52409221264E+03  0.53842208409E+03  0.00000000000E+00 0.  1.
       14    1    4    4    0    0 -0.24944837146E+02  0.51394845562E+02  0.19456852789E+03  0.20278211730E+03  0.00000000000E+00 0. -1.
        1    1    5    5  501    0 -0.28265686980E+02 -0.16814033441E+03 -0.29476769183E+03  0.34052622992E+03  0.00000000000E+00 0. -1.
       -2    1    5    5    0  501 -0.38392552946E+01  0.73333507941E+01 -0.31171984126E+01  0.88450461294E+01  0.00000000000E+00 0.  1.
</event>
<event>
 9   1  0.7335000E-04  0.9960407E+03  0.7818608E-02  0.9312898E-01
       21   -1    0    0  503  502  0.00000000000E+00  0.00000000000E+00  0.23469982159E+03  0.23469982159E+03  0.00000000000E+00 0. -1.
       21   -1    0    0  502  503 -0.00000000000E+00 -0.00000000000E+00 -0.10567721977E+04  0.10567721977E+04  0.00000000000E+00 0.  1.
       39    2    1    2    0    0  0.56843418861E-13  0.00000000000E+00 -0.82207237614E+03  0.12914720193E+04  0.99604065432E+03 0.  0.
       24    2    3    3    0    0  0.32727573792E+03 -0.26268841507E+03 -0.74272810214E+03  0.85680121309E+03  0.79678560563E+02 0.  0.
      -24    2    3    3    0    0 -0.32727573792E+03  0.26268841507E+03 -0.79344274002E+02  0.43467080622E+03  0.80799652960E+02 0.  0.
      -13    1    4    4    0    0  0.20144574925E+03 -0.11364746757E+03 -0.42908432693E+03  0.48745204522E+03  0.00000000000E+00 0.  1.
       14    1    4    4    0    0  0.12582998867E+03 -0.14904094750E+03 -0.31364377521E+03  0.36934916787E+03  0.00000000000E+00 0. -1.
        1    1    5    5  501    0 -0.23756141520E+03  0.14400519934E+03 -0.39023887213E+02  0.28052769418E+03  0.00000000000E+00 0. -1.
       -2    1    5    5    0  501 -0.89714322715E+02  0.11868321574E+03 -0.40320386789E+02  0.15414311204E+03  0.00000000000E+00 0.  1.
</event>
<event>
 9   1  0.7335000E-04  0.1002515E+04  0.7818608E-02  0.9305790E-01
       21   -1    0    0  503  502  0.00000000000E+00  0.00000000000E+00  0.75158704143E+03  0.75158704143E+03  0.00000000000E+00 0. -1.
       21   -1    0    0  502  503 -0.00000000000E+00 -0.00000000000E+00 -0.33430490512E+03  0.33430490512E+03  0.00000000000E+00 0.  1.
       39    2    1    2    0    0  0.28421709430E-13  0.14210854715E-13  0.41728213632E+03  0.10858919465E+04  0.10025153058E+04 0.  0.
       24    2    3    3    0    0 -0.19566662542E+03  0.93186523575E+02 -0.27282005496E+03  0.35807860583E+03  0.82585404796E+02 0.  0.
      -24    2    3    3    0    0  0.19566662542E+03 -0.93186523575E+02  0.69010219128E+03  0.72781334072E+03  0.80635401919E+02 0.  0.
      -13    1    4    4    0    0 -0.19035992201E+03  0.70510306816E+02 -0.26434187416E+03  0.33329450897E+03  0.00000000000E+00 0.  1.
       14    1    4    4    0    0 -0.53067034146E+01  0.22676216759E+02 -0.84781808005E+01  0.24784096863E+02  0.00000000000E+00 0. -1.
        3    1    5    5  501    0  0.10022620143E+03 -0.35920690790E+02  0.46055464366E+03  0.47270092794E+03  0.00000000000E+00 0. -1.
       -4    1    5    5    0  501  0.95440423989E+02 -0.57265832785E+02  0.22954754762E+03  0.25511241278E+03  0.14200000000E+01 0.  1.
</event>
<event>
 9   1  0.7335000E-04  0.1001643E+04  0.7818608E-02  0.9306745E-01
       21   -1    0    0  503  502  0.00000000000E+00  0.00000000000E+00  0.14328623498E+03  0.14328623498E+03  0.00000000000E+00 0.  1.
       21   -1    0    0  502  503 -0.00000000000E+00 -0.00000000000E+00 -0.17504968374E+04  0.17504968374E+04  0.00000000000E+00 0. -1.
       39    2    1    2    0    0  0.00000000000E+00  0.00000000000E+00 -0.16072106025E+04  0.18937830724E+04  0.10016428529E+04 0.  0.
       24    2    3    3    0    0 -0.21301661716E+03 -0.31309660079E+03 -0.14038806068E+04  0.14562067762E+04  0.79068680993E+02 0.  0.
      -24    2    3    3    0    0  0.21301661716E+03  0.31309660079E+03 -0.20332999565E+03  0.43757629620E+03  0.82002239292E+02 0.  0.
      -13    1    4    4    0    0 -0.55900686086E+02 -0.35194577206E+02 -0.29374265594E+03  0.30107854937E+03  0.00000000000E+00 0.  1.
       14    1    4    4    0    0 -0.15711593108E+03 -0.27790202358E+03 -0.11101379509E+04  0.11551282269E+04  0.00000000000E+00 0. -1.
        1    1    5    5  501    0  0.23770837904E+02  0.65892286737E+02 -0.69588190388E+02  0.98738859764E+02  0.00000000000E+00 0. -1.
       -2    1    5    5    0  501  0.18924577926E+03  0.24720431405E+03 -0.13374180526E+03  0.33883743643E+03  0.00000000000E+00 0.  1.
</event>
<event>
 9   1  0.7335000E-04  0.1067821E+04  0.7818608E-02  0.9237136E-01
       21   -1    0    0  503  502  0.00000000000E+00  0.00000000000E+00  0.16872063617E+03  0.16872063617E+03  0.00000000000E+00 0. -1.
       21   -1    0    0  502  503 -0.00000000000E+00 -0.00000000000E+00 -0.16895402546E+04  0.16895402546E+04  0.00000000000E+00 0.  1.
       39    2    1    2    0    0 -0.56843418861E-13  0.28421709430E-13 -0.15208196184E+04  0.18582608908E+04  0.10678207838E+04 0.  0.
       24    2    3    3    0    0 -0.39443555633E+03  0.17149575218E+03 -0.22823932642E+03  0.49358784292E+03  0.80904681175E+02 0.  0.
      -24    2    3    3    0    0  0.39443555633E+03 -0.17149575218E+03 -0.12925802920E+04  0.13646730479E+04  0.81108046138E+02 0.  0.
      -13    1    4    4    0    0 -0.33872278372E+03  0.11455087935E+03 -0.19480712563E+03  0.40719140998E+03  0.00000000000E+00 0.  1.
       14    1    4    4    0    0 -0.55712772618E+02  0.56944872826E+02 -0.33432200787E+02  0.86396432932E+02  0.00000000000E+00 0. -1.
        3    1    5    5  501    0  0.12267153336E+03 -0.95571354826E+02 -0.46247273120E+03  0.48791722255E+03  0.00000000000E+00 0. -1.
       -4    1    5    5    0  501  0.27176402298E+03 -0.75924397349E+02 -0.83010756083E+03  0.87675582532E+03  0.14200000000E+01 0.  1.
</event>
<event>
 9   1  0.7335000E-04  0.1008958E+04  0.7818608E-02  0.9298774E-01
       21   -1    0    0  503  502  0.00000000000E+00  0.00000000000E+00  0.40046044333E+03  0.40046044333E+03  0.00000000000E+00 0. -1.
       21   -1    0    0  502  503 -0.00000000000E+00 -0.00000000000E+00 -0.63551626677E+03  0.63551626677E+03  0.00000000000E+00 0.  1.
       39    2    1    2    0    0  0.00000000000E+00  0.00000000000E+00 -0.23505582344E+03  0.10359767101E+04  0.10089581278E+04 0.  0.
       24    2    3    3    0    0 -0.13643768620E+03 -0.21312629462E+03 -0.55786457553E+03  0.61800411048E+03  0.81719864500E+02 0.  0.
      -24    2    3    3    0    0  0.13643768620E+03  0.21312629462E+03  0.32280875209E+03  0.41797259963E+03  0.80358844776E+02 0.  0.
      -13    1    4    4    0    0 -0.81051254184E+02 -0.17993638941E+03 -0.46240950792E+03  0.50276133807E+03  0.00000000000E+00 0.  1.
       14    1    4    4    0    0 -0.55386432016E+02 -0.33189905208E+02 -0.95455067613E+02  0.11524277241E+03  0.00000000000E+00 0. -1.
        3    1    5    5  501    0  0.40350098467E+02  0.11665802492E+03  0.19762269621E+03  0.23300634172E+03  0.00000000000E+00 0. -1.
       -4    1    5    5    0  501  0.96087587733E+02  0.96468269701E+02  0.12518605589E+03  0.18496625791E+03  0.14200000000E+01 0.  1.
</event>
<event>
 9   1  0.7335000E-04  0.9911975E+03  0.7818608E-02  0.9318252E-01
       21   -1    0    0  503  502  0.00000000000E+00  0.00000000000E+00  0.42862069081E+03  0.42862069081E+03  0.00000000000E+00 0. -1.
       21   -1    0    0  502  503 -0.00000000000E+00 -0.00000000000E+00 -0.57304304106E+03  0.57304304106E+03  0.00000000000E+00 0.  1.
       39    2    1    2    0    0 -0.28421709430E-13  0.00000000000E+00 -0.14442235025E+03  0.10016637319E+04  0.99119746594E+03 0.  0.
       24    2    3    3    0    0  0.22469838994E+03  0.38256924819E+03  0.13570587227E+03  0.47077022119E+03  0.79749114692E+02 0.  0.
      -24    2    3    3    0    0 -0.22469838994E+03 -0.38256924819E+03 -0.28012822252E+03  0.53089351067E+03  0.80792960843E+02 0.  0.
      -13    1    4    4    0    0  0.23272245232E+02  0.37855869449E+02  0.40955721606E+02  0.60432072463E+02  0.00000000000E+00 0.  1.
       14    1    4    4    0    0  0.20142614470E+03  0.34471337874E+03  0.94750150661E+02  0.41033814873E+03  0.00000000000E+00 0. -1.
        3    1    5    5  501    0 -0.50401197560E+02 -0.13407899154E+03 -0.56939316154E+02  0.15414130664E+03  0.00000000000E+00 0. -1.
       -4    1    5    5    0  501 -0.17429719238E+03 -0.24849025665E+03 -0.22318890637E+03  0.37675220403E+03  0.14200000000E+01 0.  1.
</event>
<event>
 9   1  0.7335000E-04  0.9940858E+03  0.7818608E-02  0.9315055E-01
       21   -1    0    0  503  502  0.00000000000E+00  0.00000000000E+00  0.14788969208E+03  0.14788969208E+03  0.00000000000E+00 0.  1.
       21   -1    0    0  502  503 -0.00000000000E+00 -0.00000000000E+00 -0.16705129723E+04  0.16705129723E+04  0.00000000000E+00 0. -1.
       39    2    1    2    0    0  0.00000000000E+00  0.71054273576E-14 -0.15226232802E+04  0.18184026644E+04  0.99408580936E+03 0.  0.
       24    2    3    3    0    0 -0.80808503165E+02  0.52188167870E+02  0.11847531560E+03  0.17220408839E+03  0.79776115499E+02 0.  0.
      -24    2    3    3    0    0  0.80808503165E+02 -0.52188167870E+02 -0.16410985958E+04  0.16461985760E+04  0.86669091131E+02 0.  0.
      -13    1    4    4    0    0 -0.52268245187E+02  0.69424530961E+02  0.10486335843E+03  0.13619125851E+03  0.00000000000E+00 0.  1.
       14    1    4    4    0    0 -0.28540257978E+02 -0.17236363090E+02  0.13611957164E+02  0.36012829879E+02  0.00000000000E+00 0. -1.
        3    1    5    5  501    0  0.86193790221E+02 -0.65218248965E+02 -0.15691237103E+04  0.15728420161E+04  0.00000000000E+00 0. -1.
       -4    1    5    5    0  501 -0.53852870561E+01  0.13030081094E+02 -0.71974885513E+02  0.73356559861E+02  0.14200000000E+01 0.  1.
</event>
<event>
 9   1  0.7335000E-04  0.9955235E+03  0.7818608E-02  0.9313468E-01
       21   -1    0    0  503  502  0.00000000000E+00  0.00000000000E+00  0.25228883541E+03  0.25228883541E+03  0.00000000000E+00 0.  1.
       21   -1    0    0  502  503 -0.00000000000E+00 -0.00000000000E+00 -0.98207588722E+03  0.98207588722E+03  0.00000000000E+00 0. -1.
       39    2    1    2    0    0 -0.71054273576E-14  0.71054273576E-14 -0.72978705181E+03  0.12343647226E+04  0.99552354441E+03 0.  0.
       24    2    3    3    0    0 -0.55753669946E+02  0.48112604384E+02  0.23722823651E+03  0.26121278367E+03  0.80818238897E+02 0.  0.
      -24    2    3    3    0    0  0.55753669946E+02 -0.48112604384E+02 -0.96701528833E+03  0.97315193896E+03  0.80516048299E+02 0.  0.
      -13    1    4    4    0    0 -0.63507439652E+01  0.43673445181E+02  0.18068400127E+03  0.18599572596E+03  0.00000000000E+00 0.  1.
       14    1    4    4    0    0 -0.49402925981E+02  0.44391592033E+01  0.56544235247E+02  0.75217057704E+02  0.00000000000E+00 0. -1.
        3    1    5    5  501    0  0.85217501429E+01  0.16362317462E+01 -0.58238571722E+03  0.58245035935E+03  0.00000000000E+00 0. -1.
       -4    1    5    5    0  501  0.47231919803E+02 -0.49748836131E+02 -0.38462957111E+03  0.39070157962E+03  0.14200000000E+01 0.  1.
</event>
<event>
 9   1  0.7335000E-04  0.9920868E+03  0.7818608E-02  0.9317267E-01
       21   -1    0    0  503  502  0.00000000000E+00  0.00000000000E+00  0.80073671398E+03  0.80073671398E+03  0.00000000000E+00 0.  1.
       21   -1    0    0  502  503 -0.00000000000E+00 -0.00000000000E+00 -0.30729081352E+03  0.30729081352E+03  0.00000000000E+00 0. -1.
       39    2    1    2    0    0  0.00000000000E+00  0.14210854715E-13  0.49344590046E+03  0.11080275275E+04  0.99208676286E+03 0.  0.
       24    2    3    3    0    0  0.40343160892E+03  0.12014423470E+03 -0.33357401863E+02  0.42901549336E+03  0.75827943889E+02 0.  0.
      -24    2    3    3    0    0 -0.40343160892E+03 -0.12014423470E+03  0.52680330232E+03  0.67901203415E+03  0.79648747495E+02 0.  0.
      -13    1    4    4    0    0  0.91189953096E+02  0.33402650395E+02  0.23698578984E+02  0.99964830040E+02  0.00000000000E+00 0.  1.
       14    1    4    4    0    0  0.31224165582E+03  0.86741584305E+02 -0.57055980847E+02  0.32905066332E+03  0.00000000000E+00 0. -1.
        3    1    5    5  501    0 -0.12724653357E+03 -0.29773992506E+02  0.10949501136E+03  0.17049143219E+03  0.00000000000E+00 0. -1.
       -4    1    5    5    0  501 -0.27618507535E+03 -0.90370242193E+02  0.41730829096E+03  0.50852060197E+03  0.14200000000E+01 0.  1.
</event>
<event>
 9   1  0.7335000E-04  0.9734491E+03  0.7818608E-02  0.9338154E-01
       21   -1    0    0  503  502  0.00000000000E+00  0.00000000000E+00  0.16969195021E+04  0.16969195021E+04  0.00000000000E+00 0. -1.
       21   -1    0    0  502  503 -0.00000000000E+00 -0.00000000000E+00 -0.13960637195E+03  0.13960637195E+03  0.00000000000E+00 0.  1.
       39    2    1    2    0    0 -0.28421709430E-13 -0.56843418861E-13  0.15573131302E+04  0.18365258741E+04  0.97344907454E+03 0.  0.
       24    2    3    3    0    0  0.18946350333E+03  0.39374311528E+03  0.11537876813E+04  0.12363773577E+04  0.80454317762E+02 0.  0.
      -24    2    3    3    0    0 -0.18946350333E+03 -0.39374311528E+03  0.40352544886E+03  0.60014851633E+03  0.80096153805E+02 0.  0.
      -13    1    4    4    0    0  0.10095602188E+02  0.77467891455E+02  0.15739870260E+03  0.17572008129E+03  0.00000000000E+00 0.  1.
       14    1    4    4    0    0  0.17936790114E+03  0.31627522382E+03  0.99638897873E+03  0.10606572765E+04  0.00000000000E+00 0. -1.
        3    1    5    5  501    0 -0.13536119079E+03 -0.19086932228E+03  0.22315068349E+03  0.32334188981E+03  0.00000000000E+00 0. -1.
       -4    1    5    5    0  501 -0.54102312542E+02 -0.20287379300E+03  0.18037476536E+03  0.27680662652E+03  0.14200000000E+01 0.  1.
</event>
<event>
 9   1  0.7335000E-04  0.9982235E+03  0.7818608E-02  0.9310495E-01
       21   -1    0    0  503  502  0.00000000000E+00  0.00000000000E+00  0.41332026593E+03  0.41332026593E+03  0.00000000000E+00 0.  1.
       21   -1    0    0  502  503 -0.00000000000E+00 -0.00000000000E+00 -0.60271067784E+03  0.60271067784E+03  0.00000000000E+00 0. -1.
       39    2    1    2    0    0  0.00000000000E+00 -0.56843418861E-13 -0.18939041191E+03  0.10160309438E+04  0.99822349730E+03 0.  0.
       24    2    3    3    0    0 -0.27156193529E+03 -0.38697088015E+03 -0.23448448678E+03  0.53411339910E+03  0.82473036637E+02 0.  0.
      -24    2    3    3    0    0  0.27156193529E+03  0.38697088015E+03  0.45094074867E+02  0.48191754467E+03  0.81967661225E+02 0.  0.
      -13    1    4    4    0    0 -0.16152966254E+02 -0.23415613827E+01 -0.10372359547E+00  0.16322131818E+02  0.00000000000E+00 0.  1.
       14    1    4    4    0    0 -0.25540896904E+03 -0.38462931877E+03 -0.23438076318E+03  0.51779126728E+03  0.00000000000E+00 0. -1.
        1    1    5    5  501    0  0.13448100957E+02  0.17182470061E+01  0.10035559460E+02  0.16867609368E+02  0.00000000000E+00 0. -1.
       -2    1    5    5    0  501  0.25811383433E+03  0.38525263314E+03  0.35058515407E+02  0.46504993530E+03  0.00000000000E+00 0.  1.
</event>
<event>
 9   1  0.7335000E-04  0.9977005E+03  0.7818608E-02  0.9311070E-01
       21   -1    0    0  503  502  0.00000000000E+00  0.00000000000E+00  0.13401029400E+03  0.13401029400E+03  0.00000000000E+00 0. -1.
       21   -1    0    0  502  503 -0.00000000000E+00 -0.00000000000E+00 -0.18569585012E+04  0.18569585012E+04  0.00000000000E+00 0.  1.
       39    2    1    2    0    0  0.00000000000E+00  0.56843418861E-13 -0.17229482072E+04  0.19909687952E+04  0.99770046543E+03 0.  0.
       24    2    3    3    0    0  0.29172295278E+03 -0.14301682090E+03 -0.12398282690E+03  0.35734041355E+03  0.82245592889E+02 0.  0.
      -24    2    3    3    0    0 -0.29172295278E+03  0.14301682090E+03 -0.15989653803E+04  0.16336283816E+04  0.80593484068E+02 0.  0.
      -13    1    4    4    0    0  0.24724320592E+02 -0.30280596716E+02 -0.39221996698E+02  0.55376633982E+02  0.00000000000E+00 0.  1.
       14    1    4    4    0    0  0.26699863219E+03 -0.11273622419E+03 -0.84760830205E+02  0.30196377957E+03  0.00000000000E+00 0. -1.
        1    1    5    5  501    0 -0.47994747374E+02  0.57844799614E+02 -0.30179622797E+03  0.31101524051E+03  0.00000000000E+00 0. -1.
       -2    1    5    5    0  501 -0.24372820541E+03  0.85172021290E+02 -0.12971691523E+04  0.13226131411E+04  0.00000000000E+00 0.  1.
</event>
<event>
 9   1  0.7335000E-04  0.1000100E+04  0.7818608E-02  0.9308435E-01
       21   -1    0    0  503  502  0.00000000000E+00  0.00000000000E+00  0.47099750743E+03  0.47099750743E+03  0.00000000000E+00 0. -1.
       21   -1    0    0  502  503 -0.00000000000E+00 -0.00000000000E+00 -0.53089455769E+03  0.53089455769E+03  0.00000000000E+00 0.  1.
       39    2    1    2    0    0  0.00000000000E+00  0.00000000000E+00 -0.59897050260E+02  0.10018920651E+04  0.10001000218E+04 0.  0.
       24    2    3    3    0    0 -0.38197671219E+03  0.68900504124E+02  0.27519159961E+03  0.48305884721E+03  0.83438272104E+02 0.  0.
      -24    2    3    3    0    0  0.38197671219E+03 -0.68900504124E+02 -0.33508864987E+03  0.51883321791E+03  0.79057046568E+02 0.  0.
      -13    1    4    4    0    0 -0.23160792121E+03  0.40742192953E+02  0.11579597465E+03  0.26212757047E+03  0.00000000000E+00 0.  1.
       14    1    4    4    0    0 -0.15036879098E+03  0.28158311171E+02  0.15939562496E+03  0.22093127675E+03  0.00000000000E+00 0. -1.
        3    1    5    5  501    0  0.13904377109E+03 -0.41512940875E+01 -0.79074428711E+02  0.16000990219E+03  0.00000000000E+00 0. -1.
       -4    1    5    5    0  501  0.24293294110E+03 -0.64749210036E+02 -0.25601422116E+03  0.35882331572E+03  0.14200000000E+01 0.  1.
</event>
<event>
 9   1  0.7335000E-04  0.9931464E+03  0.7818608E-02  0.9316094E-01
       21   -1    0    0  503  502  0.00000000000E+00  0.00000000000E+00  0.10047986382E+04  0.10047986382E+04  0.00000000000E+00 0.  1.
       21   -1    0    0  502  503 -0.00000000000E+00 -0.00000000000E+00 -0.24540731443E+03  0.24540731443E+03  0.00000000000E+00 0. -1.
       39    2    1    2    0    0 -0.28421709430E-13  0.11368683772E-12  0.75939132379E+03  0.12502059526E+04  0.99314638467E+03 0.  0.
       24    2    3    3    0    0  0.19950040450E+03 -0.38586023627E+03  0.94011062694E+02  0.45152481826E+03  0.79674640030E+02 0.  0.
      -24    2    3    3    0    0 -0.19950040450E+03  0.38586023627E+03  0.66538026110E+03  0.79868113439E+03  0.80449544678E+02 0.  0.
      -13    1    4    4    0    0  0.48628651091E+02 -0.43034724546E+02  0.30031468378E+02  0.71544547777E+02  0.00000000000E+00 0.  1.
       14    1    4    4    0    0  0.15087175340E+03 -0.34282551173E+03  0.63979594316E+02  0.37998027048E+03  0.00000000000E+00 0. -1.
        1    1    5    5  501    0  0.74614981918E+01  0.18810605205E+02  0.26253286657E+02  0.33147366166E+02  0.00000000000E+00 0. -1.
       -2    1    5    5    0  501 -0.20696190269E+03  0.36704963107E+03  0.63912697444E+03  0.76553376822E+03  0.00000000000E+00 0.  1.
</event>
<event>
 9   1  0.7335000E-04  0.9963776E+03  0.7818608E-02  0.9312527E-01
       21   -1    0    0  503  502  0.00000000000E+00  0.00000000000E+00  0.25840733553E+03  0.25840733553E+03  0.00000000000E+00 0.  1.
       21   -1    0    0  502  503 -0.00000000000E+00 -0.00000000000E+00 -0.96046840994E+03  0.96046840994E+03  0.00000000000E+00 0. -1.
       39    2    1    2    0    0  0.00000000000E+00 -0.56843418861E-13 -0.70206107441E+03  0.12188757455E+04  0.99637760447E+03 0.  0.
       24    2    3    3    0    0 -0.92182683796E+02 -0.21595870395E+03  0.17735264571E+03  0.30514984101E+03  0.80787718893E+02 0.  0.
      -24    2    3    3    0    0  0.92182683796E+02  0.21595870395E+03 -0.87941372013E+03  0.91372590447E+03  0.79942031132E+02 0.  0.
      -13    1    4    4    0    0 -0.83776704659E+02 -0.22231968419E+03  0.17215095856E+03  0.29339483764E+03  0.00000000000E+00 0.  1.
       14    1    4    4    0    0 -0.84059791377E+01  0.63609802429E+01  0.52016871509E+01  0.11755003366E+02  0.00000000000E+00 0. -1.
        1    1    5    5  501    0  0.85811661194E+02  0.16497951348E+03 -0.77952522502E+03  0.80139968649E+03  0.00000000000E+00 0. -1.
       -2    1    5    5    0  501  0.63710226027E+01  0.50979190470E+02 -0.99888495110E+02  0.11232621798E+03  0.00000000000E+00 0.  1.
</event>
<event>
 9   1  0.7335000E-04  0.1005533E+04  0.7818608E-02  0.9302497E-01
       21   -1    0    0  503  502  0.00000000000E+00  0.00000000000E+00  0.23032848692E+03  0.23032848692E+03  0.00000000000E+00 0. -1.
       21   -1    0    0  502  503 -0.00000000000E+00 -0.00000000000E+00 -0.10974506510E+04  0.10974506510E+04  0.00000000000E+00 0.  1.
       39    2    1    2    0    0  0.00000000000E+00  0.28421709430E-13 -0.86712216410E+03  0.13277791379E+04  0.10055329888E+04 0.  0.
       24    2    3    3    0    0  0.24237783530E+03 -0.22528953835E+03  0.55149992658E+02  0.34480547709E+03  0.79667460165E+02 0.  0.
      -24    2    3    3    0    0 -0.24237783530E+03  0.22528953835E+03 -0.92227215675E+03  0.98297366084E+03  0.78414894289E+02 0.  0.
      -13    1    4    4    0    0  0.52422400317E+02 -0.89552662524E+02 -0.44027210625E+01  0.10386130835E+03  0.00000000000E+00 0.  1.
       14    1    4    4    0    0  0.18995543498E+03 -0.13573687582E+03  0.59552713721E+02  0.24094416874E+03  0.00000000000E+00 0. -1.
        3    1    5    5  501    0 -0.63827742688E+02  0.64185073110E+02 -0.16203360925E+03  0.18560332667E+03  0.00000000000E+00 0. -1.
       -4    1    5    5    0  501 -0.17855009261E+03  0.16110446524E+03 -0.76023854751E+03  0.79737033416E+03  0.14200000000E+01 0.  1.
</event>
<event>
 9   1  0.7335000E-04  0.9994823E+03  0.7818608E-02  0.9309113E-01
       21   -1    0    0  503  502  0.00000000000E+00  0.00000000000E+00  0.15030321732E+03  0.15030321732E+03  0.00000000000E+00 0.  1.
       21   -1    0    0  502  503 -0.00000000000E+00 -0.00000000000E+00 -0.16615827787E+04  0.16615827787E+04  0.00000000000E+00 0. -1.
       39    2    1    2    0    0  0.00000000000E+00  0.00000000000E+00 -0.15112795614E+04  0.18118859960E+04  0.99948234099E+03 0.  0.
       24    2    3    3    0    0  0.21984068653E+03 -0.97448287091E+01  0.44897082934E+02  0.23817478670E+03  0.79288030752E+02 0.  0.
      -24    2    3    3    0    0 -0.21984068653E+03  0.97448287091E+01 -0.15561766443E+04  0.15737112094E+04  0.80351309262E+02 0.  0.
      -13    1    4    4    0    0  0.17993986781E+03  0.24019238332E+02  0.31953467204E+02  0.18432662288E+03  0.00000000000E+00 0.  1.
       14    1    4    4    0    0  0.39900818725E+02 -0.33764067041E+02  0.12943615730E+02  0.53848163815E+02  0.00000000000E+00 0. -1.
        3    1    5    5  501    0 -0.95742883058E+02 -0.32991769174E+02 -0.58424164544E+03  0.59295316574E+03  0.00000000000E+00 0. -1.
       -4    1    5    5    0  501 -0.12409780347E+03  0.42736597883E+02 -0.97193499890E+03  0.98075804361E+03  0.14200000000E+01 0.  1.
</event>
<event>
 9   1  0.7335000E-04  0.1018710E+04  0.7818608E-02  0.9288259E-01
       21   -1    0    0  503  502  0.00000000000E+00  0.00000000000E+00  0.64306351907E+03  0.64306351907E+03  0.00000000000E+00 0.  1.
       21   -1    0    0  502  503 -0.00000000000E+00 -0.00000000000E+00 -0.40344740033E+03  0.40344740033E+03  0.00000000000E+00 0. -1.
       39    2    1    2    0    0  0.00000000000E+00  0.00000000000E+00  0.23961611874E+03  0.10465109194E+04  0.10187095857E+04 0.  0.
       24    2    3    3    0    0 -0.14162698712E+03  0.25005758710E+03  0.54348571590E+03  0.61985667144E+03  0.79111120589E+02 0.  0.
      -24    2    3    3    0    0  0.14162698712E+03 -0.25005758710E+03 -0.30386959716E+03  0.42665424795E+03  0.84321497064E+02 0.  0.
      -13    1    4    4    0    0 -0.14482808020E+03  0.21619919215E+03  0.44305595653E+03  0.51382472120E+03  0.00000000000E+00 0.  1.
       14    1    4    4    0    0  0.32010930792E+01  0.33858394952E+02  0.10042975937E+03  0.10603195025E+03  0.00000000000E+00 0. -1.
        1    1    5    5  501    0  0.20004194044E+01 -0.60096207229E+02 -0.90658304307E+02  0.10878641432E+03  0.00000000000E+00 0. -1.
       -2    1    5    5    0  501  0.13962656771E+03 -0.18996137988E+03 -0.21321129285E+03  0.31786783363E+03  0.00000000000E+00 0.  1.
</event>
<event>
 9   1  0.7335000E-04  0.9998960E+03  0.7818608E-02  0.9308659E-01
       21   -1    0    0  503  502  0.00000000000E+00  0.00000000000E+00  0.46209461732E+03  0.46209461732E+03  0.00000000000E+00 0. -1.
       21   -1    0    0  502  503 -0.00000000000E+00 -0.00000000000E+00 -0.54090225586E+03  0.54090225586E+03  0.00000000000E+00 0.  1.
       39    2    1    2    0    0  0.00000000000E+00  0.00000000000E+00 -0.78807638541E+02  0.10029968732E+04  0.99989603645E+03 0.  0.
       24    2    3    3    0    0 -0.29832081141E+03  0.33078039773E+03 -0.24985754550E+03  0.51905269153E+03  0.92606292966E+02 0.  0.
      -24    2    3    3    0    0  0.29832081141E+03 -0.33078039773E+03  0.17104990696E+03  0.48394418165E+03  0.80826494670E+02 0.  0.
      -13    1    4    4    0    0 -0.23351646856E+03  0.20872985685E+03 -0.14268538594E+03  0.34417613745E+03  0.00000000000E+00 0.  1.
       14    1    4    4    0    0 -0.64804342850E+02  0.12205054088E+03 -0.10717215956E+03  0.17487655408E+03  0.00000000000E+00 0. -1.
        3    1    5    5  501    0  0.12505814249E+03 -0.19882494377E+03  0.91465644012E+02  0.25206519257E+03  0.00000000000E+00 0. -1.
       -4    1    5    5    0  501  0.17326266892E+03 -0.13195545396E+03  0.79584262945E+02  0.23187898908E+03  0.14200000000E+01 0.  1.
</event>
<event>
 9   1  0.7335000E-04  0.1004889E+04  0.7818608E-02  0.9303199E-01
       21   -1    0    0  503  502  0.00000000000E+00  0.00000000000E+00  0.84302759292E+03  0.84302759292E+03  0.00000000000E+00 0.  1.
       21   -1    0    0  502  503 -0.00000000000E+00 -0.00000000000E+00 -0.29945700779E+03  0.29945700779E+03  0.00000000000E+00 0. -1.
       39    2    1    2    0    0  0.00000000000E+00  0.00000000000E+00  0.54357058513E+03  0.11424846007E+04  0.10048890893E+04 0.  0.
       24    2    3    3    0    0  0.16340009372E+03 -0.10738273106E+03  0.78986553005E+03  0.81758187915E+03  0.79510577879E+02 0.  0.
      -24    2    3    3    0    0 -0.16340009372E+03  0.10738273106E+03 -0.24629494492E+03  0.32490272157E+03  0.81669682477E+02 0.  0.
      -13    1    4    4    0    0  0.17132056241E+03 -0.10794536042E+03  0.77020350023E+03  0.79637702611E+03  0.00000000000E+00 0.  1.
       14    1    4    4    0    0 -0.79204686868E+01  0.56262936119E+00  0.19662029813E+02  0.21204853039E+02  0.00000000000E+00 0. -1.
        3    1    5    5  501    0 -0.12223379874E+03  0.87518098387E+02 -0.23298072732E+03  0.27727340010E+03  0.00000000000E+00 0. -1.
       -4    1    5    5    0  501 -0.41166294983E+02  0.19864632668E+02 -0.13314217594E+02  0.47629321471E+02  0.14200000000E+01 0.  1.
</event>
<event>
 9   1  0.7335000E-04  0.1019098E+04  0.7818608E-02  0.9287843E-01
       21   -1    0    0  503  502  0.00000000000E+00  0.00000000000E+00  0.85455703559E+02  0.85455703559E+02  0.00000000000E+00 0. -1.
       21   -1    0    0  502  503 -0.00000000000E+00 -0.00000000000E+00 -0.30383031666E+04  0.30383031666E+04  0.00000000000E+00 0.  1.
       39    2    1    2    0    0  0.28421709430E-13 -0.56843418861E-13 -0.29528474630E+04  0.31237588701E+04  0.10190982970E+04 0.  0.
       24    2    3    3    0    0  0.13888720443E+03 -0.13090467198E+03 -0.29036719728E+04  0.29110505637E+04  0.80490804907E+02 0.  0.
      -24    2    3    3    0    0 -0.13888720443E+03  0.13090467198E+03 -0.49175490179E+02  0.21270830647E+03  0.80005662966E+02 0.  0.
      -13    1    4    4    0    0  0.72188784731E+02 -0.50071030421E+02 -0.18742493280E+04  0.18763072436E+04  0.00000000000E+00 0.  1.
       14    1    4    4    0    0  0.66698419699E+02 -0.80833641556E+02 -0.10294226448E+04  0.10347433201E+04  0.00000000000E+00 0. -1.
        1    1    5    5  501    0 -0.94402572089E+02  0.60116290404E+02  0.67502982310E+01  0.11212216781E+03  0.00000000000E+00 0. -1.
       -2    1    5    5    0  501 -0.44484632341E+02  0.70788381573E+02 -0.55925788410E+02  0.10058613866E+03  0.00000000000E+00 0.  1.
</event>
<event>
 9   1  0.7335000E-04  0.1009635E+04  0.7818608E-02  0.9298040E-01
        2   -1    0    0  501    0  0.00000000000E+00  0.00000000000E+00  0.76967344723E+03  0.76967344723E+03  0.00000000000E+00 0. -1.
       -2   -1    0    0    0  501 -0.00000000000E+00 -0.00000000000E+00 -0.33110209585E+03  0.33110209585E+03  0.00000000000E+00 0.  1.
       39    2    1    2    0    0  0.00000000000E+00  0.00000000000E+00  0.43857135139E+03  0.11007755431E+04  0.10096345705E+04 0.  0.
       24    2    3    3    0    0  0.37420703625E+03  0.15109133326E+03 -0.99263870276E+02  0.42331532974E+03  0.80517423515E+02 0.  0.
      -24    2    3    3    0    0 -0.37420703625E+03 -0.15109133326E+03  0.53783522166E+03  0.67746021334E+03  0.82620324538E+02 0.  0.
      -13    1    4    4    0    0  0.25865198496E+03  0.10456259288E+03 -0.29508984557E+02  0.28054405238E+03  0.00000000000E+00 0.  1.
       14    1    4    4    0    0  0.11555505128E+03  0.46528740385E+02 -0.69754885719E+02  0.14277127737E+03  0.00000000000E+00 0. -1.
        1    1    5    5  502    0 -0.45391130060E+02 -0.37302701725E+02  0.12083188123E+03  0.13435843764E+03  0.00000000000E+00 0. -1.
       -2    1    5    5    0  502 -0.32881590619E+03 -0.11378863154E+03  0.41700334044E+03  0.54310177570E+03  0.00000000000E+00 0.  1.
</event>
<event>
 9   1  0.7335000E-04  0.9975344E+03  0.7818608E-02  0.9311253E-01
       21   -1    0    0  503  502  0.00000000000E+00  0.00000000000E+00  0.26889025920E+03  0.26889025920E+03  0.00000000000E+00 0. -1.
       21   -1    0    0  502  503 -0.00000000000E+00 -0.00000000000E+00 -0.92516813894E+03  0.92516813894E+03  0.00000000000E+00 0.  1.
       39    2    1    2    0    0 -0.35527136788E-14  0.14210854715E-13 -0.65627787974E+03  0.11940583981E+04  0.99753436168E+03 0.  0.
       24    2    3    3    0    0  0.14804353883E+02  0.47294302448E+02  0.25742756890E+03  0.27510392474E+03  0.83410408466E+02 0.  0.
      -24    2    3    3    0    0 -0.14804353883E+02 -0.47294302448E+02 -0.91370544864E+03  0.91895447339E+03  0.84638982473E+02 0.  0.
      -13    1    4    4    0    0 -0.17851371258E+02  0.55994132473E+02  0.12050728298E+03  0.13407467911E+03  0.00000000000E+00 0.  1.
       14    1    4    4    0    0  0.32655725142E+02 -0.86998300249E+01  0.13692028592E+03  0.14102924563E+03  0.00000000000E+00 0. -1.
        3    1    5    5  501    0 -0.48465299650E+01  0.60955567021E+01 -0.63255281441E+03  0.63260074904E+03  0.00000000000E+00 0. -1.
       -4    1    5    5    0  501 -0.99578239183E+01 -0.53389859150E+02 -0.28115263423E+03  0.28635372436E+03  0.14200000000E+01 0.  1.
</event>
<event>
 8   1  0.7335000E-04  0.7320115E+03  0.7818608E-02  0.9664002E-01
       21   -1    0    0  503  502  0.00000000000E+00  0.00000000000E+00  0.39185636463E+03  0.39185636463E+03  0.00000000000E+00 0.  1.
       21   -1    0    0  502  503 -0.00000000000E+00 -0.00000000000E+00 -0.34186050677E+03  0.34186050677E+03  0.00000000000E+00 0. -1.
       24    2    1    2    0    0 -0.42972449317E+02  0.20907710315E+03 -0.26164771286E+03  0.34878875852E+03  0.87373943294E+02 0.  0.
      -24    2    1    2    0    0  0.42972449317E+02 -0.20907710315E+03  0.31164357072E+03  0.38492811289E+03  0.74081512297E+02 0.  0.
      -13    1    3    3    0    0  0.85888170743E+01  0.31934033276E+02 -0.93461611136E+02  0.99139412023E+02  0.00000000000E+00 0.  1.
       14    1    3    3    0    0 -0.51561266391E+02  0.17714306987E+03 -0.16818610172E+03  0.24964934650E+03  0.00000000000E+00 0. -1.
        1    1    4    4  501    0  0.62977703819E+02 -0.15740179904E+03  0.21863162688E+03  0.27666099434E+03  0.00000000000E+00 0. -1.
       -2    1    4    4    0  501 -0.20005254502E+02 -0.51675304110E+02  0.93011943838E+02  0.10826711855E+03  0.00000000000E+00 0.  1.
</event>
<event>
 9   1  0.7335000E-04  0.9995734E+03  0.7818608E-02  0.9309013E-01
       21   -1    0    0  503  502  0.00000000000E+00  0.00000000000E+00  0.19400136940E+03  0.19400136940E+03  0.00000000000E+00 0.  1.
       21   -1    0    0  502  503 -0.00000000000E+00 -0.00000000000E+00 -0.12875515436E+04  0.12875515436E+04  0.00000000000E+00 0. -1.
       39    2    1    2    0    0  0.00000000000E+00  0.00000000000E+00 -0.10935501742E+04  0.14815529130E+04  0.99957343430E+03 0.  0.
       24    2    3    3    0    0  0.94789654251E+02  0.28345073899E+03  0.34247460480E+02  0.31139878133E+03  0.80417115566E+02 0.  0.
      -24    2    3    3    0    0 -0.94789654251E+02 -0.28345073899E+03 -0.11277976347E+04  0.11701541317E+04  0.89463887154E+02 0.  0.
      -13    1    4    4    0    0  0.89979723830E+02  0.16662341336E+03 -0.67810796277E+00  0.18936782306E+03  0.00000000000E+00 0.  1.
       14    1    4    4    0    0  0.48099304211E+01  0.11682732563E+03  0.34925568443E+02  0.12203095827E+03  0.00000000000E+00 0. -1.
        1    1    5    5  501    0 -0.80267554125E+02 -0.22604821727E+03 -0.10126681724E+04  0.10406908783E+04  0.00000000000E+00 0. -1.
       -2    1    5    5    0  501 -0.14522100126E+02 -0.57402521725E+02 -0.11512946233E+03  0.12946325343E+03  0.00000000000E+00 0.  1.
</event>
<event>
 9   1  0.7335000E-04  0.9994204E+03  0.7818608E-02  0.9309181E-01
       21   -1    0    0  503  502  0.00000000000E+00  0.00000000000E+00  0.24796467434E+03  0.24796467434E+03  0.00000000000E+00 0.  1.
       21   -1    0    0  502  503 -0.00000000000E+00 -0.00000000000E+00 -0.10070398329E+04  0.10070398329E+04  0.00000000000E+00 0. -1.
       39    2    1    2    0    0  0.00000000000E+00  0.00000000000E+00 -0.75907515855E+03  0.12550045072E+04  0.99942044047E+03 0.  0.
       24    2    3    3    0    0  0.13005476245E+03  0.33999814205E+03 -0.79762874847E+03  0.88026902277E+03  0.78415267781E+02 0.  0.
      -24    2    3    3    0    0 -0.13005476245E+03 -0.33999814205E+03  0.38553589927E+02  0.37473548446E+03  0.80170606721E+02 0.  0.
      -13    1    4    4    0    0  0.12401492953E+03  0.22683016747E+03 -0.53255406680E+03  0.59198434243E+03  0.00000000000E+00 0.  1.
       14    1    4    4    0    0  0.60398329237E+01  0.11316797458E+03 -0.26507468167E+03  0.28828468033E+03  0.00000000000E+00 0. -1.
        3    1    5    5  501    0 -0.51995708083E+02 -0.22870383001E+03  0.44211278286E+02  0.23867055254E+03  0.00000000000E+00 0. -1.
       -4    1    5    5    0  501 -0.78059054366E+02 -0.11129431204E+03 -0.56576883593E+01  0.13606493192E+03  0.14200000000E+01 0.  1.
</event>
<event>
 9   1  0.7335000E-04  0.1016498E+04  0.7818608E-02  0.9290633E-01
       21   -1    0    0  503  502  0.00000000000E+00  0.00000000000E+00  0.44890245520E+03  0.44890245520E+03  0.00000000000E+00 0. -1.
       21   -1    0    0  502  503 -0.00000000000E+00 -0.00000000000E+00 -0.57544133162E+03  0.57544133162E+03  0.00000000000E+00 0.  1.
       39    2    1    2    0    0 -0.56843418861E-13  0.00000000000E+00 -0.12653887642E+03  0.10243437868E+04  0.10164979618E+04 0.  0.
       24    2    3    3    0    0  0.41395738411E+03 -0.35887082278E+02  0.22019311008E+03  0.47698656063E+03  0.79891018036E+02 0.  0.
      -24    2    3    3    0    0 -0.41395738411E+03  0.35887082278E+02 -0.34673198649E+03  0.54735722618E+03  0.82025996270E+02 0.  0.
      -13    1    4    4    0    0  0.17421073168E+03  0.71448054666E+01  0.55583215687E+02  0.18300251677E+03  0.00000000000E+00 0.  1.
       14    1    4    4    0    0  0.23974665244E+03 -0.43031887745E+02  0.16460989439E+03  0.29398404387E+03  0.00000000000E+00 0. -1.
        1    1    5    5  501    0 -0.13385403346E+03  0.50245912964E+02 -0.12224819741E+03  0.18811213627E+03  0.00000000000E+00 0. -1.
       -2    1    5    5    0  501 -0.28010335065E+03 -0.14358830685E+02 -0.22448378909E+03  0.35924508991E+03  0.00000000000E+00 0.  1.
</event>
<event>
 9   1  0.7335000E-04  0.9949341E+03  0.7818608E-02  0.9314118E-01
        2   -1    0    0  501    0  0.00000000000E+00  0.00000000000E+00  0.45592475203E+03  0.45592475203E+03  0.00000000000E+00 0.  1.
       -2   -1    0    0    0  501 -0.00000000000E+00 -0.00000000000E+00 -0.54279457625E+03  0.54279457625E+03  0.00000000000E+00 0. -1.
       39    2    1    2    0    0  0.00000000000E+00  0.00000000000E+00 -0.86869824220E+02  0.99871932827E+03  0.99493413365E+03 0.  0.
       24    2    3    3    0    0 -0.31017200181E+03 -0.11270813887E+03 -0.40766738450E+03  0.53118155809E+03  0.83972352555E+02 0.  0.
      -24    2    3    3    0    0  0.31017200181E+03  0.11270813887E+03  0.32079756028E+03  0.46753777018E+03  0.82284242633E+02 0.  0.
      -13    1    4    4    0    0 -0.22640558945E+02  0.68635585008E+01 -0.90080352381E+01  0.25314976664E+02  0.00000000000E+00 0.  1.
       14    1    4    4    0    0 -0.28753144287E+03 -0.11957169737E+03 -0.39865934927E+03  0.50586658143E+03  0.00000000000E+00 0. -1.
        1    1    5    5  502    0  0.91859582012E+02  0.23342053287E+01  0.11944577354E+03  0.15070144040E+03  0.00000000000E+00 0. -1.
       -2    1    5    5    0  502  0.21831241980E+03  0.11037393354E+03  0.20135178675E+03  0.31683632978E+03  0.00000000000E+00 0.  1.
</event>
<event>
 9   1  0.7335000E-04  0.9963096E+03  0.7818608E-02  0.9312602E-01
       21   -1    0    0  503  502  0.00000000000E+00  0.00000000000E+00  0.18847210666E+04  0.18847210666E+04  0.00000000000E+00 0.  1.
       21   -1    0    0  502  503 -0.00000000000E+00 -0.00000000000E+00 -0.13166841084E+03  0.13166841084E+03  0.00000000000E+00 0. -1.
       39    2    1    2    0    0 -0.56843418861E-13 -0.56843418861E-13  0.17530526558E+04  0.20163894775E+04  0.99630964609E+03 0.  0.
       24    2    3    3    0    0 -0.40159155855E+03 -0.24359300736E+03  0.11712120466E+04  0.12645808316E+04  0.82545069782E+02 0.  0.
      -24    2    3    3    0    0  0.40159155855E+03  0.24359300736E+03  0.58184060924E+03  0.75180864587E+03  0.77874336642E+02 0.  0.
      -13    1    4    4    0    0 -0.39320647984E+03 -0.24599833169E+03  0.11138691280E+04  0.12065781986E+04  0.00000000000E+00 0.  1.
       14    1    4    4    0    0 -0.83850787120E+01  0.24053243294E+01  0.57342918508E+02  0.58002632985E+02  0.00000000000E+00 0. -1.
        1    1    5    5  501    0  0.35591083551E+03  0.23848507658E+03  0.54277058522E+03  0.69148214927E+03  0.00000000000E+00 0. -1.
       -2    1    5    5    0  501  0.45680723043E+02  0.51079307795E+01  0.39070024025E+02  0.60326496599E+02  0.00000000000E+00 0.  1.
</event>
<event>
 9   1  0.7335000E-04  0.9922379E+03  0.7818608E-02  0.9317099E-01
        2   -1    0    0  501    0  0.00000000000E+00  0.00000000000E+00  0.37826016961E+03  0.37826016961E+03  0.00000000000E+00 0. -1.
       -2   -1    0    0    0  501 -0.00000000000E+00 -0.00000000000E+00 -0.65070036615E+03  0.65070036615E+03  0.00000000000E+00 0.  1.
       39    2    1    2    0    0 -0.56843418861E-13 -0.14210854715E-13 -0.27244019654E+03  0.10289605358E+04  0.99223793691E+03 0.  0.
       24    2    3    3    0    0  0.44598838362E+03  0.73107393061E+02  0.59471401791E+02  0.46261310736E+03  0.78890495188E+02 0.  0.
      -24    2    3    3    0    0 -0.44598838362E+03 -0.73107393061E+02 -0.33191159833E+03  0.56634742839E+03  0.79584994172E+02 0.  0.
      -13    1    4    4    0    0  0.10529261890E+02  0.58514189327E+01 -0.11093800875E+02  0.16376106904E+02  0.00000000000E+00 0.  1.
       14    1    4    4    0    0  0.43545912173E+03  0.67255974128E+02  0.70565202665E+02  0.44623700046E+03  0.00000000000E+00 0. -1.
        3    1    5    5  502    0 -0.12299964673E+03 -0.54636507758E+01 -0.52109036678E+02  0.13369411460E+03  0.00000000000E+00 0. -1.
       -4    1    5    5    0  502 -0.32298873689E+03 -0.67643742285E+02 -0.27980256166E+03  0.43265331379E+03  0.14200000000E+01 0.  1.
</event>
<event>
 9   1  0.7335000E-04  0.1003426E+04  0.7818608E-02  0.9304796E-01
       21   -1    0    0  503  502  0.00000000000E+00  0.00000000000E+00  0.10148317432E+04  0.10148317432E+04  0.00000000000E+00 0.  1.
       21   -1    0    0  502  503 -0.00000000000E+00 -0.00000000000E+00 -0.24803692095E+03  0.24803692095E+03  0.00000000000E+00 0. -1.
       39    2    1    2    0    0  0.56843418861E-13 -0.28421709430E-13  0.76679482224E+03  0.12628686641E+04  0.10034256143E+04 0.  0.
       24    2    3    3    0    0  0.30251516180E+03 -0.25406786137E+03  0.79557598029E+01  0.40340675392E+03  0.81288459801E+02 0.  0.
      -24    2    3    3    0    0 -0.30251516180E+03  0.25406786137E+03  0.75883906244E+03  0.85946191023E+03  0.82293080845E+02 0.  0.
      -13    1    4    4    0    0  0.35270020623E+02 -0.21063668454E+02 -0.23720067017E+02  0.47437264495E+02  0.00000000000E+00 0.  1.
       14    1    4    4    0    0  0.26724514117E+03 -0.23300419292E+03  0.31675826820E+02  0.35596948943E+03  0.00000000000E+00 0. -1.
        1    1    5    5  501    0 -0.17541158134E+03  0.15245165295E+03  0.52947706980E+03  0.57823584877E+03  0.00000000000E+00 0. -1.
       -2    1    5    5    0  501 -0.12710358046E+03  0.10161620842E+03  0.22936199264E+03  0.28122606146E+03  0.00000000000E+00 0.  1.
</event>
<event>
 9   1  0.7335000E-04  0.1005350E+04  0.7818608E-02  0.9302696E-01
       21   -1    0    0  503  502  0.00000000000E+00  0.00000000000E+00  0.32436868490E+03  0.32436868490E+03  0.00000000000E+00 0.  1.
       21   -1    0    0  502  503 -0.00000000000E+00 -0.00000000000E+00 -0.77899743083E+03  0.77899743083E+03  0.00000000000E+00 0. -1.
       39    2    1    2    0    0  0.00000000000E+00  0.00000000000E+00 -0.45462874593E+03  0.11033661157E+04  0.10053504308E+04 0.  0.
       24    2    3    3    0    0 -0.26616151755E+03  0.13361954898E+03 -0.66317101761E+03  0.73138728360E+03  0.80221086599E+02 0.  0.
      -24    2    3    3    0    0  0.26616151755E+03 -0.13361954898E+03  0.20854227167E+03  0.37197883213E+03  0.78627191145E+02 0.  0.
      -13    1    4    4    0    0 -0.59754619646E+02  0.68352320434E+02 -0.16797330359E+03  0.19093895620E+03  0.00000000000E+00 0.  1.
       14    1    4    4    0    0 -0.20640689790E+03  0.65267228542E+02 -0.49519771402E+03  0.54044832740E+03  0.00000000000E+00 0. -1.
        3    1    5    5  501    0  0.14105985960E+02 -0.11837435383E+02 -0.59092978067E+01  0.19339687612E+02  0.00000000000E+00 0. -1.
       -4    1    5    5    0  501  0.25205553158E+03 -0.12178211359E+03  0.21445156948E+03  0.35263914452E+03  0.14200000000E+01 0.  1.
</event>
<event>
 9   1  0.7335000E-04  0.9858485E+03  0.7818608E-02  0.9324204E-01
       21   -1    0    0  503  502  0.00000000000E+00  0.00000000000E+00  0.39052583533E+03  0.39052583533E+03  0.00000000000E+00 0. -1.
       21   -1    0    0  502  503 -0.00000000000E+00 -0.00000000000E+00 -0.62217219990E+03  0.62217219990E+03  0.00000000000E+00 0.  1.
       39    2    1    2    0    0  0.00000000000E+00  0.00000000000E+00 -0.23164636457E+03  0.10126980352E+04  0.98584850374E+03 0.  0.
       24    2    3    3    0    0  0.45208155161E+01  0.28793422819E+03  0.28668432205E+03  0.41414835555E+03  0.80027510008E+02 0.  0.
      -24    2    3    3    0    0 -0.45208155161E+01 -0.28793422819E+03 -0.51833068662E+03  0.59854967967E+03  0.81660644196E+02 0.  0.
      -13    1    4    4    0    0 -0.16234775038E+02  0.11877388791E+02  0.33051306843E+02  0.38691461191E+02  0.00000000000E+00 0.  1.
       14    1    4    4    0    0  0.20755590555E+02  0.27605683940E+03  0.25363301521E+03  0.37545689436E+03  0.00000000000E+00 0. -1.
        1    1    5    5  501    0  0.24323496233E+01 -0.90396609844E+02 -0.24563963366E+03  0.26175617093E+03  0.00000000000E+00 0. -1.
       -2    1    5    5    0  501 -0.69531651394E+01 -0.19753761834E+03 -0.27269105296E+03  0.33679350874E+03  0.00000000000E+00 0.  1.
</event>
<event>
 9   1  0.7335000E-04  0.9934657E+03  0.7818608E-02  0.9315741E-01
       21   -1    0    0  503  502  0.00000000000E+00  0.00000000000E+00  0.99101485394E+03  0.99101485394E+03  0.00000000000E+00 0.  1.
       21   -1    0    0  502  503 -0.00000000000E+00 -0.00000000000E+00 -0.24898066864E+03  0.24898066864E+03  0.00000000000E+00 0. -1.
       39    2    1    2    0    0  0.00000000000E+00  0.00000000000E+00  0.74203418530E+03  0.12399955226E+04  0.99346573362E+03 0.  0.
       24    2    3    3    0    0  0.25985957062E+03  0.37517035659E+03  0.59419879081E+03  0.75344803484E+03  0.79573521336E+02 0.  0.
      -24    2    3    3    0    0 -0.25985957062E+03 -0.37517035659E+03  0.14783539449E+03  0.48654748775E+03  0.81199513916E+02 0.  0.
      -13    1    4    4    0    0  0.23060488861E+03  0.28462961288E+03  0.49715571581E+03  0.61754063587E+03  0.00000000000E+00 0.  1.
       14    1    4    4    0    0  0.29254682005E+02  0.90540743711E+02  0.97043074993E+02  0.13590739897E+03  0.00000000000E+00 0. -1.
        1    1    5    5  501    0 -0.20190997580E+03 -0.22451527275E+03  0.10271794910E+03  0.31894470225E+03  0.00000000000E+00 0. -1.
       -2    1    5    5    0  501 -0.57949594812E+02 -0.15065508384E+03  0.45117445396E+02  0.16760278550E+03  0.00000000000E+00 0.  1.
</event>
<event>
 9   1  0.7335000E-04  0.1005396E+04  0.7818608E-02  0.9302646E-01
       21   -1    0    0  503  502  0.00000000000E+00  0.00000000000E+00  0.81119453911E+03  0.81119453911E+03  0.00000000000E+00 0. -1.
       21   -1    0    0  502  503 -0.00000000000E+00 -0.00000000000E+00 -0.31152271974E+03  0.31152271974E+03  0.00000000000E+00 0.  1.
       39    2    1    2    0    0 -0.14210854715E-13  0.56843418861E-13  0.49967181936E+03  0.11227172589E+04  0.10053964970E+04 0.  0.
       24    2    3    3    0    0 -0.12338367099E+03  0.33868713501E+03 -0.13107640241E+03  0.39156416818E+03  0.78797010385E+02 0.  0.
      -24    2    3    3    0    0  0.12338367099E+03 -0.33868713501E+03  0.63074822178E+03  0.73115309067E+03  0.82516768253E+02 0.  0.
      -13    1    4    4    0    0 -0.95544407650E+02  0.27830758575E+03 -0.72733275790E+02  0.30310720137E+03  0.00000000000E+00 0.  1.
       14    1    4    4    0    0 -0.27839263337E+02  0.60379549259E+02 -0.58343126622E+02  0.88456966803E+02  0.00000000000E+00 0. -1.
        3    1    5    5  501    0  0.12421964597E+02 -0.15112784701E+03  0.27125756034E+03  0.31076453367E+03  0.00000000000E+00 0. -1.
       -4    1    5    5    0  501  0.11096170639E+03 -0.18755928800E+03  0.35949066143E+03  0.42038855700E+03  0.14200000000E+01 0.  1.
</event>
<event>
 9   1  0.7335000E-04  0.1003575E+04  0.7818608E-02  0.9304632E-01
       21   -1    0    0  503  502  0.00000000000E+00  0.00000000000E+00  0.28309369371E+03  0.28309369371E+03  0.00000000000E+00 0.  1.
       21   -1    0    0  502  503 -0.00000000000E+00 -0.00000000000E+00 -0.88942568390E+03  0.88942568390E+03  0.00000000000E+00 0. -1.
       39    2    1    2    0    0  0.00000000000E+00  0.71054273576E-14 -0.60633199020E+03  0.11725193776E+04  0.10035752132E+04 0.  0.
       24    2    3    3    0    0 -0.17042517984E+03  0.41472130122E+02  0.23763698211E+03  0.30640109413E+03  0.81520645955E+02 0.  0.
      -24    2    3    3    0    0  0.17042517984E+03 -0.41472130122E+02 -0.84396897230E+03  0.86611828348E+03  0.84336085219E+02 0.  0.
      -13    1    4    4    0    0 -0.16220607644E+03  0.11860661898E+02  0.20230936380E+03  0.25957766702E+03  0.00000000000E+00 0.  1.
       14    1    4    4    0    0 -0.82191034082E+01  0.29611468224E+02  0.35327618311E+02  0.46823427114E+02  0.00000000000E+00 0. -1.
        3    1    5    5  501    0  0.15402031777E+03 -0.37687731063E+02 -0.82739096862E+03  0.84244788462E+03  0.00000000000E+00 0. -1.
       -4    1    5    5    0  501  0.16404862075E+02 -0.37843990583E+01 -0.16578003689E+02  0.23670398861E+02  0.14200000000E+01 0.  1.
</event>
<event>
 9   1  0.7335000E-04  0.1008942E+04  0.7818608E-02  0.9298792E-01
        2   -1    0    0  501    0  0.00000000000E+00  0.00000000000E+00  0.10224045526E+04  0.10224045526E+04  0.00000000000E+00 0.  1.
       -2   -1    0    0    0  501 -0.00000000000E+00 -0.00000000000E+00 -0.24891402306E+03  0.24891402306E+03  0.00000000000E+00 0. -1.
       39    2    1    2    0    0  0.00000000000E+00  0.00000000000E+00  0.77349052956E+03  0.12713185757E+04  0.10089416839E+04 0.  0.
       24    2    3    3    0    0  0.29475984918E+03  0.39835898253E+03  0.32812535341E+03  0.60016114453E+03  0.83390072554E+02 0.  0.
      -24    2    3    3    0    0 -0.29475984918E+03 -0.39835898253E+03  0.44536517615E+03  0.67115743116E+03  0.80801668412E+02 0.  0.
      -13    1    4    4    0    0  0.21655492560E+03  0.31860143383E+03  0.28980795955E+03  0.48207008085E+03  0.00000000000E+00 0.  1.
       14    1    4    4    0    0  0.78204923581E+02  0.79757548701E+02  0.38317393863E+02  0.11809106367E+03  0.00000000000E+00 0. -1.
        1    1    5    5  502    0 -0.24304512558E+03 -0.28859634197E+03  0.36924760235E+03  0.52792288595E+03  0.00000000000E+00 0. -1.
       -2    1    5    5    0  502 -0.51714723603E+02 -0.10976264056E+03  0.76117573798E+02  0.14323454521E+03  0.00000000000E+00 0.  1.
</event>
<event>
 9   1  0.7335000E-04  0.1003573E+04  0.7818608E-02  0.9304635E-01
       21   -1    0    0  503  502  0.00000000000E+00  0.00000000000E+00  0.45289805252E+03  0.45289805252E+03  0.00000000000E+00 0.  1.
       21   -1    0    0  502  503 -0.00000000000E+00 -0.00000000000E+00 -0.55595187715E+03  0.55595187715E+03  0.00000000000E+00 0. -1.
       39    2    1    2    0    0  0.14210854715E-13  0.00000000000E+00 -0.10305382463E+03  0.10088499297E+04  0.10035726629E+04 0.  0.
       24    2    3    3    0    0 -0.53757047636E+02  0.36587735734E+03  0.27969642309E+03  0.47028463439E+03  0.78622436161E+02 0.  0.
      -24    2    3    3    0    0  0.53757047636E+02 -0.36587735734E+03 -0.38275024772E+03  0.53856529528E+03  0.82454620013E+02 0.  0.
      -13    1    4    4    0    0 -0.57946170221E+02  0.25307499205E+03  0.15627942494E+03  0.30303130020E+03  0.00000000000E+00 0.  1.
       14    1    4    4    0    0  0.41891225842E+01  0.11280236529E+03  0.12341699815E+03  0.16725333418E+03  0.00000000000E+00 0. -1.
        3    1    5    5  501    0  0.64763377559E+02 -0.23589306672E+03 -0.28476929586E+03  0.37541095597E+03  0.00000000000E+00 0. -1.
       -4    1    5    5    0  501 -0.11006329923E+02 -0.12998429062E+03 -0.97980951864E+02  0.16315433931E+03  0.14200000000E+01 0.  1.
</event>
<event>
 9   1  0.7335000E-04  0.1070086E+04  0.7818608E-02  0.9234849E-01
       21   -1    0    0  503  502  0.00000000000E+00  0.00000000000E+00  0.98357009404E+03  0.98357009404E+03  0.00000000000E+00 0.  1.
       21   -1    0    0  502  503 -0.00000000000E+00 -0.00000000000E+00 -0.29105293302E+03  0.29105293302E+03  0.00000000000E+00 0. -1.
       39    2    1    2    0    0 -0.14210854715E-13  0.00000000000E+00  0.69251716102E+03  0.12746230271E+04  0.10700859044E+04 0.  0.
       24    2    3    3    0    0 -0.84333324359E+02 -0.51225241444E+02  0.96538834825E+03  0.97363159491E+03  0.79042297022E+02 0.  0.
      -24    2    3    3    0    0  0.84333324359E+02  0.51225241444E+02 -0.27287118723E+03  0.30099143215E+03  0.80006390034E+02 0.  0.
      -13    1    4    4    0    0 -0.72631665703E+02 -0.68241064492E+02  0.88652743234E+03  0.89211159058E+03  0.00000000000E+00 0.  1.
       14    1    4    4    0    0 -0.11701658656E+02  0.17015823048E+02  0.78860915908E+02  0.81520004338E+02  0.00000000000E+00 0. -1.
        1    1    5    5  501    0  0.47329881568E+02  0.45701682623E+02 -0.75672793522E+02  0.10027528690E+03  0.00000000000E+00 0. -1.
       -2    1    5    5    0  501  0.37003442791E+02  0.55235588214E+01 -0.19719839371E+03  0.20071614525E+03  0.00000000000E+00 0.  1.
</event>
<event>
 9   1  0.7335000E-04  0.1007995E+04  0.7818608E-02  0.9299820E-01
       21   -1    0    0  503  502  0.00000000000E+00  0.00000000000E+00  0.11380086901E+04  0.11380086901E+04  0.00000000000E+00 0. -1.
       21   -1    0    0  502  503 -0.00000000000E+00 -0.00000000000E+00 -0.22320860102E+03  0.22320860102E+03  0.00000000000E+00 0.  1.
       39    2    1    2    0    0 -0.56843418861E-13 -0.13322676296E-14  0.91480008910E+03  0.13612172911E+04  0.10079946977E+04 0.  0.
       24    2    3    3    0    0 -0.29262913615E+03 -0.17942515952E+00  0.10014293399E+04  0.10459217400E+04  0.73889918021E+02 0.  0.
      -24    2    3    3    0    0  0.29262913615E+03  0.17942515952E+00 -0.86629250769E+02  0.31529555112E+03  0.79213723257E+02 0.  0.
      -13    1    4    4    0    0 -0.10223229504E+02  0.15936204804E+02  0.65392678912E+02  0.68078480450E+02  0.00000000000E+00 0.  1.
       14    1    4    4    0    0 -0.28240590664E+03 -0.16115629964E+02  0.93603666096E+03  0.97784325957E+03  0.00000000000E+00 0. -1.
        3    1    5    5  501    0 -0.16827476384E+01 -0.39594058485E+01 -0.10378752360E+02  0.11235080545E+02  0.00000000000E+00 0. -1.
       -4    1    5    5    0  501  0.29431188378E+03  0.41388310080E+01 -0.76250498409E+02  0.30406047057E+03  0.14200000000E+01 0.  1.
</event>
<event>
 9   1  0.7335000E-04  0.9997465E+03  0.7818608E-02  0.9308823E-01
       21   -1    0    0  503  502  0.00000000000E+00  0.00000000000E+00  0.15409710040E+04  0.15409710040E+04  0.00000000000E+00 0.  1.
       21   -1    0    0  502  503 -0.00000000000E+00 -0.00000000000E+00 -0.16215312789E+03  0.16215312789E+03  0.00000000000E+00 0. -1.
       39    2    1    2    0    0  0.00000000000E+00  0.56843418861E-13  0.13788178761E+04  0.17031241319E+04  0.99974650444E+03 0.  0.
       24    2    3    3    0    0 -0.29665658330E+03 -0.25260878576E+03  0.17315419248E+03  0.43351759298E+03  0.78350507269E+02 0.  0.
      -24    2    3    3    0    0  0.29665658330E+03  0.25260878576E+03  0.12056636836E+04  0.12696065389E+04  0.80371130200E+02 0.  0.
      -13    1    4    4    0    0 -0.10550966633E+03 -0.72184343778E+02  0.95069775051E+02  0.15931456714E+03  0.00000000000E+00 0.  1.
       14    1    4    4    0    0 -0.19114691697E+03 -0.18042444199E+03  0.78084417433E+02  0.27420302584E+03  0.00000000000E+00 0. -1.
        1    1    5    5  501    0  0.16886534376E+03  0.18719736619E+03  0.70268620095E+03  0.74654286898E+03  0.00000000000E+00 0. -1.
       -2    1    5    5    0  501  0.12779123954E+03  0.65411419576E+02  0.50297748268E+03  0.52306366993E+03  0.00000000000E+00 0.  1.
</event>
<event>
 9   1  0.7335000E-04  0.1005576E+04  0.7818608E-02  0.9302450E-01
       21   -1    0    0  503  502  0.00000000000E+00  0.00000000000E+00  0.15138786639E+04  0.15138786639E+04  0.00000000000E+00 0. -1.
       21   -1    0    0  502  503 -0.00000000000E+00 -0.00000000000E+00 -0.16698543437E+03  0.16698543437E+03  0.00000000000E+00 0.  1.
       39    2    1    2    0    0  0.56843418861E-13  0.28421709430E-13  0.13468932295E+04  0.16808640982E+04  0.10055758276E+04 0.  0.
       24    2    3    3    0    0  0.44218382251E+03  0.13489991448E+03  0.37220279827E+03  0.59909046765E+03  0.81547198455E+02 0.  0.
      -24    2    3    3    0    0 -0.44218382251E+03 -0.13489991448E+03  0.97469043122E+03  0.10817736306E+04  0.80549557973E+02 0.  0.
      -13    1    4    4    0    0  0.44146757570E+03  0.13955146036E+03  0.36153796004E+03  0.58743333837E+03  0.00000000000E+00 0.  1.
       14    1    4    4    0    0  0.71624680981E+00 -0.46515458813E+01  0.10664838224E+02  0.11657129275E+02  0.00000000000E+00 0. -1.
        3    1    5    5  501    0 -0.35248949000E+03 -0.10809127808E+03  0.69362038751E+03  0.78552008691E+03  0.00000000000E+00 0. -1.
       -4    1    5    5    0  501 -0.89694332504E+02 -0.26808636402E+02  0.28107004371E+03  0.29625354367E+03  0.14200000000E+01 0.  1.
</event>
<event>
 9   1  0.7335000E-04  0.1001353E+04  0.7818608E-02  0.9307062E-01
       21   -1    0    0  503  502  0.00000000000E+00  0.00000000000E+00  0.74286186856E+03  0.74286186856E+03  0.00000000000E+00 0. -1.
       21   -1    0    0  502  503 -0.00000000000E+00 -0.00000000000E+00 -0.33744756130E+03  0.33744756130E+03  0.00000000000E+00 0.  1.
       39    2    1    2    0    0  0.00000000000E+00  0.28421709430E-13  0.40541430726E+03  0.10803094299E+04  0.10013529366E+04 0.  0.
       24    2    3    3    0    0  0.76988340986E+02 -0.17785723816E+03  0.69175257346E+03  0.72298542740E+03  0.81399653153E+02 0.  0.
      -24    2    3    3    0    0 -0.76988340986E+02  0.17785723816E+03 -0.28633826620E+03  0.35732400245E+03  0.90168942669E+02 0.  0.
      -13    1    4    4    0    0 -0.85303476458E+01 -0.46154635425E+02  0.95639384593E+02  0.10653595209E+03  0.00000000000E+00 0.  1.
       14    1    4    4    0    0  0.85518688632E+02 -0.13170260273E+03  0.59611318887E+03  0.61644947531E+03  0.00000000000E+00 0. -1.
        1    1    5    5  501    0 -0.67755743716E+01 -0.18766838734E+01  0.44619595025E+01  0.83270302646E+01  0.00000000000E+00 0. -1.
       -2    1    5    5    0  501 -0.70212766614E+02  0.17973392203E+03 -0.29080022570E+03  0.34899697219E+03  0.00000000000E+00 0.  1.
</event>
<event>
 9   1  0.7335000E-04  0.9949557E+03  0.7818608E-02  0.9314095E-01
       21   -1    0    0  503  502  0.00000000000E+00  0.00000000000E+00  0.39393359725E+03  0.39393359725E+03  0.00000000000E+00 0. -1.
       21   -1    0    0  502  503 -0.00000000000E+00 -0.00000000000E+00 -0.62823839290E+03  0.62823839290E+03  0.00000000000E+00 0.  1.
       39    2    1    2    0    0  0.00000000000E+00  0.00000000000E+00 -0.23430479564E+03  0.10221719902E+04  0.99495569760E+03 0.  0.
       24    2    3    3    0    0  0.21763650492E+03  0.81943744132E+02 -0.56150579994E+03  0.61296547913E+03  0.79733868344E+02 0.  0.
      -24    2    3    3    0    0 -0.21763650492E+03 -0.81943744132E+02  0.32720100430E+03  0.40920651102E+03  0.79429503149E+02 0.  0.
      -13    1    4    4    0    0  0.12063745354E+03  0.73358695865E+01 -0.32356625966E+03  0.34540170030E+03  0.00000000000E+00 0.  1.
       14    1    4    4    0    0  0.96999051383E+02  0.74607874546E+02 -0.23793954028E+03  0.26756377883E+03  0.00000000000E+00 0. -1.
        1    1    5    5  501    0 -0.20725268644E+03 -0.89529225983E+02  0.27681489089E+03  0.35720532213E+03  0.00000000000E+00 0. -1.
       -2    1    5    5    0  501 -0.10383818480E+02  0.75854818510E+01  0.50386113409E+02  0.52001188886E+02  0.00000000000E+00 0.  1.
</event>
<event>
 9   1  0.7335000E-04  0.1038725E+04  0.7818608E-02  0.9267063E-01
       21   -1    0    0  503  502  0.00000000000E+00  0.00000000000E+00  0.27849262528E+03  0.27849262528E+03  0.00000000000E+00 0. -1.
       21   -1    0    0  502  503 -0.00000000000E+00 -0.00000000000E+00 -0.96856174142E+03  0.96856174142E+03  0.00000000000E+00 0.  1.
       39    2    1    2    0    0  0.00000000000E+00  0.00000000000E+00 -0.69006911614E+03  0.12470543667E+04  0.10387247992E+04 0.  0.
       24    2    3    3    0    0  0.80475548064E+02  0.43587075418E+03 -0.34548744785E+02  0.45165505706E+03  0.79618129977E+02 0.  0.
      -24    2    3    3    0    0 -0.80475548064E+02 -0.43587075418E+03 -0.65552037135E+03  0.79539930965E+03  0.80582109329E+02 0.  0.
      -13    1    4    4    0    0 -0.10717575241E+02  0.87840114610E+02 -0.24138392327E+02  0.91724664828E+02  0.00000000000E+00 0.  1.
       14    1    4    4    0    0  0.91193123306E+02  0.34803063957E+03 -0.10410352458E+02  0.35993039223E+03  0.00000000000E+00 0. -1.
        1    1    5    5  501    0 -0.53564172368E+02 -0.10446215681E+03 -0.18964089349E+03  0.22303616579E+03  0.00000000000E+00 0. -1.
       -2    1    5    5    0  501 -0.26911375697E+02 -0.33140859736E+03 -0.46587947786E+03  0.57236314385E+03  0.00000000000E+00 0.  1.
</event>
<event>
 9   1  0.7335000E-04  0.9981823E+03  0.7818608E-02  0.9310541E-01
       21   -1    0    0  503  502  0.00000000000E+00  0.00000000000E+00  0.50267500725E+03  0.50267500725E+03  0.00000000000E+00 0.  1.
       21   -1    0    0  502  503 -0.00000000000E+00 -0.00000000000E+00 -0.49553286646E+03  0.49553286646E+03  0.00000000000E+00 0. -1.
       39    2    1    2    0    0  0.00000000000E+00  0.28421709430E-13  0.71421407927E+01  0.99820787371E+03  0.99818232251E+03 0.  0.
       24    2    3    3    0    0  0.42680503502E+03  0.15113044281E+03 -0.19213192825E+03  0.49728765790E+03  0.73330676944E+02 0.  0.
      -24    2    3    3    0    0 -0.42680503502E+03 -0.15113044281E+03  0.19927406905E+03  0.50092021581E+03  0.78790604448E+02 0.  0.
      -13    1    4    4    0    0  0.15977311301E+03  0.81828610346E+02 -0.10507056021E+03  0.20799805705E+03  0.00000000000E+00 0.  1.
       14    1    4    4    0    0  0.26703192201E+03  0.69301832461E+02 -0.87061368042E+02  0.28928960085E+03  0.00000000000E+00 0. -1.
        3    1    5    5  501    0 -0.18148094366E+03 -0.57540286037E+02  0.12603926881E+03  0.22832458193E+03  0.00000000000E+00 0. -1.
       -4    1    5    5    0  501 -0.24532409136E+03 -0.93590156770E+02  0.73234800232E+02  0.27259563388E+03  0.14200000000E+01 0.  1.
</event>
<event>
 9   1  0.7335000E-04  0.1018813E+04  0.7818608E-02  0.9288148E-01
       21   -1    0    0  503  502  0.00000000000E+00  0.00000000000E+00  0.10095787518E+04  0.10095787518E+04  0.00000000000E+00 0.  1.
       21   -1    0    0  502  503 -0.00000000000E+00 -0.00000000000E+00 -0.25703312443E+03  0.25703312443E+03  0.00000000000E+00 0. -1.
       39    2    1    2    0    0  0.00000000000E+00  0.00000000000E+00  0.75254562735E+03  0.12666118762E+04  0.10188133900E+04 0.  0.
       24    2    3    3    0    0  0.97857403033E+02 -0.24382037001E+03 -0.15757525737E+03  0.31602983943E+03  0.77591581472E+02 0.  0.
      -24    2    3    3    0    0 -0.97857403033E+02  0.24382037001E+03  0.91012088472E+03  0.95058203679E+03  0.79131155066E+02 0.  0.
      -13    1    4    4    0    0 -0.11925628500E+02 -0.47847545213E+02 -0.29028092995E+02  0.57220961027E+02  0.00000000000E+00 0.  1.
       14    1    4    4    0    0  0.10978303153E+03 -0.19597282480E+03 -0.12854716437E+03  0.25880887840E+03  0.00000000000E+00 0. -1.
        3    1    5    5  501    0  0.54995485927E+01  0.16657966780E+02  0.22434794395E+02  0.28478990353E+02  0.00000000000E+00 0. -1.
       -4    1    5    5    0  501 -0.10335695163E+03  0.22716240323E+03  0.88768609032E+03  0.92210304644E+03  0.14200000000E+01 0.  1.
</event>
<event>
 9   1  0.7335000E-04  0.9841725E+03  0.7818608E-02  0.9326076E-01
       21   -1    0    0  503  502  0.00000000000E+00  0.00000000000E+00  0.12367174361E+03  0.12367174361E+03  0.00000000000E+00 0.  1.
       21   -1    0    0  502  503 -0.00000000000E+00 -0.00000000000E+00 -0.19579968342E+04  0.19579968342E+04  0.00000000000E+00 0. -1.
       39    2    1    2    0    0 -0.56843418861E-13  0.14210854715E-13 -0.18343250906E+04  0.20816685778E+04  0.98417251021E+03 0.  0.
       24    2    3    3    0    0 -0.26998112625E+03  0.68186653411E+02 -0.17587432303E+04  0.17824686282E+04  0.80482495616E+02 0.  0.
      -24    2    3    3    0    0  0.26998112625E+03 -0.68186653411E+02 -0.75581860295E+02  0.29919994963E+03  0.79175526618E+02 0.  0.
      -13    1    4    4    0    0 -0.87293901197E+02  0.58121271982E+02 -0.54297635122E+03  0.55301141528E+03  0.00000000000E+00 0.  1.
       14    1    4    4    0    0 -0.18268722506E+03  0.10065381430E+02 -0.12157668791E+04  0.12294572129E+04  0.00000000000E+00 0. -1.
        1    1    5    5  501    0  0.10322967592E+03 -0.65938199400E+02 -0.26024841389E+02  0.12522581404E+03  0.00000000000E+00 0. -1.
       -2    1    5    5    0  501  0.16675145033E+03 -0.22484540115E+01 -0.49557018906E+02  0.17397413559E+03  0.00000000000E+00 0.  1.
</event>
<event>
 8   1  0.7335000E-04  0.1284366E+04  0.7818608E-02  0.9042056E-01
       21   -1    0    0  503  502  0.00000000000E+00  0.00000000000E+00  0.52132608452E+03  0.52132608452E+03  0.00000000000E+00 0. -1.
       21   -1    0    0  502  503 -0.00000000000E+00 -0.00000000000E+00 -0.79105774260E+03  0.79105774260E+03  0.00000000000E+00 0.  1.
       24    2    1    2    0    0  0.19201773686E+03 -0.18807092766E+03  0.45482176075E+03  0.53555884847E+03  0.87857617911E+02 0.  0.
      -24    2    1    2    0    0 -0.19201773686E+03  0.18807092766E+03 -0.72455341884E+03  0.77682497865E+03  0.78980412796E+02 0.  0.
      -13    1    3    3    0    0  0.95457734799E+01 -0.37492311691E+02  0.11626221308E+03  0.12253039386E+03  0.00000000000E+00 0.  1.
       14    1    3    3    0    0  0.18247196338E+03 -0.15057861597E+03  0.33855954767E+03  0.41302845462E+03  0.00000000000E+00 0. -1.
        3    1    4    4  501    0 -0.76879634514E+02  0.29135768495E+02 -0.17706503356E+03  0.19522140589E+03  0.00000000000E+00 0. -1.
       -4    1    4    4    0  501 -0.11513810234E+03  0.15893515917E+03 -0.54748838528E+03  0.58160357276E+03  0.14200000000E+01 0.  1.
</event>
<event>
 9   1  0.7335000E-04  0.1068777E+04  0.7818608E-02  0.9236170E-01
       21   -1    0    0  503  502  0.00000000000E+00  0.00000000000E+00  0.20148729429E+04  0.20148729429E+04  0.00000000000E+00 0. -1.
       21   -1    0    0  502  503 -0.00000000000E+00 -0.00000000000E+00 -0.14173145533E+03  0.14173145533E+03  0.00000000000E+00 0.  1.
       39    2    1    2    0    0  0.00000000000E+00  0.00000000000E+00  0.18731414876E+04  0.21566043983E+04  0.10687766362E+04 0.  0.
       24    2    3    3    0    0  0.13371164299E+03 -0.12193814764E+03 -0.64823726299E+02  0.20869213118E+03  0.81256229314E+02 0.  0.
      -24    2    3    3    0    0 -0.13371164299E+03  0.12193814764E+03  0.19379652139E+04  0.19479122671E+04  0.76846045030E+02 0.  0.
      -13    1    4    4    0    0  0.12613888889E+03 -0.12481022283E+03 -0.77510873343E+02  0.19364025021E+03  0.00000000000E+00 0.  1.
       14    1    4    4    0    0  0.75727540966E+01  0.28720751915E+01  0.12687147044E+02  0.15051880967E+02  0.00000000000E+00 0. -1.
        3    1    5    5  501    0 -0.14325682423E+03  0.11755718294E+03  0.18644410106E+04  0.18736281624E+04  0.00000000000E+00 0. -1.
       -4    1    5    5    0  501  0.95451812401E+01  0.43809647005E+01  0.73524203277E+02  0.74284104654E+02  0.14200000000E+01 0.  1.
</event>
<event>
 9   1  0.7335000E-04  0.1000904E+04  0.7818608E-02  0.9307553E-01
       21   -1    0    0  503  502  0.00000000000E+00  0.00000000000E+00  0.33015404263E+03  0.33015404263E+03  0.00000000000E+00 0.  1.
       21   -1    0    0  502  503 -0.00000000000E+00 -0.00000000000E+00 -0.75859261523E+03  0.75859261523E+03  0.00000000000E+00 0. -1.
       39    2    1    2    0    0 -0.28421709430E-13  0.00000000000E+00 -0.42843857260E+03  0.10887466579E+04  0.10009044283E+04 0.  0.
       24    2    3    3    0    0 -0.10839465627E+03 -0.37149278297E+03 -0.54671771739E+03  0.67611316550E+03  0.92045970832E+02 0.  0.
      -24    2    3    3    0    0  0.10839465627E+03  0.37149278297E+03  0.11827914479E+03  0.41263349235E+03  0.80747468109E+02 0.  0.
      -13    1    4    4    0    0 -0.28427895027E+02 -0.23942752966E+02 -0.84444257632E+02  0.92261765008E+02  0.00000000000E+00 0.  1.
       14    1    4    4    0    0 -0.79966761245E+02 -0.34755003001E+03 -0.46227345976E+03  0.58385140050E+03  0.00000000000E+00 0. -1.
        1    1    5    5  501    0 -0.12711776006E+01  0.34957493309E+02 -0.96237342592E+01  0.36280276902E+02  0.00000000000E+00 0. -1.
       -2    1    5    5    0  501  0.10966583387E+03  0.33653528966E+03  0.12790287905E+03  0.37635321545E+03  0.00000000000E+00 0.  1.
</event>
<event>
 9   1  0.7335000E-04  0.1011157E+04  0.7818608E-02  0.9296392E-01
       -2   -1    0    0    0  501 -0.00000000000E+00  0.00000000000E+00  0.16102107784E+03  0.16102107784E+03  0.00000000000E+00 0. -1.
        2   -1    0    0  501    0  0.00000000000E+00 -0.00000000000E+00 -0.15874288057E+04  0.15874288057E+04  0.00000000000E+00 0.  1.
       39    2    1    2    0    0  0.00000000000E+00  0.00000000000E+00 -0.14264077279E+04  0.17484498836E+04  0.10111567580E+04 0.  0.
       24    2    3    3    0    0  0.38398230858E+03  0.17330980662E+03 -0.11764359116E+04  0.12520052763E+04  0.77698489242E+02 0.  0.
      -24    2    3    3    0    0 -0.38398230858E+03 -0.17330980662E+03 -0.24997181624E+03  0.49644460729E+03  0.80576900040E+02 0.  0.
      -13    1    4    4    0    0  0.25873147016E+03  0.10013512089E+03 -0.66905060177E+03  0.72429118717E+03  0.00000000000E+00 0.  1.
       14    1    4    4    0    0  0.12525083842E+03  0.73174685732E+02 -0.50738530987E+03  0.52771408910E+03  0.00000000000E+00 0. -1.
        3    1    5    5  502    0 -0.35394040812E+03 -0.13241386307E+03 -0.21470839725E+03  0.43463425944E+03  0.00000000000E+00 0. -1.
       -4    1    5    5    0  502 -0.30041900461E+02 -0.40895943546E+02 -0.35263418993E+02  0.61810347846E+02  0.14200000000E+01 0.  1.
</event>
<event>
 9   1  0.7335000E-04  0.1000222E+04  0.7818608E-02  0.9308301E-01
       21   -1    0    0  503  502  0.00000000000E+00  0.00000000000E+00  0.20077190966E+04  0.20077190966E+04  0.00000000000E+00 0. -1.
       21   -1    0    0  502  503 -0.00000000000E+00 -0.00000000000E+00 -0.12457471045E+03  0.12457471045E+03  0.00000000000E+00 0.  1.
       39    2    1    2    0    0  0.35527136788E-14  0.28421709430E-13  0.18831443862E+04  0.21322938071E+04  0.10002220256E+04 0.  0.
       24    2    3    3    0    0 -0.30693923149E+02  0.17684475758E+03 -0.38461915034E+02  0.20069560211E+03  0.81137048227E+02 0.  0.
      -24    2    3    3    0    0  0.30693923149E+02 -0.17684475758E+03  0.19216063012E+04  0.19315982050E+04  0.79275868805E+02 0.  0.
      -13    1    4    4    0    0 -0.81585569670E+01  0.17386344047E+03 -0.36805359663E+02  0.17790360447E+03  0.00000000000E+00 0.  1.
       14    1    4    4    0    0 -0.22535366182E+02  0.29813171138E+01 -0.16565553711E+01  0.22791997639E+02  0.00000000000E+00 0. -1.
        3    1    5    5  501    0  0.42593241161E+02 -0.17345368189E+03  0.18700089619E+04  0.18785190660E+04  0.00000000000E+00 0. -1.
       -4    1    5    5    0  501 -0.11899318012E+02 -0.33910756842E+01  0.51597339346E+02  0.53079138944E+02  0.14200000000E+01 0.  1.
</event>
<event>
 9   1  0.7335000E-04  0.9930771E+03  0.7818608E-02  0.9316170E-01
       21   -1    0    0  503  502  0.00000000000E+00  0.00000000000E+00  0.33853042438E+03  0.33853042438E+03  0.00000000000E+00 0. -1.
       21   -1    0    0  502  503 -0.00000000000E+00 -0.00000000000E+00 -0.72829656666E+03  0.72829656666E+03  0.00000000000E+00 0.  1.
       39    2    1    2    0    0  0.56843418861E-13  0.53290705182E-14 -0.38976614228E+03  0.10668269910E+04  0.99307712849E+03 0.  0.
       24    2    3    3    0    0  0.37322637227E+03  0.97559984541E+01  0.14569301241E+03  0.40884463835E+03  0.80835511868E+02 0.  0.
      -24    2    3    3    0    0 -0.37322637227E+03 -0.97559984541E+01 -0.53545915469E+03  0.65798235268E+03  0.82650865903E+02 0.  0.
      -13    1    4    4    0    0 -0.12823384946E+01  0.62307875206E+00 -0.48895131830E+01  0.50931285388E+01  0.00000000000E+00 0.  1.
       14    1    4    4    0    0  0.37450871077E+03  0.91329197020E+01  0.15058252559E+03  0.40375150982E+03  0.00000000000E+00 0. -1.
        1    1    5    5  501    0 -0.11697441921E+03  0.27234163501E+02 -0.13072552736E+03  0.17752148579E+03  0.00000000000E+00 0. -1.
       -2    1    5    5    0  501 -0.25625195306E+03 -0.36990161955E+02 -0.40473362733E+03  0.48046086690E+03  0.00000000000E+00 0.  1.
</event>
<event>
 9   1  0.7335000E-04  0.9983368E+03  0.7818608E-02  0.9310371E-01
       21   -1    0    0  503  502  0.00000000000E+00  0.00000000000E+00  0.83774916476E+03  0.83774916476E+03  0.00000000000E+00 0.  1.
       21   -1    0    0  502  503 -0.00000000000E+00 -0.00000000000E+00 -0.29742687428E+03  0.29742687428E+03  0.00000000000E+00 0. -1.
       39    2    1    2    0    0  0.56843418861E-13  0.00000000000E+00  0.54032229048E+03  0.11351760390E+04  0.99833684797E+03 0.  0.
       24    2    3    3    0    0 -0.22883073624E+03  0.20316344358E+03 -0.16898475103E+03  0.35829141565E+03  0.78600265858E+02 0.  0.
      -24    2    3    3    0    0  0.22883073624E+03 -0.20316344358E+03  0.70930704151E+03  0.77688462338E+03  0.82427836643E+02 0.  0.
      -13    1    4    4    0    0 -0.13679883027E+02 -0.41041444202E+01  0.14354619616E+01  0.14354224190E+02  0.00000000000E+00 0.  1.
       14    1    4    4    0    0 -0.21515085321E+03  0.20726758800E+03 -0.17042021300E+03  0.34393719146E+03  0.00000000000E+00 0. -1.
        3    1    5    5  501    0 -0.19122154291E+01 -0.13251488433E+02  0.68777292226E+02  0.70068355478E+02  0.00000000000E+00 0. -1.
       -4    1    5    5    0  501  0.23074295167E+03 -0.18991195514E+03  0.64052974929E+03  0.70681626790E+03  0.14200000000E+01 0.  1.
</event>
<event>
 9   1  0.7335000E-04  0.1004392E+04  0.7818608E-02  0.9303741E-01
        1   -1    0    0  501    0  0.00000000000E+00  0.00000000000E+00  0.17534102753E+04  0.17534102753E+04  0.00000000000E+00 0. -1.
       -1   -1    0    0    0  501 -0.00000000000E+00 -0.00000000000E+00 -0.14383451570E+03  0.14383451570E+03  0.00000000000E+00 0.  1.
       39    2    1    2    0    0  0.00000000000E+00  0.11368683772E-12  0.16095757596E+04  0.18972447910E+04  0.10043921899E+04 0.  0.
       24    2    3    3    0    0 -0.15869844239E+03 -0.45831824678E+03  0.99750817745E+03  0.11122119575E+04  0.82170940612E+02 0.  0.
      -24    2    3    3    0    0  0.15869844239E+03  0.45831824678E+03  0.61206758218E+03  0.78503283349E+03  0.80056314877E+02 0.  0.
      -13    1    4    4    0    0 -0.50113344584E+02 -0.95688183514E+02  0.15901467547E+03  0.19223226260E+03  0.00000000000E+00 0.  1.
       14    1    4    4    0    0 -0.10858509780E+03 -0.36263006327E+03  0.83849350198E+03  0.91997969495E+03  0.00000000000E+00 0. -1.
        3    1    5    5  502    0  0.13769407379E+02  0.87861385424E+02  0.15841163684E+03  0.18166856171E+03  0.00000000000E+00 0. -1.
       -4    1    5    5    0  502  0.14492903501E+03  0.37045686136E+03  0.45365594534E+03  0.60336427178E+03  0.14200000000E+01 0.  1.
</event>
<event>
 9   1  0.7335000E-04  0.9989832E+03  0.7818608E-02  0.9309661E-01
       21   -1    0    0  503  502  0.00000000000E+00  0.00000000000E+00  0.48425524494E+03  0.48425524494E+03  0.00000000000E+00 0. -1.
       21   -1    0    0  502  503 -0.00000000000E+00 -0.00000000000E+00 -0.51520736807E+03  0.51520736807E+03  0.00000000000E+00 0.  1.
       39    2    1    2    0    0 -0.14210854715E-13 -0.56843418861E-13 -0.30952123126E+02  0.99946261301E+03  0.99898322352E+03 0.  0.
       24    2    3    3    0    0  0.71343489796E+02  0.48230849839E+03 -0.88030872331E+02  0.50201029485E+03  0.80953817083E+02 0.  0.
      -24    2    3    3    0    0 -0.71343489796E+02 -0.48230849839E+03  0.57078749204E+02  0.49745231816E+03  0.80557085860E+02 0.  0.
      -13    1    4    4    0    0  0.57754741399E+02  0.39207771468E+03 -0.38470228107E+02  0.39817144919E+03  0.00000000000E+00 0.  1.
       14    1    4    4    0    0  0.13588748397E+02  0.90230783705E+02 -0.49560644224E+02  0.10383884565E+03  0.00000000000E+00 0. -1.
        1    1    5    5  501    0 -0.56765065324E+02 -0.22732065842E+03 -0.59852653419E+01  0.23437742593E+03  0.00000000000E+00 0. -1.
       -2    1    5    5    0  501 -0.14578424472E+02 -0.25498783997E+03  0.63064014546E+02  0.26307489223E+03  0.00000000000E+00 0.  1.
</event>
<event>
 9   1  0.7335000E-04  0.9767239E+03  0.7818608E-02  0.9334448E-01
       21   -1    0    0  503  502  0.00000000000E+00  0.00000000000E+00  0.43688451387E+03  0.43688451387E+03  0.00000000000E+00 0. -1.
       21   -1    0    0  502  503 -0.00000000000E+00 -0.00000000000E+00 -0.54590494526E+03  0.54590494526E+03  0.00000000000E+00 0.  1.
       39    2    1    2    0    0  0.00000000000E+00  0.00000000000E+00 -0.10902043139E+03  0.98278945913E+03  0.97672394591E+03 0.  0.
       24    2    3    3    0    0  0.30212287215E+03 -0.21078148005E+03 -0.36620869231E+03  0.52579497378E+03  0.81513716179E+02 0.  0.
      -24    2    3    3    0    0 -0.30212287215E+03  0.21078148005E+03  0.25718826091E+03  0.45699448535E+03  0.83612773413E+02 0.  0.
      -13    1    4    4    0    0  0.23975211080E+03 -0.20354628731E+03 -0.30604121580E+03  0.43883184875E+03  0.00000000000E+00 0.  1.
       14    1    4    4    0    0  0.62370761354E+02 -0.72351927347E+01 -0.60167476503E+02  0.86963125027E+02  0.00000000000E+00 0. -1.
        1    1    5    5  501    0 -0.72034935689E+02  0.96288457516E+02  0.93082515465E+02  0.15206858221E+03  0.00000000000E+00 0. -1.
       -2    1    5    5    0  501 -0.23008793646E+03  0.11449302253E+03  0.16410574545E+03  0.30492590313E+03  0.00000000000E+00 0.  1.
</event>
<event>
 9   1  0.7335000E-04  0.9916361E+03  0.7818608E-02  0.9317766E-01
       21   -1    0    0  503  502  0.00000000000E+00  0.00000000000E+00  0.11709679719E+04  0.11709679719E+04  0.00000000000E+00 0.  1.
       21   -1    0    0  502  503 -0.00000000000E+00 -0.00000000000E+00 -0.20994213752E+03  0.20994213752E+03  0.00000000000E+00 0. -1.
       39    2    1    2    0    0  0.00000000000E+00  0.00000000000E+00  0.96102583442E+03  0.13809101094E+04  0.99163606023E+03 0.  0.
       24    2    3    3    0    0  0.37519891292E+03  0.27181363021E+03  0.69945543369E+03  0.84289451922E+03  0.81094962752E+02 0.  0.
      -24    2    3    3    0    0 -0.37519891292E+03 -0.27181363021E+03  0.26157040073E+03  0.53801559023E+03  0.79905112262E+02 0.  0.
      -13    1    4    4    0    0  0.23413465339E+03  0.12056091015E+03  0.40325618468E+03  0.48163214122E+03  0.00000000000E+00 0.  1.
       14    1    4    4    0    0  0.14106425954E+03  0.15125272006E+03  0.29619924901E+03  0.36126237800E+03  0.00000000000E+00 0. -1.
        1    1    5    5  501    0 -0.36893433372E+03 -0.27745721952E+03  0.25537404999E+03  0.52755185211E+03  0.00000000000E+00 0. -1.
       -2    1    5    5    0  501 -0.62645792065E+01  0.56435893080E+01  0.61963507449E+01  0.10463738121E+02  0.00000000000E+00 0.  1.
</event>
<event>
 9   1  0.7335000E-04  0.1005614E+04  0.7818608E-02  0.9302409E-01
       21   -1    0    0  503  502  0.00000000000E+00  0.00000000000E+00  0.69659518284E+03  0.69659518284E+03  0.00000000000E+00 0.  1.
       21   -1    0    0  502  503 -0.00000000000E+00 -0.00000000000E+00 -0.36292912111E+03  0.36292912111E+03  0.00000000000E+00 0. -1.
       39    2    1    2    0    0  0.00000000000E+00 -0.71054273576E-14  0.33366606173E+03  0.10595243040E+04  0.10056135987E+04 0.  0.
       24    2    3    3    0    0  0.31746176868E+03 -0.42333958089E+02  0.56638561581E+03  0.65568091171E+03  0.80936108204E+02 0.  0.
      -24    2    3    3    0    0 -0.31746176868E+03  0.42333958089E+02 -0.23271955408E+03  0.40384339225E+03  0.79730521332E+02 0.  0.
      -13    1    4    4    0    0  0.13085089677E+03 -0.10636292656E+02  0.31287000394E+03  0.33929740239E+03  0.00000000000E+00 0.  1.
       14    1    4    4    0    0  0.18661087190E+03 -0.31697665433E+02  0.25351561187E+03  0.31638350932E+03  0.00000000000E+00 0. -1.
        3    1    5    5  501    0 -0.31181852149E+03  0.52873681130E+02 -0.23107685162E+03  0.39169238933E+03  0.00000000000E+00 0. -1.
       -4    1    5    5    0  501 -0.56432471867E+01 -0.10539723041E+02 -0.16427024545E+01  0.12151002919E+02  0.14200000000E+01 0.  1.
</event>
<event>
 9   1  0.7335000E-04  0.9758810E+03  0.7818608E-02  0.9335401E-01
       21   -1    0    0  503  502  0.00000000000E+00  0.00000000000E+00  0.13494667108E+03  0.13494667108E+03  0.00000000000E+00 0.  1.
       21   -1    0    0  502  503 -0.00000000000E+00 -0.00000000000E+00 -0.17642964699E+04  0.17642964699E+04  0.00000000000E+00 0. -1.
       39    2    1    2    0    0  0.00000000000E+00  0.00000000000E+00 -0.16293497988E+04  0.18992431410E+04  0.97588100792E+03 0.  0.
       24    2    3    3    0    0 -0.17131347793E+03  0.37551117703E+03 -0.34557934347E+03  0.54791025160E+03  0.10209607918E+03 0.  0.
      -24    2    3    3    0    0  0.17131347793E+03 -0.37551117703E+03 -0.12837704554E+04  0.13513328894E+04  0.87618742725E+02 0.  0.
      -13    1    4    4    0    0 -0.13975684289E+03  0.36580274623E+03 -0.31065593017E+03  0.49985070894E+03  0.00000000000E+00 0.  1.
       14    1    4    4    0    0 -0.31556635038E+02  0.97084307962E+01 -0.34923413307E+02  0.48059542657E+02  0.00000000000E+00 0. -1.
        3    1    5    5  501    0  0.13013510117E+03 -0.18126629034E+03 -0.65691402210E+03  0.69377852734E+03  0.00000000000E+00 0. -1.
       -4    1    5    5    0  501  0.41178376756E+02 -0.19424488669E+03 -0.62685643327E+03  0.65755436205E+03  0.14200000000E+01 0.  1.
</event>
<event>
 9   1  0.7335000E-04  0.9714869E+03  0.7818608E-02  0.9340382E-01
       21   -1    0    0  503  502  0.00000000000E+00  0.00000000000E+00  0.13107865115E+04  0.13107865115E+04  0.00000000000E+00 0. -1.
       21   -1    0    0  502  503 -0.00000000000E+00 -0.00000000000E+00 -0.18000392257E+03  0.18000392257E+03  0.00000000000E+00 0.  1.
       39    2    1    2    0    0  0.00000000000E+00 -0.56843418861E-13  0.11307825889E+04  0.14907904341E+04  0.97148692987E+03 0.  0.
       24    2    3    3    0    0  0.66884250465E+02 -0.35780475440E+03  0.86656188358E+02  0.38208598079E+03  0.77347634101E+02 0.  0.
      -24    2    3    3    0    0 -0.66884250465E+02  0.35780475440E+03  0.10441264005E+04  0.11087044533E+04  0.80795291632E+02 0.  0.
      -13    1    4    4    0    0  0.22779127929E+02 -0.13104249657E+03  0.70433308567E+02  0.15050540034E+03  0.00000000000E+00 0.  1.
       14    1    4    4    0    0  0.44105122536E+02 -0.22676225783E+03  0.16222879792E+02  0.23158058044E+03  0.00000000000E+00 0. -1.
        1    1    5    5  501    0 -0.83359410218E+02  0.30577515920E+03  0.92158190066E+03  0.97455653448E+03  0.00000000000E+00 0. -1.
       -2    1    5    5    0  501  0.16475159753E+02  0.52029595198E+02  0.12254449988E+03  0.13414791880E+03  0.00000000000E+00 0.  1.
</event>
<event>
 9   1  0.7335000E-04  0.1007311E+04  0.7818608E-02  0.9300562E-01
       21   -1    0    0  503  502  0.00000000000E+00  0.00000000000E+00  0.10417966833E+03  0.10417966833E+03  0.00000000000E+00 0. -1.
       21   -1    0    0  502  503 -0.00000000000E+00 -0.00000000000E+00 -0.24349167182E+04  0.24349167182E+04  0.00000000000E+00 0.  1.
       39    2    1    2    0    0  0.56843418861E-13  0.35527136788E-14 -0.23307370499E+04  0.25390963865E+04  0.10073109075E+04 0.  0.
       24    2    3    3    0    0 -0.38992044778E+03 -0.27307976032E+02 -0.19402226287E+04  0.19807292778E+04  0.77723496149E+02 0.  0.
      -24    2    3    3    0    0  0.38992044778E+03  0.27307976032E+02 -0.39051442116E+03  0.55836710872E+03  0.80552056532E+02 0.  0.
      -13    1    4    4    0    0 -0.30164151018E+03 -0.53496798776E+02 -0.15100562901E+04  0.15408178048E+04  0.00000000000E+00 0.  1.
       14    1    4    4    0    0 -0.88278937596E+02  0.26188822744E+02 -0.43016633858E+03  0.43991147304E+03  0.00000000000E+00 0. -1.
        1    1    5    5  501    0  0.34156956632E+03  0.40142496170E+01 -0.30806712049E+03  0.45999047117E+03  0.00000000000E+00 0. -1.
       -2    1    5    5    0  501  0.48350881458E+02  0.23293726415E+02 -0.82447300667E+02  0.98376637548E+02  0.00000000000E+00 0.  1.
</event>
<event>
 9   1  0.7335000E-04  0.9921749E+03  0.7818608E-02  0.9317169E-01
       21   -1    0    0  503  502  0.00000000000E+00  0.00000000000E+00  0.18779112677E+04  0.18779112677E+04  0.00000000000E+00 0. -1.
       21   -1    0    0  502  503 -0.00000000000E+00 -0.00000000000E+00 -0.13105133171E+03  0.13105133171E+03  0.00000000000E+00 0.  1.
       39    2    1    2    0    0  0.00000000000E+00  0.56843418861E-13  0.17468599360E+04  0.20089625994E+04  0.99217492906E+03 0.  0.
       24    2    3    3    0    0  0.25838402796E+02  0.15705027119E+03  0.18116500505E+04  0.18203569118E+04  0.79315635119E+02 0.  0.
      -24    2    3    3    0    0 -0.25838402796E+02 -0.15705027119E+03 -0.64790114586E+02  0.18860568758E+03  0.77729889343E+02 0.  0.
      -13    1    4    4    0    0  0.12377896233E+02  0.16071836174E+02  0.67902367895E+02  0.70867819205E+02  0.00000000000E+00 0.  1.
       14    1    4    4    0    0  0.13460506563E+02  0.14097843502E+03  0.17437476827E+04  0.17494890926E+04  0.00000000000E+00 0. -1.
        3    1    5    5  501    0  0.12067519083E+02 -0.46096268628E+02  0.11107386362E+02  0.48927140015E+02  0.00000000000E+00 0. -1.
       -4    1    5    5    0  501 -0.37905921879E+02 -0.11095400256E+03 -0.75897500948E+02  0.13967854756E+03  0.14200000000E+01 0.  1.
</event>
<event>
 9   1  0.7335000E-04  0.1011164E+04  0.7818608E-02  0.9296385E-01
       21   -1    0    0  503  502  0.00000000000E+00  0.00000000000E+00  0.37284622697E+03  0.37284622697E+03  0.00000000000E+00 0.  1.
       21   -1    0    0  502  503 -0.00000000000E+00 -0.00000000000E+00 -0.68557230097E+03  0.68557230097E+03  0.00000000000E+00 0. -1.
       39    2    1    2    0    0 -0.28421709430E-13  0.00000000000E+00 -0.31272607399E+03  0.10584185279E+04  0.10111637765E+04 0.  0.
       24    2    3    3    0    0  0.14964688692E+03 -0.14017993117E+03 -0.63306817987E+03  0.67040088271E+03  0.81347521817E+02 0.  0.
      -24    2    3    3    0    0 -0.14964688692E+03  0.14017993117E+03  0.32034210588E+03  0.38801764523E+03  0.76772549442E+02 0.  0.
      -13    1    4    4    0    0  0.14379249262E+02 -0.20910464465E+02 -0.23046023262E+02  0.34280162218E+02  0.00000000000E+00 0.  1.
       14    1    4    4    0    0  0.13526763766E+03 -0.11926946670E+03 -0.61002215661E+03  0.63612072049E+03  0.00000000000E+00 0. -1.
        3    1    5    5  501    0 -0.56581552972E+01  0.43770133058E+02  0.47893394948E+02  0.65127694178E+02  0.00000000000E+00 0. -1.
       -4    1    5    5    0  501 -0.14398873162E+03  0.96409798110E+02  0.27244871093E+03  0.32288995106E+03  0.14200000000E+01 0.  1.
</event>
<event>
 9   1  0.7335000E-04  0.1006389E+04  0.7818608E-02  0.9301565E-01
       21   -1    0    0  503  502  0.00000000000E+00  0.00000000000E+00  0.17565696968E+03  0.17565696968E+03  0.00000000000E+00 0.  1.
       21   -1    0    0  502  503 -0.00000000000E+00 -0.00000000000E+00 -0.14414729240E+04  0.14414729240E+04  0.00000000000E+00 0. -1.
       39    2    1    2    0    0 -0.14210854715E-13  0.00000000000E+00 -0.12658159543E+04  0.16171298937E+04  0.10063891210E+04 0.  0.
       24    2    3    3    0    0  0.12742207501E+03  0.34091240773E+02 -0.14025010891E+04  0.14110380767E+04  0.81366770096E+02 0.  0.
      -24    2    3    3    0    0 -0.12742207501E+03 -0.34091240773E+02  0.13668513472E+03  0.20609181698E+03  0.79952567659E+02 0.  0.
      -13    1    4    4    0    0  0.47393317543E+02 -0.21979661473E+02 -0.33184620630E+03  0.33593323251E+03  0.00000000000E+00 0.  1.
       14    1    4    4    0    0  0.80028757464E+02  0.56070902246E+02 -0.10706548828E+04  0.10751048442E+04  0.00000000000E+00 0. -1.
        3    1    5    5  501    0  0.94559443814E+01 -0.13916088129E+00 -0.32826438295E+00  0.94626638638E+01  0.00000000000E+00 0. -1.
       -4    1    5    5    0  501 -0.13687801939E+03 -0.33952079891E+02  0.13701339910E+03  0.19662915311E+03  0.14200000000E+01 0.  1.
</event>
<event>
 9   1  0.7335000E-04  0.1026344E+04  0.7818608E-02  0.9280114E-01
       21   -1    0    0  503  502  0.00000000000E+00  0.00000000000E+00  0.30602290816E+03  0.30602290816E+03  0.00000000000E+00 0.  1.
       21   -1    0    0  502  503 -0.00000000000E+00 -0.00000000000E+00 -0.86054200985E+03  0.86054200985E+03  0.00000000000E+00 0. -1.
       39    2    1    2    0    0  0.00000000000E+00  0.28421709430E-13 -0.55451910169E+03  0.11665649180E+04  0.10263441303E+04 0.  0.
       24    2    3    3    0    0  0.29389428674E+03  0.18547129260E+03  0.14048999719E+03  0.38291197091E+03  0.78170876918E+02 0.  0.
      -24    2    3    3    0    0 -0.29389428674E+03 -0.18547129260E+03 -0.69500909888E+03  0.78365294710E+03  0.10149306290E+03 0.  0.
      -13    1    4    4    0    0  0.26004811827E+03  0.18735311970E+03  0.13789489001E+03  0.34891433901E+03  0.00000000000E+00 0.  1.
       14    1    4    4    0    0  0.33846168468E+02 -0.18818271031E+01  0.25951071825E+01  0.33997631895E+02  0.00000000000E+00 0. -1.
        1    1    5    5  501    0 -0.17139767991E+03 -0.16403959338E+03 -0.47402761821E+03  0.53008332902E+03  0.00000000000E+00 0. -1.
       -2    1    5    5    0  501 -0.12249660683E+03 -0.21431699216E+02 -0.22098148067E+03  0.25356961808E+03  0.00000000000E+00 0.  1.
</event>
<event>
 9   1  0.7335000E-04  0.1011171E+04  0.7818608E-02  0.9296376E-01
       21   -1    0    0  503  502  0.00000000000E+00  0.00000000000E+00  0.98124553419E+03  0.98124553419E+03  0.00000000000E+00 0. -1.
       21   -1    0    0  502  503 -0.00000000000E+00 -0.00000000000E+00 -0.26050244121E+03  0.26050244121E+03  0.00000000000E+00 0.  1.
       39    2    1    2    0    0 -0.28421709430E-13 -0.71054273576E-14  0.72074309298E+03  0.12417479754E+04  0.10111713150E+04 0.  0.
       24    2    3    3    0    0 -0.17582258551E+03 -0.42348305249E+02  0.93159486976E+03  0.95251374886E+03  0.81893100241E+02 0.  0.
      -24    2    3    3    0    0  0.17582258551E+03  0.42348305249E+02 -0.21085177678E+03  0.28923422654E+03  0.80566776624E+02 0.  0.
      -13    1    4    4    0    0  0.59424698921E+01 -0.84511937546E+01  0.21849854347E+02  0.24169231665E+02  0.00000000000E+00 0.  1.
       14    1    4    4    0    0 -0.18176505540E+03 -0.33897111494E+02  0.90974501542E+03  0.92834451720E+03  0.00000000000E+00 0. -1.
        3    1    5    5  501    0  0.25319551292E+02  0.29558400716E+02 -0.81696284392E+02  0.90493434093E+02  0.00000000000E+00 0. -1.
       -4    1    5    5    0  501  0.15050303422E+03  0.12789904533E+02 -0.12915549239E+03  0.19874079244E+03  0.14200000000E+01 0.  1.
</event>
<event>
 9   1  0.7335000E-04  0.1004918E+04  0.7818608E-02  0.9303167E-01
       21   -1    0    0  503  502  0.00000000000E+00  0.00000000000E+00  0.13209461010E+04  0.13209461010E+04  0.00000000000E+00 0.  1.
       21   -1    0    0  502  503 -0.00000000000E+00 -0.00000000000E+00 -0.19112439696E+03  0.19112439696E+03  0.00000000000E+00 0. -1.
       39    2    1    2    0    0  0.00000000000E+00  0.00000000000E+00  0.11298217040E+04  0.15120704979E+04  0.10049179608E+04 0.  0.
       24    2    3    3    0    0 -0.39468957001E+03 -0.12875638154E+03  0.97315675429E+03  0.10611171153E+04  0.81101180706E+02 0.  0.
      -24    2    3    3    0    0  0.39468957001E+03  0.12875638154E+03  0.15666494972E+03  0.45095338263E+03  0.80355363034E+02 0.  0.
      -13    1    4    4    0    0 -0.28590629193E+03 -0.96614375294E+02  0.60852701665E+03  0.67925096634E+03  0.00000000000E+00 0.  1.
       14    1    4    4    0    0 -0.10878327808E+03 -0.32142006245E+02  0.36462973764E+03  0.38186614896E+03  0.00000000000E+00 0. -1.
        1    1    5    5  501    0  0.23337430393E+03  0.34987614493E+02  0.95832866190E+02  0.25469911101E+03  0.00000000000E+00 0. -1.
       -2    1    5    5    0  501  0.16131526608E+03  0.93768767046E+02  0.60832083532E+02  0.19625427162E+03  0.00000000000E+00 0.  1.
</event>
<event>
 9   1  0.7335000E-04  0.9912290E+03  0.7818608E-02  0.9318217E-01
       21   -1    0    0  503  502  0.00000000000E+00  0.00000000000E+00  0.23172245233E+04  0.23172245233E+04  0.00000000000E+00 0.  1.
       21   -1    0    0  502  503 -0.00000000000E+00 -0.00000000000E+00 -0.10600343255E+03  0.10600343255E+03  0.00000000000E+00 0. -1.
       39    2    1    2    0    0  0.35527136788E-14  0.00000000000E+00  0.22112210908E+04  0.24232279559E+04  0.99122904206E+03 0.  0.
       24    2    3    3    0    0  0.26471814473E+02  0.27284367897E+03  0.11501664929E+03  0.30751483332E+03  0.78689980163E+02 0.  0.
      -24    2    3    3    0    0 -0.26471814473E+02 -0.27284367897E+03  0.20962044415E+04  0.21157131225E+04  0.83812447467E+02 0.  0.
      -13    1    4    4    0    0  0.34199537219E+02  0.65112308926E+02  0.52770123855E+02  0.90520202669E+02  0.00000000000E+00 0.  1.
       14    1    4    4    0    0 -0.77277227460E+01  0.20773137005E+03  0.62246525440E+02  0.21699463065E+03  0.00000000000E+00 0. -1.
        3    1    5    5  501    0 -0.99614333518E+01 -0.18958662505E+02  0.60655067932E+02  0.64324943096E+02  0.00000000000E+00 0. -1.
       -4    1    5    5    0  501 -0.16510381121E+02 -0.25388501647E+03  0.20355493735E+04  0.20513881795E+04  0.14200000000E+01 0.  1.
</event>
<event>
 9   1  0.7335000E-04  0.9903081E+03  0.7818608E-02  0.9319239E-01
       21   -1    0    0  503  502  0.00000000000E+00  0.00000000000E+00  0.35846826189E+03  0.35846826189E+03  0.00000000000E+00 0. -1.
       21   -1    0    0  502  503 -0.00000000000E+00 -0.00000000000E+00 -0.68395882017E+03  0.68395882017E+03  0.00000000000E+00 0.  1.
       39    2    1    2    0    0  0.11368683772E-12  0.00000000000E+00 -0.32549055828E+03  0.10424270821E+04  0.99030809241E+03 0.  0.
       24    2    3    3    0    0 -0.44995962605E+03  0.16721527922E+03 -0.66825441854E+02  0.49110261850E+03  0.79319149859E+02 0.  0.
      -24    2    3    3    0    0  0.44995962605E+03 -0.16721527922E+03 -0.25866511642E+03  0.55132446356E+03  0.81402745570E+02 0.  0.
      -13    1    4    4    0    0 -0.35779317509E+03  0.14339131147E+03 -0.83656154149E+02  0.39443044567E+03  0.00000000000E+00 0.  1.
       14    1    4    4    0    0 -0.92166450965E+02  0.23823967746E+02  0.16830712295E+02  0.96672172827E+02  0.00000000000E+00 0. -1.
        1    1    5    5  501    0  0.32565122800E+03 -0.86139722238E+02 -0.19991871354E+03  0.39170941535E+03  0.00000000000E+00 0. -1.
       -2    1    5    5    0  501  0.12430839805E+03 -0.81075556978E+02 -0.58746402879E+02  0.15961504821E+03  0.00000000000E+00 0.  1.
</event>
<event>
 9   1  0.7335000E-04  0.1006447E+04  0.7818608E-02  0.9301502E-01
       21   -1    0    0  503  502  0.00000000000E+00  0.00000000000E+00  0.15204359590E+04  0.15204359590E+04  0.00000000000E+00 0. -1.
       21   -1    0    0  502  503 -0.00000000000E+00 -0.00000000000E+00 -0.16655347677E+03  0.16655347677E+03  0.00000000000E+00 0.  1.
       39    2    1    2    0    0  0.56843418861E-13  0.71054273576E-14  0.13538824823E+04  0.16869894358E+04  0.10064470084E+04 0.  0.
       24    2    3    3    0    0 -0.47519082893E+03 -0.51416825205E+02  0.45116586855E+03  0.66215725430E+03  0.80321694847E+02 0.  0.
      -24    2    3    3    0    0  0.47519082893E+03  0.51416825205E+02  0.90271661370E+03  0.10248321815E+04  0.83268852223E+02 0.  0.
      -13    1    4    4    0    0 -0.96954384007E+02 -0.20471397550E+02  0.13932455067E+03  0.17096947422E+03  0.00000000000E+00 0.  1.
       14    1    4    4    0    0 -0.37823644493E+03 -0.30945427654E+02  0.31184131788E+03  0.49118778008E+03  0.00000000000E+00 0. -1.
        3    1    5    5  501    0  0.12940959012E+02 -0.90658470346E+01  0.13343933538E+02  0.20681357907E+02  0.00000000000E+00 0. -1.
       -4    1    5    5    0  501  0.46224986992E+03  0.60482672239E+02  0.88937268016E+03  0.10041508236E+04  0.14200000000E+01 0.  1.
</event>
<event>
 9   1  0.7335000E-04  0.1000670E+04  0.7818608E-02  0.9307811E-01
       21   -1    0    0  503  502  0.00000000000E+00  0.00000000000E+00  0.19149733858E+03  0.19149733858E+03  0.00000000000E+00 0. -1.
       21   -1    0    0  502  503 -0.00000000000E+00 -0.00000000000E+00 -0.13072503895E+04  0.13072503895E+04  0.00000000000E+00 0.  1.
       39    2    1    2    0    0  0.56843418861E-13  0.35527136788E-14 -0.11157530509E+04  0.14987477280E+04  0.10006697166E+04 0.  0.
       24    2    3    3    0    0  0.30928007097E+03  0.18199040305E+02  0.18076528120E+02  0.32060543237E+03  0.80471827570E+02 0.  0.
      -24    2    3    3    0    0 -0.30928007097E+03 -0.18199040305E+02 -0.11338295790E+04  0.11781422957E+04  0.80401413274E+02 0.  0.
      -13    1    4    4    0    0  0.33078740827E+02  0.22973572932E+02 -0.13702029433E+02  0.42540965651E+02  0.00000000000E+00 0.  1.
       14    1    4    4    0    0  0.27620133014E+03 -0.47745326266E+01  0.31778557553E+02  0.27806446672E+03  0.00000000000E+00 0. -1.
        3    1    5    5  501    0 -0.83531976940E+02 -0.27737948437E+02 -0.22392515624E+03  0.24060228708E+03  0.00000000000E+00 0. -1.
       -4    1    5    5    0  501 -0.22574809403E+03  0.95389081320E+01 -0.90990442277E+03  0.93754000859E+03  0.14200000000E+01 0.  1.
</event>
<event>
 9   1  0.7335000E-04  0.9710486E+03  0.7818608E-02  0.9340881E-01
       21   -1    0    0  503  502  0.00000000000E+00  0.00000000000E+00  0.14379759249E+03  0.14379759249E+03  0.00000000000E+00 0. -1.
       21   -1    0    0  502  503 -0.00000000000E+00 -0.00000000000E+00 -0.16393447534E+04  0.16393447534E+04  0.00000000000E+00 0.  1.
       39    2    1    2    0    0  0.28421709430E-13  0.00000000000E+00 -0.14955471609E+04  0.17831423459E+04  0.97104856482E+03 0.  0.
       24    2    3    3    0    0 -0.21831942476E+03  0.34164245765E+03 -0.27927450000E+03  0.49844179148E+03  0.77891161530E+02 0.  0.
      -24    2    3    3    0    0  0.21831942476E+03 -0.34164245765E+03 -0.12162726609E+04  0.12847005544E+04  0.82179004305E+02 0.  0.
      -13    1    4    4    0    0 -0.24806911965E+02  0.81973005542E+01 -0.90863892066E+01  0.27661183749E+02  0.00000000000E+00 0.  1.
       14    1    4    4    0    0 -0.19351251280E+03  0.33344515709E+03 -0.27018811079E+03  0.47078060773E+03  0.00000000000E+00 0. -1.
        3    1    5    5  501    0  0.18778270292E+03 -0.23623780642E+03 -0.83090499204E+03  0.88401003982E+03  0.00000000000E+00 0. -1.
       -4    1    5    5    0  501  0.30536721840E+02 -0.10540465123E+03 -0.38536766889E+03  0.40069051463E+03  0.14200000000E+01 0.  1.
</event>
<event>
 9   1  0.7335000E-04  0.9982586E+03  0.7818608E-02  0.9310457E-01
       21   -1    0    0  503  502  0.00000000000E+00  0.00000000000E+00  0.32183160349E+03  0.32183160349E+03  0.00000000000E+00 0. -1.
       21   -1    0    0  502  503 -0.00000000000E+00 -0.00000000000E+00 -0.77410064114E+03  0.77410064114E+03  0.00000000000E+00 0.  1.
       39    2    1    2    0    0  0.00000000000E+00  0.00000000000E+00 -0.45226903765E+03  0.10959322446E+04  0.99825858493E+03 0.  0.
       24    2    3    3    0    0  0.21032607218E+03 -0.53157954599E+02 -0.71162148929E+03  0.74808731750E+03  0.78528121041E+02 0.  0.
      -24    2    3    3    0    0 -0.21032607218E+03  0.53157954599E+02  0.25935245164E+03  0.34784492713E+03  0.81667462193E+02 0.  0.
      -13    1    4    4    0    0  0.14613925753E+03 -0.54468995407E+02 -0.59346444183E+03  0.61361518704E+03  0.00000000000E+00 0.  1.
       14    1    4    4    0    0  0.64186814650E+02  0.13110408076E+01 -0.11815704747E+03  0.13447213045E+03  0.00000000000E+00 0. -1.
        1    1    5    5  501    0 -0.90787862353E+02  0.37470361311E+02  0.17508440232E+03  0.20075111921E+03  0.00000000000E+00 0. -1.
       -2    1    5    5    0  501 -0.11953820983E+03  0.15687593289E+02  0.84268049319E+02  0.14709380792E+03  0.00000000000E+00 0.  1.
</event>
<event>
 9   1  0.7335000E-04  0.9915496E+03  0.7818608E-02  0.9317862E-01
       21   -1    0    0  503  502  0.00000000000E+00  0.00000000000E+00  0.29849143147E+03  0.29849143147E+03  0.00000000000E+00 0. -1.
       21   -1    0    0  502  503 -0.00000000000E+00 -0.00000000000E+00 -0.82344954374E+03  0.82344954374E+03  0.00000000000E+00 0.  1.
       39    2    1    2    0    0  0.28421709430E-13  0.00000000000E+00 -0.52495811227E+03  0.11219409752E+04  0.99154956114E+03 0.  0.
       24    2    3    3    0    0 -0.16723838038E+03  0.21727171451E+03 -0.72070536632E+03  0.77511146243E+03  0.78777410182E+02 0.  0.
      -24    2    3    3    0    0  0.16723838038E+03 -0.21727171451E+03  0.19574725405E+03  0.34682951277E+03  0.82450286030E+02 0.  0.
      -13    1    4    4    0    0 -0.64595089629E+02  0.64056581431E+02 -0.34195226356E+03  0.35384618379E+03  0.00000000000E+00 0.  1.
       14    1    4    4    0    0 -0.10264329075E+03  0.15321513308E+03 -0.37875310276E+03  0.42126527865E+03  0.00000000000E+00 0. -1.
        1    1    5    5  501    0  0.17457405187E+03 -0.21743303390E+03  0.18898251622E+03  0.33684954394E+03  0.00000000000E+00 0. -1.
       -2    1    5    5    0  501 -0.73356714831E+01  0.16131939301E+00  0.67647378305E+01  0.99799688361E+01  0.00000000000E+00 0.  1.
</event>
<event>
 9   1  0.7335000E-04  0.9986345E+03  0.7818608E-02  0.9310044E-01
        2   -1    0    0  501    0  0.00000000000E+00  0.00000000000E+00  0.11015551803E+04  0.11015551803E+04  0.00000000000E+00 0. -1.
       -2   -1    0    0    0  501 -0.00000000000E+00 -0.00000000000E+00 -0.22633247818E+03  0.22633247818E+03  0.00000000000E+00 0.  1.
       39    2    1    2    0    0  0.00000000000E+00  0.00000000000E+00  0.87522270208E+03  0.13278876584E+04  0.99863449529E+03 0.  0.
       24    2    3    3    0    0  0.29895718834E+03 -0.39161821634E+03  0.42220249219E+03  0.65376041677E+03  0.80046925515E+02 0.  0.
      -24    2    3    3    0    0 -0.29895718834E+03  0.39161821634E+03  0.45302020988E+03  0.67412724166E+03  0.80498444429E+02 0.  0.
      -13    1    4    4    0    0  0.45423545456E+02 -0.10123812811E+03  0.12397705321E+03  0.16638138955E+03  0.00000000000E+00 0.  1.
       14    1    4    4    0    0  0.25353364289E+03 -0.29038008823E+03  0.29822543898E+03  0.48737902722E+03  0.00000000000E+00 0. -1.
        1    1    5    5  502    0 -0.71675463386E+02  0.84127779420E+02  0.14959783122E+03  0.18599560863E+03  0.00000000000E+00 0. -1.
       -2    1    5    5    0  502 -0.22728172496E+03  0.30749043692E+03  0.30342237866E+03  0.48813163303E+03  0.00000000000E+00 0.  1.
</event>
<event>
 9   1  0.7335000E-04  0.9632124E+03  0.7818608E-02  0.9349839E-01
       -1   -1    0    0    0  501 -0.00000000000E+00  0.00000000000E+00  0.39881086176E+03  0.39881086176E+03  0.00000000000E+00 0. -1.
        1   -1    0    0  501    0  0.00000000000E+00 -0.00000000000E+00 -0.58159032541E+03  0.58159032541E+03  0.00000000000E+00 0.  1.
       39    2    1    2    0    0  0.00000000000E+00  0.00000000000E+00 -0.18277946365E+03  0.98040118717E+03  0.96321241452E+03 0.  0.
       24    2    3    3    0    0 -0.33706567697E+03 -0.26923957988E+03 -0.29304187817E+03  0.52777451036E+03  0.81050413061E+02 0.  0.
      -24    2    3    3    0    0  0.33706567697E+03  0.26923957988E+03  0.11026241451E+03  0.45262667681E+03  0.81301208734E+02 0.  0.
      -13    1    4    4    0    0 -0.44809415041E+02 -0.77060024266E+02 -0.61678795507E+02  0.10839928428E+03  0.00000000000E+00 0.  1.
       14    1    4    4    0    0 -0.29225626193E+03 -0.19217955562E+03 -0.23136308266E+03  0.41937522608E+03  0.00000000000E+00 0. -1.
        3    1    5    5  502    0  0.10336680463E+03  0.42891631402E+02  0.10883686645E+02  0.11244039745E+03  0.00000000000E+00 0. -1.
       -4    1    5    5    0  502  0.23369887234E+03  0.22634794848E+03  0.99378727869E+02  0.34018627937E+03  0.14200000000E+01 0.  1.
</event>
<event>
 9   1  0.7335000E-04  0.1009219E+04  0.7818608E-02  0.9298491E-01
       21   -1    0    0  503  502  0.00000000000E+00  0.00000000000E+00  0.36646625643E+03  0.36646625643E+03  0.00000000000E+00 0.  1.
       21   -1    0    0  502  503 -0.00000000000E+00 -0.00000000000E+00 -0.69482786474E+03  0.69482786474E+03  0.00000000000E+00 0. -1.
       39    2    1    2    0    0 -0.28421709430E-13 -0.11368683772E-12 -0.32836160831E+03  0.10612941212E+04  0.10092194339E+04 0.  0.
       24    2    3    3    0    0 -0.23999048441E+03 -0.30595374737E+03 -0.49206115984E+03  0.63171817159E+03  0.75766319485E+02 0.  0.
      -24    2    3    3    0    0  0.23999048441E+03  0.30595374737E+03  0.16369955153E+03  0.42957594958E+03  0.80838265391E+02 0.  0.
      -13    1    4    4    0    0 -0.18483553707E+03 -0.23344881189E+03 -0.32051956387E+03  0.43748750194E+03  0.00000000000E+00 0.  1.
       14    1    4    4    0    0 -0.55154947337E+02 -0.72504935479E+02 -0.17154159597E+03  0.19423066965E+03  0.00000000000E+00 0. -1.
        1    1    5    5  501    0  0.26171254602E+02  0.20857909608E+02  0.40443886832E+02  0.52494713475E+02  0.00000000000E+00 0. -1.
       -2    1    5    5    0  501  0.21381922980E+03  0.28509583776E+03  0.12325566469E+03  0.37708123610E+03  0.00000000000E+00 0.  1.
</event>
<event>
 9   1  0.7335000E-04  0.1074299E+04  0.7818608E-02  0.9230610E-01
       21   -1    0    0  503  502  0.00000000000E+00  0.00000000000E+00  0.10436207836E+04  0.10436207836E+04  0.00000000000E+00 0.  1.
       21   -1    0    0  502  503 -0.00000000000E+00 -0.00000000000E+00 -0.27646980291E+03  0.27646980291E+03  0.00000000000E+00 0. -1.
       39    2    1    2    0    0 -0.56843418861E-13  0.28421709430E-13  0.76715098065E+03  0.13200905865E+04  0.10742990875E+04 0.  0.
       24    2    3    3    0    0  0.43487467419E+03 -0.17811008889E+03  0.79286795252E+02  0.48334724716E+03  0.80616247821E+02 0.  0.
      -24    2    3    3    0    0 -0.43487467419E+03  0.17811008889E+03  0.68786418540E+03  0.83674333932E+03  0.78377881568E+02 0.  0.
      -13    1    4    4    0    0  0.13976293673E+03 -0.81892189366E+02  0.58586352070E+02  0.17225669744E+03  0.00000000000E+00 0.  1.
       14    1    4    4    0    0  0.29511173746E+03 -0.96217899521E+02  0.20700443182E+02  0.31109054972E+03  0.00000000000E+00 0. -1.
        3    1    5    5  501    0  0.11921001499E+01 -0.12760211094E+01 -0.95734703285E+00  0.19914431903E+01  0.00000000000E+00 0. -1.
       -4    1    5    5    0  501 -0.43606677434E+03  0.17938611000E+03  0.68882153243E+03  0.83475189613E+03  0.14200000000E+01 0.  1.
</event>
<event>
 9   1  0.7335000E-04  0.1002031E+04  0.7818608E-02  0.9306320E-01
       21   -1    0    0  503  502  0.00000000000E+00  0.00000000000E+00  0.14152754227E+03  0.14152754227E+03  0.00000000000E+00 0. -1.
       21   -1    0    0  502  503 -0.00000000000E+00 -0.00000000000E+00 -0.17736237662E+04  0.17736237662E+04  0.00000000000E+00 0.  1.
       39    2    1    2    0    0  0.00000000000E+00  0.00000000000E+00 -0.16320962239E+04  0.19151513085E+04  0.10020311623E+04 0.  0.
       24    2    3    3    0    0 -0.34012510036E+03 -0.32852109825E+03 -0.53852357671E+03  0.72109368862E+03  0.79732485281E+02 0.  0.
      -24    2    3    3    0    0  0.34012510036E+03  0.32852109825E+03 -0.10935726472E+04  0.11940576199E+04  0.79128180157E+02 0.  0.
      -13    1    4    4    0    0 -0.11976048254E+03 -0.65816192686E+02 -0.15493251855E+03  0.20658758361E+03  0.00000000000E+00 0.  1.
       14    1    4    4    0    0 -0.22036461782E+03 -0.26270490556E+03 -0.38359105815E+03  0.51450610500E+03  0.00000000000E+00 0. -1.
        1    1    5    5  501    0  0.10415792894E+03  0.13410989900E+03 -0.32010630979E+03  0.36235671477E+03  0.00000000000E+00 0. -1.
       -2    1    5    5    0  501  0.23596717142E+03  0.19441119924E+03 -0.77346633744E+03  0.83170090509E+03  0.00000000000E+00 0.  1.
</event>
<event>
 9   1  0.7335000E-04  0.1003298E+04  0.7818608E-02  0.9304935E-01
       21   -1    0    0  503  502  0.00000000000E+00  0.00000000000E+00  0.30197200395E+03  0.30197200395E+03  0.00000000000E+00 0.  1.
       21   -1    0    0  502  503 -0.00000000000E+00 -0.00000000000E+00 -0.83336117340E+03  0.83336117340E+03  0.00000000000E+00 0. -1.
       39    2    1    2    0    0  0.28421709430E-13  0.00000000000E+00 -0.53138916945E+03  0.11353331774E+04  0.10032980485E+04 0.  0.
       24    2    3    3    0    0 -0.23557964799E+03 -0.24179904126E+03  0.14417916854E+03  0.37549570784E+03  0.79024344769E+02 0.  0.
      -24    2    3    3    0    0  0.23557964799E+03  0.24179904126E+03 -0.67556833799E+03  0.75983746951E+03  0.83641221148E+02 0.  0.
      -13    1    4    4    0    0 -0.84862300583E+02 -0.65499787402E+02  0.83125071563E+02  0.13565253308E+03  0.00000000000E+00 0.  1.
       14    1    4    4    0    0 -0.15071734740E+03 -0.17629925386E+03  0.61054096977E+02  0.23984317476E+03  0.00000000000E+00 0. -1.
        1    1    5    5  501    0  0.12455416253E+03  0.18441354809E+03 -0.44706087043E+03  0.49938513994E+03  0.00000000000E+00 0. -1.
       -2    1    5    5    0  501  0.11102548546E+03  0.57385493171E+02 -0.22850746756E+03  0.26045232957E+03  0.00000000000E+00 0.  1.
</event>
<event>
 9   1  0.7335000E-04  0.1006368E+04  0.7818608E-02  0.9301588E-01
       21   -1    0    0  503  502  0.00000000000E+00  0.00000000000E+00  0.21942352635E+03  0.21942352635E+03  0.00000000000E+00 0.  1.
       21   -1    0    0  502  503 -0.00000000000E+00 -0.00000000000E+00 -0.11539063531E+04  0.11539063531E+04  0.00000000000E+00 0. -1.
       39    2    1    2    0    0  0.00000000000E+00  0.00000000000E+00 -0.93448282674E+03  0.13733298794E+04  0.10063681256E+04 0.  0.
       24    2    3    3    0    0  0.40287137587E+03  0.24098969529E+03 -0.24340390237E+03  0.53400088626E+03  0.74364696587E+02 0.  0.
      -24    2    3    3    0    0 -0.40287137587E+03 -0.24098969529E+03 -0.69107892438E+03  0.83932899319E+03  0.80633121967E+02 0.  0.
      -13    1    4    4    0    0  0.17862104303E+03  0.82395596109E+02 -0.68113676432E+02  0.20816816325E+03  0.00000000000E+00 0.  1.
       14    1    4    4    0    0  0.22425033284E+03  0.15859409918E+03 -0.17529022594E+03  0.32583272301E+03  0.00000000000E+00 0. -1.
        3    1    5    5  501    0 -0.25715365544E+03 -0.19385842151E+03 -0.49473500275E+03  0.59031501170E+03  0.00000000000E+00 0. -1.
       -4    1    5    5    0  501 -0.14571772043E+03 -0.47131273785E+02 -0.19634392162E+03  0.24901398149E+03  0.14200000000E+01 0.  1.
</event>
<event>
 9   1  0.7335000E-04  0.1016299E+04  0.7818608E-02  0.9290847E-01
       21   -1    0    0  503  502  0.00000000000E+00  0.00000000000E+00  0.50982890684E+03  0.50982890684E+03  0.00000000000E+00 0.  1.
       21   -1    0    0  502  503 -0.00000000000E+00 -0.00000000000E+00 -0.50647587827E+03  0.50647587827E+03  0.00000000000E+00 0. -1.
       39    2    1    2    0    0  0.00000000000E+00  0.56843418861E-13  0.33530285763E+01  0.10163047851E+04  0.10162992539E+04 0.  0.
       24    2    3    3    0    0  0.59389603768E+02  0.26658943619E+03  0.42262867990E+03  0.50944199655E+03  0.79492730809E+02 0.  0.
      -24    2    3    3    0    0 -0.59389603768E+02 -0.26658943619E+03 -0.41927565132E+03  0.50686278856E+03  0.80751235979E+02 0.  0.
      -13    1    4    4    0    0  0.44633569799E+02  0.26218818507E+03  0.41317237650E+03  0.49137176623E+03  0.00000000000E+00 0.  1.
       14    1    4    4    0    0  0.14756033968E+02  0.44012511200E+01  0.94563033987E+01  0.18070230321E+02  0.00000000000E+00 0. -1.
        3    1    5    5  501    0 -0.51209518539E+02 -0.20915702176E+03 -0.38006545419E+03  0.43682814013E+03  0.00000000000E+00 0. -1.
       -4    1    5    5    0  501 -0.81800852287E+01 -0.57432414433E+02 -0.39210197132E+02  0.70034648432E+02  0.14200000000E+01 0.  1.
</event>
<event>
 9   1  0.7335000E-04  0.1013990E+04  0.7818608E-02  0.9293332E-01
       21   -1    0    0  503  502  0.00000000000E+00  0.00000000000E+00  0.12614979858E+04  0.12614979858E+04  0.00000000000E+00 0. -1.
       21   -1    0    0  502  503 -0.00000000000E+00 -0.00000000000E+00 -0.20376098299E+03  0.20376098299E+03  0.00000000000E+00 0.  1.
       39    2    1    2    0    0 -0.56843418861E-13  0.00000000000E+00  0.10577370028E+04  0.14652589687E+04  0.10139902753E+04 0.  0.
       24    2    3    3    0    0 -0.30928165545E+03 -0.25189800691E+03  0.91536442980E+02  0.41715767792E+03  0.80832292918E+02 0.  0.
      -24    2    3    3    0    0  0.30928165545E+03  0.25189800691E+03  0.96620055979E+03  0.10481012908E+04  0.76583587002E+02 0.  0.
      -13    1    4    4    0    0 -0.30003565403E+03 -0.22427209755E+03  0.98248462830E+02  0.38726235019E+03  0.00000000000E+00 0.  1.
       14    1    4    4    0    0 -0.92460014232E+01 -0.27625909351E+02 -0.67120198503E+01  0.29895327733E+02  0.00000000000E+00 0. -1.
        1    1    5    5  501    0  0.21840995283E+03  0.13928398787E+03  0.56346195319E+03  0.62015506888E+03  0.00000000000E+00 0. -1.
       -2    1    5    5    0  501  0.90871702614E+02  0.11261401904E+03  0.40273860660E+03  0.42794622193E+03  0.00000000000E+00 0.  1.
</event>
<event>
 9   1  0.7335000E-04  0.9673995E+03  0.7818608E-02  0.9345041E-01
        2   -1    0    0  501    0  0.00000000000E+00  0.00000000000E+00  0.55412530682E+03  0.55412530682E+03  0.00000000000E+00 0. -1.
       -2   -1    0    0    0  501 -0.00000000000E+00 -0.00000000000E+00 -0.42222477856E+03  0.42222477856E+03  0.00000000000E+00 0.  1.
       39    2    1    2    0    0  0.00000000000E+00  0.00000000000E+00  0.13190052826E+03  0.97635008538E+03  0.96739947275E+03 0.  0.
       24    2    3    3    0    0  0.34721000798E+03 -0.23290102536E+03  0.29817513647E+03  0.51945194068E+03  0.78257455976E+02 0.  0.
      -24    2    3    3    0    0 -0.34721000798E+03  0.23290102536E+03 -0.16627460821E+03  0.45689814470E+03  0.79441752494E+02 0.  0.
      -13    1    4    4    0    0  0.11859316461E+02 -0.32235998520E+02  0.19877806554E+02  0.39685390018E+02  0.00000000000E+00 0.  1.
       14    1    4    4    0    0  0.33535069152E+03 -0.20066502684E+03  0.27829732992E+03  0.47976655067E+03  0.00000000000E+00 0. -1.
        1    1    5    5  502    0 -0.20491923410E+03  0.18301395425E+03 -0.11030761107E+03  0.29606379214E+03  0.00000000000E+00 0. -1.
       -2    1    5    5    0  502 -0.14229077388E+03  0.49887071107E+02 -0.55966997144E+02  0.16083435256E+03  0.00000000000E+00 0.  1.
</event>
<event>
 9   1  0.7335000E-04  0.9882912E+03  0.7818608E-02  0.9321481E-01
       21   -1    0    0  503  502  0.00000000000E+00  0.00000000000E+00  0.15061858739E+04  0.15061858739E+04  0.00000000000E+00 0. -1.
       21   -1    0    0  502  503 -0.00000000000E+00 -0.00000000000E+00 -0.16211803480E+03  0.16211803480E+03  0.00000000000E+00 0.  1.
       39    2    1    2    0    0  0.00000000000E+00  0.00000000000E+00  0.13440678391E+04  0.16683039087E+04  0.98829124031E+03 0.  0.
       24    2    3    3    0    0 -0.63934714759E+02 -0.90213381707E+02  0.14729032065E+04  0.14791972167E+04  0.79714793874E+02 0.  0.
      -24    2    3    3    0    0  0.63934714759E+02  0.90213381707E+02 -0.12883536733E+03  0.18910669200E+03  0.83286776220E+02 0.  0.
      -13    1    4    4    0    0  0.10735941314E+02 -0.24269577455E+02  0.13459281072E+03  0.13718417374E+03  0.00000000000E+00 0.  1.
       14    1    4    4    0    0 -0.74670656073E+02 -0.65943804252E+02  0.13383103957E+04  0.13420130430E+04  0.00000000000E+00 0. -1.
        1    1    5    5  501    0  0.71440861484E+02  0.29579072146E+02 -0.73118640051E+02  0.10641923567E+03  0.00000000000E+00 0. -1.
       -2    1    5    5    0  501 -0.75061467255E+01  0.60634309561E+02 -0.55716727282E+02  0.82687456326E+02  0.00000000000E+00 0.  1.
</event>
<event>
 9   1  0.7335000E-04  0.9973402E+03  0.7818608E-02  0.9311467E-01
       21   -1    0    0  503  502  0.00000000000E+00  0.00000000000E+00  0.19707996531E+03  0.19707996531E+03  0.00000000000E+00 0. -1.
       21   -1    0    0  502  503 -0.00000000000E+00 -0.00000000000E+00 -0.12617816476E+04  0.12617816476E+04  0.00000000000E+00 0.  1.
       39    2    1    2    0    0  0.00000000000E+00  0.00000000000E+00 -0.10647016823E+04  0.14588616129E+04  0.99734022948E+03 0.  0.
       24    2    3    3    0    0  0.24359947622E+02  0.22990008790E+03 -0.11671546675E+04  0.11934154322E+04  0.92427909850E+02 0.  0.
      -24    2    3    3    0    0 -0.24359947622E+02 -0.22990008790E+03  0.10245298521E+03  0.26544618069E+03  0.80731674070E+02 0.  0.
      -13    1    4    4    0    0  0.36409431783E+00  0.22416453931E+03 -0.10629573461E+04  0.10863370530E+04  0.00000000000E+00 0.  1.
       14    1    4    4    0    0  0.23995853304E+02  0.57355485960E+01 -0.10419732145E+03  0.10707837919E+03  0.00000000000E+00 0. -1.
        3    1    5    5  501    0 -0.48971136817E+02 -0.89478908618E+02  0.49290020712E+02  0.11328792288E+03  0.00000000000E+00 0. -1.
       -4    1    5    5    0  501  0.24611189195E+02 -0.14042117929E+03  0.53162964495E+02  0.15215825781E+03  0.14200000000E+01 0.  1.
</event>
<event>
 9   1  0.7335000E-04  0.9972775E+03  0.7818608E-02  0.9311536E-01
       21   -1    0    0  503  502  0.00000000000E+00  0.00000000000E+00  0.72534414278E+03  0.72534414278E+03  0.00000000000E+00 0. -1.
       21   -1    0    0  502  503 -0.00000000000E+00 -0.00000000000E+00 -0.34278983392E+03  0.34278983392E+03  0.00000000000E+00 0.  1.
       39    2    1    2    0    0 -0.35527136788E-14  0.00000000000E+00  0.38255430886E+03  0.10681339767E+04  0.99727749045E+03 0.  0.
       24    2    3    3    0    0 -0.30480455146E+01 -0.80465386162E+01 -0.33456976339E+03  0.34400011443E+03  0.79530590277E+02 0.  0.
      -24    2    3    3    0    0  0.30480455146E+01  0.80465386162E+01  0.71712407225E+03  0.72413386227E+03  0.10014428649E+03 0.  0.
      -13    1    4    4    0    0  0.16560986390E+02  0.19840150741E+02 -0.26767360461E+03  0.26891830815E+03  0.00000000000E+00 0.  1.
       14    1    4    4    0    0 -0.19609031904E+02 -0.27886689357E+02 -0.66896158772E+02  0.75081806279E+02  0.00000000000E+00 0. -1.
        1    1    5    5  501    0 -0.46418646968E+02  0.25020799308E+01  0.45144498031E+03  0.45383204100E+03  0.00000000000E+00 0. -1.
       -2    1    5    5    0  501  0.49466692482E+02  0.55444586854E+01  0.26567909194E+03  0.27030182127E+03  0.00000000000E+00 0.  1.
</event>
<event>
 9   1  0.7335000E-04  0.9982811E+03  0.7818608E-02  0.9310432E-01
       21   -1    0    0  503  502  0.00000000000E+00  0.00000000000E+00  0.30018222785E+03  0.30018222785E+03  0.00000000000E+00 0. -1.
       21   -1    0    0  502  503 -0.00000000000E+00 -0.00000000000E+00 -0.82996675663E+03  0.82996675663E+03  0.00000000000E+00 0.  1.
       39    2    1    2    0    0  0.00000000000E+00  0.00000000000E+00 -0.52978452879E+03  0.11301489845E+04  0.99828106271E+03 0.  0.
       24    2    3    3    0    0 -0.14690665839E+03 -0.32046681162E+02  0.26614076401E+03  0.31606601857E+03  0.80363335994E+02 0.  0.
      -24    2    3    3    0    0  0.14690665839E+03  0.32046681162E+02 -0.79592529279E+03  0.81408296591E+03  0.81396852663E+02 0.  0.
      -13    1    4    4    0    0 -0.77217801965E+02  0.23897615405E+02  0.11717662283E+03  0.14235183841E+03  0.00000000000E+00 0.  1.
       14    1    4    4    0    0 -0.69688856427E+02 -0.55944296568E+02  0.14896414118E+03  0.17371418015E+03  0.00000000000E+00 0. -1.
        3    1    5    5  501    0  0.49154681139E+02 -0.54604492596E+01 -0.44857334733E+03  0.45129153229E+03  0.00000000000E+00 0. -1.
       -4    1    5    5    0  501  0.97751977253E+02  0.37507130422E+02 -0.34735194547E+03  0.36279143362E+03  0.14200000000E+01 0.  1.
</event>
<event>
 9   1  0.7335000E-04  0.1002357E+04  0.7818608E-02  0.9305964E-01
       21   -1    0    0  503  502  0.00000000000E+00  0.00000000000E+00  0.17709812383E+03  0.17709812383E+03  0.00000000000E+00 0. -1.
       21   -1    0    0  502  503 -0.00000000000E+00 -0.00000000000E+00 -0.14183082010E+04  0.14183082010E+04  0.00000000000E+00 0.  1.
       39    2    1    2    0    0  0.00000000000E+00 -0.56843418861E-13 -0.12412100771E+04  0.15954063248E+04  0.10023566659E+04 0.  0.
       24    2    3    3    0    0 -0.29853879703E+03 -0.17967488415E+03 -0.11797952646E+04  0.12327169648E+04  0.79156626808E+02 0.  0.
      -24    2    3    3    0    0  0.29853879703E+03  0.17967488415E+03 -0.61414812560E+02  0.36268936004E+03  0.79770391456E+02 0.  0.
      -13    1    4    4    0    0 -0.29330256652E+03 -0.17539700958E+03 -0.10819711781E+04  0.11346594805E+04  0.00000000000E+00 0.  1.
       14    1    4    4    0    0 -0.52362305142E+01 -0.42778745658E+01 -0.97824086470E+02  0.98057484235E+02  0.00000000000E+00 0. -1.
        1    1    5    5  501    0  0.29469562371E+03  0.18626396923E+03 -0.64352612804E+02  0.35451521215E+03  0.00000000000E+00 0. -1.
       -2    1    5    5    0  501  0.38431733204E+01 -0.65890850835E+01  0.29378002442E+01  0.81741478873E+01  0.00000000000E+00 0.  1.
</event>
<event>
 9   1  0.7335000E-04  0.1003712E+04  0.7818608E-02  0.9304483E-01
        1   -1    0    0  501    0  0.00000000000E+00  0.00000000000E+00  0.68109434589E+03  0.68109434589E+03  0.00000000000E+00 0.  1.
       -1   -1    0    0    0  501 -0.00000000000E+00 -0.00000000000E+00 -0.36978650168E+03  0.36978650168E+03  0.00000000000E+00 0. -1.
       39    2    1    2    0    0  0.00000000000E+00 -0.56843418861E-13  0.31130784421E+03  0.10508808476E+04  0.10037121011E+04 0.  0.
       24    2    3    3    0    0  0.22524085545E+03  0.44071715900E+03  0.17579154733E+03  0.53124820074E+03  0.79730329729E+02 0.  0.
      -24    2    3    3    0    0 -0.22524085545E+03 -0.44071715900E+03  0.13551629688E+03  0.51963264683E+03  0.81782416990E+02 0.  0.
      -13    1    4    4    0    0  0.40543120692E+02  0.49684295402E+02 -0.78084257526E+00  0.64131767169E+02  0.00000000000E+00 0.  1.
       14    1    4    4    0    0  0.18469773476E+03  0.39103286359E+03  0.17657238990E+03  0.46711643357E+03  0.00000000000E+00 0. -1.
        3    1    5    5  502    0  0.21426990941E+00 -0.53371576937E+02  0.17559944643E+02  0.56186500089E+02  0.00000000000E+00 0. -1.
       -4    1    5    5    0  502 -0.22545512536E+03 -0.38734558206E+03  0.11795635224E+03  0.46344614674E+03  0.14200000000E+01 0.  1.
</event>
<event>
 9   1  0.7335000E-04  0.1000199E+04  0.7818608E-02  0.9308327E-01
       21   -1    0    0  503  502  0.00000000000E+00  0.00000000000E+00  0.95866043945E+03  0.95866043945E+03  0.00000000000E+00 0.  1.
       21   -1    0    0  502  503 -0.00000000000E+00 -0.00000000000E+00 -0.26088412949E+03  0.26088412949E+03  0.00000000000E+00 0. -1.
       39    2    1    2    0    0  0.00000000000E+00  0.00000000000E+00  0.69777630996E+03  0.12195445689E+04  0.10001985687E+04 0.  0.
       24    2    3    3    0    0 -0.24462892290E+03  0.23972472427E+03 -0.84638490075E+02  0.36183742312E+03  0.80320566608E+02 0.  0.
      -24    2    3    3    0    0  0.24462892290E+03 -0.23972472427E+03  0.78241480004E+03  0.85770714582E+03  0.78596280655E+02 0.  0.
      -13    1    4    4    0    0  0.51564802100E+01 -0.40717414690E+00 -0.24931354016E+01  0.57420208179E+01  0.00000000000E+00 0.  1.
       14    1    4    4    0    0 -0.24978540311E+03  0.24013189842E+03 -0.82145354673E+02  0.35609540230E+03  0.00000000000E+00 0. -1.
        3    1    5    5  501    0  0.52172428142E+02 -0.90923398560E+02  0.29245926170E+03  0.31067900865E+03  0.00000000000E+00 0. -1.
       -4    1    5    5    0  501  0.19245649476E+03 -0.14880132571E+03  0.48995553834E+03  0.54702813717E+03  0.14200000000E+01 0.  1.
</event>
<event>
 9   1  0.7335000E-04  0.1002554E+04  0.7818608E-02  0.9305748E-01
       21   -1    0    0  503  502  0.00000000000E+00  0.00000000000E+00  0.27481651216E+03  0.27481651216E+03  0.00000000000E+00 0.  1.
       21   -1    0    0  502  503 -0.00000000000E+00 -0.00000000000E+00 -0.91434995325E+03  0.91434995325E+03  0.00000000000E+00 0. -1.
       39    2    1    2    0    0 -0.56843418861E-13  0.56843418861E-13 -0.63953344110E+03  0.11891664654E+04  0.10025536695E+04 0.  0.
       24    2    3    3    0    0  0.41257912095E+03 -0.19602503461E+03 -0.94167595376E+02  0.47339373771E+03  0.81158792766E+02 0.  0.
      -24    2    3    3    0    0 -0.41257912095E+03  0.19602503461E+03 -0.54536584572E+03  0.71577272770E+03  0.79116033788E+02 0.  0.
      -13    1    4    4    0    0  0.28158097827E+03 -0.10198348116E+03 -0.87484165857E+02  0.31199672599E+03  0.00000000000E+00 0.  1.
       14    1    4    4    0    0  0.13099814269E+03 -0.94041553450E+02 -0.66834295188E+01  0.16139701172E+03  0.00000000000E+00 0. -1.
        3    1    5    5  501    0 -0.38305053533E+03  0.18789210616E+03 -0.47196238754E+03  0.63622295732E+03  0.00000000000E+00 0. -1.
       -4    1    5    5    0  501 -0.29528585624E+02  0.81329284453E+01 -0.73403458181E+02  0.79549770377E+02  0.14200000000E+01 0.  1.
</event>
<event>
 9   1  0.7335000E-04  0.1006772E+04  0.7818608E-02  0.9301149E-01
       21   -1    0    0  503  502  0.00000000000E+00  0.00000000000E+00  0.54290867447E+03  0.54290867447E+03  0.00000000000E+00 0. -1.
       21   -1    0    0  502  503 -0.00000000000E+00 -0.00000000000E+00 -0.46674030696E+03  0.46674030696E+03  0.00000000000E+00 0.  1.
       39    2    1    2    0    0  0.00000000000E+00 -0.56843418861E-13  0.76168367514E+02  0.10096489814E+04  0.10067717942E+04 0.  0.
       24    2    3    3    0    0  0.13696219830E+03  0.17749631273E+03  0.48290995436E+03  0.53843411638E+03  0.80285047578E+02 0.  0.
      -24    2    3    3    0    0 -0.13696219830E+03 -0.17749631273E+03 -0.40674158685E+03  0.47121486505E+03  0.79631311548E+02 0.  0.
      -13    1    4    4    0    0  0.48736864064E+01  0.46281346155E+02  0.56841819452E+02  0.73462291413E+02  0.00000000000E+00 0.  1.
       14    1    4    4    0    0  0.13208851189E+03  0.13121496658E+03  0.42606813491E+03  0.46497182497E+03  0.00000000000E+00 0. -1.
        1    1    5    5  501    0 -0.67263346814E+01 -0.31805062096E+02 -0.20724371092E+02  0.38552627801E+02  0.00000000000E+00 0. -1.
       -2    1    5    5    0  501 -0.13023586362E+03 -0.14569125063E+03 -0.38601721576E+03  0.43266223725E+03  0.00000000000E+00 0.  1.
</event>
<event>
 9   1  0.7335000E-04  0.1007457E+04  0.7818608E-02  0.9300404E-01
       21   -1    0    0  503  502  0.00000000000E+00  0.00000000000E+00  0.80400775438E+03  0.80400775438E+03  0.00000000000E+00 0. -1.
       21   -1    0    0  502  503 -0.00000000000E+00 -0.00000000000E+00 -0.31559680778E+03  0.31559680778E+03  0.00000000000E+00 0.  1.
       39    2    1    2    0    0 -0.56843418861E-13  0.00000000000E+00  0.48841094660E+03  0.11196045622E+04  0.10074567598E+04 0.  0.
       24    2    3    3    0    0  0.33579709309E+03  0.31348700736E+03  0.45845898499E+03  0.65360667761E+03  0.77351513140E+02 0.  0.
      -24    2    3    3    0    0 -0.33579709309E+03 -0.31348700736E+03  0.29951961604E+02  0.46599788455E+03  0.72271134589E+02 0.  0.
      -13    1    4    4    0    0  0.12350814900E+03  0.92345936151E+02  0.20062742941E+03  0.25304821719E+03  0.00000000000E+00 0.  1.
       14    1    4    4    0    0  0.21228894409E+03  0.22114107121E+03  0.25783155559E+03  0.40055846042E+03  0.00000000000E+00 0. -1.
        3    1    5    5  501    0 -0.19843385695E+03 -0.19505126233E+03 -0.16603043741E+02  0.27874119104E+03  0.00000000000E+00 0. -1.
       -4    1    5    5    0  501 -0.13736323615E+03 -0.11843574502E+03  0.46555005345E+02  0.18725669352E+03  0.14200000000E+01 0.  1.
</event>
<event>
 9   1  0.7335000E-04  0.9932585E+03  0.7818608E-02  0.9315970E-01
       21   -1    0    0  503  502  0.00000000000E+00  0.00000000000E+00  0.84767532237E+03  0.84767532237E+03  0.00000000000E+00 0.  1.
       21   -1    0    0  502  503 -0.00000000000E+00 -0.00000000000E+00 -0.29096116489E+03  0.29096116489E+03  0.00000000000E+00 0. -1.
       39    2    1    2    0    0  0.28421709430E-13  0.00000000000E+00  0.55671415748E+03  0.11386364873E+04  0.99325847441E+03 0.  0.
       24    2    3    3    0    0 -0.12067247474E+03 -0.17900323703E+03 -0.22586375055E+03  0.32268422666E+03  0.80663940459E+02 0.  0.
      -24    2    3    3    0    0  0.12067247474E+03  0.17900323703E+03  0.78257790803E+03  0.81595226060E+03  0.82133454943E+02 0.  0.
      -13    1    4    4    0    0  0.11973757863E+01 -0.50683966475E+02 -0.30865153607E+02  0.59354493289E+02  0.00000000000E+00 0.  1.
       14    1    4    4    0    0 -0.12186985053E+03 -0.12831927056E+03 -0.19499859695E+03  0.26332973337E+03  0.00000000000E+00 0. -1.
        3    1    5    5  501    0  0.61781980251E+02  0.32601659760E+02  0.30807634960E+03  0.31589700613E+03  0.00000000000E+00 0. -1.
       -4    1    5    5    0  501  0.58890494493E+02  0.14640157727E+03  0.47450155843E+03  0.50005525447E+03  0.14200000000E+01 0.  1.
</event>
<event>
 9   1  0.7335000E-04  0.1006414E+04  0.7818608E-02  0.9301538E-01
        2   -1    0    0  501    0  0.00000000000E+00  0.00000000000E+00  0.27116135366E+04  0.27116135366E+04  0.00000000000E+00 0.  1.
       -2   -1    0    0    0  501 -0.00000000000E+00 -0.00000000000E+00 -0.93382540344E+02  0.93382540344E+02  0.00000000000E+00 0. -1.
       39    2    1    2    0    0 -0.71054273576E-14  0.00000000000E+00  0.26182309963E+04  0.28049960770E+04  0.10064141503E+04 0.  0.
       24    2    3    3    0    0  0.58201758320E+02 -0.14366426164E+03  0.26240468148E+04  0.26298577762E+04  0.80643489128E+02 0.  0.
      -24    2    3    3    0    0 -0.58201758320E+02  0.14366426164E+03 -0.58158185016E+01  0.17513830073E+03  0.81318730280E+02 0.  0.
      -13    1    4    4    0    0  0.48695007331E+02 -0.12720483792E+03  0.16458974653E+04  0.16515237633E+04  0.00000000000E+00 0.  1.
       14    1    4    4    0    0  0.95067509889E+01 -0.16459423710E+02  0.97814934948E+03  0.97833401292E+03  0.00000000000E+00 0. -1.
        1    1    5    5  502    0 -0.38772825169E+02  0.14970362511E+03 -0.37613867417E+01  0.15468889867E+03  0.00000000000E+00 0. -1.
       -2    1    5    5    0  502 -0.19428933151E+02 -0.60393634742E+01 -0.20544317598E+01  0.20449402055E+02  0.00000000000E+00 0.  1.
</event>
<event>
 9   1  0.7335000E-04  0.9977419E+03  0.7818608E-02  0.9311025E-01
       21   -1    0    0  503  502  0.00000000000E+00  0.00000000000E+00  0.14232311782E+03  0.14232311782E+03  0.00000000000E+00 0.  1.
       21   -1    0    0  502  503 -0.00000000000E+00 -0.00000000000E+00 -0.17486422523E+04  0.17486422523E+04  0.00000000000E+00 0. -1.
       39    2    1    2    0    0  0.00000000000E+00  0.56843418861E-13 -0.16063191344E+04  0.18909653701E+04  0.99774188505E+03 0.  0.
       24    2    3    3    0    0  0.12838471215E+03 -0.40272641210E+03 -0.32504890538E+03  0.53935449723E+03  0.81088134033E+02 0.  0.
      -24    2    3    3    0    0 -0.12838471215E+03  0.40272641210E+03 -0.12812702291E+04  0.13516108729E+04  0.80792044172E+02 0.  0.
      -13    1    4    4    0    0  0.10757932974E+03 -0.23703319733E+03 -0.16594125622E+03  0.30869815247E+03  0.00000000000E+00 0.  1.
       14    1    4    4    0    0  0.20805382409E+02 -0.16569321477E+03 -0.15910764915E+03  0.23065634476E+03  0.00000000000E+00 0. -1.
        3    1    5    5  501    0 -0.92316408890E+02  0.36549032610E+03 -0.10857406383E+04  0.11493207697E+04  0.00000000000E+00 0. -1.
       -4    1    5    5    0  501 -0.36068303262E+02  0.37236086001E+02 -0.19552959072E+03  0.20229010319E+03  0.14200000000E+01 0.  1.
</event>
<event>
 9   1  0.7335000E-04  0.9824318E+03  0.7818608E-02  0.9328026E-01
       -2   -1    0    0    0  501 -0.00000000000E+00  0.00000000000E+00  0.21066857414E+03  0.21066857414E+03  0.00000000000E+00 0.  1.
        2   -1    0    0  501    0  0.00000000000E+00 -0.00000000000E+00 -0.11453680188E+04  0.11453680188E+04  0.00000000000E+00 0. -1.
       39    2    1    2    0    0  0.00000000000E+00  0.14210854715E-13 -0.93469944462E+03  0.13560365929E+04  0.98243177347E+03 0.  0.
       24    2    3    3    0    0  0.16900873883E+03 -0.72828608535E+02 -0.10860967310E+04  0.11045324378E+04  0.80733122111E+02 0.  0.
      -24    2    3    3    0    0 -0.16900873883E+03  0.72828608535E+02  0.15139728642E+03  0.25150415508E+03  0.80406726492E+02 0.  0.
      -13    1    4    4    0    0  0.61967509990E+02 -0.37731891478E+02 -0.23310066123E+03  0.24413026481E+03  0.00000000000E+00 0.  1.
       14    1    4    4    0    0  0.10704122884E+03 -0.35096717057E+02 -0.85299606981E+03  0.86040217302E+03  0.00000000000E+00 0. -1.
        3    1    5    5  502    0 -0.67449625916E+02  0.61122531845E+02  0.10576719461E+03  0.13954252180E+03  0.00000000000E+00 0. -1.
       -4    1    5    5    0  502 -0.10155911291E+03  0.11706076690E+02  0.45630091807E+02  0.11196163328E+03  0.14200000000E+01 0.  1.
</event>
<event>
 9   1  0.7335000E-04  0.9789140E+03  0.7818608E-02  0.9331979E-01
       21   -1    0    0  503  502  0.00000000000E+00  0.00000000000E+00  0.33751871531E+03  0.33751871531E+03  0.00000000000E+00 0.  1.
       21   -1    0    0  502  503 -0.00000000000E+00 -0.00000000000E+00 -0.70979222663E+03  0.70979222663E+03  0.00000000000E+00 0. -1.
       39    2    1    2    0    0 -0.56843418861E-13  0.00000000000E+00 -0.37227351132E+03  0.10473109419E+04  0.97891401148E+03 0.  0.
       24    2    3    3    0    0  0.33411937909E+03  0.67463525838E+02 -0.55163001906E+03  0.65360111293E+03  0.81924661143E+02 0.  0.
      -24    2    3    3    0    0 -0.33411937909E+03 -0.67463525838E+02  0.17935650774E+03  0.39370982901E+03  0.81557254643E+02 0.  0.
      -13    1    4    4    0    0  0.12394567840E+03 -0.10565539058E+02 -0.16446809746E+03  0.20621328010E+03  0.00000000000E+00 0.  1.
       14    1    4    4    0    0  0.21017370070E+03  0.78029064896E+02 -0.38716192160E+03  0.44738783283E+03  0.00000000000E+00 0. -1.
        1    1    5    5  501    0 -0.21501823857E+02 -0.19864221022E+02 -0.17031599323E+01  0.29322627095E+02  0.00000000000E+00 0. -1.
       -2    1    5    5    0  501 -0.31261755523E+03 -0.47599304816E+02  0.18105966767E+03  0.36438720191E+03  0.00000000000E+00 0.  1.
</event>
<event>
 9   1  0.7335000E-04  0.1010712E+04  0.7818608E-02  0.9296874E-01
       21   -1    0    0  503  502  0.00000000000E+00  0.00000000000E+00  0.16554004146E+04  0.16554004146E+04  0.00000000000E+00 0. -1.
       21   -1    0    0  502  503 -0.00000000000E+00 -0.00000000000E+00 -0.15427360959E+03  0.15427360959E+03  0.00000000000E+00 0.  1.
       39    2    1    2    0    0  0.00000000000E+00 -0.28421709430E-13  0.15011268050E+04  0.18096740242E+04  0.10107118230E+04 0.  0.
       24    2    3    3    0    0 -0.17104100550E+03  0.20539582819E+03  0.15043132410E+04  0.15299559102E+04  0.79776490798E+02 0.  0.
      -24    2    3    3    0    0  0.17104100550E+03 -0.20539582819E+03 -0.31864359974E+01  0.27971811392E+03  0.82399017504E+02 0.  0.
      -13    1    4    4    0    0 -0.20932430753E+02  0.78781701592E+02  0.50393890951E+03  0.51048912592E+03  0.00000000000E+00 0.  1.
       14    1    4    4    0    0 -0.15010857474E+03  0.12661412659E+03  0.10003743315E+04  0.10194667843E+04  0.00000000000E+00 0. -1.
        1    1    5    5  501    0  0.15247373968E+02 -0.90944475187E+01  0.21513248359E+02  0.27892852912E+02  0.00000000000E+00 0. -1.
       -2    1    5    5    0  501  0.15579363153E+03 -0.19630138067E+03 -0.24699684357E+02  0.25182526101E+03  0.00000000000E+00 0.  1.
</event>
<event>
 9   1  0.7335000E-04  0.1008451E+04  0.7818608E-02  0.9299324E-01
       21   -1    0    0  503  502  0.00000000000E+00  0.00000000000E+00  0.45531448560E+03  0.45531448560E+03  0.00000000000E+00 0. -1.
       21   -1    0    0  502  503 -0.00000000000E+00 -0.00000000000E+00 -0.55839095708E+03  0.55839095708E+03  0.00000000000E+00 0.  1.
       39    2    1    2    0    0  0.00000000000E+00  0.00000000000E+00 -0.10307647147E+03  0.10137054427E+04  0.10084512708E+04 0.  0.
       24    2    3    3    0    0 -0.48191519271E+02 -0.40852692792E+03  0.23046852329E+03  0.47829351935E+03  0.80201477869E+02 0.  0.
      -24    2    3    3    0    0  0.48191519271E+02  0.40852692792E+03 -0.33354499477E+03  0.53541192333E+03  0.78720967643E+02 0.  0.
      -13    1    4    4    0    0 -0.44196696175E+02 -0.10492032504E+03  0.44508350299E+02  0.12223999266E+03  0.00000000000E+00 0.  1.
       14    1    4    4    0    0 -0.39948230956E+01 -0.30360660288E+03  0.18596017299E+03  0.35605352668E+03  0.00000000000E+00 0. -1.
        3    1    5    5  501    0 -0.15767738951E+02  0.19850796948E+03 -0.15163071691E+03  0.25029164957E+03  0.00000000000E+00 0. -1.
       -4    1    5    5    0  501  0.63959258221E+02  0.21001895845E+03 -0.18191427786E+03  0.28512027376E+03  0.14200000000E+01 0.  1.
</event>
<event>
 9   1  0.7335000E-04  0.1032676E+04  0.7818608E-02  0.9273415E-01
       -1   -1    0    0    0  501 -0.00000000000E+00  0.00000000000E+00  0.49447627579E+03  0.49447627579E+03  0.00000000000E+00 0.  1.
        1   -1    0    0  501    0  0.00000000000E+00 -0.00000000000E+00 -0.53916637058E+03  0.53916637058E+03  0.00000000000E+00 0. -1.
       39    2    1    2    0    0  0.00000000000E+00 -0.56843418861E-13 -0.44690094793E+02  0.10336426464E+04  0.10326760943E+04 0.  0.
       24    2    3    3    0    0  0.15883728031E+03 -0.46407111311E+03  0.11686904430E+03  0.51056511017E+03  0.80169062460E+02 0.  0.
      -24    2    3    3    0    0 -0.15883728031E+03  0.46407111311E+03 -0.16155913909E+03  0.52307753619E+03  0.83171352113E+02 0.  0.
      -13    1    4    4    0    0  0.86530743070E+02 -0.22597223651E+03  0.97831681520E+02  0.26100202888E+03  0.00000000000E+00 0.  1.
       14    1    4    4    0    0  0.72306537238E+02 -0.23809887660E+03  0.19037362777E+02  0.24956308129E+03  0.00000000000E+00 0. -1.
        3    1    5    5  502    0 -0.77114686698E+02  0.29111551276E+03 -0.13469022169E+03  0.32990358060E+03  0.00000000000E+00 0. -1.
       -4    1    5    5    0  502 -0.81722593610E+02  0.17295560035E+03 -0.26868917400E+02  0.19317395560E+03  0.14200000000E+01 0.  1.
</event>
<event>
 9   1  0.7335000E-04  0.1006556E+04  0.7818608E-02  0.9301383E-01
       21   -1    0    0  503  502  0.00000000000E+00  0.00000000000E+00  0.38894831215E+03  0.38894831215E+03  0.00000000000E+00 0. -1.
       21   -1    0    0  502  503 -0.00000000000E+00 -0.00000000000E+00 -0.65121502164E+03  0.65121502164E+03  0.00000000000E+00 0.  1.
       39    2    1    2    0    0  0.00000000000E+00  0.11368683772E-12 -0.26226670949E+03  0.10401633338E+04  0.10065564733E+04 0.  0.
       24    2    3    3    0    0 -0.35548365089E+03  0.33648298905E+03 -0.43065437054E+02  0.49784641504E+03  0.80043695118E+02 0.  0.
      -24    2    3    3    0    0  0.35548365089E+03 -0.33648298905E+03 -0.21920127244E+03  0.54231691875E+03  0.80430184338E+02 0.  0.
      -13    1    4    4    0    0 -0.70797364347E+02  0.65038349801E+02  0.23329709405E+02  0.98926887570E+02  0.00000000000E+00 0.  1.
       14    1    4    4    0    0 -0.28468628654E+03  0.27144463925E+03 -0.66395146459E+02  0.39891952747E+03  0.00000000000E+00 0. -1.
        1    1    5    5  501    0  0.40428749790E+02 -0.52897353163E+02 -0.34143597361E+01  0.66665370573E+02  0.00000000000E+00 0. -1.
       -2    1    5    5    0  501  0.31505490110E+03 -0.28358563589E+03 -0.21578691270E+03  0.47565154818E+03  0.00000000000E+00 0.  1.
</event>
<event>
 9   1  0.7335000E-04  0.1007157E+04  0.7818608E-02  0.9300730E-01
       -4   -1    0    0    0  501 -0.00000000000E+00  0.00000000000E+00  0.15748688884E+03  0.15749329051E+03  0.14200000000E+01 0. -1.
        4   -1    0    0  501    0  0.00000000000E+00 -0.00000000000E+00 -0.16101974359E+04  0.16101980621E+04  0.14200000000E+01 0.  1.
       39    2    1    2    0    0  0.00000000000E+00  0.00000000000E+00 -0.14527105471E+04  0.17676913526E+04  0.10071567824E+04 0.  0.
       24    2    3    3    0    0  0.27835454259E+03 -0.38232396887E+03 -0.99439864609E+03  0.11041484306E+04  0.81622429294E+02 0.  0.
      -24    2    3    3    0    0 -0.27835454259E+03  0.38232396887E+03 -0.45831190100E+03  0.66354292195E+03  0.81157514229E+02 0.  0.
      -13    1    4    4    0    0  0.18559248711E+03 -0.22883000618E+03 -0.53115043828E+03  0.60739487245E+03  0.00000000000E+00 0.  1.
       14    1    4    4    0    0  0.92762055475E+02 -0.15349396269E+03 -0.46324820781E+03  0.49675355817E+03  0.00000000000E+00 0. -1.
        3    1    5    5  502    0 -0.12114868509E+03  0.11422153602E+03 -0.12814617672E+03  0.21010712933E+03  0.00000000000E+00 0. -1.
       -4    1    5    5    0  502 -0.15720585750E+03  0.26810243286E+03 -0.33016572428E+03  0.45343579261E+03  0.14200000000E+01 0.  1.
</event>
<event>
 9   1  0.7335000E-04  0.1011208E+04  0.7818608E-02  0.9296337E-01
       21   -1    0    0  503  502  0.00000000000E+00  0.00000000000E+00  0.95928161833E+03  0.95928161833E+03  0.00000000000E+00 0. -1.
       21   -1    0    0  502  503 -0.00000000000E+00 -0.00000000000E+00 -0.26648628515E+03  0.26648628515E+03  0.00000000000E+00 0.  1.
       39    2    1    2    0    0  0.00000000000E+00  0.00000000000E+00  0.69279533318E+03  0.12257679035E+04  0.10112079803E+04 0.  0.
       24    2    3    3    0    0 -0.16535480164E+03 -0.64853762516E+02 -0.21905571990E+03  0.29333183568E+03  0.80684177295E+02 0.  0.
      -24    2    3    3    0    0  0.16535480164E+03  0.64853762516E+02  0.91185105308E+03  0.93243606780E+03  0.80102787656E+02 0.  0.
      -13    1    4    4    0    0 -0.10793581286E+03 -0.96111341746E+01 -0.16368069187E+03  0.19630049029E+03  0.00000000000E+00 0.  1.
       14    1    4    4    0    0 -0.57418988785E+02 -0.55242628342E+02 -0.55375028025E+02  0.97031345389E+02  0.00000000000E+00 0. -1.
        3    1    5    5  501    0  0.84524069492E+02  0.57527144240E+02  0.65872662894E+03  0.66661417801E+03  0.00000000000E+00 0. -1.
       -4    1    5    5    0  501  0.80830732149E+02  0.73266182769E+01  0.25312442414E+03  0.26582188979E+03  0.14200000000E+01 0.  1.
</event>
<event>
 8   1  0.7335000E-04  0.8205739E+03  0.7818608E-02  0.9530706E-01
       21   -1    0    0  503  502  0.00000000000E+00  0.00000000000E+00  0.10853445556E+03  0.10853445556E+03  0.00000000000E+00 0. -1.
       21   -1    0    0  502  503 -0.00000000000E+00 -0.00000000000E+00 -0.15509854970E+04  0.15509854970E+04  0.00000000000E+00 0.  1.
       24    2    1    2    0    0 -0.35224897191E+03  0.17603666345E+03 -0.88994753470E+03  0.97639451131E+03  0.79192058411E+02 0.  0.
      -24    2    1    2    0    0  0.35224897191E+03 -0.17603666345E+03 -0.55250350670E+03  0.68312544121E+03  0.79573855172E+02 0.  0.
      -13    1    3    3    0    0 -0.27634976903E+03  0.15243646513E+03 -0.63105349824E+03  0.70557394254E+03  0.00000000000E+00 0.  1.
       14    1    3    3    0    0 -0.75899202871E+02  0.23600198321E+02 -0.25889403646E+03  0.27082056878E+03  0.00000000000E+00 0. -1.
        3    1    4    4  501    0  0.16995648795E+03 -0.50905307910E+02 -0.20355476743E+03  0.27002055758E+03  0.00000000000E+00 0. -1.
       -4    1    4    4    0  501  0.18229248395E+03 -0.12513135554E+03 -0.34894873927E+03  0.41310488363E+03  0.14200000000E+01 0.  1.
</event>
<event>
 9   1  0.7335000E-04  0.9906848E+03  0.7818608E-02  0.9318821E-01
       21   -1    0    0  503  502  0.00000000000E+00  0.00000000000E+00  0.44526954984E+03  0.44526954984E+03  0.00000000000E+00 0.  1.
       21   -1    0    0  502  503 -0.00000000000E+00 -0.00000000000E+00 -0.55104618055E+03  0.55104618055E+03  0.00000000000E+00 0. -1.
       39    2    1    2    0    0 -0.14210854715E-13 -0.56843418861E-13 -0.10577663070E+03  0.99631573039E+03  0.99068478287E+03 0.  0.
       24    2    3    3    0    0  0.41736770500E+02  0.48624582732E+03 -0.24156065281E+02  0.49522332433E+03  0.80533613286E+02 0.  0.
      -24    2    3    3    0    0 -0.41736770500E+02 -0.48624582732E+03 -0.81620565422E+02  0.50109240606E+03  0.79086788507E+02 0.  0.
      -13    1    4    4    0    0  0.37110448907E+02  0.47573443593E+03 -0.36238429126E+02  0.47855371975E+03  0.00000000000E+00 0.  1.
       14    1    4    4    0    0  0.46263215933E+01  0.10511391393E+02  0.12082363845E+02  0.16669604572E+02  0.00000000000E+00 0. -1.
        1    1    5    5  501    0 -0.60820607585E+02 -0.36387426877E+03 -0.43332261615E+02  0.37145836197E+03  0.00000000000E+00 0. -1.
       -2    1    5    5    0  501  0.19083837085E+02 -0.12237155855E+03 -0.38288303806E+02  0.12963404410E+03  0.00000000000E+00 0.  1.
</event>
<event>
 9   1  0.7335000E-04  0.1003801E+04  0.7818608E-02  0.9304386E-01
       21   -1    0    0  503  502  0.00000000000E+00  0.00000000000E+00  0.25702469227E+03  0.25702469227E+03  0.00000000000E+00 0. -1.
       21   -1    0    0  502  503 -0.00000000000E+00 -0.00000000000E+00 -0.98007750082E+03  0.98007750082E+03  0.00000000000E+00 0.  1.
       39    2    1    2    0    0  0.00000000000E+00  0.00000000000E+00 -0.72305280855E+03  0.12371021931E+04  0.10038010122E+04 0.  0.
       24    2    3    3    0    0  0.13253667707E+03 -0.97091615029E+02  0.21548306641E+03  0.28087247800E+03  0.73916469806E+02 0.  0.
      -24    2    3    3    0    0 -0.13253667707E+03  0.97091615029E+02 -0.93853587496E+03  0.95622971509E+03  0.80826523892E+02 0.  0.
      -13    1    4    4    0    0  0.28658499785E+02 -0.65190129803E+02  0.77736871650E+02  0.10542335532E+03  0.00000000000E+00 0.  1.
       14    1    4    4    0    0  0.10387817729E+03 -0.31901485226E+02  0.13774619476E+03  0.17544912267E+03  0.00000000000E+00 0. -1.
        3    1    5    5  501    0 -0.96589762193E+02  0.91445541903E+02 -0.54432959022E+03  0.56034504734E+03  0.00000000000E+00 0. -1.
       -4    1    5    5    0  501 -0.35946914882E+02  0.56460731263E+01 -0.39420628474E+03  0.39588466775E+03  0.14200000000E+01 0.  1.
</event>
<event>
 9   1  0.7335000E-04  0.9971553E+03  0.7818608E-02  0.9311670E-01
       -2   -1    0    0    0  501 -0.00000000000E+00  0.00000000000E+00  0.55861947729E+03  0.55861947729E+03  0.00000000000E+00 0. -1.
        2   -1    0    0  501    0  0.00000000000E+00 -0.00000000000E+00 -0.44498927377E+03  0.44498927377E+03  0.00000000000E+00 0.  1.
       39    2    1    2    0    0  0.00000000000E+00  0.00000000000E+00  0.11363020352E+03  0.10036087511E+04  0.99715530489E+03 0.  0.
       24    2    3    3    0    0  0.28432039794E+02  0.45499780165E+03  0.24302809840E+03  0.52278163746E+03  0.80041260962E+02 0.  0.
      -24    2    3    3    0    0 -0.28432039794E+02 -0.45499780165E+03 -0.12939789488E+03  0.48082711361E+03  0.81360417835E+02 0.  0.
      -13    1    4    4    0    0  0.32079584998E+02  0.76091223200E+02  0.59307954101E+02  0.10166812402E+03  0.00000000000E+00 0.  1.
       14    1    4    4    0    0 -0.36475452045E+01  0.37890657845E+03  0.18372014430E+03  0.42111351344E+03  0.00000000000E+00 0. -1.
        3    1    5    5  502    0 -0.43477849320E+02 -0.12558045021E+03 -0.46603145820E+02  0.14082835672E+03  0.00000000000E+00 0. -1.
       -4    1    5    5    0  502  0.15045809526E+02 -0.32941735145E+03 -0.82794749056E+02  0.33999875689E+03  0.14200000000E+01 0.  1.
</event>
<event>
 9   1  0.7335000E-04  0.1009662E+04  0.7818608E-02  0.9298010E-01
       21   -1    0    0  503  502  0.00000000000E+00  0.00000000000E+00  0.46628265167E+03  0.46628265167E+03  0.00000000000E+00 0. -1.
       21   -1    0    0  502  503 -0.00000000000E+00 -0.00000000000E+00 -0.54656655773E+03  0.54656655773E+03  0.00000000000E+00 0.  1.
       39    2    1    2    0    0  0.28421709430E-13 -0.14210854715E-13 -0.80283906066E+02  0.10128492094E+04  0.10096623274E+04 0.  0.
       24    2    3    3    0    0 -0.15012236551E+03  0.88611534556E+02  0.42822437166E+03  0.46933696554E+03  0.80699108159E+02 0.  0.
      -24    2    3    3    0    0  0.15012236551E+03 -0.88611534556E+02 -0.50850827772E+03  0.54351224386E+03  0.80225694332E+02 0.  0.
      -13    1    4    4    0    0 -0.26995387386E+02  0.38081784484E+02  0.50112710535E+02  0.68485451059E+02  0.00000000000E+00 0.  1.
       14    1    4    4    0    0 -0.12312697813E+03  0.50529750072E+02  0.37811166112E+03  0.40085151448E+03  0.00000000000E+00 0. -1.
        1    1    5    5  501    0  0.10596944395E+03 -0.63807446443E+02 -0.44720034650E+03  0.46399252492E+03  0.00000000000E+00 0. -1.
       -2    1    5    5    0  501  0.44152921562E+02 -0.24804088113E+02 -0.61307931225E+02  0.79519718942E+02  0.00000000000E+00 0.  1.
</event>
<event>
 9   1  0.7335000E-04  0.1011528E+04  0.7818608E-02  0.9295991E-01
       -2   -1    0    0    0  501 -0.00000000000E+00  0.00000000000E+00  0.17075097138E+03  0.17075097138E+03  0.00000000000E+00 0. -1.
        2   -1    0    0  501    0  0.00000000000E+00 -0.00000000000E+00 -0.14980717034E+04  0.14980717034E+04  0.00000000000E+00 0.  1.
       39    2    1    2    0    0  0.00000000000E+00  0.00000000000E+00 -0.13273207320E+04  0.16688226747E+04  0.10115279503E+04 0.  0.
       24    2    3    3    0    0  0.28583459647E+03  0.28627820397E+03 -0.18054180066E+03  0.45009661492E+03  0.79592677873E+02 0.  0.
      -24    2    3    3    0    0 -0.28583459647E+03 -0.28627820397E+03 -0.11467789313E+04  0.12187260598E+04  0.80837274506E+02 0.  0.
      -13    1    4    4    0    0  0.78575021664E+02  0.39502275544E+02 -0.57846072951E+02  0.10526458074E+03  0.00000000000E+00 0.  1.
       14    1    4    4    0    0  0.20725957481E+03  0.24677592843E+03 -0.12269572771E+03  0.34483203418E+03  0.00000000000E+00 0. -1.
        3    1    5    5  502    0 -0.11500605704E+03 -0.67360150101E+02 -0.42328918048E+03  0.44377642264E+03  0.00000000000E+00 0. -1.
       -4    1    5    5    0  502 -0.17082853944E+03 -0.21891805387E+03 -0.72348975083E+03  0.77494963717E+03  0.14200000000E+01 0.  1.
</event>
<event>
 9   1  0.7335000E-04  0.9994092E+03  0.7818608E-02  0.9309193E-01
       21   -1    0    0  503  502  0.00000000000E+00  0.00000000000E+00  0.20348930455E+03  0.20348930455E+03  0.00000000000E+00 0. -1.
       21   -1    0    0  502  503 -0.00000000000E+00 -0.00000000000E+00 -0.12271144413E+04  0.12271144413E+04  0.00000000000E+00 0.  1.
       39    2    1    2    0    0 -0.35527136788E-14  0.00000000000E+00 -0.10236251368E+04  0.14306037459E+04  0.99940915398E+03 0.  0.
       24    2    3    3    0    0  0.63665928551E+01  0.31456537261E+03 -0.10556360282E+04  0.11045140921E+04  0.81191430836E+02 0.  0.
      -24    2    3    3    0    0 -0.63665928551E+01 -0.31456537261E+03  0.32010891490E+02  0.32608965372E+03  0.79484954178E+02 0.  0.
      -13    1    4    4    0    0 -0.15466429253E+02  0.29500032154E+03 -0.97127747002E+03  0.10152065425E+04  0.00000000000E+00 0.  1.
       14    1    4    4    0    0  0.21833022108E+02  0.19565051073E+02 -0.84358558224E+02  0.89307549644E+02  0.00000000000E+00 0. -1.
        1    1    5    5  501    0  0.23568437140E+02 -0.26141625725E+03  0.15692661881E+02  0.26294522323E+03  0.00000000000E+00 0. -1.
       -2    1    5    5    0  501 -0.29935029995E+02 -0.53149115364E+02  0.16318229610E+02  0.63144430493E+02  0.00000000000E+00 0.  1.
</event>
<event>
 9   1  0.7335000E-04  0.1027122E+04  0.7818608E-02  0.9279288E-01
       21   -1    0    0  503  502  0.00000000000E+00  0.00000000000E+00  0.60412023093E+03  0.60412023093E+03  0.00000000000E+00 0. -1.
       21   -1    0    0  502  503 -0.00000000000E+00 -0.00000000000E+00 -0.43657710781E+03  0.43657710781E+03  0.00000000000E+00 0.  1.
       39    2    1    2    0    0  0.00000000000E+00 -0.35527136788E-14  0.16754312312E+03  0.10406973387E+04  0.10271223164E+04 0.  0.
       24    2    3    3    0    0 -0.34042553520E+03 -0.10391012236E+02 -0.29708200775E+03  0.45893356195E+03  0.79779551268E+02 0.  0.
      -24    2    3    3    0    0  0.34042553520E+03  0.10391012236E+02  0.46462513087E+03  0.58176377678E+03  0.81086753446E+02 0.  0.
      -13    1    4    4    0    0 -0.26473014255E+03 -0.41469874496E+02 -0.22951743864E+03  0.35281730897E+03  0.00000000000E+00 0.  1.
       14    1    4    4    0    0 -0.75695392649E+02  0.31078862260E+02 -0.67564569114E+02  0.10611625298E+03  0.00000000000E+00 0. -1.
        1    1    5    5  501    0  0.34335238403E+03  0.44074848962E+01  0.45420559802E+03  0.56939705902E+03  0.00000000000E+00 0. -1.
       -2    1    5    5    0  501 -0.29268488270E+01  0.59835273396E+01  0.10419532849E+02  0.12366717765E+02  0.00000000000E+00 0.  1.
</event>
<event>
 9   1  0.7335000E-04  0.1006934E+04  0.7818608E-02  0.9300972E-01
        2   -1    0    0  501    0  0.00000000000E+00  0.00000000000E+00  0.73295051625E+03  0.73295051625E+03  0.00000000000E+00 0. -1.
       -2   -1    0    0    0  501 -0.00000000000E+00 -0.00000000000E+00 -0.34583388562E+03  0.34583388562E+03  0.00000000000E+00 0.  1.
       39    2    1    2    0    0  0.56843418861E-13  0.00000000000E+00  0.38711663063E+03  0.10787844019E+04  0.10069342084E+04 0.  0.
       24    2    3    3    0    0  0.28213609302E+03  0.40869625556E+03  0.18411480084E+03  0.53584197909E+03  0.81209373670E+02 0.  0.
      -24    2    3    3    0    0 -0.28213609302E+03 -0.40869625556E+03  0.20300182979E+03  0.54294242278E+03  0.83326629985E+02 0.  0.
      -13    1    4    4    0    0  0.11466015590E+03  0.15024935768E+03  0.29663106690E+02  0.19131576185E+03  0.00000000000E+00 0.  1.
       14    1    4    4    0    0  0.16747593712E+03  0.25844689787E+03  0.15445169415E+03  0.34452621723E+03  0.00000000000E+00 0. -1.
        1    1    5    5  502    0  0.46595554628E+01 -0.99864100994E+00  0.11264952894E+00  0.47667002102E+01  0.00000000000E+00 0. -1.
       -2    1    5    5    0  502 -0.28679564848E+03 -0.40769761455E+03  0.20288918026E+03  0.53817572257E+03  0.00000000000E+00 0.  1.
</event>
<event>
 9   1  0.7335000E-04  0.9965060E+03  0.7818608E-02  0.9312385E-01
       21   -1    0    0  503  502  0.00000000000E+00  0.00000000000E+00  0.11037002909E+04  0.11037002909E+04  0.00000000000E+00 0. -1.
       21   -1    0    0  502  503 -0.00000000000E+00 -0.00000000000E+00 -0.22493069487E+03  0.22493069487E+03  0.00000000000E+00 0.  1.
       39    2    1    2    0    0  0.00000000000E+00 -0.56843418861E-13  0.87876959600E+03  0.13286309857E+04  0.99650604284E+03 0.  0.
       24    2    3    3    0    0  0.13828278390E+01  0.39146543484E+03  0.83585231999E+03  0.92645028189E+03  0.80086984483E+02 0.  0.
      -24    2    3    3    0    0 -0.13828278390E+01 -0.39146543484E+03  0.42917276010E+02  0.40218070386E+03  0.81610827041E+02 0.  0.
      -13    1    4    4    0    0  0.16156030157E+02  0.70526831943E+02  0.22371097958E+03  0.23512050892E+03  0.00000000000E+00 0.  1.
       14    1    4    4    0    0 -0.14773202318E+02  0.32093860289E+03  0.61214134042E+03  0.69132977296E+03  0.00000000000E+00 0. -1.
        1    1    5    5  501    0 -0.22642533672E+02 -0.11688550889E+03  0.43563863297E+02  0.12677821858E+03  0.00000000000E+00 0. -1.
       -2    1    5    5    0  501  0.21259705833E+02 -0.27457992594E+03 -0.64658728711E+00  0.27540248528E+03  0.00000000000E+00 0.  1.
</event>
<event>
 9   1  0.7335000E-04  0.1000322E+04  0.7818608E-02  0.9308192E-01
       21   -1    0    0  503  502  0.00000000000E+00  0.00000000000E+00  0.42979513077E+03  0.42979513077E+03  0.00000000000E+00 0. -1.
       21   -1    0    0  502  503 -0.00000000000E+00 -0.00000000000E+00 -0.58204702245E+03  0.58204702245E+03  0.00000000000E+00 0.  1.
       39    2    1    2    0    0  0.00000000000E+00  0.56843418861E-13 -0.15225189168E+03  0.10118421532E+04  0.10003219004E+04 0.  0.
       24    2    3    3    0    0  0.58894935150E+01  0.31716878767E+03  0.30648231625E+03  0.44837492535E+03  0.80485635353E+02 0.  0.
      -24    2    3    3    0    0 -0.58894935150E+01 -0.31716878767E+03 -0.45873420793E+03  0.56346722787E+03  0.80171798964E+02 0.  0.
      -13    1    4    4    0    0 -0.34477400691E+02  0.10924666094E+03  0.91862111379E+02  0.14684063332E+03  0.00000000000E+00 0.  1.
       14    1    4    4    0    0  0.40366894206E+02  0.20792212673E+03  0.21462020487E+03  0.30153429203E+03  0.00000000000E+00 0. -1.
        1    1    5    5  501    0  0.26654437678E+02 -0.77120071482E+02 -0.15297245439E+03  0.17337397808E+03  0.00000000000E+00 0. -1.
       -2    1    5    5    0  501 -0.32543931193E+02 -0.24004871619E+03 -0.30576175354E+03  0.39009324979E+03  0.00000000000E+00 0.  1.
</event>
<event>
 9   1  0.7335000E-04  0.1001877E+04  0.7818608E-02  0.9306489E-01
       21   -1    0    0  503  502  0.00000000000E+00  0.00000000000E+00  0.21872462697E+04  0.21872462697E+04  0.00000000000E+00 0.  1.
       21   -1    0    0  502  503 -0.00000000000E+00 -0.00000000000E+00 -0.11472844339E+03  0.11472844339E+03  0.00000000000E+00 0. -1.
       39    2    1    2    0    0  0.56843418861E-13  0.00000000000E+00  0.20725178264E+04  0.23019747131E+04  0.10018769582E+04 0.  0.
       24    2    3    3    0    0 -0.41510562105E+03 -0.26463816097E+03  0.93615663759E+03  0.10606989431E+04  0.79667840489E+02 0.  0.
      -24    2    3    3    0    0  0.41510562105E+03  0.26463816097E+03  0.11363611888E+04  0.12412757701E+04  0.84277833310E+02 0.  0.
      -13    1    4    4    0    0 -0.35384337712E+03 -0.25241895660E+03  0.78830009091E+03  0.90018747965E+03  0.00000000000E+00 0.  1.
       14    1    4    4    0    0 -0.61262243934E+02 -0.12219204368E+02  0.14785654668E+03  0.16051146341E+03  0.00000000000E+00 0. -1.
        1    1    5    5  501    0  0.30212501490E+03  0.16773348002E+03  0.87054298923E+03  0.93662112993E+03  0.00000000000E+00 0. -1.
       -2    1    5    5    0  501  0.11298060615E+03  0.96904680954E+02  0.26581819954E+03  0.30465464015E+03  0.00000000000E+00 0.  1.
</event>
<event>
 9   1  0.7335000E-04  0.9828019E+03  0.7818608E-02  0.9327611E-01
       21   -1    0    0  503  502  0.00000000000E+00  0.00000000000E+00  0.79840759964E+03  0.79840759964E+03  0.00000000000E+00 0.  1.
       21   -1    0    0  502  503 -0.00000000000E+00 -0.00000000000E+00 -0.30244562762E+03  0.30244562762E+03  0.00000000000E+00 0. -1.
       39    2    1    2    0    0  0.56843418861E-13 -0.35527136788E-14  0.49596197202E+03  0.11008532273E+04  0.98280188761E+03 0.  0.
       24    2    3    3    0    0  0.43494118067E+03 -0.20132711832E+02  0.10240302603E+02  0.44357511413E+03  0.84112194993E+02 0.  0.
      -24    2    3    3    0    0 -0.43494118067E+03  0.20132711832E+02  0.48572166942E+03  0.65727811314E+03  0.80683462576E+02 0.  0.
      -13    1    4    4    0    0  0.17110595456E+03  0.12510618473E+02  0.39713979566E+02  0.17609929992E+03  0.00000000000E+00 0.  1.
       14    1    4    4    0    0  0.26383522611E+03 -0.32643330306E+02 -0.29473676963E+02  0.26747581420E+03  0.00000000000E+00 0. -1.
        3    1    5    5  501    0 -0.27028492755E+02  0.13716749296E+02  0.62384065977E+02  0.69357482074E+02  0.00000000000E+00 0. -1.
       -4    1    5    5    0  501 -0.40791268792E+03  0.64159625358E+01  0.42333760345E+03  0.58792063106E+03  0.14200000000E+01 0.  1.
</event>
<event>
 9   1  0.7335000E-04  0.1002352E+04  0.7818608E-02  0.9305969E-01
       21   -1    0    0  503  502  0.00000000000E+00  0.00000000000E+00  0.26088504199E+03  0.26088504199E+03  0.00000000000E+00 0.  1.
       21   -1    0    0  502  503 -0.00000000000E+00 -0.00000000000E+00 -0.96278942984E+03  0.96278942984E+03  0.00000000000E+00 0. -1.
       39    2    1    2    0    0  0.00000000000E+00  0.00000000000E+00 -0.70190438785E+03  0.12236744718E+04  0.10023519558E+04 0.  0.
       24    2    3    3    0    0  0.16356122950E+03  0.10732272114E+02 -0.91988330462E+03  0.93986104201E+03  0.10142005079E+03 0.  0.
      -24    2    3    3    0    0 -0.16356122950E+03 -0.10732272114E+02  0.21797891677E+03  0.28381342983E+03  0.78535325362E+02 0.  0.
      -13    1    4    4    0    0  0.21512457173E+01  0.20271494517E+01  0.22200701622E+01  0.36967424255E+01  0.00000000000E+00 0.  1.
       14    1    4    4    0    0  0.16140998379E+03  0.87051226621E+01 -0.92210337479E+03  0.93616429959E+03  0.00000000000E+00 0. -1.
        3    1    5    5  501    0 -0.10695390926E+03 -0.41590305222E+02  0.11611796873E+03  0.16325524450E+03  0.00000000000E+00 0. -1.
       -4    1    5    5    0  501 -0.56607320240E+02  0.30858033108E+02  0.10186094805E+03  0.12055818533E+03  0.14200000000E+01 0.  1.
</event>
<event>
 9   1  0.7335000E-04  0.9856808E+03  0.7818608E-02  0.9324391E-01
       -2   -1    0    0    0  501 -0.00000000000E+00  0.00000000000E+00  0.64504257663E+03  0.64504257663E+03  0.00000000000E+00 0.  1.
        2   -1    0    0  501    0  0.00000000000E+00 -0.00000000000E+00 -0.37655134545E+03  0.37655134545E+03  0.00000000000E+00 0. -1.
       39    2    1    2    0    0  0.00000000000E+00  0.00000000000E+00  0.26849123119E+03  0.10215939221E+04  0.98568078017E+03 0.  0.
       24    2    3    3    0    0  0.24113194400E+03  0.46855964929E+02  0.56922862953E+03  0.62511530583E+03  0.80048841552E+02 0.  0.
      -24    2    3    3    0    0 -0.24113194400E+03 -0.46855964929E+02 -0.30073739834E+03  0.39647861625E+03  0.80076304339E+02 0.  0.
      -13    1    4    4    0    0  0.23034344521E+03  0.62724699739E+02  0.51648835168E+03  0.56899271360E+03  0.00000000000E+00 0.  1.
       14    1    4    4    0    0  0.10788498798E+02 -0.15868734810E+02  0.52740277845E+02  0.56122592224E+02  0.00000000000E+00 0. -1.
        3    1    5    5  502    0 -0.22584867191E+03 -0.49600420209E+02 -0.30253543453E+03  0.38078276410E+03  0.00000000000E+00 0. -1.
       -4    1    5    5    0  502 -0.15283272097E+02  0.27444552800E+01  0.17980361891E+01  0.15695852156E+02  0.14200000000E+01 0.  1.
</event>
<event>
 9   1  0.7335000E-04  0.1008913E+04  0.7818608E-02  0.9298823E-01
        2   -1    0    0  501    0  0.00000000000E+00  0.00000000000E+00  0.14110215752E+04  0.14110215752E+04  0.00000000000E+00 0. -1.
       -2   -1    0    0    0  501 -0.00000000000E+00 -0.00000000000E+00 -0.18034896725E+03  0.18034896725E+03  0.00000000000E+00 0.  1.
       39    2    1    2    0    0  0.00000000000E+00 -0.56843418861E-13  0.12306726080E+04  0.15913705425E+04  0.10089128483E+04 0.  0.
       24    2    3    3    0    0  0.57953621809E+02  0.26093771749E+03  0.12776686484E+04  0.13078716439E+04  0.81510410512E+02 0.  0.
      -24    2    3    3    0    0 -0.57953621809E+02 -0.26093771749E+03 -0.46996040414E+02  0.28349889863E+03  0.81950491262E+02 0.  0.
      -13    1    4    4    0    0  0.17988195544E+02  0.29138866706E+02  0.31618238121E+03  0.31803136154E+03  0.00000000000E+00 0.  1.
       14    1    4    4    0    0  0.39965426265E+02  0.23179885078E+03  0.96148626718E+03  0.98984028232E+03  0.00000000000E+00 0. -1.
        3    1    5    5  502    0 -0.17496707670E+02 -0.19627511592E+03 -0.65752674945E+01  0.19716310520E+03  0.00000000000E+00 0. -1.
       -4    1    5    5    0  502 -0.40456914140E+02 -0.64662601571E+02 -0.40420772920E+02  0.86335793429E+02  0.14200000000E+01 0.  1.
</event>
<event>
 9   1  0.7335000E-04  0.1004209E+04  0.7818608E-02  0.9303941E-01
       21   -1    0    0  503  502  0.00000000000E+00  0.00000000000E+00  0.90459410497E+03  0.90459410497E+03  0.00000000000E+00 0.  1.
       21   -1    0    0  502  503 -0.00000000000E+00 -0.00000000000E+00 -0.27869829348E+03  0.27869829348E+03  0.00000000000E+00 0. -1.
       39    2    1    2    0    0  0.00000000000E+00 -0.56843418861E-13  0.62589581149E+03  0.11832923984E+04  0.10042088097E+04 0.  0.
       24    2    3    3    0    0 -0.17083133599E+03  0.26072653870E+03  0.76716835566E+03  0.83163965534E+03  0.76912658633E+02 0.  0.
      -24    2    3    3    0    0  0.17083133599E+03 -0.26072653870E+03 -0.14127254418E+03  0.35165274311E+03  0.80870554938E+02 0.  0.
      -13    1    4    4    0    0 -0.70796979963E+02  0.16953498980E+03  0.48649355108E+03  0.52002913417E+03  0.00000000000E+00 0.  1.
       14    1    4    4    0    0 -0.10003435602E+03  0.91191548899E+02  0.28067480458E+03  0.31161052117E+03  0.00000000000E+00 0. -1.
        1    1    5    5  501    0  0.16224705359E+03 -0.24361253646E+03 -0.15188944348E+03  0.32975987834E+03  0.00000000000E+00 0. -1.
       -2    1    5    5    0  501  0.85842823970E+01 -0.17114002243E+02  0.10616899302E+02  0.21892864770E+02  0.00000000000E+00 0.  1.
</event>
<event>
 9   1  0.7335000E-04  0.1024161E+04  0.7818608E-02  0.9282436E-01
       21   -1    0    0  503  502  0.00000000000E+00  0.00000000000E+00  0.21635942290E+03  0.21635942290E+03  0.00000000000E+00 0.  1.
       21   -1    0    0  502  503 -0.00000000000E+00 -0.00000000000E+00 -0.12119936751E+04  0.12119936751E+04  0.00000000000E+00 0. -1.
       39    2    1    2    0    0 -0.56843418861E-13  0.00000000000E+00 -0.99563425219E+03  0.14283530980E+04  0.10241606360E+04 0.  0.
       24    2    3    3    0    0  0.19907753124E+03 -0.90469266170E+02 -0.11347101003E+04  0.11584855707E+04  0.81885616196E+02 0.  0.
      -24    2    3    3    0    0 -0.19907753124E+03  0.90469266170E+02  0.13907584811E+03  0.26986752733E+03  0.75298334732E+02 0.  0.
      -13    1    4    4    0    0  0.15141291418E+02 -0.81871294685E+01 -0.23365784906E+02  0.29021504079E+02  0.00000000000E+00 0.  1.
       14    1    4    4    0    0  0.18393623982E+03 -0.82282136701E+02 -0.11113443154E+04  0.11294640666E+04  0.00000000000E+00 0. -1.
        1    1    5    5  501    0 -0.16930601533E+03  0.81292111029E+02  0.82186071961E+02  0.20500605983E+03  0.00000000000E+00 0. -1.
       -2    1    5    5    0  501 -0.29771515910E+02  0.91771551414E+01  0.56889776147E+02  0.64861467499E+02  0.00000000000E+00 0.  1.
</event>
<event>
 9   1  0.7335000E-04  0.1038706E+04  0.7818608E-02  0.9267083E-01
        2   -1    0    0  501    0  0.00000000000E+00  0.00000000000E+00  0.29481279468E+04  0.29481279468E+04  0.00000000000E+00 0. -1.
       -2   -1    0    0    0  501 -0.00000000000E+00 -0.00000000000E+00 -0.91491053631E+02  0.91491053631E+02  0.00000000000E+00 0.  1.
       39    2    1    2    0    0  0.00000000000E+00  0.00000000000E+00  0.28566368931E+04  0.30396190004E+04  0.10387056024E+04 0.  0.
       24    2    3    3    0    0  0.43466435886E+03  0.25174385216E+03  0.11197677874E+04  0.12298418139E+04  0.79516774362E+02 0.  0.
      -24    2    3    3    0    0 -0.43466435886E+03 -0.25174385216E+03  0.17368691057E+04  0.18097771865E+04  0.79190293378E+02 0.  0.
      -13    1    4    4    0    0  0.32356420135E+03  0.21111181909E+03  0.78798395657E+03  0.87759940085E+03  0.00000000000E+00 0.  1.
       14    1    4    4    0    0  0.11110015751E+03  0.40632033072E+02  0.33178383085E+03  0.35224241301E+03  0.00000000000E+00 0. -1.
        1    1    5    5  502    0 -0.23965590080E+03 -0.13658422415E+03  0.10918127014E+04  0.11261195212E+04  0.00000000000E+00 0. -1.
       -2    1    5    5    0  502 -0.19500845806E+03 -0.11515962801E+03  0.64505640435E+03  0.68365766538E+03  0.00000000000E+00 0.  1.
</event>
<event>
 9   1  0.7335000E-04  0.9865702E+03  0.7818608E-02  0.9323398E-01
       21   -1    0    0  503  502  0.00000000000E+00  0.00000000000E+00  0.56853280086E+03  0.56853280086E+03  0.00000000000E+00 0. -1.
       21   -1    0    0  502  503 -0.00000000000E+00 -0.00000000000E+00 -0.42799678763E+03  0.42799678763E+03  0.00000000000E+00 0.  1.
       39    2    1    2    0    0  0.00000000000E+00  0.14210854715E-13  0.14053601323E+03  0.99652958848E+03  0.98657024570E+03 0.  0.
       24    2    3    3    0    0 -0.45714031064E+03 -0.89621717299E+02 -0.71192947809E+02  0.47839148075E+03  0.82344746065E+02 0.  0.
      -24    2    3    3    0    0  0.45714031064E+03  0.89621717299E+02  0.21172896104E+03  0.51813810774E+03  0.81416398345E+02 0.  0.
      -13    1    4    4    0    0 -0.11601231400E+03 -0.57963956623E+02 -0.31893254828E+02  0.13355095272E+03  0.00000000000E+00 0.  1.
       14    1    4    4    0    0 -0.34112799664E+03 -0.31657760676E+02 -0.39299692981E+02  0.34484052803E+03  0.00000000000E+00 0. -1.
        1    1    5    5  501    0  0.23658212374E+03  0.24378547941E+02  0.14540209853E+03  0.27876008525E+03  0.00000000000E+00 0. -1.
       -2    1    5    5    0  501  0.22055818691E+03  0.65243169358E+02  0.66326862509E+02  0.23937802249E+03  0.00000000000E+00 0.  1.
</event>
<event>
 9   1  0.7335000E-04  0.1007348E+04  0.7818608E-02  0.9300523E-01
       -2   -1    0    0    0  501 -0.00000000000E+00  0.00000000000E+00  0.28482051287E+03  0.28482051287E+03  0.00000000000E+00 0.  1.
        2   -1    0    0  501    0  0.00000000000E+00 -0.00000000000E+00 -0.89069163769E+03  0.89069163769E+03  0.00000000000E+00 0. -1.
       39    2    1    2    0    0 -0.56843418861E-13  0.00000000000E+00 -0.60587112482E+03  0.11755121506E+04  0.10073475052E+04 0.  0.
       24    2    3    3    0    0 -0.33486220132E+03 -0.36752909289E+03 -0.29892157543E+03  0.58580982924E+03  0.81294032896E+02 0.  0.
      -24    2    3    3    0    0  0.33486220132E+03  0.36752909289E+03 -0.30694954939E+03  0.58970232133E+03  0.79501408219E+02 0.  0.
      -13    1    4    4    0    0 -0.75898355778E+02 -0.12479544932E+03 -0.59766367045E+02  0.15781787988E+03  0.00000000000E+00 0.  1.
       14    1    4    4    0    0 -0.25896384554E+03 -0.24273364357E+03 -0.23915520838E+03  0.42799194936E+03  0.00000000000E+00 0. -1.
        1    1    5    5  502    0  0.12141220125E+02  0.34597543063E+01 -0.23404029219E+02  0.26591873001E+02  0.00000000000E+00 0. -1.
       -2    1    5    5    0  502  0.32272098119E+03  0.36406933859E+03 -0.28354552017E+03  0.56311044832E+03  0.00000000000E+00 0.  1.
</event>
<event>
 9   1  0.7335000E-04  0.1004375E+04  0.7818608E-02  0.9303759E-01
       21   -1    0    0  503  502  0.00000000000E+00  0.00000000000E+00  0.18354910897E+03  0.18354910897E+03  0.00000000000E+00 0. -1.
       21   -1    0    0  502  503 -0.00000000000E+00 -0.00000000000E+00 -0.13739783361E+04  0.13739783361E+04  0.00000000000E+00 0.  1.
       39    2    1    2    0    0  0.00000000000E+00  0.00000000000E+00 -0.11904292272E+04  0.15575274451E+04  0.10043754265E+04 0.  0.
       24    2    3    3    0    0  0.34530270659E+03 -0.23757539938E+03 -0.19056612159E+03  0.47036546477E+03  0.96188326625E+02 0.  0.
      -24    2    3    3    0    0 -0.34530270659E+03  0.23757539938E+03 -0.99986310557E+03  0.10871619803E+04  0.80739779674E+02 0.  0.
      -13    1    4    4    0    0  0.38666643313E+02 -0.61919054378E+02 -0.10509059952E+02  0.73753094452E+02  0.00000000000E+00 0.  1.
       14    1    4    4    0    0  0.30663606328E+03 -0.17565634501E+03 -0.18005706164E+03  0.39661237032E+03  0.00000000000E+00 0. -1.
        1    1    5    5  501    0 -0.35898721718E+02  0.78705267556E+00 -0.11086101114E+03  0.11653111800E+03  0.00000000000E+00 0. -1.
       -2    1    5    5    0  501 -0.30940398488E+03  0.23678834671E+03 -0.88900209443E+03  0.97063086232E+03  0.00000000000E+00 0.  1.
</event>
<event>
 9   1  0.7335000E-04  0.1001591E+04  0.7818608E-02  0.9306802E-01
       21   -1    0    0  503  502  0.00000000000E+00  0.00000000000E+00  0.81167498919E+03  0.81167498919E+03  0.00000000000E+00 0. -1.
       21   -1    0    0  502  503 -0.00000000000E+00 -0.00000000000E+00 -0.30898562201E+03  0.30898562201E+03  0.00000000000E+00 0.  1.
       39    2    1    2    0    0  0.28421709430E-13  0.00000000000E+00  0.50268936718E+03  0.11206606112E+04  0.10015905379E+04 0.  0.
       24    2    3    3    0    0 -0.93040066035E+02  0.13198904684E+03  0.77381987221E+03  0.79439530712E+03  0.78671131823E+02 0.  0.
      -24    2    3    3    0    0  0.93040066035E+02 -0.13198904684E+03 -0.27113050503E+03  0.32626530408E+03  0.82823520293E+02 0.  0.
      -13    1    4    4    0    0  0.76985673137E+01  0.37369967395E+02  0.11268629000E+03  0.11897051045E+03  0.00000000000E+00 0.  1.
       14    1    4    4    0    0 -0.10073863335E+03  0.94619079449E+02  0.66113358221E+03  0.67542479668E+03  0.00000000000E+00 0. -1.
        3    1    5    5  501    0 -0.11312579018E+02 -0.43743948102E+01 -0.43823434479E+02  0.45470904802E+02  0.00000000000E+00 0. -1.
       -4    1    5    5    0  501  0.10435264505E+03 -0.12761465203E+03 -0.22730707055E+03  0.28079439928E+03  0.14200000000E+01 0.  1.
</event>
<event>
 8   1  0.7335000E-04  0.1229498E+04  0.7818608E-02  0.9087422E-01
       21   -1    0    0  503  502  0.00000000000E+00  0.00000000000E+00  0.20807452981E+04  0.20807452981E+04  0.00000000000E+00 0.  1.
       21   -1    0    0  502  503 -0.00000000000E+00 -0.00000000000E+00 -0.18162532407E+03  0.18162532407E+03  0.00000000000E+00 0. -1.
       24    2    1    2    0    0 -0.38569640717E+03 -0.14458886330E+03  0.12294775925E+03  0.43734797755E+03  0.80557085810E+02 0.  0.
      -24    2    1    2    0    0  0.38569640717E+03  0.14458886330E+03  0.17761722148E+04  0.18250226446E+04  0.79071226662E+02 0.  0.
      -13    1    3    3    0    0 -0.72590866866E+02  0.33763077249E+01  0.31267142029E+02  0.79110477036E+02  0.00000000000E+00 0.  1.
       14    1    3    3    0    0 -0.31310554030E+03 -0.14796517102E+03  0.91680617223E+02  0.35823750052E+03  0.00000000000E+00 0. -1.
        1    1    4    4  501    0  0.13846655731E+03  0.73585352673E+02  0.81990000873E+03  0.83475973546E+03  0.00000000000E+00 0. -1.
       -2    1    4    4    0  501  0.24722984986E+03  0.71003510624E+02  0.95627220604E+03  0.99026290915E+03  0.00000000000E+00 0.  1.
</event>
<event>
 9   1  0.7335000E-04  0.1004257E+04  0.7818608E-02  0.9303888E-01
       21   -1    0    0  503  502  0.00000000000E+00  0.00000000000E+00  0.65162354484E+03  0.65162354484E+03  0.00000000000E+00 0. -1.
       21   -1    0    0  502  503 -0.00000000000E+00 -0.00000000000E+00 -0.38693041395E+03  0.38693041395E+03  0.00000000000E+00 0.  1.
       39    2    1    2    0    0 -0.71054273576E-14  0.56843418861E-13  0.26469313090E+03  0.10385539588E+04  0.10042568754E+04 0.  0.
       24    2    3    3    0    0 -0.41832931128E+02  0.43709018656E+03  0.37136684057E+03  0.58071844427E+03  0.80763580439E+02 0.  0.
      -24    2    3    3    0    0  0.41832931128E+02 -0.43709018656E+03 -0.10667370968E+03  0.45783551452E+03  0.73730948078E+02 0.  0.
      -13    1    4    4    0    0  0.20850232723E+02  0.48586102727E+02  0.46935913096E+02  0.70698808484E+02  0.00000000000E+00 0.  1.
       14    1    4    4    0    0 -0.62683163851E+02  0.38850408383E+03  0.32443092748E+03  0.51001963579E+03  0.00000000000E+00 0. -1.
        3    1    5    5  501    0 -0.83178695810E+01 -0.41665637176E+02  0.76474972335E+01  0.43170551184E+02  0.00000000000E+00 0. -1.
       -4    1    5    5    0  501  0.50150800709E+02 -0.39542454938E+03 -0.11432120691E+03  0.41466496333E+03  0.14200000000E+01 0.  1.
</event>
<event>
 9   1  0.7335000E-04  0.9956489E+03  0.7818608E-02  0.9313330E-01
        2   -1    0    0  501    0  0.00000000000E+00  0.00000000000E+00  0.39136749801E+03  0.39136749801E+03  0.00000000000E+00 0.  1.
       -2   -1    0    0    0  501 -0.00000000000E+00 -0.00000000000E+00 -0.63323906369E+03  0.63323906369E+03  0.00000000000E+00 0. -1.
       39    2    1    2    0    0  0.14210854715E-13  0.00000000000E+00 -0.24187156568E+03  0.10246065617E+04  0.99564891000E+03 0.  0.
       24    2    3    3    0    0  0.84943234865E+02  0.18871458440E+03  0.33769420566E+03  0.40411237982E+03  0.80255164773E+02 0.  0.
      -24    2    3    3    0    0 -0.84943234865E+02 -0.18871458440E+03 -0.57956577134E+03  0.62049418188E+03  0.79296903610E+02 0.  0.
      -13    1    4    4    0    0  0.58460963675E+02  0.10530273217E+03  0.26217983041E+03  0.28852142581E+03  0.00000000000E+00 0.  1.
       14    1    4    4    0    0  0.26482271190E+02  0.83411852229E+02  0.75514375244E+02  0.11559095401E+03  0.00000000000E+00 0. -1.
        1    1    5    5  502    0 -0.96107761529E+02 -0.13283942126E+03 -0.45054181891E+03  0.47944858353E+03  0.00000000000E+00 0. -1.
       -2    1    5    5    0  502  0.11164526664E+02 -0.55875163142E+02 -0.12902395243E+03  0.14104559835E+03  0.00000000000E+00 0.  1.
</event>
<event>
 9   1  0.7335000E-04  0.9864210E+03  0.7818608E-02  0.9323565E-01
       21   -1    0    0  503  502  0.00000000000E+00  0.00000000000E+00  0.51776699589E+03  0.51776699589E+03  0.00000000000E+00 0.  1.
       21   -1    0    0  502  503 -0.00000000000E+00 -0.00000000000E+00 -0.46981868306E+03  0.46981868306E+03  0.00000000000E+00 0. -1.
       39    2    1    2    0    0 -0.28421709430E-13 -0.14210854715E-13  0.47948312827E+02  0.98758567895E+03  0.98642102196E+03 0.  0.
       24    2    3    3    0    0  0.17813604067E+03 -0.80031700129E+02  0.47029169063E+03  0.51521907034E+03  0.78351095422E+02 0.  0.
      -24    2    3    3    0    0 -0.17813604067E+03  0.80031700129E+02 -0.42234337780E+03  0.47236660861E+03  0.81355775115E+02 0.  0.
      -13    1    4    4    0    0  0.17166142260E+03 -0.89873335746E+02  0.46147786206E+03  0.50050642119E+03  0.00000000000E+00 0.  1.
       14    1    4    4    0    0  0.64746180671E+01  0.98416356169E+01  0.88138285737E+01  0.14712649145E+02  0.00000000000E+00 0. -1.
        1    1    5    5  501    0 -0.10218355649E+03  0.44324981201E+02 -0.32647304485E+03  0.34495047788E+03  0.00000000000E+00 0. -1.
       -2    1    5    5    0  501 -0.75952484181E+02  0.35706718928E+02 -0.95870332952E+02  0.12741613073E+03  0.00000000000E+00 0.  1.
</event>
<event>
 9   1  0.7335000E-04  0.9894333E+03  0.7818608E-02  0.9320211E-01
       21   -1    0    0  503  502  0.00000000000E+00  0.00000000000E+00  0.22905057700E+03  0.22905057700E+03  0.00000000000E+00 0.  1.
       21   -1    0    0  502  503 -0.00000000000E+00 -0.00000000000E+00 -0.10685176462E+04  0.10685176462E+04  0.00000000000E+00 0. -1.
       39    2    1    2    0    0 -0.14210854715E-13 -0.56843418861E-13 -0.83946706917E+03  0.12975682232E+04  0.98943333964E+03 0.  0.
       24    2    3    3    0    0  0.10954028284E+03 -0.41497319060E+03 -0.11455499467E+03  0.45086830327E+03  0.77185216240E+02 0.  0.
      -24    2    3    3    0    0 -0.10954028284E+03  0.41497319060E+03 -0.72491207450E+03  0.84669991992E+03  0.84861158045E+02 0.  0.
      -13    1    4    4    0    0  0.95879945137E+02 -0.40203935203E+03 -0.95731361715E+02  0.42425593464E+03  0.00000000000E+00 0.  1.
       14    1    4    4    0    0  0.13660337706E+02 -0.12933838567E+02 -0.18823632954E+02  0.26612368626E+02  0.00000000000E+00 0. -1.
        1    1    5    5  501    0 -0.11205858012E+03  0.27796241971E+03 -0.52017781409E+03  0.60033756372E+03  0.00000000000E+00 0. -1.
       -2    1    5    5    0  501  0.25182972777E+01  0.13701077088E+03 -0.20473426042E+03  0.24636235619E+03  0.00000000000E+00 0.  1.
</event>
<event>
 9   1  0.7335000E-04  0.9908464E+03  0.7818608E-02  0.9318642E-01
       21   -1    0    0  503  502  0.00000000000E+00  0.00000000000E+00  0.35573555133E+03  0.35573555133E+03  0.00000000000E+00 0. -1.
       21   -1    0    0  502  503 -0.00000000000E+00 -0.00000000000E+00 -0.68996231414E+03  0.68996231414E+03  0.00000000000E+00 0.  1.
       39    2    1    2    0    0  0.00000000000E+00  0.71054273576E-14 -0.33422676281E+03  0.10456978655E+04  0.99084635381E+03 0.  0.
       24    2    3    3    0    0 -0.19401872472E+02 -0.41908350015E+02 -0.68076149490E+03  0.68698386147E+03  0.79861571062E+02 0.  0.
      -24    2    3    3    0    0  0.19401872472E+02  0.41908350015E+02  0.34653473209E+03  0.35871400400E+03  0.80353429701E+02 0.  0.
      -13    1    4    4    0    0  0.10474325582E+02 -0.65046006519E+01 -0.50709833451E+03  0.50724820571E+03  0.00000000000E+00 0.  1.
       14    1    4    4    0    0 -0.29876198054E+02 -0.35403749363E+02 -0.17366316038E+03  0.17973565577E+03  0.00000000000E+00 0. -1.
        3    1    5    5  501    0  0.37957823702E+01  0.16472333413E+02  0.31433536945E+03  0.31478956498E+03  0.00000000000E+00 0. -1.
       -4    1    5    5    0  501  0.15606090102E+02  0.25436016602E+02  0.32199362633E+02  0.43924439016E+02  0.14200000000E+01 0.  1.
</event>
<event>
 9   1  0.7335000E-04  0.9958465E+03  0.7818608E-02  0.9313112E-01
       21   -1    0    0  503  502  0.00000000000E+00  0.00000000000E+00  0.24534501916E+03  0.24534501916E+03  0.00000000000E+00 0. -1.
       21   -1    0    0  502  503 -0.00000000000E+00 -0.00000000000E+00 -0.10105261440E+04  0.10105261440E+04  0.00000000000E+00 0.  1.
       39    2    1    2    0    0 -0.71054273576E-14  0.14210854715E-13 -0.76518112486E+03  0.12558711632E+04  0.99584648650E+03 0.  0.
       24    2    3    3    0    0  0.35508294984E+02 -0.68403624313E+02  0.22906245342E+03  0.25538469784E+03  0.82533880900E+02 0.  0.
      -24    2    3    3    0    0 -0.35508294984E+02  0.68403624313E+02 -0.99424357828E+03  0.10004864653E+04  0.80703033064E+02 0.  0.
      -13    1    4    4    0    0  0.41026420165E+00 -0.21582377525E+02  0.29064024809E+01  0.21781058553E+02  0.00000000000E+00 0.  1.
       14    1    4    4    0    0  0.35098030783E+02 -0.46821246789E+02  0.22615605093E+03  0.23360363929E+03  0.00000000000E+00 0. -1.
        1    1    5    5  501    0  0.17676908964E+02  0.21294921323E+02 -0.11131393167E+03  0.11470282546E+03  0.00000000000E+00 0. -1.
       -2    1    5    5    0  501 -0.53185203948E+02  0.47108702990E+02 -0.88292964660E+03  0.88578363987E+03  0.00000000000E+00 0.  1.
</event>
<event>
 9   1  0.7335000E-04  0.9811663E+03  0.7818608E-02  0.9329446E-01
       21   -1    0    0  503  502  0.00000000000E+00  0.00000000000E+00  0.59567575620E+03  0.59567575620E+03  0.00000000000E+00 0. -1.
       21   -1    0    0  502  503 -0.00000000000E+00 -0.00000000000E+00 -0.40403156517E+03  0.40403156517E+03  0.00000000000E+00 0.  1.
       39    2    1    2    0    0  0.14210854715E-13  0.00000000000E+00  0.19164419103E+03  0.99970732137E+03  0.98116626137E+03 0.  0.
       24    2    3    3    0    0 -0.66202522557E+02 -0.37322683349E+03  0.40237285837E+03  0.55866499048E+03  0.80756493283E+02 0.  0.
      -24    2    3    3    0    0  0.66202522557E+02  0.37322683349E+03 -0.21072866734E+03  0.44104233089E+03  0.80191789906E+02 0.  0.
      -13    1    4    4    0    0 -0.77728701902E+02 -0.27615380058E+03  0.32850108794E+03  0.43613717733E+03  0.00000000000E+00 0.  1.
       14    1    4    4    0    0  0.11526179345E+02 -0.97073032914E+02  0.73871770434E+02  0.12252781315E+03  0.00000000000E+00 0. -1.
        1    1    5    5  501    0  0.22457990419E+02  0.13507964300E+03 -0.12127038246E+03  0.18291357781E+03  0.00000000000E+00 0. -1.
       -2    1    5    5    0  501  0.43744532138E+02  0.23814719050E+03 -0.89458284876E+02  0.25812875308E+03  0.00000000000E+00 0.  1.
</event>
<event>
 9   1  0.7335000E-04  0.1009905E+04  0.7818608E-02  0.9297748E-01
       21   -1    0    0  503  502  0.00000000000E+00  0.00000000000E+00  0.17882962801E+04  0.17882962801E+04  0.00000000000E+00 0.  1.
       21   -1    0    0  502  503 -0.00000000000E+00 -0.00000000000E+00 -0.14258088934E+03  0.14258088934E+03  0.00000000000E+00 0. -1.
       39    2    1    2    0    0  0.00000000000E+00  0.00000000000E+00  0.16457153908E+04  0.19308771695E+04  0.10099046966E+04 0.  0.
       24    2    3    3    0    0 -0.16406216368E+03 -0.17421761488E+03  0.16586878099E+04  0.16778322129E+04  0.81286610813E+02 0.  0.
      -24    2    3    3    0    0  0.16406216368E+03  0.17421761488E+03 -0.12972419075E+02  0.25304495660E+03  0.81211424806E+02 0.  0.
      -13    1    4    4    0    0 -0.14715382692E+03 -0.11005555889E+03  0.11037545895E+04  0.11189462313E+04  0.00000000000E+00 0.  1.
       14    1    4    4    0    0 -0.16908336756E+02 -0.64162055984E+02  0.55493322039E+03  0.55888598155E+03  0.00000000000E+00 0. -1.
        3    1    5    5  501    0  0.15439014628E+03  0.15340718972E+03  0.13398038122E+02  0.21805868603E+03  0.00000000000E+00 0. -1.
       -4    1    5    5    0  501  0.96720173997E+01  0.20810425156E+02 -0.26370457197E+02  0.34986270572E+02  0.14200000000E+01 0.  1.
</event>
<event>
 9   1  0.7335000E-04  0.9907787E+03  0.7818608E-02  0.9318717E-01
       21   -1    0    0  503  502  0.00000000000E+00  0.00000000000E+00  0.83014671581E+03  0.83014671581E+03  0.00000000000E+00 0.  1.
       21   -1    0    0  502  503 -0.00000000000E+00 -0.00000000000E+00 -0.29562317129E+03  0.29562317129E+03  0.00000000000E+00 0. -1.
       39    2    1    2    0    0 -0.71054273576E-14  0.00000000000E+00  0.53452354452E+03  0.11257698871E+04  0.99077869329E+03 0.  0.
       24    2    3    3    0    0 -0.45493669274E+02  0.82272172872E+02 -0.27785004909E+03  0.30408531044E+03  0.80180059078E+02 0.  0.
      -24    2    3    3    0    0  0.45493669274E+02 -0.82272172872E+02  0.81237359361E+03  0.82168457667E+03  0.79851759895E+02 0.  0.
      -13    1    4    4    0    0  0.16716100520E+02  0.98134232439E+01 -0.15264628548E+02  0.24672660519E+02  0.00000000000E+00 0.  1.
       14    1    4    4    0    0 -0.62209769794E+02  0.72458749628E+02 -0.26258542054E+03  0.27941264992E+03  0.00000000000E+00 0. -1.
        1    1    5    5  501    0  0.83663409742E+01  0.11447165673E+02  0.24612790917E+03  0.24653596277E+03  0.00000000000E+00 0. -1.
       -2    1    5    5    0  501  0.37127328300E+02 -0.93719338545E+02  0.56624568444E+03  0.57514861390E+03  0.00000000000E+00 0.  1.
</event>
<event>
 9   1  0.7335000E-04  0.1007657E+04  0.7818608E-02  0.9300187E-01
       21   -1    0    0  503  502  0.00000000000E+00  0.00000000000E+00  0.25821537623E+03  0.25821537623E+03  0.00000000000E+00 0. -1.
       21   -1    0    0  502  503 -0.00000000000E+00 -0.00000000000E+00 -0.98306679036E+03  0.98306679036E+03  0.00000000000E+00 0.  1.
       39    2    1    2    0    0 -0.28421709430E-13 -0.56843418861E-13 -0.72485141412E+03  0.12412821666E+04  0.10076566104E+04 0.  0.
       24    2    3    3    0    0 -0.12716164551E+03 -0.36074195984E+03 -0.75401936612E+03  0.84929184800E+03  0.80290677719E+02 0.  0.
      -24    2    3    3    0    0  0.12716164551E+03  0.36074195984E+03  0.29167951997E+02  0.39199031859E+03  0.80627506264E+02 0.  0.
      -13    1    4    4    0    0 -0.11239588308E+03 -0.32532900693E+03 -0.71988021162E+03  0.79793440606E+03  0.00000000000E+00 0.  1.
       14    1    4    4    0    0 -0.14765762429E+02 -0.35412952902E+02 -0.34139154492E+02  0.51357441942E+02  0.00000000000E+00 0. -1.
        1    1    5    5  501    0  0.93591193254E+02  0.25317704273E+03  0.57105936325E+02  0.27589674588E+03  0.00000000000E+00 0. -1.
       -2    1    5    5    0  501  0.33570452257E+02  0.10756491710E+03 -0.27937984329E+02  0.11609357271E+03  0.00000000000E+00 0.  1.
</event>
<event>
 9   1  0.7335000E-04  0.9987477E+03  0.7818608E-02  0.9309919E-01
       21   -1    0    0  503  502  0.00000000000E+00  0.00000000000E+00  0.49826804504E+03  0.49826804504E+03  0.00000000000E+00 0. -1.
       21   -1    0    0  502  503 -0.00000000000E+00 -0.00000000000E+00 -0.50048210798E+03  0.50048210798E+03  0.00000000000E+00 0.  1.
       39    2    1    2    0    0  0.00000000000E+00  0.28421709430E-13 -0.22140629422E+01  0.99875015303E+03  0.99874769892E+03 0.  0.
       24    2    3    3    0    0  0.25921702451E+02  0.14978363319E+03 -0.46951057574E+03  0.50023706911E+03  0.81791644752E+02 0.  0.
      -24    2    3    3    0    0 -0.25921702451E+02 -0.14978363319E+03  0.46729651279E+03  0.49851308392E+03  0.83917772499E+02 0.  0.
      -13    1    4    4    0    0  0.22018081796E+02  0.13500187726E+03 -0.46438649852E+03  0.48411271704E+03  0.00000000000E+00 0.  1.
       14    1    4    4    0    0  0.39036206548E+01  0.14781755922E+02 -0.51240772196E+01  0.16124352071E+02  0.00000000000E+00 0. -1.
        3    1    5    5  501    0 -0.12171934272E+02 -0.23727047149E+02  0.20975624700E+03  0.21144458354E+03  0.00000000000E+00 0. -1.
       -4    1    5    5    0  501 -0.13749768179E+02 -0.12605658604E+03  0.25754026579E+03  0.28706850039E+03  0.14200000000E+01 0.  1.
</event>
<event>
 9   1  0.7335000E-04  0.9982381E+03  0.7818608E-02  0.9310479E-01
       21   -1    0    0  503  502  0.00000000000E+00  0.00000000000E+00  0.37102028899E+03  0.37102028899E+03  0.00000000000E+00 0.  1.
       21   -1    0    0  502  503 -0.00000000000E+00 -0.00000000000E+00 -0.67144533070E+03  0.67144533070E+03  0.00000000000E+00 0. -1.
       39    2    1    2    0    0 -0.56843418861E-13  0.00000000000E+00 -0.30042504171E+03  0.10424656197E+04  0.99823812917E+03 0.  0.
       24    2    3    3    0    0 -0.32313249095E+03 -0.19222086195E+03 -0.48202155183E+03  0.61681248078E+03  0.82154692701E+02 0.  0.
      -24    2    3    3    0    0  0.32313249095E+03  0.19222086195E+03  0.18159651012E+03  0.42565313891E+03  0.82703299194E+02 0.  0.
      -13    1    4    4    0    0 -0.16632057851E+03 -0.10702020120E+03 -0.31763840275E+03  0.37417911914E+03  0.00000000000E+00 0.  1.
       14    1    4    4    0    0 -0.15681191244E+03 -0.85200660755E+02 -0.16438314909E+03  0.24263336164E+03  0.00000000000E+00 0. -1.
        3    1    5    5  501    0  0.67827994240E+02  0.83094306858E+02  0.53882640391E+02  0.12003599281E+03  0.00000000000E+00 0. -1.
       -4    1    5    5    0  501  0.25530449671E+03  0.10912655510E+03  0.12771386973E+03  0.30561714610E+03  0.14200000000E+01 0.  1.
</event>
<event>
 9   1  0.7335000E-04  0.9889325E+03  0.7818608E-02  0.9320767E-01
       21   -1    0    0  503  502  0.00000000000E+00  0.00000000000E+00  0.35233008888E+03  0.35233008888E+03  0.00000000000E+00 0.  1.
       21   -1    0    0  502  503 -0.00000000000E+00 -0.00000000000E+00 -0.69394261823E+03  0.69394261823E+03  0.00000000000E+00 0. -1.
       39    2    1    2    0    0  0.56843418861E-13  0.00000000000E+00 -0.34161252935E+03  0.10462727071E+04  0.98893248376E+03 0.  0.
       24    2    3    3    0    0  0.43581626303E+03 -0.35531154942E+02  0.59300162883E+02  0.44775072409E+03  0.75933678375E+02 0.  0.
      -24    2    3    3    0    0 -0.43581626303E+03  0.35531154942E+02 -0.40091269223E+03  0.59852198302E+03  0.79368125021E+02 0.  0.
      -13    1    4    4    0    0  0.20871856630E+03  0.17409795113E+02  0.11802777463E+02  0.20977570507E+03  0.00000000000E+00 0.  1.
       14    1    4    4    0    0  0.22709769674E+03 -0.52940950055E+02  0.47497385420E+02  0.23797501902E+03  0.00000000000E+00 0. -1.
        3    1    5    5  501    0 -0.13121718584E+03  0.41693188681E+02 -0.15216068357E+03  0.20520513022E+03  0.00000000000E+00 0. -1.
       -4    1    5    5    0  501 -0.30459907719E+03 -0.61620337393E+01 -0.24875200866E+03  0.39331685280E+03  0.14200000000E+01 0.  1.
</event>
<event>
 9   1  0.7335000E-04  0.1152012E+04  0.7818608E-02  0.9155929E-01
       21   -1    0    0  503  502  0.00000000000E+00  0.00000000000E+00  0.13248272542E+04  0.13248272542E+04  0.00000000000E+00 0.  1.
       21   -1    0    0  502  503 -0.00000000000E+00 -0.00000000000E+00 -0.25043491412E+03  0.25043491412E+03  0.00000000000E+00 0. -1.
       39    2    1    2    0    0  0.28421709430E-13  0.28421709430E-13  0.10743923401E+04  0.15752621683E+04  0.11520121521E+04 0.  0.
       24    2    3    3    0    0  0.13451999376E+03  0.19995739417E+03 -0.17106882008E+03  0.30411420744E+03  0.71709983712E+02 0.  0.
      -24    2    3    3    0    0 -0.13451999376E+03 -0.19995739417E+03  0.12454611601E+04  0.12711479609E+04  0.81024988727E+02 0.  0.
      -13    1    4    4    0    0  0.24683005814E+02  0.75123817771E+02 -0.25396543663E+02  0.83053134815E+02  0.00000000000E+00 0.  1.
       14    1    4    4    0    0  0.10983698794E+03  0.12483357640E+03 -0.14567227641E+03  0.22106107263E+03  0.00000000000E+00 0. -1.
        3    1    5    5  501    0  0.11007033718E+02 -0.11831971695E+02  0.66654985970E+02  0.68585986178E+02  0.00000000000E+00 0. -1.
       -4    1    5    5    0  501 -0.14552702747E+03 -0.18812542247E+03  0.11788061742E+04  0.12025619747E+04  0.14200000000E+01 0.  1.
</event>
<event>
 9   1  0.7335000E-04  0.9760080E+03  0.7818608E-02  0.9335257E-01
       21   -1    0    0  503  502  0.00000000000E+00  0.00000000000E+00  0.79163706692E+02  0.79163706692E+02  0.00000000000E+00 0.  1.
       21   -1    0    0  502  503 -0.00000000000E+00 -0.00000000000E+00 -0.30082965608E+04  0.30082965608E+04  0.00000000000E+00 0. -1.
       39    2    1    2    0    0  0.14210854715E-13  0.00000000000E+00 -0.29291328542E+04  0.30874602675E+04  0.97600800527E+03 0.  0.
       24    2    3    3    0    0  0.91838830605E+02  0.26846281352E+03 -0.26959950291E+04  0.27118046525E+04  0.70630187009E+02 0.  0.
      -24    2    3    3    0    0 -0.91838830605E+02 -0.26846281352E+03 -0.23313782504E+03  0.37565561503E+03  0.79102734385E+02 0.  0.
      -13    1    4    4    0    0  0.44951658278E+02  0.14618185742E+03 -0.17699359819E+04  0.17765312176E+04  0.00000000000E+00 0.  1.
       14    1    4    4    0    0  0.46887172328E+02  0.12228095610E+03 -0.92605904719E+03  0.93527343490E+03  0.00000000000E+00 0. -1.
        3    1    5    5  501    0 -0.25542177390E+00 -0.60247888526E+02 -0.85051464432E+02  0.10422871444E+03  0.00000000000E+00 0. -1.
       -4    1    5    5    0  501 -0.91583408831E+02 -0.20821492500E+03 -0.14808636061E+03  0.27142690059E+03  0.14200000000E+01 0.  1.
</event>
<event>
 9   1  0.7335000E-04  0.8993977E+03  0.7818608E-02  0.9426335E-01
       21   -1    0    0  503  502  0.00000000000E+00  0.00000000000E+00  0.14961951280E+04  0.14961951280E+04  0.00000000000E+00 0. -1.
       21   -1    0    0  502  503 -0.00000000000E+00 -0.00000000000E+00 -0.13516221520E+03  0.13516221520E+03  0.00000000000E+00 0.  1.
       39    2    1    2    0    0  0.00000000000E+00 -0.56843418861E-13  0.13610329128E+04  0.16313573432E+04  0.89939768259E+03 0.  0.
       24    2    3    3    0    0  0.90683394613E+02  0.27500173953E+03  0.12873350338E+04  0.13219724493E+04  0.80809854278E+02 0.  0.
      -24    2    3    3    0    0 -0.90683394613E+02 -0.27500173953E+03  0.73697878923E+02  0.30938489386E+03  0.80238397219E+02 0.  0.
      -13    1    4    4    0    0  0.32279486181E+01  0.44556469081E+02  0.34724590398E+03  0.35010772116E+03  0.00000000000E+00 0.  1.
       14    1    4    4    0    0  0.87455445995E+02  0.23044527045E+03  0.94008912986E+03  0.97186472814E+03  0.00000000000E+00 0. -1.
        1    1    5    5  501    0 -0.71983801463E+02 -0.11441187646E+03  0.97555196881E+01  0.13552459302E+03  0.00000000000E+00 0. -1.
       -2    1    5    5    0  501 -0.18699593150E+02 -0.16058986306E+03  0.63942359235E+02  0.17386030084E+03  0.00000000000E+00 0.  1.
</event>
<event>
 9   1  0.7335000E-04  0.9947996E+03  0.7818608E-02  0.9314267E-01
       21   -1    0    0  503  502  0.00000000000E+00  0.00000000000E+00  0.29710605407E+03  0.29710605407E+03  0.00000000000E+00 0. -1.
       21   -1    0    0  502  503 -0.00000000000E+00 -0.00000000000E+00 -0.83272135079E+03  0.83272135079E+03  0.00000000000E+00 0.  1.
       39    2    1    2    0    0 -0.71054273576E-14  0.00000000000E+00 -0.53561529672E+03  0.11298274049E+04  0.99479958719E+03 0.  0.
       24    2    3    3    0    0  0.34443192308E+02 -0.13532215014E+03  0.26628265405E+03  0.31185830830E+03  0.82769165736E+02 0.  0.
      -24    2    3    3    0    0 -0.34443192308E+02  0.13532215014E+03 -0.80189795077E+03  0.81796909655E+03  0.80837501560E+02 0.  0.
      -13    1    4    4    0    0  0.10944646468E+02 -0.26505961124E+02  0.67544943691E+01  0.29461406206E+02  0.00000000000E+00 0.  1.
       14    1    4    4    0    0  0.23498545839E+02 -0.10881618901E+03  0.25952815968E+03  0.28239690210E+03  0.00000000000E+00 0. -1.
        1    1    5    5  501    0 -0.33800030709E+02  0.34947994747E+02 -0.13352909316E+03  0.14210497223E+03  0.00000000000E+00 0. -1.
       -2    1    5    5    0  501 -0.64316159873E+00  0.10037415539E+03 -0.66836885760E+03  0.67586412432E+03  0.00000000000E+00 0.  1.
</event>
<event>
 9   1  0.7335000E-04  0.9978645E+03  0.7818608E-02  0.9310890E-01
       21   -1    0    0  503  502  0.00000000000E+00  0.00000000000E+00  0.64912225847E+03  0.64912225847E+03  0.00000000000E+00 0. -1.
       21   -1    0    0  502  503 -0.00000000000E+00 -0.00000000000E+00 -0.38349231013E+03  0.38349231013E+03  0.00000000000E+00 0.  1.
       39    2    1    2    0    0 -0.28421709430E-13  0.00000000000E+00  0.26562994834E+03  0.10326145686E+04  0.99786450875E+03 0.  0.
       24    2    3    3    0    0  0.16717874070E+03  0.45105642186E+03  0.25200586437E+02  0.48906362799E+03  0.84543099222E+02 0.  0.
      -24    2    3    3    0    0 -0.16717874070E+03 -0.45105642186E+03  0.24042936190E+03  0.54355094061E+03  0.78998227367E+02 0.  0.
      -13    1    4    4    0    0  0.14661915910E+03  0.37498549738E+03 -0.10009075969E+02  0.40275486671E+03  0.00000000000E+00 0.  1.
       14    1    4    4    0    0  0.20559581605E+02  0.76070924477E+02  0.35209662406E+02  0.86308761277E+02  0.00000000000E+00 0. -1.
        3    1    5    5  501    0 -0.27950543858E+02 -0.13792349949E+03  0.10269851888E+03  0.17421570077E+03  0.00000000000E+00 0. -1.
       -4    1    5    5    0  501 -0.13922819684E+03 -0.31313292237E+03  0.13773084302E+03  0.36933523984E+03  0.14200000000E+01 0.  1.
</event>
<event>
 9   1  0.7335000E-04  0.9890583E+03  0.7818608E-02  0.9320628E-01
       21   -1    0    0  503  502  0.00000000000E+00  0.00000000000E+00  0.87875617257E+03  0.87875617257E+03  0.00000000000E+00 0. -1.
       21   -1    0    0  502  503 -0.00000000000E+00 -0.00000000000E+00 -0.27830139072E+03  0.27830139072E+03  0.00000000000E+00 0.  1.
       39    2    1    2    0    0  0.00000000000E+00 -0.28421709430E-13  0.60045478185E+03  0.11570575633E+04  0.98905826912E+03 0.  0.
       24    2    3    3    0    0  0.34621978262E+03 -0.22799681195E+03 -0.96602436418E+00  0.42206331888E+03  0.79283212597E+02 0.  0.
      -24    2    3    3    0    0 -0.34621978262E+03  0.22799681195E+03  0.60142080622E+03  0.73499424442E+03  0.81601893582E+02 0.  0.
      -13    1    4    4    0    0  0.26840688750E+03 -0.20520566380E+03 -0.21091496036E+02  0.33852100809E+03  0.00000000000E+00 0.  1.
       14    1    4    4    0    0  0.77812895123E+02 -0.22791148144E+02  0.20125471672E+02  0.83542310784E+02  0.00000000000E+00 0. -1.
        3    1    5    5  501    0 -0.33808277657E+03  0.20417732370E+03  0.58109925041E+03  0.70261275405E+03  0.00000000000E+00 0. -1.
       -4    1    5    5    0  501 -0.81370060547E+01  0.23819488250E+02  0.20321555809E+02  0.32381490370E+02  0.14200000000E+01 0.  1.
</event>
<event>
 9   1  0.7335000E-04  0.9971635E+03  0.7818608E-02  0.9311661E-01
       21   -1    0    0  503  502  0.00000000000E+00  0.00000000000E+00  0.12392432898E+04  0.12392432898E+04  0.00000000000E+00 0.  1.
       21   -1    0    0  502  503 -0.00000000000E+00 -0.00000000000E+00 -0.20059319837E+03  0.20059319837E+03  0.00000000000E+00 0. -1.
       39    2    1    2    0    0  0.00000000000E+00  0.28421709430E-13  0.10386500914E+04  0.14398364882E+04  0.99716352734E+03 0.  0.
       24    2    3    3    0    0 -0.19446688327E+03 -0.24024929901E+03 -0.31754475152E+02  0.32281680500E+03  0.87551405097E+02 0.  0.
      -24    2    3    3    0    0  0.19446688327E+03  0.24024929901E+03  0.10704045666E+04  0.11170196832E+04  0.80186919507E+02 0.  0.
      -13    1    4    4    0    0 -0.57886813082E+01 -0.59979350755E+02 -0.79407273130E+01  0.60778997183E+02  0.00000000000E+00 0.  1.
       14    1    4    4    0    0 -0.18867820196E+03 -0.18026994826E+03 -0.23813747839E+02  0.26203780782E+03  0.00000000000E+00 0. -1.
        1    1    5    5  501    0  0.27320612190E+01  0.15954677120E+02  0.14029169839E+03  0.14122243631E+03  0.00000000000E+00 0. -1.
       -2    1    5    5    0  501  0.19173482205E+03  0.22429462189E+03  0.93011286821E+03  0.97579724687E+03  0.00000000000E+00 0.  1.
</event>
<event>
 9   1  0.7335000E-04  0.9976144E+03  0.7818608E-02  0.9311165E-01
       21   -1    0    0  503  502  0.00000000000E+00  0.00000000000E+00  0.35276539436E+03  0.35276539436E+03  0.00000000000E+00 0. -1.
       21   -1    0    0  502  503 -0.00000000000E+00 -0.00000000000E+00 -0.70530906173E+03  0.70530906173E+03  0.00000000000E+00 0.  1.
       39    2    1    2    0    0  0.28421709430E-13  0.00000000000E+00 -0.35254366737E+03  0.10580744561E+04  0.99761441310E+03 0.  0.
       24    2    3    3    0    0 -0.23798719662E+03  0.77859571435E+02 -0.62531631925E+03  0.67834506280E+03  0.80196673766E+02 0.  0.
      -24    2    3    3    0    0  0.23798719662E+03 -0.77859571435E+02  0.27277265188E+03  0.37972939329E+03  0.84199013637E+02 0.  0.
      -13    1    4    4    0    0 -0.95217653707E+02  0.72711286898E+02 -0.27021658773E+03  0.29558473761E+03  0.00000000000E+00 0.  1.
       14    1    4    4    0    0 -0.14276954292E+03  0.51482845364E+01 -0.35509973152E+03  0.38276032519E+03  0.00000000000E+00 0. -1.
        1    1    5    5  501    0  0.12622975149E+03 -0.40346874714E+01  0.16516610757E+03  0.20791842621E+03  0.00000000000E+00 0. -1.
       -2    1    5    5    0  501  0.11175744513E+03 -0.73824883963E+02  0.10760654430E+03  0.17181096709E+03  0.00000000000E+00 0.  1.
</event>
<event>
 9   1  0.7335000E-04  0.1004402E+04  0.7818608E-02  0.9303730E-01
        2   -1    0    0  501    0  0.00000000000E+00  0.00000000000E+00  0.20290368432E+04  0.20290368432E+04  0.00000000000E+00 0. -1.
       -2   -1    0    0    0  501 -0.00000000000E+00 -0.00000000000E+00 -0.12429837512E+03  0.12429837512E+03  0.00000000000E+00 0.  1.
       39    2    1    2    0    0  0.00000000000E+00  0.00000000000E+00  0.19047384681E+04  0.21533352183E+04  0.10044022753E+04 0.  0.
       24    2    3    3    0    0  0.10446730063E+03  0.43799263737E+03  0.13972138900E+04  0.14701020390E+04  0.79008754716E+02 0.  0.
      -24    2    3    3    0    0 -0.10446730063E+03 -0.43799263737E+03  0.50752457810E+03  0.68323317936E+03  0.80469949137E+02 0.  0.
      -13    1    4    4    0    0  0.30473091540E+02  0.29010493758E+03  0.87754220066E+03  0.92475391216E+03  0.00000000000E+00 0.  1.
       14    1    4    4    0    0  0.73994209085E+02  0.14788769979E+03  0.51967168933E+03  0.54534812681E+03  0.00000000000E+00 0. -1.
        3    1    5    5  502    0 -0.58688553773E+02 -0.26514829524E+03  0.24597637500E+03  0.36640461497E+03  0.00000000000E+00 0. -1.
       -4    1    5    5    0  502 -0.45778746853E+02 -0.17284434213E+03  0.26154820310E+03  0.31682856439E+03  0.14200000000E+01 0.  1.
</event>
<event>
 9   1  0.7335000E-04  0.9897370E+03  0.7818608E-02  0.9319873E-01
       21   -1    0    0  503  502  0.00000000000E+00  0.00000000000E+00  0.70675751938E+03  0.70675751938E+03  0.00000000000E+00 0.  1.
       21   -1    0    0  502  503 -0.00000000000E+00 -0.00000000000E+00 -0.34650473275E+03  0.34650473275E+03  0.00000000000E+00 0. -1.
       39    2    1    2    0    0  0.00000000000E+00  0.00000000000E+00  0.36025278663E+03  0.10532622521E+04  0.98973698601E+03 0.  0.
       24    2    3    3    0    0 -0.27461532764E+03 -0.16314633875E+03  0.57326789031E+03  0.66101146521E+03  0.79181923837E+02 0.  0.
      -24    2    3    3    0    0  0.27461532764E+03  0.16314633875E+03 -0.21301510367E+03  0.39225078692E+03  0.80342637625E+02 0.  0.
      -13    1    4    4    0    0 -0.27358720675E+03 -0.15821415605E+03  0.57461814632E+03  0.65579546579E+03  0.00000000000E+00 0.  1.
       14    1    4    4    0    0 -0.10281208927E+01 -0.49321826963E+01 -0.13502560081E+01  0.52159994256E+01  0.00000000000E+00 0. -1.
        3    1    5    5  501    0  0.13440936121E+03  0.92416248799E+02 -0.15447018684E+03  0.22465012363E+03  0.00000000000E+00 0. -1.
       -4    1    5    5    0  501  0.14020596644E+03  0.70730089947E+02 -0.58544916829E+02  0.16760066329E+03  0.14200000000E+01 0.  1.
</event>
<event>
 9   1  0.7335000E-04  0.9979424E+03  0.7818608E-02  0.9310804E-01
       21   -1    0    0  503  502  0.00000000000E+00  0.00000000000E+00  0.14451309567E+03  0.14451309567E+03  0.00000000000E+00 0. -1.
       21   -1    0    0  502  503 -0.00000000000E+00 -0.00000000000E+00 -0.17228354443E+04  0.17228354443E+04  0.00000000000E+00 0.  1.
       39    2    1    2    0    0  0.00000000000E+00  0.00000000000E+00 -0.15783223486E+04  0.18673485400E+04  0.99794245000E+03 0.  0.
       24    2    3    3    0    0 -0.43464830434E+03 -0.22466919628E+03 -0.69247900880E+03  0.85170396276E+03  0.80480223234E+02 0.  0.
      -24    2    3    3    0    0  0.43464830434E+03  0.22466919628E+03 -0.88584333983E+03  0.10156445772E+04  0.86139934166E+02 0.  0.
      -13    1    4    4    0    0 -0.39288441790E+03 -0.19169449470E+03 -0.57138680367E+03  0.71943576818E+03  0.00000000000E+00 0.  1.
       14    1    4    4    0    0 -0.41763886440E+02 -0.32974701575E+02 -0.12109220513E+03  0.13226819458E+03  0.00000000000E+00 0. -1.
        3    1    5    5  501    0  0.43392156673E+03  0.21347459258E+03 -0.87615892793E+03  0.10007566111E+04  0.00000000000E+00 0. -1.
       -4    1    5    5    0  501  0.72673761087E+00  0.11194603703E+02 -0.96844118962E+01  0.14887966060E+02  0.14200000000E+01 0.  1.
</event>
<event>
 9   1  0.7335000E-04  0.9958342E+03  0.7818608E-02  0.9313126E-01
       21   -1    0    0  503  502  0.00000000000E+00  0.00000000000E+00  0.12698165669E+03  0.12698165669E+03  0.00000000000E+00 0.  1.
       21   -1    0    0  502  503 -0.00000000000E+00 -0.00000000000E+00 -0.19524193517E+04  0.19524193517E+04  0.00000000000E+00 0. -1.
       39    2    1    2    0    0  0.00000000000E+00 -0.56843418861E-13 -0.18254376950E+04  0.20794010084E+04  0.99583421077E+03 0.  0.
       24    2    3    3    0    0 -0.19206558069E+03  0.38298324210E+03 -0.14120287331E+04  0.14779992714E+04  0.84210166551E+02 0.  0.
      -24    2    3    3    0    0  0.19206558069E+03 -0.38298324210E+03 -0.41340896191E+03  0.60140173699E+03  0.84921896191E+02 0.  0.
      -13    1    4    4    0    0  0.66322027901E+01  0.20895530502E+02 -0.47156958942E+02  0.52003731457E+02  0.00000000000E+00 0.  1.
       14    1    4    4    0    0 -0.19869778348E+03  0.36208771160E+03 -0.13648717741E+04  0.14259955399E+04  0.00000000000E+00 0. -1.
        3    1    5    5  501    0  0.11371275216E+03 -0.14732380147E+03 -0.20809488609E+03  0.27917445101E+03  0.00000000000E+00 0. -1.
       -4    1    5    5    0  501  0.78352828537E+02 -0.23565944063E+03 -0.20531407582E+03  0.32222728598E+03  0.14200000000E+01 0.  1.
</event>
<event>
 9   1  0.7335000E-04  0.9949331E+03  0.7818608E-02  0.9314120E-01
       21   -1    0    0  503  502  0.00000000000E+00  0.00000000000E+00  0.21373294148E+03  0.21373294148E+03  0.00000000000E+00 0. -1.
       21   -1    0    0  502  503 -0.00000000000E+00 -0.00000000000E+00 -0.11578607297E+04  0.11578607297E+04  0.00000000000E+00 0.  1.
       39    2    1    2    0    0  0.00000000000E+00  0.00000000000E+00 -0.94412778822E+03  0.13715936712E+04  0.99493312254E+03 0.  0.
       24    2    3    3    0    0 -0.37990276299E+03  0.97133751905E+02 -0.64868830569E+02  0.40555380605E+03  0.80652646195E+02 0.  0.
      -24    2    3    3    0    0  0.37990276299E+03 -0.97133751905E+02 -0.87925895765E+03  0.96603986512E+03  0.79847550499E+02 0.  0.
      -13    1    4    4    0    0 -0.27713568652E+03  0.59759235870E+02 -0.81398048739E+02  0.29495931474E+03  0.00000000000E+00 0.  1.
       14    1    4    4    0    0 -0.10276707647E+03  0.37374516035E+02  0.16529218170E+02  0.11059449131E+03  0.00000000000E+00 0. -1.
        1    1    5    5  501    0  0.57176614646E+02  0.12372387886E+02 -0.15276160240E+03  0.16357979218E+03  0.00000000000E+00 0. -1.
       -2    1    5    5    0  501  0.32272614834E+03 -0.10950613979E+03 -0.72649735525E+03  0.80246007294E+03  0.00000000000E+00 0.  1.
</event>
<event>
 9   1  0.7335000E-04  0.9997603E+03  0.7818608E-02  0.9308808E-01
       21   -1    0    0  503  502  0.00000000000E+00  0.00000000000E+00  0.21510187934E+04  0.21510187934E+04  0.00000000000E+00 0.  1.
       21   -1    0    0  502  503 -0.00000000000E+00 -0.00000000000E+00 -0.11616827665E+03  0.11616827665E+03  0.00000000000E+00 0. -1.
       39    2    1    2    0    0  0.00000000000E+00  0.28421709430E-13  0.20348505168E+04  0.22671870701E+04  0.99976026381E+03 0.  0.
       24    2    3    3    0    0 -0.74385710720E+01  0.21482485979E+03  0.20259171236E+04  0.20393888011E+04  0.92528037907E+02 0.  0.
      -24    2    3    3    0    0  0.74385710720E+01 -0.21482485979E+03  0.89333932393E+01  0.22779826900E+03  0.74881193353E+02 0.  0.
      -13    1    4    4    0    0  0.27132165035E+02  0.18727916023E+03  0.16957075984E+04  0.17062338344E+04  0.00000000000E+00 0.  1.
       14    1    4    4    0    0 -0.34570736106E+02  0.27545699565E+02  0.33020952512E+03  0.33315496670E+03  0.00000000000E+00 0. -1.
        1    1    5    5  501    0 -0.16738735077E+02 -0.17190388585E+03  0.28006322933E+02  0.17497281316E+03  0.00000000000E+00 0. -1.
       -2    1    5    5    0  501  0.24177306149E+02 -0.42920973949E+02 -0.19072929694E+02  0.52825455837E+02  0.00000000000E+00 0.  1.
</event>
<event>
 9   1  0.7335000E-04  0.1001313E+04  0.7818608E-02  0.9307106E-01
       -1   -1    0    0    0  501 -0.00000000000E+00  0.00000000000E+00  0.20671435016E+03  0.20671435016E+03  0.00000000000E+00 0.  1.
        1   -1    0    0  501    0  0.00000000000E+00 -0.00000000000E+00 -0.12125762834E+04  0.12125762834E+04  0.00000000000E+00 0. -1.
       39    2    1    2    0    0  0.56843418861E-13  0.00000000000E+00 -0.10058619333E+04  0.14192906336E+04  0.10013129750E+04 0.  0.
       24    2    3    3    0    0  0.35932304946E+03  0.33164700841E+03 -0.60734290928E+03  0.78329680338E+03  0.74737411472E+02 0.  0.
      -24    2    3    3    0    0 -0.35932304946E+03 -0.33164700841E+03 -0.39851902400E+03  0.63599383022E+03  0.81042874611E+02 0.  0.
      -13    1    4    4    0    0  0.93197739920E+02  0.55350758410E+02 -0.10199351092E+03  0.14883615640E+03  0.00000000000E+00 0.  1.
       14    1    4    4    0    0  0.26612530954E+03  0.27629625000E+03 -0.50534939836E+03  0.63446064698E+03  0.00000000000E+00 0. -1.
        1    1    5    5  502    0 -0.12116870001E+03 -0.85241068240E+02 -0.16249472517E+03  0.21989185816E+03  0.00000000000E+00 0. -1.
       -2    1    5    5    0  502 -0.23815434946E+03 -0.24640594017E+03 -0.23602429883E+03  0.41610197207E+03  0.00000000000E+00 0.  1.
</event>
<event>
 9   1  0.7335000E-04  0.1001992E+04  0.7818608E-02  0.9306362E-01
       21   -1    0    0  503  502  0.00000000000E+00  0.00000000000E+00  0.19949335216E+04  0.19949335216E+04  0.00000000000E+00 0.  1.
       21   -1    0    0  502  503 -0.00000000000E+00 -0.00000000000E+00 -0.12581730433E+03  0.12581730433E+03  0.00000000000E+00 0. -1.
       39    2    1    2    0    0  0.00000000000E+00  0.14210854715E-13  0.18691162173E+04  0.21207508259E+04  0.10019923313E+04 0.  0.
       24    2    3    3    0    0 -0.15977297752E+03 -0.75110940395E+02  0.19122850896E+04  0.19220045234E+04  0.78090115638E+02 0.  0.
      -24    2    3    3    0    0  0.15977297752E+03  0.75110940395E+02 -0.43168872317E+02  0.19874630259E+03  0.80420666131E+02 0.  0.
      -13    1    4    4    0    0 -0.66457546440E+02 -0.70902247012E+02  0.11274007337E+04  0.11315812602E+04  0.00000000000E+00 0.  1.
       14    1    4    4    0    0 -0.93315431085E+02 -0.42086933834E+01  0.78488435595E+03  0.79042326319E+03  0.00000000000E+00 0. -1.
        3    1    5    5  501    0  0.12599692644E+03  0.32548196487E+02 -0.13065587449E+01  0.13013960836E+03  0.00000000000E+00 0. -1.
       -4    1    5    5    0  501  0.33776051082E+02  0.42562743908E+02 -0.41862313572E+02  0.68606694231E+02  0.14200000000E+01 0.  1.
</event>
<event>
 9   1  0.7335000E-04  0.1001211E+04  0.7818608E-02  0.9307217E-01
       21   -1    0    0  503  502  0.00000000000E+00  0.00000000000E+00  0.25124558940E+03  0.25124558940E+03  0.00000000000E+00 0.  1.
       21   -1    0    0  502  503 -0.00000000000E+00 -0.00000000000E+00 -0.99745439145E+03  0.99745439145E+03  0.00000000000E+00 0. -1.
       39    2    1    2    0    0  0.00000000000E+00 -0.28421709430E-13 -0.74620880205E+03  0.12486999809E+04  0.10012112993E+04 0.  0.
       24    2    3    3    0    0 -0.27506719512E+03  0.20188123898E+03 -0.81659689530E+03  0.88928354851E+03  0.87044492969E+02 0.  0.
      -24    2    3    3    0    0  0.27506719512E+03 -0.20188123898E+03  0.70388093243E+02  0.35941643235E+03  0.88361143553E+02 0.  0.
      -13    1    4    4    0    0 -0.58439448670E+02  0.42833464327E+02 -0.96509986314E+02  0.12068161536E+03  0.00000000000E+00 0.  1.
       14    1    4    4    0    0 -0.21662774645E+03  0.15904777465E+03 -0.72008690898E+03  0.76860193315E+03  0.00000000000E+00 0. -1.
        3    1    5    5  501    0  0.12287096865E+02 -0.36347933067E+01  0.23704845902E+02  0.26946320547E+02  0.00000000000E+00 0. -1.
       -4    1    5    5    0  501  0.26278009825E+03 -0.19824644567E+03  0.46683247341E+02  0.33247011180E+03  0.14200000000E+01 0.  1.
</event>
<event>
 9   1  0.7335000E-04  0.9916422E+03  0.7818608E-02  0.9317759E-01
       21   -1    0    0  503  502  0.00000000000E+00  0.00000000000E+00  0.28480900809E+03  0.28480900809E+03  0.00000000000E+00 0. -1.
       21   -1    0    0  502  503 -0.00000000000E+00 -0.00000000000E+00 -0.86316991894E+03  0.86316991894E+03  0.00000000000E+00 0.  1.
       39    2    1    2    0    0  0.56843418861E-13  0.00000000000E+00 -0.57836091085E+03  0.11479789270E+04  0.99164221053E+03 0.  0.
       24    2    3    3    0    0 -0.48515972880E+03  0.15021182404E+02 -0.36060096195E+03  0.60999112234E+03  0.80315111930E+02 0.  0.
      -24    2    3    3    0    0  0.48515972880E+03 -0.15021182404E+02 -0.21775994890E+03  0.53798780469E+03  0.80036768303E+02 0.  0.
      -13    1    4    4    0    0 -0.41424513086E+03 -0.65846190153E+01 -0.33052402309E+03  0.52998916544E+03  0.00000000000E+00 0.  1.
       14    1    4    4    0    0 -0.70914597940E+02  0.21605801419E+02 -0.30076938860E+02  0.80001956895E+02  0.00000000000E+00 0. -1.
        1    1    5    5  501    0  0.44304089405E+03 -0.22581990649E+02 -0.17325704665E+03  0.47624907802E+03  0.00000000000E+00 0. -1.
       -2    1    5    5    0  501  0.42118834748E+02  0.75608082450E+01 -0.44502902249E+02  0.61738726667E+02  0.00000000000E+00 0.  1.
</event>
<event>
 9   1  0.7335000E-04  0.9948501E+03  0.7818608E-02  0.9314211E-01
       21   -1    0    0  503  502  0.00000000000E+00  0.00000000000E+00  0.88038010324E+03  0.88038010324E+03  0.00000000000E+00 0. -1.
       21   -1    0    0  502  503 -0.00000000000E+00 -0.00000000000E+00 -0.28105097960E+03  0.28105097960E+03  0.00000000000E+00 0.  1.
       39    2    1    2    0    0 -0.28421709430E-13 -0.14210854715E-13  0.59932912365E+03  0.11614310828E+04  0.99485012024E+03 0.  0.
       24    2    3    3    0    0  0.20532119397E+03  0.72971446866E+02 -0.21326998228E+03  0.31588358909E+03  0.82563501396E+02 0.  0.
      -24    2    3    3    0    0 -0.20532119397E+03 -0.72971446866E+02  0.81259910593E+03  0.84554749375E+03  0.84567325114E+02 0.  0.
      -13    1    4    4    0    0  0.19990835615E+03  0.46104644347E+02 -0.18142113275E+03  0.27386605576E+03  0.00000000000E+00 0.  1.
       14    1    4    4    0    0  0.54128378240E+01  0.26866802519E+02 -0.31848849533E+02  0.42017533334E+02  0.00000000000E+00 0. -1.
        3    1    5    5  501    0 -0.20770606731E+03 -0.80702055957E+02  0.80040796855E+03  0.83084748802E+03  0.00000000000E+00 0. -1.
       -4    1    5    5    0  501  0.23848733421E+01  0.77306090907E+01  0.12191137379E+02  0.14700005727E+02  0.14200000000E+01 0.  1.
</event>
<event>
 8   1  0.7335000E-04  0.7754347E+03  0.7818608E-02  0.9596271E-01
       21   -1    0    0  503  502  0.00000000000E+00  0.00000000000E+00  0.84888407603E+02  0.84888407603E+02  0.00000000000E+00 0.  1.
       21   -1    0    0  502  503 -0.00000000000E+00 -0.00000000000E+00 -0.17708513171E+04  0.17708513171E+04  0.00000000000E+00 0. -1.
       24    2    1    2    0    0  0.28513044285E+02 -0.10048003719E+03 -0.17100750948E+04  0.17149997896E+04  0.77189485986E+02 0.  0.
      -24    2    1    2    0    0 -0.28513044285E+02  0.10048003719E+03  0.24112185323E+02  0.14073993513E+03  0.91198137548E+02 0.  0.
      -13    1    3    3    0    0  0.12729731147E+02  0.10993121004E+02 -0.17759454796E+03  0.17838923238E+03  0.00000000000E+00 0.  1.
       14    1    3    3    0    0  0.15783313137E+02 -0.11147315819E+03 -0.15324805468E+04  0.15366105572E+04  0.00000000000E+00 0. -1.
        3    1    4    4  501    0  0.94642690452E+01 -0.58931279617E+01  0.25438044833E+02  0.27774007105E+02  0.00000000000E+00 0. -1.
       -4    1    4    4    0  501 -0.37977313330E+02  0.10637316515E+03 -0.13258595095E+01  0.11296592802E+03  0.14200000000E+01 0.  1.
</event>
<event>
 9   1  0.7335000E-04  0.9984039E+03  0.7818608E-02  0.9310297E-01
       21   -1    0    0  503  502  0.00000000000E+00  0.00000000000E+00  0.16771325978E+04  0.16771325978E+04  0.00000000000E+00 0. -1.
       21   -1    0    0  502  503 -0.00000000000E+00 -0.00000000000E+00 -0.14858848143E+03  0.14858848143E+03  0.00000000000E+00 0.  1.
       39    2    1    2    0    0  0.00000000000E+00  0.28421709430E-13  0.15285441164E+04  0.18257210792E+04  0.99840389798E+03 0.  0.
       24    2    3    3    0    0 -0.38987409062E+03 -0.24898352504E+03  0.10732326619E+04  0.11717901613E+04  0.85259799506E+02 0.  0.
      -24    2    3    3    0    0  0.38987409062E+03  0.24898352504E+03  0.45531145452E+03  0.65393091793E+03  0.79514291343E+02 0.  0.
      -13    1    4    4    0    0 -0.18346440883E+03 -0.87092081568E+02  0.38543208316E+03  0.43566284063E+03  0.00000000000E+00 0.  1.
       14    1    4    4    0    0 -0.20640968179E+03 -0.16189144347E+03  0.68780057870E+03  0.73612732069E+03  0.00000000000E+00 0. -1.
        3    1    5    5  501    0  0.31022893313E+02  0.47055254003E+02  0.71328564366E+02  0.90908640587E+02  0.00000000000E+00 0. -1.
       -4    1    5    5    0  501  0.35885119730E+03  0.20192827104E+03  0.38398289015E+03  0.56302227734E+03  0.14200000000E+01 0.  1.
</event>
<event>
 9   1  0.7335000E-04  0.9997135E+03  0.7818608E-02  0.9308859E-01
        1   -1    0    0  501    0  0.00000000000E+00  0.00000000000E+00  0.36392847304E+03  0.36392847304E+03  0.00000000000E+00 0.  1.
       -1   -1    0    0    0  501 -0.00000000000E+00 -0.00000000000E+00 -0.68655461780E+03  0.68655461780E+03  0.00000000000E+00 0. -1.
       39    2    1    2    0    0 -0.11368683772E-12  0.00000000000E+00 -0.32262614476E+03  0.10504830908E+04  0.99971350638E+03 0.  0.
       24    2    3    3    0    0 -0.41626814317E+03 -0.17907869780E+03 -0.36652456693E+03  0.58831150891E+03  0.80136298421E+02 0.  0.
      -24    2    3    3    0    0  0.41626814317E+03  0.17907869780E+03  0.43898422173E+02  0.46217158193E+03  0.79543401054E+02 0.  0.
      -13    1    4    4    0    0 -0.18414850236E+02  0.43530402114E+01 -0.31673885332E+02  0.36895672922E+02  0.00000000000E+00 0.  1.
       14    1    4    4    0    0 -0.39785329293E+03 -0.18343173802E+03 -0.33485068160E+03  0.55141583598E+03  0.00000000000E+00 0. -1.
        1    1    5    5  502    0  0.48126276209E+02 -0.39345012863E+01  0.12341559075E+02  0.49839069439E+02  0.00000000000E+00 0. -1.
       -2    1    5    5    0  502  0.36814186696E+03  0.18301319909E+03  0.31556863098E+02  0.41233251249E+03  0.00000000000E+00 0.  1.
</event>
<event>
 9   1  0.7335000E-04  0.9754819E+03  0.7818608E-02  0.9335852E-01
        2   -1    0    0  501    0  0.00000000000E+00  0.00000000000E+00  0.22026862020E+04  0.22026862020E+04  0.00000000000E+00 0.  1.
       -2   -1    0    0    0  501 -0.00000000000E+00 -0.00000000000E+00 -0.10800049945E+03  0.10800049945E+03  0.00000000000E+00 0. -1.
       39    2    1    2    0    0  0.00000000000E+00 -0.11368683772E-12  0.20946857025E+04  0.23106867014E+04  0.97548185006E+03 0.  0.
       24    2    3    3    0    0 -0.97629883641E+02  0.43818324719E+03  0.63865837222E+03  0.78486219670E+03  0.81166490062E+02 0.  0.
      -24    2    3    3    0    0  0.97629883641E+02 -0.43818324719E+03  0.14560273303E+04  0.15258245047E+04  0.81170686454E+02 0.  0.
      -13    1    4    4    0    0 -0.45754372971E+02  0.34229553175E+03  0.45391241031E+03  0.57034741161E+03  0.00000000000E+00 0.  1.
       14    1    4    4    0    0 -0.51875510670E+02  0.95887715440E+02  0.18474596191E+03  0.21451478509E+03  0.00000000000E+00 0. -1.
        3    1    5    5  502    0  0.16554784989E+02 -0.16413681611E+03  0.65084361982E+03  0.67142562713E+03  0.00000000000E+00 0. -1.
       -4    1    5    5    0  502  0.81075098652E+02 -0.27404643108E+03  0.80518371046E+03  0.85439887758E+03  0.14200000000E+01 0.  1.
</event>
<event>
 9   1  0.7335000E-04  0.1009037E+04  0.7818608E-02  0.9298689E-01
       -1   -1    0    0    0  501 -0.00000000000E+00  0.00000000000E+00  0.20443757446E+03  0.20443757446E+03  0.00000000000E+00 0.  1.
        1   -1    0    0  501    0  0.00000000000E+00 -0.00000000000E+00 -0.12450686976E+04  0.12450686976E+04  0.00000000000E+00 0. -1.
       39    2    1    2    0    0  0.00000000000E+00  0.71054273576E-14 -0.10406311232E+04  0.14495062721E+04  0.10090368171E+04 0.  0.
       24    2    3    3    0    0  0.27163702297E+03  0.41009689261E+02 -0.11167755242E+04  0.11529516754E+04  0.81495567882E+02 0.  0.
      -24    2    3    3    0    0 -0.27163702297E+03 -0.41009689261E+02  0.76144401031E+02  0.29655459666E+03  0.81720206376E+02 0.  0.
      -13    1    4    4    0    0  0.20978358690E+03  0.16859056040E+02 -0.70114077624E+03  0.73204628898E+03  0.00000000000E+00 0.  1.
       14    1    4    4    0    0  0.61853436072E+02  0.24150633221E+02 -0.41563474796E+03  0.42090538646E+03  0.00000000000E+00 0. -1.
        1    1    5    5  502    0 -0.52042785224E+02  0.24349682776E+02  0.17266596312E+02  0.59995782297E+02  0.00000000000E+00 0. -1.
       -2    1    5    5    0  502 -0.21959423775E+03 -0.65359372037E+02  0.58877804719E+02  0.23655881436E+03  0.00000000000E+00 0.  1.
</event>
<event>
 9   1  0.7335000E-04  0.1004178E+04  0.7818608E-02  0.9303975E-01
       21   -1    0    0  503  502  0.00000000000E+00  0.00000000000E+00  0.33676434561E+03  0.33676434561E+03  0.00000000000E+00 0.  1.
       21   -1    0    0  502  503 -0.00000000000E+00 -0.00000000000E+00 -0.74857425502E+03  0.74857425502E+03  0.00000000000E+00 0. -1.
       39    2    1    2    0    0 -0.56843418861E-13 -0.56843418861E-13 -0.41180990942E+03  0.10853386006E+04  0.10041775125E+04 0.  0.
       24    2    3    3    0    0  0.32123091997E+03  0.34293971642E+03 -0.35433816231E+02  0.47824261262E+03  0.81630191370E+02 0.  0.
      -24    2    3    3    0    0 -0.32123091997E+03 -0.34293971642E+03 -0.37637609319E+03  0.60709598802E+03  0.78164071673E+02 0.  0.
      -13    1    4    4    0    0  0.32627804519E+03  0.33758264499E+03 -0.35960606038E+02  0.47086364285E+03  0.00000000000E+00 0.  1.
       14    1    4    4    0    0 -0.50471252184E+01  0.53570714294E+01  0.52678980657E+00  0.73789697635E+01  0.00000000000E+00 0. -1.
        3    1    5    5  501    0 -0.12691617538E+03 -0.19153752753E+03 -0.19123443551E+03  0.29893970855E+03  0.00000000000E+00 0. -1.
       -4    1    5    5    0  501 -0.19431474459E+03 -0.15140218889E+03 -0.18514165768E+03  0.30815627947E+03  0.14200000000E+01 0.  1.
</event>
<event>
 9   1  0.7335000E-04  0.9864379E+03  0.7818608E-02  0.9323546E-01
       21   -1    0    0  503  502  0.00000000000E+00  0.00000000000E+00  0.33651324092E+03  0.33651324092E+03  0.00000000000E+00 0.  1.
       21   -1    0    0  502  503 -0.00000000000E+00 -0.00000000000E+00 -0.72289857836E+03  0.72289857836E+03  0.00000000000E+00 0. -1.
       39    2    1    2    0    0  0.00000000000E+00  0.00000000000E+00 -0.38638533744E+03  0.10594118193E+04  0.98643792195E+03 0.  0.
       24    2    3    3    0    0  0.61752098442E+02 -0.18075225910E+02  0.32418142146E+03  0.33962743011E+03  0.78186711232E+02 0.  0.
      -24    2    3    3    0    0 -0.61752098442E+02  0.18075225910E+02 -0.71056675890E+03  0.71978438917E+03  0.95102116644E+02 0.  0.
      -13    1    4    4    0    0  0.51420003953E+02  0.15829120904E+02  0.26688825581E+03  0.27225708248E+03  0.00000000000E+00 0.  1.
       14    1    4    4    0    0  0.10332094490E+02 -0.33904346813E+02  0.57293165651E+02  0.67370347629E+02  0.00000000000E+00 0. -1.
        1    1    5    5  501    0 -0.83084134317E+02  0.11727700467E+00 -0.43926295316E+03  0.44705137193E+03  0.00000000000E+00 0. -1.
       -2    1    5    5    0  501  0.21332035875E+02  0.17957948905E+02 -0.27130380574E+03  0.27273301724E+03  0.00000000000E+00 0.  1.
</event>
<event>
 9   1  0.7335000E-04  0.9915964E+03  0.7818608E-02  0.9317810E-01
       21   -1    0    0  503  502  0.00000000000E+00  0.00000000000E+00  0.24954293470E+03  0.24954293470E+03  0.00000000000E+00 0. -1.
       21   -1    0    0  502  503 -0.00000000000E+00 -0.00000000000E+00 -0.98506444230E+03  0.98506444230E+03  0.00000000000E+00 0.  1.
       39    2    1    2    0    0 -0.56843418861E-13 -0.14210854715E-13 -0.73552150760E+03  0.12346073770E+04  0.99159643363E+03 0.  0.
       24    2    3    3    0    0 -0.36093471418E+03  0.11757159315E+03 -0.75087511344E+03  0.84512584149E+03  0.79544355897E+02 0.  0.
      -24    2    3    3    0    0  0.36093471418E+03 -0.11757159315E+03  0.15353605835E+02  0.38948153551E+03  0.85809008121E+02 0.  0.
      -13    1    4    4    0    0 -0.27852012760E+03  0.70761080727E+02 -0.49649273951E+03  0.57365985776E+03  0.00000000000E+00 0.  1.
       14    1    4    4    0    0 -0.82414586582E+02  0.46810512421E+02 -0.25438237393E+03  0.27146598372E+03  0.00000000000E+00 0. -1.
        1    1    5    5  501    0  0.26031610992E+03 -0.12378159732E+03  0.15640512725E+02  0.28867106983E+03  0.00000000000E+00 0. -1.
       -2    1    5    5    0  501  0.10061860426E+03  0.62100041680E+01 -0.28690688997E+00  0.10081046568E+03  0.00000000000E+00 0.  1.
</event>
<event>
 9   1  0.7335000E-04  0.1005004E+04  0.7818608E-02  0.9303073E-01
       21   -1    0    0  503  502  0.00000000000E+00  0.00000000000E+00  0.17707650064E+04  0.17707650064E+04  0.00000000000E+00 0. -1.
       21   -1    0    0  502  503 -0.00000000000E+00 -0.00000000000E+00 -0.14259841087E+03  0.14259841087E+03  0.00000000000E+00 0.  1.
       39    2    1    2    0    0  0.00000000000E+00  0.00000000000E+00  0.16281665956E+04  0.19133634173E+04  0.10050040317E+04 0.  0.
       24    2    3    3    0    0  0.90341182917E+02 -0.24081576960E+03  0.16208028906E+04  0.16431344599E+04  0.82067526646E+02 0.  0.
      -24    2    3    3    0    0 -0.90341182917E+02  0.24081576960E+03  0.73637049902E+01  0.27022895743E+03  0.82557259298E+02 0.  0.
      -13    1    4    4    0    0  0.25251407318E+01 -0.50104255111E+02  0.52553060933E+03  0.52791972312E+03  0.00000000000E+00 0.  1.
       14    1    4    4    0    0  0.87816042186E+02 -0.19071151449E+03  0.10952722812E+04  0.11152147368E+04  0.00000000000E+00 0. -1.
        1    1    5    5  501    0 -0.30677430772E+02  0.30119890852E+02 -0.23642564142E+02  0.49064074667E+02  0.00000000000E+00 0. -1.
       -2    1    5    5    0  501 -0.59663752145E+02  0.21069587875E+03  0.31006269132E+02  0.22116488276E+03  0.00000000000E+00 0.  1.
</event>
<event>
 9   1  0.7335000E-04  0.1062699E+04  0.7818608E-02  0.9242331E-01
        2   -1    0    0  501    0  0.00000000000E+00  0.00000000000E+00  0.95961681462E+03  0.95961681462E+03  0.00000000000E+00 0.  1.
       -2   -1    0    0    0  501 -0.00000000000E+00 -0.00000000000E+00 -0.29421331698E+03  0.29421331698E+03  0.00000000000E+00 0. -1.
       39    2    1    2    0    0  0.28421709430E-13  0.00000000000E+00  0.66540349764E+03  0.12538301316E+04  0.10626985387E+04 0.  0.
       24    2    3    3    0    0  0.17113488777E+03  0.27131435657E+03 -0.15794668227E+03  0.36641031665E+03  0.80067070706E+02 0.  0.
      -24    2    3    3    0    0 -0.17113488777E+03 -0.27131435657E+03  0.82335017990E+03  0.88741981495E+03  0.81913242652E+02 0.  0.
      -13    1    4    4    0    0  0.99492664632E+02  0.15615205541E+03 -0.13430820539E+03  0.22873772920E+03  0.00000000000E+00 0.  1.
       14    1    4    4    0    0  0.71642223135E+02  0.11516230117E+03 -0.23638476878E+02  0.13767258745E+03  0.00000000000E+00 0. -1.
        1    1    5    5  502    0 -0.20206060965E+02 -0.16159257222E+02  0.25725331508E+02  0.36485602296E+02  0.00000000000E+00 0. -1.
       -2    1    5    5    0  502 -0.15092882680E+03 -0.25515509935E+03  0.79762484839E+03  0.85093421265E+03  0.00000000000E+00 0.  1.
</event>
<event>
 9   1  0.7335000E-04  0.1010530E+04  0.7818608E-02  0.9297071E-01
        2   -1    0    0  501    0  0.00000000000E+00  0.00000000000E+00  0.76564168630E+03  0.76564168630E+03  0.00000000000E+00 0. -1.
       -2   -1    0    0    0  501 -0.00000000000E+00 -0.00000000000E+00 -0.33343596008E+03  0.33343596008E+03  0.00000000000E+00 0.  1.
       39    2    1    2    0    0  0.00000000000E+00  0.00000000000E+00  0.43220572622E+03  0.10990776464E+04  0.10105295063E+04 0.  0.
       24    2    3    3    0    0  0.30869072536E+03  0.59266785923E+02  0.63731189285E+03  0.71529898666E+03  0.81753750430E+02 0.  0.
      -24    2    3    3    0    0 -0.30869072536E+03 -0.59266785923E+02 -0.20510616664E+03  0.38377865972E+03  0.80093721542E+02 0.  0.
      -13    1    4    4    0    0  0.14830976125E+02  0.24478197649E+01  0.92257697576E+02  0.93474234078E+02  0.00000000000E+00 0.  1.
       14    1    4    4    0    0  0.29385974924E+03  0.56818966158E+02  0.54505419528E+03  0.62182475258E+03  0.00000000000E+00 0. -1.
        1    1    5    5  502    0 -0.14584379676E+02  0.13888874699E+02 -0.54779342061E+01  0.20871337621E+02  0.00000000000E+00 0. -1.
       -2    1    5    5    0  502 -0.29410634569E+03 -0.73155660621E+02 -0.19962823243E+03  0.36290732210E+03  0.00000000000E+00 0.  1.
</event>
<event>
 9   1  0.7335000E-04  0.1003975E+04  0.7818608E-02  0.9304196E-01
       21   -1    0    0  503  502  0.00000000000E+00  0.00000000000E+00  0.17103210424E+03  0.17103210424E+03  0.00000000000E+00 0. -1.
       21   -1    0    0  502  503 -0.00000000000E+00 -0.00000000000E+00 -0.14733565298E+04  0.14733565298E+04  0.00000000000E+00 0.  1.
       39    2    1    2    0    0 -0.56843418861E-13 -0.56843418861E-13 -0.13023244256E+04  0.16443886341E+04  0.10039746363E+04 0.  0.
       24    2    3    3    0    0 -0.28249637941E+03 -0.27409716083E+03 -0.11446095587E+04  0.12130570189E+04  0.80267248202E+02 0.  0.
      -24    2    3    3    0    0  0.28249637941E+03  0.27409716083E+03 -0.15771486684E+03  0.43133161519E+03  0.78990664542E+02 0.  0.
      -13    1    4    4    0    0 -0.18167111270E+03 -0.15080241878E+03 -0.78538992860E+03  0.82011164035E+03  0.00000000000E+00 0.  1.
       14    1    4    4    0    0 -0.10082526671E+03 -0.12329474205E+03 -0.35921963015E+03  0.39294537853E+03  0.00000000000E+00 0. -1.
        3    1    5    5  501    0  0.24921593852E+03  0.26434842992E+03 -0.15906258647E+03  0.39659750734E+03  0.00000000000E+00 0. -1.
       -4    1    5    5    0  501  0.33280440890E+02  0.97487309118E+01  0.13477196224E+01  0.34734107854E+02  0.14200000000E+01 0.  1.
</event>
<event>
 9   1  0.7335000E-04  0.1006097E+04  0.7818608E-02  0.9301883E-01
       21   -1    0    0  503  502  0.00000000000E+00  0.00000000000E+00  0.11762073080E+04  0.11762073080E+04  0.00000000000E+00 0.  1.
       21   -1    0    0  502  503 -0.00000000000E+00 -0.00000000000E+00 -0.21514712681E+03  0.21514712681E+03  0.00000000000E+00 0. -1.
       39    2    1    2    0    0  0.00000000000E+00  0.00000000000E+00  0.96106018123E+03  0.13913544349E+04  0.10060966611E+04 0.  0.
       24    2    3    3    0    0 -0.28939371907E+03 -0.28460528589E+03  0.87685264810E+03  0.96963233143E+03  0.81039486034E+02 0.  0.
      -24    2    3    3    0    0  0.28939371907E+03  0.28460528589E+03  0.84207533130E+02  0.42172210342E+03  0.77522451486E+02 0.  0.
      -13    1    4    4    0    0 -0.92529800527E+02 -0.52975406871E+02  0.28470255177E+03  0.30401266537E+03  0.00000000000E+00 0.  1.
       14    1    4    4    0    0 -0.19686391854E+03 -0.23162987901E+03  0.59215009633E+03  0.66561966607E+03  0.00000000000E+00 0. -1.
        3    1    5    5  501    0  0.19003828169E+03  0.19054004681E+03  0.17981006803E+02  0.26970979691E+03  0.00000000000E+00 0. -1.
       -4    1    5    5    0  501  0.99355437385E+02  0.94065239079E+02  0.66226526328E+02  0.15201230651E+03  0.14200000000E+01 0.  1.
</event>
<event>
 9   1  0.7335000E-04  0.9906109E+03  0.7818608E-02  0.9318903E-01
       21   -1    0    0  503  502  0.00000000000E+00  0.00000000000E+00  0.91802995541E+03  0.91802995541E+03  0.00000000000E+00 0.  1.
       21   -1    0    0  502  503 -0.00000000000E+00 -0.00000000000E+00 -0.26723254319E+03  0.26723254319E+03  0.00000000000E+00 0. -1.
       39    2    1    2    0    0  0.71054273576E-14  0.00000000000E+00  0.65079741222E+03  0.11852624986E+04  0.99061088165E+03 0.  0.
       24    2    3    3    0    0 -0.23068629575E+02  0.22254543797E+03 -0.19433925113E+03  0.30729924304E+03  0.81280050521E+02 0.  0.
      -24    2    3    3    0    0  0.23068629575E+02 -0.22254543797E+03  0.84513666335E+03  0.87796325557E+03  0.80652741773E+02 0.  0.
      -13    1    4    4    0    0  0.21194475390E+02  0.13791105059E+03 -0.90998972185E+02  0.16658174150E+03  0.00000000000E+00 0.  1.
       14    1    4    4    0    0 -0.44263104964E+02  0.84634387380E+02 -0.10334027894E+03  0.14071750154E+03  0.00000000000E+00 0. -1.
        3    1    5    5  501    0  0.29898617254E+02 -0.48534455925E+02  0.31014869699E+03  0.31534383610E+03  0.00000000000E+00 0. -1.
       -4    1    5    5    0  501 -0.68299876789E+01 -0.17401098205E+03  0.53498796636E+03  0.56261941946E+03  0.14200000000E+01 0.  1.
</event>
<event>
 9   1  0.7335000E-04  0.1003753E+04  0.7818608E-02  0.9304438E-01
       21   -1    0    0  503  502  0.00000000000E+00  0.00000000000E+00  0.40251652422E+03  0.40251652422E+03  0.00000000000E+00 0.  1.
       21   -1    0    0  502  503 -0.00000000000E+00 -0.00000000000E+00 -0.62576308649E+03  0.62576308649E+03  0.00000000000E+00 0. -1.
       39    2    1    2    0    0  0.00000000000E+00  0.00000000000E+00 -0.22324656227E+03  0.10282796107E+04  0.10037529229E+04 0.  0.
       24    2    3    3    0    0  0.15114272160E+03 -0.26199787516E+03  0.28953646990E+03  0.42791756877E+03  0.88289690088E+02 0.  0.
      -24    2    3    3    0    0 -0.15114272160E+03  0.26199787516E+03 -0.51278303217E+03  0.60036204194E+03  0.77466989372E+02 0.  0.
      -13    1    4    4    0    0  0.66066201988E+02 -0.19177368407E+03  0.16434918093E+03  0.26106041872E+03  0.00000000000E+00 0.  1.
       14    1    4    4    0    0  0.85076519616E+02 -0.70224191088E+02  0.12518728896E+03  0.16685715005E+03  0.00000000000E+00 0. -1.
        3    1    5    5  501    0 -0.60160383064E+02  0.17975211433E+03 -0.30769368453E+03  0.36139382645E+03  0.00000000000E+00 0. -1.
       -4    1    5    5    0  501 -0.90982338540E+02  0.82245760832E+02 -0.20508934764E+03  0.23896821549E+03  0.14200000000E+01 0.  1.
</event>
<event>
 9   1  0.7335000E-04  0.1005334E+04  0.7818608E-02  0.9302714E-01
        1   -1    0    0  501    0  0.00000000000E+00  0.00000000000E+00  0.44015846335E+03  0.44015846335E+03  0.00000000000E+00 0. -1.
       -1   -1    0    0    0  501 -0.00000000000E+00 -0.00000000000E+00 -0.57405227684E+03  0.57405227684E+03  0.00000000000E+00 0.  1.
       39    2    1    2    0    0 -0.11368683772E-12  0.00000000000E+00 -0.13389381350E+03  0.10142107402E+04  0.10053337119E+04 0.  0.
       24    2    3    3    0    0 -0.44810124882E+03  0.25660472113E+02 -0.27983430884E+03  0.53586140128E+03  0.85947728015E+02 0.  0.
      -24    2    3    3    0    0  0.44810124882E+03 -0.25660472113E+02  0.14594049535E+03  0.47834933892E+03  0.77886281437E+02 0.  0.
      -13    1    4    4    0    0 -0.29172237779E+03 -0.20898901889E+02 -0.19918238056E+03  0.35385354390E+03  0.00000000000E+00 0.  1.
       14    1    4    4    0    0 -0.15637887103E+03  0.46559374002E+02 -0.80651928278E+02  0.18200785738E+03  0.00000000000E+00 0. -1.
        3    1    5    5  502    0  0.34108882322E+03 -0.48303553904E+02  0.12796500674E+03  0.36749130819E+03  0.00000000000E+00 0. -1.
       -4    1    5    5    0  502  0.10701242560E+03  0.22643081791E+02  0.17975488609E+02  0.11085803073E+03  0.14200000000E+01 0.  1.
</event>
<event>
 9   1  0.7335000E-04  0.9894484E+03  0.7818608E-02  0.9320194E-01
       21   -1    0    0  503  502  0.00000000000E+00  0.00000000000E+00  0.10751368818E+04  0.10751368818E+04  0.00000000000E+00 0. -1.
       21   -1    0    0  502  503 -0.00000000000E+00 -0.00000000000E+00 -0.22764734376E+03  0.22764734376E+03  0.00000000000E+00 0.  1.
       39    2    1    2    0    0  0.00000000000E+00 -0.71054273576E-14  0.84748953801E+03  0.13027842255E+04  0.98944844294E+03 0.  0.
       24    2    3    3    0    0 -0.47868522091E+03  0.61728903326E+02  0.51924556456E+03  0.71354384897E+03  0.81110232757E+02 0.  0.
      -24    2    3    3    0    0  0.47868522091E+03 -0.61728903326E+02  0.32824397345E+03  0.58924037655E+03  0.80685296243E+02 0.  0.
      -13    1    4    4    0    0 -0.35430506747E+02 -0.16818893198E+02  0.39279363998E+02  0.55507336568E+02  0.00000000000E+00 0.  1.
       14    1    4    4    0    0 -0.44325471417E+03  0.78547796524E+02  0.47996620056E+03  0.65803651240E+03  0.00000000000E+00 0. -1.
        1    1    5    5  501    0  0.16564794647E+03 -0.31345905897E+02  0.16061100148E+03  0.23284694927E+03  0.00000000000E+00 0. -1.
       -2    1    5    5    0  501  0.31303727444E+03 -0.30382997429E+02  0.16763297197E+03  0.35639342728E+03  0.00000000000E+00 0.  1.
</event>
<event>
 9   1  0.7335000E-04  0.1003636E+04  0.7818608E-02  0.9304566E-01
       21   -1    0    0  503  502  0.00000000000E+00  0.00000000000E+00  0.83055235674E+03  0.83055235674E+03  0.00000000000E+00 0.  1.
       21   -1    0    0  502  503 -0.00000000000E+00 -0.00000000000E+00 -0.30319717237E+03  0.30319717237E+03  0.00000000000E+00 0. -1.
       39    2    1    2    0    0  0.00000000000E+00  0.00000000000E+00  0.52735518437E+03  0.11337495291E+04  0.10036356432E+04 0.  0.
       24    2    3    3    0    0  0.14478872649E+03 -0.93730617127E+02  0.78829029899E+03  0.81127348026E+03  0.83748793330E+02 0.  0.
      -24    2    3    3    0    0 -0.14478872649E+03  0.93730617127E+02 -0.26093511462E+03  0.32247604885E+03  0.78450392811E+02 0.  0.
      -13    1    4    4    0    0  0.12804074885E+03 -0.10871575459E+03  0.72186469408E+03  0.74114923276E+03  0.00000000000E+00 0.  1.
       14    1    4    4    0    0  0.16747977640E+02  0.14985137459E+02  0.66425604914E+02  0.70124247503E+02  0.00000000000E+00 0. -1.
        1    1    5    5  501    0 -0.90134237015E+02  0.94366215645E+02 -0.21289521012E+03  0.24970689584E+03  0.00000000000E+00 0. -1.
       -2    1    5    5    0  501 -0.54654489470E+02 -0.63559851757E+00 -0.48039904498E+02  0.72769153004E+02  0.00000000000E+00 0.  1.
</event>
<event>
 9   1  0.7335000E-04  0.1007438E+04  0.7818608E-02  0.9300424E-01
       -2   -1    0    0    0  501 -0.00000000000E+00  0.00000000000E+00  0.52240337781E+03  0.52240337781E+03  0.00000000000E+00 0.  1.
        2   -1    0    0  501    0  0.00000000000E+00 -0.00000000000E+00 -0.48570288817E+03  0.48570288817E+03  0.00000000000E+00 0. -1.
       39    2    1    2    0    0  0.00000000000E+00  0.56843418861E-13  0.36700489646E+02  0.10081062660E+04  0.10074379969E+04 0.  0.
       24    2    3    3    0    0  0.21689205349E+03 -0.42153317532E+03  0.17039345289E+03  0.50927687137E+03  0.74810575156E+02 0.  0.
      -24    2    3    3    0    0 -0.21689205349E+03  0.42153317532E+03 -0.13369296324E+03  0.49882939461E+03  0.78895980537E+02 0.  0.
      -13    1    4    4    0    0  0.15966424868E+03 -0.32126476362E+03  0.94078388676E+02  0.37088335615E+03  0.00000000000E+00 0.  1.
       14    1    4    4    0    0  0.57227804812E+02 -0.10026841170E+03  0.76315064213E+02  0.13839351522E+03  0.00000000000E+00 0. -1.
        3    1    5    5  502    0 -0.20547953057E+03  0.38457090270E+03 -0.99618892419E+02  0.44725891877E+03  0.00000000000E+00 0. -1.
       -4    1    5    5    0  502 -0.11412522921E+02  0.36962272619E+02 -0.34074070824E+02  0.51570475847E+02  0.14200000000E+01 0.  1.
</event>
<event>
 9   1  0.7335000E-04  0.1007096E+04  0.7818608E-02  0.9300796E-01
       21   -1    0    0  503  502  0.00000000000E+00  0.00000000000E+00  0.26145450409E+03  0.26145450409E+03  0.00000000000E+00 0.  1.
       21   -1    0    0  502  503 -0.00000000000E+00 -0.00000000000E+00 -0.96980818296E+03  0.96980818296E+03  0.00000000000E+00 0. -1.
       39    2    1    2    0    0 -0.28421709430E-13  0.71054273576E-14 -0.70835367887E+03  0.12312626871E+04  0.10070962566E+04 0.  0.
       24    2    3    3    0    0  0.24776250532E+03 -0.48174866857E+02 -0.87785915895E+03  0.91716149991E+03  0.82712980391E+02 0.  0.
      -24    2    3    3    0    0 -0.24776250532E+03  0.48174866857E+02  0.16950548007E+03  0.31410118714E+03  0.78869329588E+02 0.  0.
      -13    1    4    4    0    0  0.19787359573E+01 -0.10072338383E+02 -0.98696564811E+01  0.14239997034E+02  0.00000000000E+00 0.  1.
       14    1    4    4    0    0  0.24578376936E+03 -0.38102528474E+02 -0.86798950247E+03  0.90292150287E+03  0.00000000000E+00 0. -1.
        1    1    5    5  501    0 -0.89608702535E+02 -0.37539751988E+01  0.23583356221E+02  0.92736112655E+02  0.00000000000E+00 0. -1.
       -2    1    5    5    0  501 -0.15815380279E+03  0.51928842056E+02  0.14592212385E+03  0.22136507449E+03  0.00000000000E+00 0.  1.
</event>
<event>
 9   1  0.7335000E-04  0.9969161E+03  0.7818608E-02  0.9311934E-01
       21   -1    0    0  503  502  0.00000000000E+00  0.00000000000E+00  0.46570102822E+03  0.46570102822E+03  0.00000000000E+00 0.  1.
       21   -1    0    0  502  503 -0.00000000000E+00 -0.00000000000E+00 -0.53351922572E+03  0.53351922572E+03  0.00000000000E+00 0. -1.
       39    2    1    2    0    0  0.00000000000E+00 -0.28421709430E-13 -0.67818197497E+02  0.99922025394E+03  0.99691614892E+03 0.  0.
       24    2    3    3    0    0  0.18623153000E+03  0.24784359254E+03 -0.41692048792E+03  0.52561368338E+03  0.79614205857E+02 0.  0.
      -24    2    3    3    0    0 -0.18623153000E+03 -0.24784359254E+03  0.34910229042E+03  0.47360657057E+03  0.79511919705E+02 0.  0.
      -13    1    4    4    0    0  0.36456965006E+02  0.34416823126E+02 -0.28130752078E+02  0.57488844344E+02  0.00000000000E+00 0.  1.
       14    1    4    4    0    0  0.14977456500E+03  0.21342676942E+03 -0.38878973584E+03  0.46812483903E+03  0.00000000000E+00 0. -1.
        3    1    5    5  501    0  0.20848267196E+01 -0.14383911998E+02  0.41493000290E+02  0.43964900772E+02  0.00000000000E+00 0. -1.
       -4    1    5    5    0  501 -0.18831635672E+03 -0.23345968054E+03  0.30760929013E+03  0.42964166980E+03  0.14200000000E+01 0.  1.
</event>
<event>
 9   1  0.7335000E-04  0.1003417E+04  0.7818608E-02  0.9304805E-01
       21   -1    0    0  503  502  0.00000000000E+00  0.00000000000E+00  0.34194360882E+03  0.34194360882E+03  0.00000000000E+00 0. -1.
       21   -1    0    0  502  503 -0.00000000000E+00 -0.00000000000E+00 -0.73612007893E+03  0.73612007893E+03  0.00000000000E+00 0.  1.
       39    2    1    2    0    0  0.00000000000E+00  0.00000000000E+00 -0.39417647011E+03  0.10780636877E+04  0.10034172737E+04 0.  0.
       24    2    3    3    0    0  0.93481652596E+02 -0.27314725656E+03 -0.63024015963E+03  0.69825559984E+03  0.83725627806E+02 0.  0.
      -24    2    3    3    0    0 -0.93481652596E+02  0.27314725656E+03  0.23606368952E+03  0.37980808791E+03  0.71971348406E+02 0.  0.
      -13    1    4    4    0    0  0.10806438800E+03 -0.24537831024E+03 -0.58087624912E+03  0.63976999296E+03  0.00000000000E+00 0.  1.
       14    1    4    4    0    0 -0.14582735405E+02 -0.27768946317E+02 -0.49363910511E+02  0.58485606882E+02  0.00000000000E+00 0. -1.
        1    1    5    5  501    0 -0.33095292354E+02  0.10140740504E+03  0.44622010884E+02  0.11562821467E+03  0.00000000000E+00 0. -1.
       -2    1    5    5    0  501 -0.60386360241E+02  0.17173985152E+03  0.19144167864E+03  0.26417987324E+03  0.00000000000E+00 0.  1.
</event>
<event>
 9   1  0.7335000E-04  0.1030174E+04  0.7818608E-02  0.9276055E-01
       21   -1    0    0  503  502  0.00000000000E+00  0.00000000000E+00  0.22880409909E+04  0.22880409909E+04  0.00000000000E+00 0. -1.
       21   -1    0    0  502  503 -0.00000000000E+00 -0.00000000000E+00 -0.11595722107E+03  0.11595722107E+03  0.00000000000E+00 0.  1.
       39    2    1    2    0    0  0.00000000000E+00  0.00000000000E+00  0.21720837698E+04  0.24039982120E+04  0.10301744998E+04 0.  0.
       24    2    3    3    0    0  0.23592012982E+03  0.32037577250E+02  0.21351068711E+04  0.21498495631E+04  0.80542405886E+02 0.  0.
      -24    2    3    3    0    0 -0.23592012982E+03 -0.32037577250E+02  0.36976898735E+02  0.25414864882E+03  0.80867364525E+02 0.  0.
      -13    1    4    4    0    0  0.83125551192E+02  0.39992242145E+02  0.10440243084E+04  0.10480915959E+04  0.00000000000E+00 0.  1.
       14    1    4    4    0    0  0.15279457863E+03 -0.79546648946E+01  0.10910825626E+04  0.11017579673E+04  0.00000000000E+00 0. -1.
        3    1    5    5  501    0 -0.12676209561E+03 -0.29191100441E+02 -0.18955744533E+02  0.13145367807E+03  0.00000000000E+00 0. -1.
       -4    1    5    5    0  501 -0.10915803422E+03 -0.28464768087E+01  0.55932643268E+02  0.12269497075E+03  0.14200000000E+01 0.  1.
</event>
<event>
 9   1  0.7335000E-04  0.9942380E+03  0.7818608E-02  0.9314887E-01
       21   -1    0    0  503  502  0.00000000000E+00  0.00000000000E+00  0.28931727465E+03  0.28931727465E+03  0.00000000000E+00 0. -1.
       21   -1    0    0  502  503 -0.00000000000E+00 -0.00000000000E+00 -0.85417409763E+03  0.85417409763E+03  0.00000000000E+00 0.  1.
       39    2    1    2    0    0 -0.71054273576E-14  0.00000000000E+00 -0.56485682299E+03  0.11434913723E+04  0.99423804394E+03 0.  0.
       24    2    3    3    0    0  0.47567453540E+02  0.14058901049E+03  0.25563144730E+03  0.30643228192E+03  0.80779787365E+02 0.  0.
      -24    2    3    3    0    0 -0.47567453540E+02 -0.14058901049E+03 -0.82048827028E+03  0.83705909037E+03  0.73749485333E+02 0.  0.
      -13    1    4    4    0    0  0.38547445351E+02  0.49710075825E+02  0.46486541372E+02  0.78217617647E+02  0.00000000000E+00 0.  1.
       14    1    4    4    0    0  0.90200081893E+01  0.90878934669E+02  0.20914490592E+03  0.22821466427E+03  0.00000000000E+00 0. -1.
        1    1    5    5  501    0  0.17881471473E+02 -0.13437889644E+02 -0.13107927502E+03  0.13297405852E+03  0.00000000000E+00 0. -1.
       -2    1    5    5    0  501 -0.65448925013E+02 -0.12715112085E+03 -0.68940899526E+03  0.70408503184E+03  0.00000000000E+00 0.  1.
</event>
<event>
 9   1  0.7335000E-04  0.8977430E+03  0.7818608E-02  0.9428407E-01
       21   -1    0    0  503  502  0.00000000000E+00  0.00000000000E+00  0.13193849123E+03  0.13193849123E+03  0.00000000000E+00 0. -1.
       21   -1    0    0  502  503 -0.00000000000E+00 -0.00000000000E+00 -0.15271176994E+04  0.15271176994E+04  0.00000000000E+00 0.  1.
       39    2    1    2    0    0  0.00000000000E+00  0.00000000000E+00 -0.13951792081E+04  0.16590561906E+04  0.89774295918E+03 0.  0.
       24    2    3    3    0    0 -0.91786174326E+02  0.31645482515E+02  0.98541114489E+02  0.16001654215E+03  0.80428876390E+02 0.  0.
      -24    2    3    3    0    0  0.91786174326E+02 -0.31645482515E+02 -0.14937203226E+04  0.14990396485E+04  0.80581182807E+02 0.  0.
      -13    1    4    4    0    0 -0.18652714270E+02 -0.92448033825E+01 -0.98379354524E+01  0.23025531768E+02  0.00000000000E+00 0.  1.
       14    1    4    4    0    0 -0.73133460055E+02  0.40890285898E+02  0.10837904994E+03  0.13699101039E+03  0.00000000000E+00 0. -1.
        3    1    5    5  501    0  0.32285335650E+02  0.23220898227E+02 -0.71970666291E+03  0.72080457382E+03  0.00000000000E+00 0. -1.
       -4    1    5    5    0  501  0.59500838676E+02 -0.54866380742E+02 -0.77401365973E+03  0.77823507464E+03  0.14200000000E+01 0.  1.
</event>
<event>
 9   1  0.7335000E-04  0.9994703E+03  0.7818608E-02  0.9309126E-01
       21   -1    0    0  503  502  0.00000000000E+00  0.00000000000E+00  0.34048644214E+03  0.34048644214E+03  0.00000000000E+00 0.  1.
       21   -1    0    0  502  503 -0.00000000000E+00 -0.00000000000E+00 -0.73346593361E+03  0.73346593361E+03  0.00000000000E+00 0. -1.
       39    2    1    2    0    0  0.35527136788E-14  0.56843418861E-13 -0.39297949146E+03  0.10739523757E+04  0.99947027203E+03 0.  0.
       24    2    3    3    0    0 -0.21728493802E+02 -0.32786623015E+03  0.19856092549E+03  0.39238290923E+03  0.81052538590E+02 0.  0.
      -24    2    3    3    0    0  0.21728493802E+02  0.32786623015E+03 -0.59154041695E+03  0.68156946652E+03  0.81538214871E+02 0.  0.
      -13    1    4    4    0    0  0.87841225911E+01 -0.28392740183E+03  0.15641105609E+03  0.32427819660E+03  0.00000000000E+00 0.  1.
       14    1    4    4    0    0 -0.30512616393E+02 -0.43938828320E+02  0.42149869397E+02  0.68104712638E+02  0.00000000000E+00 0. -1.
        3    1    5    5  501    0  0.40791545519E+02  0.30270366790E+03 -0.51502628504E+03  0.59878671914E+03  0.00000000000E+00 0. -1.
       -4    1    5    5    0  501 -0.19063051717E+02  0.25162562254E+02 -0.76514131914E+02  0.82782747373E+02  0.14200000000E+01 0.  1.
</event>
<event>
 9   1  0.7335000E-04  0.1014228E+04  0.7818608E-02  0.9293076E-01
       21   -1    0    0  503  502  0.00000000000E+00  0.00000000000E+00  0.42309612085E+03  0.42309612085E+03  0.00000000000E+00 0. -1.
       21   -1    0    0  502  503 -0.00000000000E+00 -0.00000000000E+00 -0.60781632888E+03  0.60781632888E+03  0.00000000000E+00 0.  1.
       39    2    1    2    0    0  0.00000000000E+00 -0.28421709430E-13 -0.18472020803E+03  0.10309124497E+04  0.10142282405E+04 0.  0.
       24    2    3    3    0    0 -0.43533952638E+03 -0.23165936120E+03 -0.18039690519E+03  0.53130985117E+03  0.80997232604E+02 0.  0.
      -24    2    3    3    0    0  0.43533952638E+03  0.23165936120E+03 -0.43233028367E+01  0.49960259856E+03  0.79984390186E+02 0.  0.
      -13    1    4    4    0    0 -0.27808323943E+03 -0.11141413651E+03 -0.83998591780E+02  0.31112563585E+03  0.00000000000E+00 0.  1.
       14    1    4    4    0    0 -0.15725628696E+03 -0.12024522469E+03 -0.96398313410E+02  0.22018421532E+03  0.00000000000E+00 0. -1.
        1    1    5    5  501    0  0.39146246449E+03  0.23172044939E+03  0.41114589163E+01  0.45492211626E+03  0.00000000000E+00 0. -1.
       -2    1    5    5    0  501  0.43877061896E+02 -0.61088189651E-01 -0.84347617530E+01  0.44680482297E+02  0.00000000000E+00 0.  1.
</event>
<event>
 9   1  0.7335000E-04  0.1012929E+04  0.7818608E-02  0.9294477E-01
       21   -1    0    0  503  502  0.00000000000E+00  0.00000000000E+00  0.32425632716E+03  0.32425632716E+03  0.00000000000E+00 0.  1.
       21   -1    0    0  502  503 -0.00000000000E+00 -0.00000000000E+00 -0.79106051750E+03  0.79106051750E+03  0.00000000000E+00 0. -1.
       39    2    1    2    0    0  0.00000000000E+00  0.00000000000E+00 -0.46680419034E+03  0.11153168447E+04  0.10129291742E+04 0.  0.
       24    2    3    3    0    0  0.10562007006E+03 -0.70424863598E+02  0.29918733716E+03  0.33478008224E+03  0.80308032824E+02 0.  0.
      -24    2    3    3    0    0 -0.10562007006E+03  0.70424863598E+02 -0.76599152750E+03  0.78053676242E+03  0.79870874930E+02 0.  0.
      -13    1    4    4    0    0  0.11481627455E+03 -0.46318056701E+02  0.23540533793E+03  0.26597709000E+03  0.00000000000E+00 0.  1.
       14    1    4    4    0    0 -0.91962044896E+01 -0.24106806897E+02  0.63781999229E+02  0.68802992242E+02  0.00000000000E+00 0. -1.
        3    1    5    5  501    0 -0.60580690550E+02 -0.57636099184E+01 -0.27805930259E+03  0.28464050138E+03  0.00000000000E+00 0. -1.
       -4    1    5    5    0  501 -0.45039379510E+02  0.76188473517E+02 -0.48793222491E+03  0.49589626103E+03  0.14200000000E+01 0.  1.
</event>
<event>
 9   1  0.7335000E-04  0.1000489E+04  0.7818608E-02  0.9308009E-01
       21   -1    0    0  503  502  0.00000000000E+00  0.00000000000E+00  0.17659122478E+03  0.17659122478E+03  0.00000000000E+00 0.  1.
       21   -1    0    0  502  503 -0.00000000000E+00 -0.00000000000E+00 -0.14170832430E+04  0.14170832430E+04  0.00000000000E+00 0. -1.
       39    2    1    2    0    0 -0.11368683772E-12  0.14210854715E-13 -0.12404920182E+04  0.15936744678E+04  0.10004888115E+04 0.  0.
       24    2    3    3    0    0  0.44937291736E+03 -0.53939589680E+02 -0.30708821069E+03  0.55317814244E+03  0.82809359027E+02 0.  0.
      -24    2    3    3    0    0 -0.44937291736E+03  0.53939589680E+02 -0.93340380753E+03  0.10404963253E+04  0.80897694224E+02 0.  0.
      -13    1    4    4    0    0  0.14852073686E+03  0.15281561475E+02 -0.12531663119E+03  0.19492612307E+03  0.00000000000E+00 0.  1.
       14    1    4    4    0    0  0.30085218049E+03 -0.69221151155E+02 -0.18177157950E+03  0.35825201938E+03  0.00000000000E+00 0. -1.
        1    1    5    5  501    0 -0.36020289001E+03  0.72354161034E+02 -0.77791605273E+03  0.86031077622E+03  0.00000000000E+00 0. -1.
       -2    1    5    5    0  501 -0.89170027349E+02 -0.18414571354E+02 -0.15548775481E+03  0.18018554912E+03  0.00000000000E+00 0.  1.
</event>
<event>
 9   1  0.7335000E-04  0.1006046E+04  0.7818608E-02  0.9301938E-01
        2   -1    0    0  501    0  0.00000000000E+00  0.00000000000E+00  0.18937729782E+03  0.18937729782E+03  0.00000000000E+00 0. -1.
       -2   -1    0    0    0  501 -0.00000000000E+00 -0.00000000000E+00 -0.13361278465E+04  0.13361278465E+04  0.00000000000E+00 0.  1.
       39    2    1    2    0    0  0.00000000000E+00  0.56843418861E-13 -0.11467505487E+04  0.15255051444E+04  0.10060462835E+04 0.  0.
       24    2    3    3    0    0  0.47205521459E+02 -0.43232506825E+03 -0.21025575637E+03  0.49020803372E+03  0.83445235630E+02 0.  0.
      -24    2    3    3    0    0 -0.47205521459E+02  0.43232506825E+03 -0.93649479236E+03  0.10352971106E+04  0.75394199377E+02 0.  0.
      -13    1    4    4    0    0 -0.84392312548E+01 -0.25605321347E+03 -0.14372138514E+03  0.29375211539E+03  0.00000000000E+00 0.  1.
       14    1    4    4    0    0  0.55644752714E+02 -0.17627185478E+03 -0.66534371225E+02  0.19645591833E+03  0.00000000000E+00 0. -1.
        1    1    5    5  502    0 -0.67048931644E+01  0.46021123313E+02 -0.16659852428E+03  0.17296811173E+03  0.00000000000E+00 0. -1.
       -2    1    5    5    0  502 -0.40500628294E+02  0.38630394494E+03 -0.76989626808E+03  0.86232899891E+03  0.00000000000E+00 0.  1.
</event>
<event>
 9   1  0.7335000E-04  0.1004322E+04  0.7818608E-02  0.9303817E-01
       21   -1    0    0  503  502  0.00000000000E+00  0.00000000000E+00  0.12539916075E+04  0.12539916075E+04  0.00000000000E+00 0.  1.
       21   -1    0    0  502  503 -0.00000000000E+00 -0.00000000000E+00 -0.20109037954E+03  0.20109037954E+03  0.00000000000E+00 0. -1.
       39    2    1    2    0    0  0.00000000000E+00  0.00000000000E+00  0.10529012280E+04  0.14550819871E+04  0.10043219569E+04 0.  0.
       24    2    3    3    0    0  0.26727546573E+03  0.27091517770E+03  0.66024671032E+02  0.39459911440E+03  0.80734105623E+02 0.  0.
      -24    2    3    3    0    0 -0.26727546573E+03 -0.27091517770E+03  0.98687655697E+03  0.10604828727E+04  0.76598801869E+02 0.  0.
      -13    1    4    4    0    0  0.70310999013E+02  0.97809786837E+02 -0.11894635088E+02  0.12104492276E+03  0.00000000000E+00 0.  1.
       14    1    4    4    0    0  0.19696446671E+03  0.17310539087E+03  0.77919306120E+02  0.27355419163E+03  0.00000000000E+00 0. -1.
        1    1    5    5  501    0 -0.46697199764E+02 -0.47277302415E+02  0.26538981886E+03  0.27358276214E+03  0.00000000000E+00 0. -1.
       -2    1    5    5    0  501 -0.22057826596E+03 -0.22363787529E+03  0.72148673812E+03  0.78690011053E+03  0.00000000000E+00 0.  1.
</event>
<event>
 9   1  0.7335000E-04  0.9912308E+03  0.7818608E-02  0.9318215E-01
       21   -1    0    0  503  502  0.00000000000E+00  0.00000000000E+00  0.23204409063E+03  0.23204409063E+03  0.00000000000E+00 0. -1.
       21   -1    0    0  502  503 -0.00000000000E+00 -0.00000000000E+00 -0.10585686929E+04  0.10585686929E+04  0.00000000000E+00 0.  1.
       39    2    1    2    0    0  0.00000000000E+00 -0.35527136788E-14 -0.82652460225E+03  0.12906127835E+04  0.99123076971E+03 0.  0.
       24    2    3    3    0    0 -0.32214635608E+03  0.24259917982E+02 -0.88921552447E+03  0.95217353593E+03  0.10753313541E+03 0.  0.
      -24    2    3    3    0    0  0.32214635608E+03 -0.24259917982E+02  0.62690922214E+02  0.33843924758E+03  0.79019960899E+02 0.  0.
      -13    1    4    4    0    0 -0.26938027397E+03  0.53664211892E+02 -0.78562676797E+03  0.83225897303E+03  0.00000000000E+00 0.  1.
       14    1    4    4    0    0 -0.52766082108E+02 -0.29404293911E+02 -0.10358875650E+03  0.11991456289E+03  0.00000000000E+00 0. -1.
        1    1    5    5  501    0  0.16253917755E+03 -0.23915920084E+02 -0.66411695064E+01  0.16442341866E+03  0.00000000000E+00 0. -1.
       -2    1    5    5    0  501  0.15960717853E+03 -0.34399789823E+00  0.69332091721E+02  0.17401582892E+03  0.00000000000E+00 0.  1.
</event>
<event>
 9   1  0.7335000E-04  0.9920771E+03  0.7818608E-02  0.9317277E-01
       21   -1    0    0  503  502  0.00000000000E+00  0.00000000000E+00  0.82724139428E+03  0.82724139428E+03  0.00000000000E+00 0.  1.
       21   -1    0    0  502  503 -0.00000000000E+00 -0.00000000000E+00 -0.29743949438E+03  0.29743949438E+03  0.00000000000E+00 0. -1.
       39    2    1    2    0    0  0.14210854715E-13  0.00000000000E+00  0.52980189990E+03  0.11246808887E+04  0.99207713822E+03 0.  0.
       24    2    3    3    0    0 -0.10043750199E+03  0.14006882060E+03  0.78445465544E+03  0.80721971246E+03  0.80793511094E+02 0.  0.
      -24    2    3    3    0    0  0.10043750199E+03 -0.14006882060E+03 -0.25465275555E+03  0.31746117619E+03  0.78908847235E+02 0.  0.
      -13    1    4    4    0    0 -0.92788492170E+02  0.11269762116E+03  0.74137208373E+03  0.75560771874E+03  0.00000000000E+00 0.  1.
       14    1    4    4    0    0 -0.76490098194E+01  0.27371199446E+02  0.43082571715E+02  0.51611993722E+02  0.00000000000E+00 0. -1.
        3    1    5    5  501    0  0.10348323952E+03 -0.13382318969E+03 -0.25884547498E+03  0.30922226129E+03  0.00000000000E+00 0. -1.
       -4    1    5    5    0  501 -0.30457375285E+01 -0.62456309141E+01  0.41927194308E+01  0.82389149063E+01  0.14200000000E+01 0.  1.
</event>
<event>
 9   1  0.7335000E-04  0.1008492E+04  0.7818608E-02  0.9299280E-01
       21   -1    0    0  503  502  0.00000000000E+00  0.00000000000E+00  0.31420465830E+03  0.31420465830E+03  0.00000000000E+00 0. -1.
       21   -1    0    0  502  503 -0.00000000000E+00 -0.00000000000E+00 -0.80922992990E+03  0.80922992990E+03  0.00000000000E+00 0.  1.
       39    2    1    2    0    0  0.00000000000E+00 -0.56843418861E-13 -0.49502527160E+03  0.11234345882E+04  0.10084915738E+04 0.  0.
       24    2    3    3    0    0 -0.22732930534E+03 -0.42975129912E+03 -0.12948070167E+03  0.50986290886E+03  0.82644670476E+02 0.  0.
      -24    2    3    3    0    0  0.22732930534E+03  0.42975129912E+03 -0.36554456992E+03  0.61357167935E+03  0.80514476545E+02 0.  0.
      -13    1    4    4    0    0 -0.11588097343E+03 -0.20709900364E+03 -0.10554661497E+03  0.25972771366E+03  0.00000000000E+00 0.  1.
       14    1    4    4    0    0 -0.11144833191E+03 -0.22265229548E+03 -0.23934086701E+02  0.25013519519E+03  0.00000000000E+00 0. -1.
        1    1    5    5  501    0  0.91192787484E+02  0.23092900034E+03 -0.14871834944E+03  0.28941574793E+03  0.00000000000E+00 0. -1.
       -2    1    5    5    0  501  0.13613651786E+03  0.19882229878E+03 -0.21682622048E+03  0.32415593142E+03  0.00000000000E+00 0.  1.
</event>
<event>
 9   1  0.7335000E-04  0.9975447E+03  0.7818608E-02  0.9311242E-01
       -2   -1    0    0    0  501 -0.00000000000E+00  0.00000000000E+00  0.10762980673E+03  0.10762980673E+03  0.00000000000E+00 0.  1.
        2   -1    0    0  501    0  0.00000000000E+00 -0.00000000000E+00 -0.23113844542E+04  0.23113844542E+04  0.00000000000E+00 0. -1.
       39    2    1    2    0    0  0.00000000000E+00  0.11368683772E-12 -0.22037546475E+04  0.24190142610E+04  0.99754470996E+03 0.  0.
       24    2    3    3    0    0  0.24414886461E+01 -0.44871760641E+03 -0.15918987704E+04  0.16560002668E+04  0.82714794170E+02 0.  0.
      -24    2    3    3    0    0 -0.24414886461E+01  0.44871760641E+03 -0.61185587708E+03  0.76301399417E+03  0.80431895492E+02 0.  0.
      -13    1    4    4    0    0 -0.59720158921E+01 -0.72062800974E+01 -0.91211264060E+02  0.91690185615E+02  0.00000000000E+00 0.  1.
       14    1    4    4    0    0  0.84135045382E+01 -0.44151132632E+03 -0.15006875064E+04  0.15643100812E+04  0.00000000000E+00 0. -1.
        3    1    5    5  502    0 -0.14688613215E+02  0.77413909041E+02 -0.66305977665E+02  0.10298131552E+03  0.00000000000E+00 0. -1.
       -4    1    5    5    0  502  0.12247124569E+02  0.37130369737E+03 -0.54554989941E+03  0.66003267866E+03  0.14200000000E+01 0.  1.
</event>
<event>
 9   1  0.7335000E-04  0.1002400E+04  0.7818608E-02  0.9305916E-01
       -2   -1    0    0    0  501 -0.00000000000E+00  0.00000000000E+00  0.20411542347E+03  0.20411542347E+03  0.00000000000E+00 0. -1.
        2   -1    0    0  501    0  0.00000000000E+00 -0.00000000000E+00 -0.12306834797E+04  0.12306834797E+04  0.00000000000E+00 0.  1.
       39    2    1    2    0    0  0.00000000000E+00  0.00000000000E+00 -0.10265680562E+04  0.14347989031E+04  0.10024000790E+04 0.  0.
       24    2    3    3    0    0 -0.20721749823E+03 -0.42288377685E+03 -0.73183470445E+03  0.87392705499E+03  0.79979263041E+02 0.  0.
      -24    2    3    3    0    0  0.20721749823E+03  0.42288377685E+03 -0.29473335174E+03  0.56087184814E+03  0.77069456440E+02 0.  0.
      -13    1    4    4    0    0 -0.88915709018E+02 -0.10212353510E+03 -0.22357549835E+03  0.26138328790E+03  0.00000000000E+00 0.  1.
       14    1    4    4    0    0 -0.11830178921E+03 -0.32076024175E+03 -0.50825920610E+03  0.61254376709E+03  0.00000000000E+00 0. -1.
        1    1    5    5  502    0  0.21126357702E+03  0.39938197195E+03 -0.26920170400E+03  0.52593518225E+03  0.00000000000E+00 0. -1.
       -2    1    5    5    0  502 -0.40460787919E+01  0.23501804898E+02 -0.25531647743E+02  0.34936665890E+02  0.00000000000E+00 0.  1.
</event>
<event>
 9   1  0.7335000E-04  0.9876604E+03  0.7818608E-02  0.9322183E-01
       21   -1    0    0  503  502  0.00000000000E+00  0.00000000000E+00  0.55216288936E+03  0.55216288936E+03  0.00000000000E+00 0.  1.
       21   -1    0    0  502  503 -0.00000000000E+00 -0.00000000000E+00 -0.44166003151E+03  0.44166003151E+03  0.00000000000E+00 0. -1.
       39    2    1    2    0    0  0.11368683772E-12  0.35527136788E-14  0.11050285785E+03  0.99382292087E+03  0.98766042568E+03 0.  0.
       24    2    3    3    0    0  0.40789252681E+03 -0.12101858791E+02 -0.21274507036E+03  0.46702408541E+03  0.79550380125E+02 0.  0.
      -24    2    3    3    0    0 -0.40789252681E+03  0.12101858791E+02  0.32324792821E+03  0.52679883546E+03  0.80653713733E+02 0.  0.
      -13    1    4    4    0    0  0.14445119870E+03  0.27316537878E+02 -0.52166718846E+02  0.15599265561E+03  0.00000000000E+00 0.  1.
       14    1    4    4    0    0  0.26344132811E+03 -0.39418396669E+02 -0.16057835151E+03  0.31103142980E+03  0.00000000000E+00 0. -1.
        3    1    5    5  501    0 -0.14467508867E+03  0.33790230418E+02  0.14881671860E+03  0.21028332480E+03  0.00000000000E+00 0. -1.
       -4    1    5    5    0  501 -0.26321743814E+03 -0.21688371627E+02  0.17443120961E+03  0.31651551066E+03  0.14200000000E+01 0.  1.
</event>
<event>
 9   1  0.7335000E-04  0.1001194E+04  0.7818608E-02  0.9307236E-01
       21   -1    0    0  503  502  0.00000000000E+00  0.00000000000E+00  0.42243436125E+03  0.42243436125E+03  0.00000000000E+00 0.  1.
       21   -1    0    0  502  503 -0.00000000000E+00 -0.00000000000E+00 -0.59322179009E+03  0.59322179009E+03  0.00000000000E+00 0. -1.
       39    2    1    2    0    0  0.00000000000E+00  0.00000000000E+00 -0.17078742884E+03  0.10156561513E+04  0.10011938233E+04 0.  0.
       24    2    3    3    0    0 -0.30333869308E+03 -0.18966607192E+03 -0.43120434663E+03  0.56596066739E+03  0.79916875084E+02 0.  0.
      -24    2    3    3    0    0  0.30333869308E+03  0.18966607192E+03  0.26041691779E+03  0.44969548395E+03  0.80134110462E+02 0.  0.
      -13    1    4    4    0    0 -0.46824697957E+02 -0.37653802993E+02 -0.33184501254E+02  0.68640894094E+02  0.00000000000E+00 0.  1.
       14    1    4    4    0    0 -0.25651399513E+03 -0.15201226893E+03 -0.39801984537E+03  0.49731977329E+03  0.00000000000E+00 0. -1.
        3    1    5    5  501    0  0.88625889091E+02  0.10075721445E+03  0.98230183393E+02  0.16630013052E+03  0.00000000000E+00 0. -1.
       -4    1    5    5    0  501  0.21471280399E+03  0.88908857465E+02  0.16218673439E+03  0.28339535343E+03  0.14200000000E+01 0.  1.
</event>
<event>
 9   1  0.7335000E-04  0.1003021E+04  0.7818608E-02  0.9305238E-01
       21   -1    0    0  503  502  0.00000000000E+00  0.00000000000E+00  0.12772609973E+04  0.12772609973E+04  0.00000000000E+00 0.  1.
       21   -1    0    0  502  503 -0.00000000000E+00 -0.00000000000E+00 -0.19691572549E+03  0.19691572549E+03  0.00000000000E+00 0. -1.
       39    2    1    2    0    0 -0.56843418861E-13 -0.28421709430E-13  0.10803452718E+04  0.14741767228E+04  0.10030209887E+04 0.  0.
       24    2    3    3    0    0 -0.28492340703E+03 -0.14212134386E+03 -0.16768413313E+02  0.32859355359E+03  0.79452624390E+02 0.  0.
      -24    2    3    3    0    0  0.28492340703E+03  0.14212134386E+03  0.10971136851E+04  0.11455831692E+04  0.85571813296E+02 0.  0.
      -13    1    4    4    0    0 -0.28222855993E+01  0.66935416491E+01  0.51348011788E+01  0.88957843363E+01  0.00000000000E+00 0.  1.
       14    1    4    4    0    0 -0.28210112143E+03 -0.14881488550E+03 -0.21903214492E+02  0.31969776925E+03  0.00000000000E+00 0. -1.
        1    1    5    5  501    0  0.11717692283E+03  0.98814889123E+02  0.59479644140E+03  0.61422928964E+03  0.00000000000E+00 0. -1.
       -2    1    5    5    0  501  0.16774648420E+03  0.43306454733E+02  0.50231724372E+03  0.53135387956E+03  0.00000000000E+00 0.  1.
</event>
<event>
 9   1  0.7335000E-04  0.9970481E+03  0.7818608E-02  0.9311788E-01
       -2   -1    0    0    0  501 -0.00000000000E+00  0.00000000000E+00  0.53265181857E+03  0.53265181857E+03  0.00000000000E+00 0. -1.
        2   -1    0    0  501    0  0.00000000000E+00 -0.00000000000E+00 -0.46658286585E+03  0.46658286585E+03  0.00000000000E+00 0.  1.
       39    2    1    2    0    0  0.00000000000E+00 -0.56843418861E-13  0.66068952724E+02  0.99923468442E+03  0.99704806706E+03 0.  0.
       24    2    3    3    0    0 -0.27342007340E+03  0.40097137988E+03  0.11464490242E+03  0.50494045790E+03  0.79276909317E+02 0.  0.
      -24    2    3    3    0    0  0.27342007340E+03 -0.40097137988E+03 -0.48575949699E+02  0.49429422652E+03  0.80190868903E+02 0.  0.
      -13    1    4    4    0    0 -0.80598757739E+02  0.66869572491E+02  0.97376719069E+01  0.10517852313E+03  0.00000000000E+00 0.  1.
       14    1    4    4    0    0 -0.19282131566E+03  0.33410180739E+03  0.10490723052E+03  0.39976193477E+03  0.00000000000E+00 0. -1.
        1    1    5    5  502    0  0.16813847773E+02 -0.74828255132E+02 -0.22472909529E+01  0.76726941551E+02  0.00000000000E+00 0. -1.
       -2    1    5    5    0  502  0.25660622563E+03 -0.32614312475E+03 -0.46328658746E+02  0.41756728497E+03  0.00000000000E+00 0.  1.
</event>
<event>
 9   1  0.7335000E-04  0.1001471E+04  0.7818608E-02  0.9306933E-01
       21   -1    0    0  503  502  0.00000000000E+00  0.00000000000E+00  0.24545897054E+04  0.24545897054E+04  0.00000000000E+00 0. -1.
       21   -1    0    0  502  503 -0.00000000000E+00 -0.00000000000E+00 -0.10214986603E+03  0.10214986603E+03  0.00000000000E+00 0.  1.
       39    2    1    2    0    0  0.35527136788E-14 -0.28421709430E-13  0.23524398394E+04  0.25567395714E+04  0.10014709373E+04 0.  0.
       24    2    3    3    0    0  0.31208510922E+02 -0.12406533793E+03  0.23950849752E+04  0.23997767648E+04  0.78296252401E+02 0.  0.
      -24    2    3    3    0    0 -0.31208510922E+02  0.12406533793E+03 -0.42645135846E+02  0.15696280662E+03  0.80327677809E+02 0.  0.
      -13    1    4    4    0    0  0.18851207557E+02 -0.14420365793E+02  0.14027854512E+03  0.14227222216E+03  0.00000000000E+00 0.  1.
       14    1    4    4    0    0  0.12357303364E+02 -0.10964497214E+03  0.22548064301E+04  0.22575045426E+04  0.00000000000E+00 0. -1.
        3    1    5    5  501    0  0.19227357236E+01  0.20853874075E+01 -0.29766289644E+02  0.29901132964E+02  0.00000000000E+00 0. -1.
       -4    1    5    5    0  501 -0.33131246645E+02  0.12197995052E+03 -0.12878846202E+02  0.12706167366E+03  0.14200000000E+01 0.  1.
</event>
<event>
 9   1  0.7335000E-04  0.1001688E+04  0.7818608E-02  0.9306695E-01
       21   -1    0    0  503  502  0.00000000000E+00  0.00000000000E+00  0.13080116553E+04  0.13080116553E+04  0.00000000000E+00 0. -1.
       21   -1    0    0  502  503 -0.00000000000E+00 -0.00000000000E+00 -0.19177565771E+03  0.19177565771E+03  0.00000000000E+00 0.  1.
       39    2    1    2    0    0 -0.28421709430E-13 -0.14210854715E-13  0.11162359976E+04  0.14997873130E+04  0.10016881660E+04 0.  0.
       24    2    3    3    0    0 -0.23969173175E+03 -0.10773739065E+03  0.11852778356E+04  0.12167778308E+04  0.81272813419E+02 0.  0.
      -24    2    3    3    0    0  0.23969173175E+03  0.10773739065E+03 -0.69041838072E+02  0.28300948221E+03  0.79171459523E+02 0.  0.
      -13    1    4    4    0    0 -0.73842712988E+02 -0.42976375252E+02  0.56606030299E+03  0.57247181739E+03  0.00000000000E+00 0.  1.
       14    1    4    4    0    0 -0.16584901876E+03 -0.64761015399E+02  0.61921753264E+03  0.64430601337E+03  0.00000000000E+00 0. -1.
        1    1    5    5  501    0  0.92981495492E+02  0.15175592948E+01 -0.16790249767E+02  0.94497481328E+02  0.00000000000E+00 0. -1.
       -2    1    5    5    0  501  0.14671023626E+03  0.10621983136E+03 -0.52251588305E+02  0.18851200088E+03  0.00000000000E+00 0.  1.
</event>
<event>
 9   1  0.7335000E-04  0.9877794E+03  0.7818608E-02  0.9322051E-01
       21   -1    0    0  503  502  0.00000000000E+00  0.00000000000E+00  0.49148375489E+03  0.49148375489E+03  0.00000000000E+00 0. -1.
       21   -1    0    0  502  503 -0.00000000000E+00 -0.00000000000E+00 -0.49630737669E+03  0.49630737669E+03  0.00000000000E+00 0.  1.
       39    2    1    2    0    0  0.00000000000E+00  0.00000000000E+00 -0.48236217945E+01  0.98779113158E+03  0.98777935406E+03 0.  0.
       24    2    3    3    0    0 -0.87168517331E+02  0.40915305753E+03  0.24755202858E+03  0.49259128352E+03  0.79747042881E+02 0.  0.
      -24    2    3    3    0    0  0.87168517331E+02 -0.40915305753E+03 -0.25237565037E+03  0.49519984806E+03  0.80776517139E+02 0.  0.
      -13    1    4    4    0    0 -0.27942444242E+02  0.23704559118E+03  0.10213096024E+03  0.25961919330E+03  0.00000000000E+00 0.  1.
       14    1    4    4    0    0 -0.59226073089E+02  0.17210746635E+03  0.14542106834E+03  0.23297209022E+03  0.00000000000E+00 0. -1.
        1    1    5    5  501    0  0.70421158294E+02 -0.40013159400E+03 -0.23451976174E+03  0.46910974270E+03  0.00000000000E+00 0. -1.
       -2    1    5    5    0  501  0.16747359037E+02 -0.90214635315E+01 -0.17855888626E+02  0.26090105358E+02  0.00000000000E+00 0.  1.
</event>
<event>
 9   1  0.7335000E-04  0.9995369E+03  0.7818608E-02  0.9309053E-01
       21   -1    0    0  503  502  0.00000000000E+00  0.00000000000E+00  0.79801422574E+03  0.79801422574E+03  0.00000000000E+00 0.  1.
       21   -1    0    0  502  503 -0.00000000000E+00 -0.00000000000E+00 -0.31298753579E+03  0.31298753579E+03  0.00000000000E+00 0. -1.
       39    2    1    2    0    0  0.00000000000E+00  0.00000000000E+00  0.48502668995E+03  0.11110017615E+04  0.99953690485E+03 0.  0.
       24    2    3    3    0    0  0.86511198480E+02  0.40385423834E+03 -0.57193472785E+02  0.42472375274E+03  0.80850105298E+02 0.  0.
      -24    2    3    3    0    0 -0.86511198480E+02 -0.40385423834E+03  0.54222016273E+03  0.68627800879E+03  0.79952280714E+02 0.  0.
      -13    1    4    4    0    0  0.24334115445E+01  0.14419973066E+03 -0.46705923003E+02  0.15159461421E+03  0.00000000000E+00 0.  1.
       14    1    4    4    0    0  0.84077786936E+02  0.25965450768E+03 -0.10487549782E+02  0.27312913853E+03  0.00000000000E+00 0. -1.
        1    1    5    5  501    0 -0.19426826584E+02 -0.16224576604E+03  0.15678182528E+03  0.22645447871E+03  0.00000000000E+00 0. -1.
       -2    1    5    5    0  501 -0.67084371896E+02 -0.24160847229E+03  0.38543833745E+03  0.45982353008E+03  0.00000000000E+00 0.  1.
</event>
<event>
 9   1  0.7335000E-04  0.1001676E+04  0.7818608E-02  0.9306709E-01
        2   -1    0    0  501    0  0.00000000000E+00  0.00000000000E+00  0.21053564867E+04  0.21053564867E+04  0.00000000000E+00 0.  1.
       -2   -1    0    0    0  501 -0.00000000000E+00 -0.00000000000E+00 -0.11914307737E+03  0.11914307737E+03  0.00000000000E+00 0. -1.
       39    2    1    2    0    0  0.00000000000E+00 -0.35527136788E-14  0.19862134093E+04  0.22244995640E+04  0.10016758972E+04 0.  0.
       24    2    3    3    0    0 -0.13462848228E+03 -0.18271854383E+01 -0.62904039412E+02  0.16939214413E+03  0.81293379007E+02 0.  0.
      -24    2    3    3    0    0  0.13462848228E+03  0.18271854383E+01  0.20491174487E+04  0.20551074199E+04  0.80349373985E+02 0.  0.
      -13    1    4    4    0    0 -0.23309951378E+02  0.30848357938E+02 -0.29591307835E+02  0.48689018475E+02  0.00000000000E+00 0.  1.
       14    1    4    4    0    0 -0.11131853091E+03 -0.32675543376E+02 -0.33312731577E+02  0.12070312566E+03  0.00000000000E+00 0. -1.
        3    1    5    5  502    0  0.78044684012E+01  0.25313821203E+02  0.25988691855E+03  0.26123343910E+03  0.00000000000E+00 0. -1.
       -4    1    5    5    0  502  0.12682401388E+03 -0.23486635765E+02  0.17892305302E+04  0.17938739808E+04  0.14200000000E+01 0.  1.
</event>
<event>
 9   1  0.7335000E-04  0.1017870E+04  0.7818608E-02  0.9289159E-01
       21   -1    0    0  503  502  0.00000000000E+00  0.00000000000E+00  0.17153572459E+04  0.17153572459E+04  0.00000000000E+00 0. -1.
       21   -1    0    0  502  503 -0.00000000000E+00 -0.00000000000E+00 -0.15099772718E+03  0.15099772718E+03  0.00000000000E+00 0.  1.
       39    2    1    2    0    0  0.00000000000E+00  0.00000000000E+00  0.15643595187E+04  0.18663549730E+04  0.10178704150E+04 0.  0.
       24    2    3    3    0    0 -0.25618930578E+03 -0.15278326712E+03  0.40094386192E+02  0.31111712774E+03  0.78807488577E+02 0.  0.
      -24    2    3    3    0    0  0.25618930578E+03  0.15278326712E+03  0.15242651325E+04  0.15552378453E+04  0.80030458283E+02 0.  0.
      -13    1    4    4    0    0 -0.21875454869E+03 -0.14333963182E+03  0.92427664077E+01  0.26169683100E+03  0.00000000000E+00 0.  1.
       14    1    4    4    0    0 -0.37434757095E+02 -0.94436353007E+01  0.30851619784E+02  0.49420296739E+02  0.00000000000E+00 0. -1.
        1    1    5    5  501    0  0.13813612285E+03  0.66393842794E+02  0.96805246848E+03  0.98010984717E+03  0.00000000000E+00 0. -1.
       -2    1    5    5    0  501  0.11805318293E+03  0.86389424330E+02  0.55621266402E+03  0.57512799814E+03  0.00000000000E+00 0.  1.
</event>
<event>
 9   1  0.7335000E-04  0.9884780E+03  0.7818608E-02  0.9321273E-01
       21   -1    0    0  503  502  0.00000000000E+00  0.00000000000E+00  0.79216688986E+03  0.79216688986E+03  0.00000000000E+00 0.  1.
       21   -1    0    0  502  503 -0.00000000000E+00 -0.00000000000E+00 -0.30835953256E+03  0.30835953256E+03  0.00000000000E+00 0. -1.
       39    2    1    2    0    0  0.35527136788E-14  0.00000000000E+00  0.48380735730E+03  0.11005264224E+04  0.98847804602E+03 0.  0.
       24    2    3    3    0    0  0.19312230308E+02 -0.41730054971E+03  0.52196300938E+03  0.67343579947E+03  0.80979514784E+02 0.  0.
      -24    2    3    3    0    0 -0.19312230308E+02  0.41730054971E+03 -0.38155652087E+02  0.42709062295E+03  0.80236122813E+02 0.  0.
      -13    1    4    4    0    0  0.29091451726E+02 -0.33094391761E+03  0.45669463453E+03  0.56474788922E+03  0.00000000000E+00 0.  1.
       14    1    4    4    0    0 -0.97792214180E+01 -0.86356632095E+02  0.65268374854E+02  0.10868791025E+03  0.00000000000E+00 0. -1.
        3    1    5    5  501    0 -0.40575851975E+02  0.36644505497E+03 -0.45428349145E+02  0.37147289670E+03  0.00000000000E+00 0. -1.
       -4    1    5    5    0  501  0.21263621667E+02  0.50855494735E+02  0.72726970585E+01  0.55617726254E+02  0.14200000000E+01 0.  1.
</event>
<event>
 9   1  0.7335000E-04  0.9991779E+03  0.7818608E-02  0.9309447E-01
       21   -1    0    0  503  502  0.00000000000E+00  0.00000000000E+00  0.14348924338E+03  0.14348924338E+03  0.00000000000E+00 0.  1.
       21   -1    0    0  502  503 -0.00000000000E+00 -0.00000000000E+00 -0.17394274662E+04  0.17394274662E+04  0.00000000000E+00 0. -1.
       39    2    1    2    0    0  0.00000000000E+00  0.00000000000E+00 -0.15959382228E+04  0.18829167096E+04  0.99917792416E+03 0.  0.
       24    2    3    3    0    0  0.13179984697E+03 -0.22615788926E+03 -0.15852750639E+04  0.16088442612E+04  0.82244987703E+02 0.  0.
      -24    2    3    3    0    0 -0.13179984697E+03  0.22615788926E+03 -0.10663158942E+02  0.27407244840E+03  0.80519646523E+02 0.  0.
      -13    1    4    4    0    0  0.79607489856E+01  0.55320342437E+01 -0.10422305122E+03  0.10467292550E+03  0.00000000000E+00 0.  1.
       14    1    4    4    0    0  0.12383909799E+03 -0.23168992351E+03 -0.14810520127E+04  0.15041713357E+04  0.00000000000E+00 0. -1.
        3    1    5    5  501    0 -0.45651941894E+01  0.63598316677E+02 -0.21665686762E+02  0.67342325955E+02  0.00000000000E+00 0. -1.
       -4    1    5    5    0  501 -0.12723465278E+03  0.16255957259E+03  0.11002527820E+02  0.20673012245E+03  0.14200000000E+01 0.  1.
</event>
<event>
 9   1  0.7335000E-04  0.9972245E+03  0.7818608E-02  0.9311594E-01
       21   -1    0    0  503  502  0.00000000000E+00  0.00000000000E+00  0.17207306128E+03  0.17207306128E+03  0.00000000000E+00 0.  1.
       21   -1    0    0  502  503 -0.00000000000E+00 -0.00000000000E+00 -0.14448174844E+04  0.14448174844E+04  0.00000000000E+00 0. -1.
       39    2    1    2    0    0  0.00000000000E+00  0.00000000000E+00 -0.12727444231E+04  0.16168905457E+04  0.99722448330E+03 0.  0.
       24    2    3    3    0    0 -0.38604265001E+03 -0.26716218174E+03 -0.39395706523E+03  0.61798533653E+03  0.79367171691E+02 0.  0.
      -24    2    3    3    0    0  0.38604265001E+03  0.26716218174E+03 -0.87878735788E+03  0.99890520913E+03  0.71692659896E+02 0.  0.
      -13    1    4    4    0    0 -0.19066361667E+03 -0.11231148678E+03 -0.13857128687E+03  0.26109095413E+03  0.00000000000E+00 0.  1.
       14    1    4    4    0    0 -0.19537903334E+03 -0.15485069496E+03 -0.25538577836E+03  0.35689438240E+03  0.00000000000E+00 0. -1.
        3    1    5    5  501    0  0.23828232143E+03  0.14561447775E+03 -0.58610490669E+03  0.64923108558E+03  0.00000000000E+00 0. -1.
       -4    1    5    5    0  501  0.14776032858E+03  0.12154770400E+03 -0.29268245119E+03  0.34967412355E+03  0.14200000000E+01 0.  1.
</event>
<event>
 9   1  0.7335000E-04  0.9712427E+03  0.7818608E-02  0.9340660E-01
        2   -1    0    0  501    0  0.00000000000E+00  0.00000000000E+00  0.16576639441E+04  0.16576639441E+04  0.00000000000E+00 0. -1.
       -2   -1    0    0    0  501 -0.00000000000E+00 -0.00000000000E+00 -0.14226530938E+03  0.14226530938E+03  0.00000000000E+00 0.  1.
       39    2    1    2    0    0  0.00000000000E+00 -0.28421709430E-13  0.15153986347E+04  0.17999292535E+04  0.97124265526E+03 0.  0.
       24    2    3    3    0    0  0.36427707433E+03 -0.24534585105E+03  0.11094756977E+04  0.11957127693E+04  0.76813600808E+02 0.  0.
      -24    2    3    3    0    0 -0.36427707433E+03  0.24534585105E+03  0.40592293704E+03  0.60421648424E+03  0.86091553030E+02 0.  0.
      -13    1    4    4    0    0  0.10785218733E+03 -0.55381224388E+02  0.22769709468E+03  0.25796344945E+03  0.00000000000E+00 0.  1.
       14    1    4    4    0    0  0.25642488700E+03 -0.18996462666E+03  0.88177860301E+03  0.93774931980E+03  0.00000000000E+00 0. -1.
        3    1    5    5  502    0 -0.27309438800E+03  0.22545422681E+03  0.31649192557E+03  0.47494977850E+03  0.00000000000E+00 0. -1.
       -4    1    5    5    0  502 -0.91182686325E+02  0.19891624239E+02  0.89431011473E+02  0.12926670574E+03  0.14200000000E+01 0.  1.
</event>
<event>
 9   1  0.7335000E-04  0.1005634E+04  0.7818608E-02  0.9302387E-01
       21   -1    0    0  503  502  0.00000000000E+00  0.00000000000E+00  0.31093547610E+03  0.31093547610E+03  0.00000000000E+00 0. -1.
       21   -1    0    0  502  503 -0.00000000000E+00 -0.00000000000E+00 -0.81311082105E+03  0.81311082105E+03  0.00000000000E+00 0.  1.
       39    2    1    2    0    0  0.00000000000E+00  0.00000000000E+00 -0.50217534495E+03  0.11240462972E+04  0.10056341288E+04 0.  0.
       24    2    3    3    0    0  0.26012002089E+03 -0.17898749907E+03  0.17672776378E+03  0.37097295421E+03  0.81788019751E+02 0.  0.
      -24    2    3    3    0    0 -0.26012002089E+03  0.17898749907E+03 -0.67890310873E+03  0.75307334295E+03  0.80691255569E+02 0.  0.
      -13    1    4    4    0    0  0.47402196119E+02 -0.37111909497E+02  0.74056252136E+02  0.95438935995E+02  0.00000000000E+00 0.  1.
       14    1    4    4    0    0  0.21271782477E+03 -0.14187558957E+03  0.10267151165E+03  0.27553401821E+03  0.00000000000E+00 0. -1.
        1    1    5    5  501    0 -0.79012638110E+02  0.23362955201E+02 -0.12290534079E+03  0.14796806227E+03  0.00000000000E+00 0. -1.
       -2    1    5    5    0  501 -0.18110738277E+03  0.15562454387E+03 -0.55599776795E+03  0.60510528068E+03  0.00000000000E+00 0.  1.
</event>
<event>
 9   1  0.7335000E-04  0.1000024E+04  0.7818608E-02  0.9308519E-01
       21   -1    0    0  503  502  0.00000000000E+00  0.00000000000E+00  0.59395062503E+03  0.59395062503E+03  0.00000000000E+00 0.  1.
       21   -1    0    0  502  503 -0.00000000000E+00 -0.00000000000E+00 -0.42093032196E+03  0.42093032196E+03  0.00000000000E+00 0. -1.
       39    2    1    2    0    0  0.56843418861E-13  0.00000000000E+00  0.17302030307E+03  0.10148809470E+04  0.10000236554E+04 0.  0.
       24    2    3    3    0    0  0.26406337162E+03 -0.23036833270E+03 -0.26647794465E+03  0.44738803667E+03  0.79665095435E+02 0.  0.
      -24    2    3    3    0    0 -0.26406337162E+03  0.23036833270E+03  0.43949824772E+03  0.56749291032E+03  0.78041402894E+02 0.  0.
      -13    1    4    4    0    0  0.97209285162E+02 -0.38971873599E+02 -0.90939277609E+02  0.13870257483E+03  0.00000000000E+00 0.  1.
       14    1    4    4    0    0  0.16685408646E+03 -0.19139645910E+03 -0.17553866704E+03  0.30868546184E+03  0.00000000000E+00 0. -1.
        3    1    5    5  501    0 -0.19791926994E+02  0.51529122020E+02  0.52837003142E+02  0.76411515436E+02  0.00000000000E+00 0. -1.
       -4    1    5    5    0  501 -0.24427144463E+03  0.17883921068E+03  0.38666124458E+03  0.49108139488E+03  0.14200000000E+01 0.  1.
</event>
<event>
 9   1  0.7335000E-04  0.1003285E+04  0.7818608E-02  0.9304950E-01
       21   -1    0    0  503  502  0.00000000000E+00  0.00000000000E+00  0.23070992687E+04  0.23070992687E+04  0.00000000000E+00 0. -1.
       21   -1    0    0  502  503 -0.00000000000E+00 -0.00000000000E+00 -0.10907419427E+03  0.10907419427E+03  0.00000000000E+00 0.  1.
       39    2    1    2    0    0  0.00000000000E+00  0.56843418861E-13  0.21980250745E+04  0.24161734630E+04  0.10032845934E+04 0.  0.
       24    2    3    3    0    0  0.47672277913E+02  0.26283964821E+03  0.94981100321E+02  0.29472304756E+03  0.80516697596E+02 0.  0.
      -24    2    3    3    0    0 -0.47672277913E+02 -0.26283964821E+03  0.21030439741E+04  0.21214504154E+04  0.80003632641E+02 0.  0.
      -13    1    4    4    0    0  0.44671310486E+02  0.20711245338E+03  0.10741307134E+03  0.23754717894E+03  0.00000000000E+00 0.  1.
       14    1    4    4    0    0  0.30009674273E+01  0.55727194829E+02 -0.12431971023E+02  0.57175868621E+02  0.00000000000E+00 0. -1.
        3    1    5    5  501    0 -0.43057881133E+02 -0.19248848038E+03  0.12466001394E+04  0.12621084358E+04  0.00000000000E+00 0. -1.
       -4    1    5    5    0  501 -0.46143967804E+01 -0.70351167834E+02  0.85644383479E+03  0.85934197967E+03  0.14200000000E+01 0.  1.
</event>
<event>
 9   1  0.7335000E-04  0.9936848E+03  0.7818608E-02  0.9315498E-01
       -2   -1    0    0    0  501 -0.00000000000E+00  0.00000000000E+00  0.93099448705E+02  0.93099448705E+02  0.00000000000E+00 0.  1.
        2   -1    0    0  501    0  0.00000000000E+00 -0.00000000000E+00 -0.26514910212E+04  0.26514910212E+04  0.00000000000E+00 0. -1.
       39    2    1    2    0    0  0.00000000000E+00  0.00000000000E+00 -0.25583915725E+04  0.27445904700E+04  0.99368476354E+03 0.  0.
       24    2    3    3    0    0  0.27380946075E+03 -0.10191205485E+03 -0.19764732613E+03  0.36450157289E+03  0.91865354708E+02 0.  0.
      -24    2    3    3    0    0 -0.27380946075E+03  0.10191205485E+03 -0.23607442464E+04  0.23800888971E+04  0.79699894640E+02 0.  0.
      -13    1    4    4    0    0  0.23893452364E+03 -0.56004942488E+02 -0.17953764058E+03  0.30407240018E+03  0.00000000000E+00 0.  1.
       14    1    4    4    0    0  0.34874937114E+02 -0.45907112357E+02 -0.18109685553E+02  0.60429172711E+02  0.00000000000E+00 0. -1.
        1    1    5    5  502    0 -0.24560861668E+03  0.75391292814E+02 -0.18317206137E+04  0.18496507362E+04  0.00000000000E+00 0. -1.
       -2    1    5    5    0  502 -0.28200844071E+02  0.26520762032E+02 -0.52902363276E+03  0.53043816081E+03  0.00000000000E+00 0.  1.
</event>
<event>
 9   1  0.7335000E-04  0.9977756E+03  0.7818608E-02  0.9310988E-01
       21   -1    0    0  503  502  0.00000000000E+00  0.00000000000E+00  0.92281878002E+03  0.92281878002E+03  0.00000000000E+00 0.  1.
       21   -1    0    0  502  503 -0.00000000000E+00 -0.00000000000E+00 -0.26970520268E+03  0.26970520268E+03  0.00000000000E+00 0. -1.
       39    2    1    2    0    0  0.00000000000E+00  0.00000000000E+00  0.65311357735E+03  0.11925239827E+04  0.99777557818E+03 0.  0.
       24    2    3    3    0    0  0.29755556512E+03 -0.68998995642E+02 -0.13513059741E+03  0.34303564814E+03  0.78185687987E+02 0.  0.
      -24    2    3    3    0    0 -0.29755556512E+03  0.68998995642E+02  0.78824417476E+03  0.84948833456E+03  0.83674224052E+02 0.  0.
      -13    1    4    4    0    0  0.58909718887E+02 -0.12112435268E+01  0.31634288763E+01  0.59007028161E+02  0.00000000000E+00 0.  1.
       14    1    4    4    0    0  0.23864584624E+03 -0.67787752115E+02 -0.13829402629E+03  0.28402861998E+03  0.00000000000E+00 0. -1.
        1    1    5    5  501    0 -0.24813776100E+02  0.28643795714E+02  0.61941825375E+02  0.72615289355E+02  0.00000000000E+00 0. -1.
       -2    1    5    5    0  501 -0.27274178902E+03  0.40355199928E+02  0.72630234938E+03  0.77687304520E+03  0.00000000000E+00 0.  1.
</event>
<event>
 9   1  0.7335000E-04  0.1006280E+04  0.7818608E-02  0.9301683E-01
       21   -1    0    0  503  502  0.00000000000E+00  0.00000000000E+00  0.14286548145E+04  0.14286548145E+04  0.00000000000E+00 0.  1.
       21   -1    0    0  502  503 -0.00000000000E+00 -0.00000000000E+00 -0.17719466759E+03  0.17719466759E+03  0.00000000000E+00 0. -1.
       39    2    1    2    0    0 -0.11368683772E-12  0.00000000000E+00  0.12514601469E+04  0.16058494821E+04  0.10062803088E+04 0.  0.
       24    2    3    3    0    0  0.35018047974E+03 -0.67653792119E+02  0.11763438422E+04  0.12318149390E+04  0.79873681113E+02 0.  0.
      -24    2    3    3    0    0 -0.35018047974E+03  0.67653792119E+02  0.75116304651E+02  0.37403454302E+03  0.83999858169E+02 0.  0.
      -13    1    4    4    0    0  0.22862110113E+03 -0.54882843095E+02  0.88877406095E+03  0.91934708667E+03  0.00000000000E+00 0.  1.
       14    1    4    4    0    0  0.12155937860E+03 -0.12770949024E+02  0.28756978128E+03  0.31246785238E+03  0.00000000000E+00 0. -1.
        1    1    5    5  501    0 -0.34886316075E+03  0.76695581814E+02  0.74468750345E+02  0.36487437835E+03  0.00000000000E+00 0. -1.
       -2    1    5    5    0  501 -0.13173189845E+01 -0.90417896951E+01  0.64755430539E+00  0.91601646697E+01  0.00000000000E+00 0.  1.
</event>
<event>
 9   1  0.7335000E-04  0.1007663E+04  0.7818608E-02  0.9300179E-01
        2   -1    0    0  501    0  0.00000000000E+00  0.00000000000E+00  0.13707553595E+04  0.13707553595E+04  0.00000000000E+00 0.  1.
       -2   -1    0    0    0  501 -0.00000000000E+00 -0.00000000000E+00 -0.18518723282E+03  0.18518723282E+03  0.00000000000E+00 0. -1.
       39    2    1    2    0    0  0.28421709430E-13 -0.56843418861E-13  0.11855681267E+04  0.15559425923E+04  0.10076634198E+04 0.  0.
       24    2    3    3    0    0 -0.22535802134E+03  0.40518108889E+03  0.31409082473E+03  0.56540906258E+03  0.77951326425E+02 0.  0.
      -24    2    3    3    0    0  0.22535802134E+03 -0.40518108889E+03  0.87147730193E+03  0.99053352972E+03  0.82012396293E+02 0.  0.
      -13    1    4    4    0    0 -0.53484380520E+02  0.15999414555E+03  0.88431936567E+02  0.19047024170E+03  0.00000000000E+00 0.  1.
       14    1    4    4    0    0 -0.17187364082E+03  0.24518694335E+03  0.22565888816E+03  0.37493882088E+03  0.00000000000E+00 0. -1.
        1    1    5    5  502    0  0.51791583235E+02 -0.16492197512E+03  0.36086379225E+03  0.40013035693E+03  0.00000000000E+00 0. -1.
       -2    1    5    5    0  502  0.17356643810E+03 -0.24025911377E+03  0.51061350968E+03  0.59040317280E+03  0.00000000000E+00 0.  1.
</event>
<event>
 9   1  0.7335000E-04  0.1005586E+04  0.7818608E-02  0.9302439E-01
       21   -1    0    0  503  502  0.00000000000E+00  0.00000000000E+00  0.23981139669E+04  0.23981139669E+04  0.00000000000E+00 0. -1.
       21   -1    0    0  502  503 -0.00000000000E+00 -0.00000000000E+00 -0.10541654845E+03  0.10541654845E+03  0.00000000000E+00 0.  1.
       39    2    1    2    0    0 -0.56843418861E-13  0.35527136788E-14  0.22926974184E+04  0.25035305153E+04  0.10055861916E+04 0.  0.
       24    2    3    3    0    0 -0.34451057333E+03 -0.15189307385E+02  0.20354645471E+04  0.20660007369E+04  0.79529066213E+02 0.  0.
      -24    2    3    3    0    0  0.34451057333E+03  0.15189307385E+02  0.25723287137E+03  0.43752977843E+03  0.79657433458E+02 0.  0.
      -13    1    4    4    0    0 -0.69642908794E+02 -0.14323571874E+02  0.62262602804E+03  0.62667253829E+03  0.00000000000E+00 0.  1.
       14    1    4    4    0    0 -0.27486766454E+03 -0.86573551083E+00  0.14128385190E+04  0.14393281986E+04  0.00000000000E+00 0. -1.
        1    1    5    5  501    0  0.15148230503E+03 -0.20970668812E+02  0.78090522506E+02  0.17171134905E+03  0.00000000000E+00 0. -1.
       -2    1    5    5    0  501  0.19302826830E+03  0.36159976197E+02  0.17914234886E+03  0.26581842938E+03  0.00000000000E+00 0.  1.
</event>
<event>
 9   1  0.7335000E-04  0.1025171E+04  0.7818608E-02  0.9281361E-01
       21   -1    0    0  503  502  0.00000000000E+00  0.00000000000E+00  0.14579325359E+03  0.14579325359E+03  0.00000000000E+00 0. -1.
       21   -1    0    0  502  503 -0.00000000000E+00 -0.00000000000E+00 -0.18021676254E+04  0.18021676254E+04  0.00000000000E+00 0.  1.
       39    2    1    2    0    0  0.00000000000E+00  0.00000000000E+00 -0.16563743718E+04  0.19479608790E+04  0.10251709743E+04 0.  0.
       24    2    3    3    0    0 -0.10713892968E+03 -0.12756142987E+02 -0.17678128866E+04  0.17728358660E+04  0.78378162486E+02 0.  0.
      -24    2    3    3    0    0  0.10713892968E+03  0.12756142987E+02  0.11143851478E+03  0.17512501298E+03  0.81294268905E+02 0.  0.
      -13    1    4    4    0    0 -0.57921129659E+02 -0.40107126606E+02 -0.69915868443E+03  0.70269929905E+03  0.00000000000E+00 0.  1.
       14    1    4    4    0    0 -0.49217800017E+02  0.27350983618E+02 -0.10686542022E+04  0.10701365670E+04  0.00000000000E+00 0. -1.
        1    1    5    5  501    0  0.41369923125E+02 -0.55859611719E+01  0.96625865409E+02  0.10525792781E+03  0.00000000000E+00 0. -1.
       -2    1    5    5    0  501  0.65769006550E+02  0.18342104159E+02  0.14812649374E+02  0.69867085163E+02  0.00000000000E+00 0.  1.
</event>
<event>
 9   1  0.7335000E-04  0.9928996E+03  0.7818608E-02  0.9316367E-01
       21   -1    0    0  503  502  0.00000000000E+00  0.00000000000E+00  0.28014878262E+03  0.28014878262E+03  0.00000000000E+00 0. -1.
       21   -1    0    0  502  503 -0.00000000000E+00 -0.00000000000E+00 -0.87975546773E+03  0.87975546773E+03  0.00000000000E+00 0.  1.
       39    2    1    2    0    0  0.28421709430E-13  0.00000000000E+00 -0.59960668511E+03  0.11599042503E+04  0.99289963901E+03 0.  0.
       24    2    3    3    0    0 -0.16626680370E+03 -0.19733012593E+03 -0.78622791218E+03  0.83098638663E+03  0.76159150915E+02 0.  0.
      -24    2    3    3    0    0  0.16626680370E+03  0.19733012593E+03  0.18662122707E+03  0.32891786372E+03  0.82314336962E+02 0.  0.
      -13    1    4    4    0    0 -0.14817366740E+03 -0.15077314290E+03 -0.54332203220E+03  0.58299811921E+03  0.00000000000E+00 0.  1.
       14    1    4    4    0    0 -0.18093136297E+02 -0.46556983029E+02 -0.24290587998E+03  0.24798826742E+03  0.00000000000E+00 0. -1.
        3    1    5    5  501    0  0.12290348331E+03  0.85641922926E+02  0.88025841093E+02  0.17374796077E+03  0.00000000000E+00 0. -1.
       -4    1    5    5    0  501  0.43363320389E+02  0.11168820300E+03  0.98595385976E+02  0.15516990295E+03  0.14200000000E+01 0.  1.
</event>
<event>
 9   1  0.7335000E-04  0.9999151E+03  0.7818608E-02  0.9308638E-01
       21   -1    0    0  503  502  0.00000000000E+00  0.00000000000E+00  0.32722273109E+03  0.32722273109E+03  0.00000000000E+00 0. -1.
       21   -1    0    0  502  503 -0.00000000000E+00 -0.00000000000E+00 -0.76387583701E+03  0.76387583701E+03  0.00000000000E+00 0.  1.
       39    2    1    2    0    0  0.00000000000E+00  0.00000000000E+00 -0.43665310592E+03  0.10910985681E+04  0.99991507160E+03 0.  0.
       24    2    3    3    0    0 -0.43041036339E+03 -0.11329552197E+03  0.73973629296E+01  0.45712908768E+03  0.10403521333E+03 0.  0.
      -24    2    3    3    0    0  0.43041036339E+03  0.11329552197E+03 -0.44405046885E+03  0.63396948043E+03  0.81532367874E+02 0.  0.
      -13    1    4    4    0    0 -0.62928450183E+02  0.13873415758E+02 -0.19530522455E+02  0.67334261819E+02  0.00000000000E+00 0.  1.
       14    1    4    4    0    0 -0.36748191321E+03 -0.12716893773E+03  0.26927885385E+02  0.38979482586E+03  0.00000000000E+00 0. -1.
        3    1    5    5  501    0  0.13064689487E+02  0.35510049744E+01  0.15902123307E+01  0.13631746879E+02  0.00000000000E+00 0. -1.
       -4    1    5    5    0  501  0.41734567390E+03  0.10974451699E+03 -0.44564068118E+03  0.62033773355E+03  0.14200000000E+01 0.  1.
</event>
<event>
 9   1  0.7335000E-04  0.1019586E+04  0.7818608E-02  0.9287320E-01
       21   -1    0    0  503  502  0.00000000000E+00  0.00000000000E+00  0.94023896263E+03  0.94023896263E+03  0.00000000000E+00 0. -1.
       21   -1    0    0  502  503 -0.00000000000E+00 -0.00000000000E+00 -0.27640732255E+03  0.27640732255E+03  0.00000000000E+00 0.  1.
       39    2    1    2    0    0  0.56843418861E-13  0.00000000000E+00  0.66383164007E+03  0.12166462852E+04  0.10195860615E+04 0.  0.
       24    2    3    3    0    0 -0.35604675152E+03  0.15404839120E+03 -0.50811528701E+02  0.39951978813E+03  0.80833492835E+02 0.  0.
      -24    2    3    3    0    0  0.35604675152E+03 -0.15404839120E+03  0.71464316878E+03  0.81712649705E+03  0.80502530397E+02 0.  0.
      -13    1    4    4    0    0 -0.20605043325E+03  0.49451390476E+02 -0.98878033795E+01  0.21213201012E+03  0.00000000000E+00 0.  1.
       14    1    4    4    0    0 -0.14999631827E+03  0.10459700072E+03 -0.40923725322E+02  0.18738777801E+03  0.00000000000E+00 0. -1.
        1    1    5    5  501    0  0.23035198404E+03 -0.13596995382E+03  0.44779944246E+03  0.52160732890E+03  0.00000000000E+00 0. -1.
       -2    1    5    5    0  501  0.12569476748E+03 -0.18078437381E+02  0.26684372631E+03  0.29551916815E+03  0.00000000000E+00 0.  1.
</event>
<event>
 9   1  0.7335000E-04  0.1028812E+04  0.7818608E-02  0.9277497E-01
       21   -1    0    0  503  502  0.00000000000E+00  0.00000000000E+00  0.47540746101E+03  0.47540746101E+03  0.00000000000E+00 0. -1.
       21   -1    0    0  502  503 -0.00000000000E+00 -0.00000000000E+00 -0.55660375762E+03  0.55660375762E+03  0.00000000000E+00 0.  1.
       39    2    1    2    0    0  0.00000000000E+00  0.00000000000E+00 -0.81196296611E+02  0.10320112186E+04  0.10288120901E+04 0.  0.
       24    2    3    3    0    0  0.30923926309E+03  0.21756402746E+03  0.30005205150E+03  0.48940249587E+03  0.80749869847E+02 0.  0.
      -24    2    3    3    0    0 -0.30923926309E+03 -0.21756402746E+03 -0.38124834811E+03  0.54260872276E+03  0.78172214982E+02 0.  0.
      -13    1    4    4    0    0  0.17780287652E+03  0.10220336601E+03  0.11643997789E+03  0.23583396569E+03  0.00000000000E+00 0.  1.
       14    1    4    4    0    0  0.13143638657E+03  0.11536066145E+03  0.18361207361E+03  0.25356853019E+03  0.00000000000E+00 0. -1.
        1    1    5    5  501    0 -0.22151329764E+03 -0.19011390456E+03 -0.26365012967E+03  0.39334822818E+03  0.00000000000E+00 0. -1.
       -2    1    5    5    0  501 -0.87725965451E+02 -0.27450122903E+02 -0.11759821843E+03  0.14926049457E+03  0.00000000000E+00 0.  1.
</event>
<event>
 9   1  0.7335000E-04  0.1003373E+04  0.7818608E-02  0.9304853E-01
       21   -1    0    0  503  502  0.00000000000E+00  0.00000000000E+00  0.31522863837E+03  0.31522863837E+03  0.00000000000E+00 0.  1.
       21   -1    0    0  502  503 -0.00000000000E+00 -0.00000000000E+00 -0.79843377585E+03  0.79843377585E+03  0.00000000000E+00 0. -1.
       39    2    1    2    0    0  0.00000000000E+00 -0.56843418861E-13 -0.48320513748E+03  0.11136624142E+04  0.10033726964E+04 0.  0.
       24    2    3    3    0    0  0.32634833633E+03 -0.18006749567E+03 -0.60368566376E+03  0.71400794687E+03  0.80270965699E+02 0.  0.
      -24    2    3    3    0    0 -0.32634833633E+03  0.18006749567E+03  0.12048052628E+03  0.39965446735E+03  0.79250214135E+02 0.  0.
      -13    1    4    4    0    0  0.13380659001E+03 -0.42478131019E+02 -0.27784519486E+03  0.31129816487E+03  0.00000000000E+00 0.  1.
       14    1    4    4    0    0  0.19254174632E+03 -0.13758936465E+03 -0.32584046890E+03  0.40270978199E+03  0.00000000000E+00 0. -1.
        1    1    5    5  501    0 -0.33408785198E+02  0.37342493224E+02 -0.52509108950E+01  0.50380361192E+02  0.00000000000E+00 0. -1.
       -2    1    5    5    0  501 -0.29293955113E+03  0.14272500244E+03  0.12573143718E+03  0.34927410616E+03  0.00000000000E+00 0.  1.
</event>
<event>
 9   1  0.7335000E-04  0.1010186E+04  0.7818608E-02  0.9297443E-01
       21   -1    0    0  503  502  0.00000000000E+00  0.00000000000E+00  0.15154257702E+03  0.15154257702E+03  0.00000000000E+00 0.  1.
       21   -1    0    0  502  503 -0.00000000000E+00 -0.00000000000E+00 -0.16834790108E+04  0.16834790108E+04  0.00000000000E+00 0. -1.
       39    2    1    2    0    0  0.00000000000E+00  0.00000000000E+00 -0.15319364338E+04  0.18350215878E+04  0.10101856219E+04 0.  0.
       24    2    3    3    0    0 -0.21709533963E+03 -0.12225044779E+03 -0.15504388934E+04  0.15723680513E+04  0.80031043874E+02 0.  0.
      -24    2    3    3    0    0  0.21709533963E+03  0.12225044779E+03  0.18502459671E+02  0.26265353650E+03  0.81049248924E+02 0.  0.
      -13    1    4    4    0    0 -0.22262660220E+02 -0.35332532422E+02 -0.41205476740E+03  0.41416560121E+03  0.00000000000E+00 0.  1.
       14    1    4    4    0    0 -0.19483267941E+03 -0.86917915373E+02 -0.11383841260E+04  0.11582024501E+04  0.00000000000E+00 0. -1.
        3    1    5    5  501    0  0.98675517830E+02  0.82753552205E+02 -0.23553637188E+02  0.13091899040E+03  0.00000000000E+00 0. -1.
       -4    1    5    5    0  501  0.11841982180E+03  0.39496895589E+02  0.42056096859E+02  0.13173454611E+03  0.14200000000E+01 0.  1.
</event>
<event>
 9   1  0.7335000E-04  0.9958498E+03  0.7818608E-02  0.9313108E-01
       21   -1    0    0  503  502  0.00000000000E+00  0.00000000000E+00  0.73476270105E+03  0.73476270105E+03  0.00000000000E+00 0.  1.
       21   -1    0    0  502  503 -0.00000000000E+00 -0.00000000000E+00 -0.33742759256E+03  0.33742759256E+03  0.00000000000E+00 0. -1.
       39    2    1    2    0    0  0.00000000000E+00  0.35527136788E-14  0.39733510848E+03  0.10721902936E+04  0.99584980659E+03 0.  0.
       24    2    3    3    0    0 -0.19025163948E+02  0.27698589302E+02 -0.32978006229E+03  0.34011224420E+03  0.76107032929E+02 0.  0.
      -24    2    3    3    0    0  0.19025163948E+02 -0.27698589302E+02  0.72711517077E+03  0.73207804941E+03  0.78183311142E+02 0.  0.
      -13    1    4    4    0    0 -0.36691364870E+02 -0.29049877393E+01 -0.82733057613E+02  0.90550836726E+02  0.00000000000E+00 0.  1.
       14    1    4    4    0    0  0.17666200922E+02  0.30603577041E+02 -0.24704700468E+03  0.24956140748E+03  0.00000000000E+00 0. -1.
        1    1    5    5  501    0 -0.16239085390E+02 -0.46178492308E+01  0.36917237749E+02  0.40594517719E+02  0.00000000000E+00 0. -1.
       -2    1    5    5    0  501  0.35264249338E+02 -0.23080740071E+02  0.69019793302E+03  0.69148353169E+03  0.00000000000E+00 0.  1.
</event>
<event>
 9   1  0.7335000E-04  0.9985684E+03  0.7818608E-02  0.9310116E-01
       21   -1    0    0  503  502  0.00000000000E+00  0.00000000000E+00  0.12733192615E+04  0.12733192615E+04  0.00000000000E+00 0.  1.
       21   -1    0    0  502  503 -0.00000000000E+00 -0.00000000000E+00 -0.19577549876E+03  0.19577549876E+03  0.00000000000E+00 0. -1.
       39    2    1    2    0    0  0.00000000000E+00 -0.56843418861E-13  0.10775437627E+04  0.14690947602E+04  0.99856840225E+03 0.  0.
       24    2    3    3    0    0  0.28242173577E+03  0.40379023107E+03  0.52530257799E+03  0.72472279073E+03  0.80447109385E+02 0.  0.
      -24    2    3    3    0    0 -0.28242173577E+03 -0.40379023107E+03  0.55224118470E+03  0.74437196949E+03  0.79440010874E+02 0.  0.
      -13    1    4    4    0    0  0.81496073530E+02  0.13535863947E+03  0.22276926685E+03  0.27311118164E+03  0.00000000000E+00 0.  1.
       14    1    4    4    0    0  0.20092566224E+03  0.26843159160E+03  0.30253331113E+03  0.45161160909E+03  0.00000000000E+00 0. -1.
        1    1    5    5  501    0 -0.21738038982E+03 -0.24685616555E+03  0.35153554056E+03  0.48142438308E+03  0.00000000000E+00 0. -1.
       -2    1    5    5    0  501 -0.65041345952E+02 -0.15693406553E+03  0.20070564414E+03  0.26294758641E+03  0.00000000000E+00 0.  1.
</event>
<event>
 9   1  0.7335000E-04  0.9868428E+03  0.7818608E-02  0.9323094E-01
        1   -1    0    0  501    0  0.00000000000E+00  0.00000000000E+00  0.14137753013E+04  0.14137753013E+04  0.00000000000E+00 0. -1.
       -1   -1    0    0    0  501 -0.00000000000E+00 -0.00000000000E+00 -0.17220890068E+03  0.17220890068E+03  0.00000000000E+00 0.  1.
       39    2    1    2    0    0  0.28421709430E-13 -0.56843418861E-13  0.12415664006E+04  0.15859842019E+04  0.98684282526E+03 0.  0.
       24    2    3    3    0    0 -0.17478960674E+03 -0.45436020830E+03  0.62362528876E+03  0.79526615445E+03  0.80902102124E+02 0.  0.
      -24    2    3    3    0    0  0.17478960674E+03  0.45436020830E+03  0.61794111182E+03  0.79071804749E+03  0.79932518075E+02 0.  0.
      -13    1    4    4    0    0 -0.14864914899E+03 -0.43750907412E+03  0.59095859280E+03  0.75016186109E+03  0.00000000000E+00 0.  1.
       14    1    4    4    0    0 -0.26140457756E+02 -0.16851134179E+02  0.32666695962E+02  0.45104293364E+02  0.00000000000E+00 0. -1.
        1    1    5    5  502    0 -0.66266384821E+01  0.76337030755E+01  0.21548630000E+02  0.23801874193E+02  0.00000000000E+00 0. -1.
       -2    1    5    5    0  502  0.18141624522E+03  0.44672650522E+03  0.59639248182E+03  0.76691617330E+03  0.00000000000E+00 0.  1.
</event>
<event>
 9   1  0.7335000E-04  0.9828079E+03  0.7818608E-02  0.9327604E-01
       21   -1    0    0  503  502  0.00000000000E+00  0.00000000000E+00  0.79370109744E+03  0.79370109744E+03  0.00000000000E+00 0.  1.
       21   -1    0    0  502  503 -0.00000000000E+00 -0.00000000000E+00 -0.30424276728E+03  0.30424276728E+03  0.00000000000E+00 0. -1.
       39    2    1    2    0    0  0.28421709430E-13 -0.28421709430E-13  0.48945833016E+03  0.10979438647E+04  0.98280785157E+03 0.  0.
       24    2    3    3    0    0  0.23777371777E+03  0.17881447153E+03  0.67242587156E+03  0.73935860858E+03  0.77354012430E+02 0.  0.
      -24    2    3    3    0    0 -0.23777371777E+03 -0.17881447153E+03 -0.18296754140E+03  0.35858525614E+03  0.81211505473E+02 0.  0.
      -13    1    4    4    0    0  0.21086869053E+03  0.16807175236E+03  0.64649504759E+03  0.70047809755E+03  0.00000000000E+00 0.  1.
       14    1    4    4    0    0  0.26905027236E+02  0.10742719172E+02  0.25930823971E+02  0.38880511026E+02  0.00000000000E+00 0. -1.
        1    1    5    5  501    0 -0.14293526805E+03 -0.15405346977E+03 -0.11833521205E+03  0.24117666722E+03  0.00000000000E+00 0. -1.
       -2    1    5    5    0  501 -0.94838449724E+02 -0.24761001759E+02 -0.64632329347E+02  0.11740858891E+03  0.00000000000E+00 0.  1.
</event>
<event>
 9   1  0.7335000E-04  0.9945892E+03  0.7818608E-02  0.9314499E-01
       21   -1    0    0  503  502  0.00000000000E+00  0.00000000000E+00  0.48567653432E+03  0.48567653432E+03  0.00000000000E+00 0.  1.
       21   -1    0    0  502  503 -0.00000000000E+00 -0.00000000000E+00 -0.50919053996E+03  0.50919053996E+03  0.00000000000E+00 0. -1.
       39    2    1    2    0    0  0.00000000000E+00  0.00000000000E+00 -0.23514005639E+02  0.99486707427E+03  0.99458915488E+03 0.  0.
       24    2    3    3    0    0 -0.17668479817E+03 -0.20268186437E+03 -0.42251231165E+03  0.50675893831E+03  0.77398397970E+02 0.  0.
      -24    2    3    3    0    0  0.17668479817E+03  0.20268186437E+03  0.39899830601E+03  0.48810813596E+03  0.82173281202E+02 0.  0.
      -13    1    4    4    0    0 -0.13084681421E+01 -0.38571317018E+02 -0.44608920658E+02  0.58986561077E+02  0.00000000000E+00 0.  1.
       14    1    4    4    0    0 -0.17537633003E+03 -0.16411054735E+03 -0.37790339100E+03  0.44777237723E+03  0.00000000000E+00 0. -1.
        1    1    5    5  501    0  0.32592357160E+02  0.95649368171E+02  0.15942571821E+03  0.18875280926E+03  0.00000000000E+00 0. -1.
       -2    1    5    5    0  501  0.14409244101E+03  0.10703249620E+03  0.23957258780E+03  0.29935532670E+03  0.00000000000E+00 0.  1.
</event>
<event>
 9   1  0.7335000E-04  0.1044718E+04  0.7818608E-02  0.9260814E-01
       21   -1    0    0  503  502  0.00000000000E+00  0.00000000000E+00  0.38014359715E+03  0.38014359715E+03  0.00000000000E+00 0. -1.
       21   -1    0    0  502  503 -0.00000000000E+00 -0.00000000000E+00 -0.71777916249E+03  0.71777916249E+03  0.00000000000E+00 0.  1.
       39    2    1    2    0    0  0.00000000000E+00  0.00000000000E+00 -0.33763556534E+03  0.10979227596E+04  0.10447184363E+04 0.  0.
       24    2    3    3    0    0 -0.11838118764E+03 -0.17612379269E+03  0.32513044283E+03  0.39742283730E+03  0.84861126615E+02 0.  0.
      -24    2    3    3    0    0  0.11838118764E+03  0.17612379269E+03 -0.66276600817E+03  0.70049992234E+03  0.80047883642E+02 0.  0.
      -13    1    4    4    0    0 -0.89522445388E+02 -0.13466203992E+03  0.17155541023E+03  0.23575281972E+03  0.00000000000E+00 0.  1.
       14    1    4    4    0    0 -0.28858742256E+02 -0.41461752769E+02  0.15357503260E+03  0.16167001758E+03  0.00000000000E+00 0. -1.
        3    1    5    5  501    0 -0.81740714536E+01  0.79872627082E+01 -0.12085149809E+02  0.16633179359E+02  0.00000000000E+00 0. -1.
       -4    1    5    5    0  501  0.12655525910E+03  0.16813652998E+03 -0.65068085836E+03  0.68386674298E+03  0.14200000000E+01 0.  1.
</event>
<event>
 9   1  0.7335000E-04  0.1015384E+04  0.7818608E-02  0.9291831E-01
       21   -1    0    0  503  502  0.00000000000E+00  0.00000000000E+00  0.25690193856E+03  0.25690193856E+03  0.00000000000E+00 0.  1.
       21   -1    0    0  502  503 -0.00000000000E+00 -0.00000000000E+00 -0.10033054953E+04  0.10033054953E+04  0.00000000000E+00 0. -1.
       39    2    1    2    0    0 -0.56843418861E-13  0.00000000000E+00 -0.74640355672E+03  0.12602074338E+04  0.10153839209E+04 0.  0.
       24    2    3    3    0    0  0.35385662493E+03  0.27309213690E+03 -0.91693551468E+02  0.46347371651E+03  0.81279470141E+02 0.  0.
      -24    2    3    3    0    0 -0.35385662493E+03 -0.27309213690E+03 -0.65471000525E+03  0.79673371734E+03  0.79659268866E+02 0.  0.
      -13    1    4    4    0    0  0.79886150871E+02  0.24307721207E+02 -0.67286910914E+01  0.83773132299E+02  0.00000000000E+00 0.  1.
       14    1    4    4    0    0  0.27397047406E+03  0.24878441569E+03 -0.84964860377E+02  0.37970058421E+03  0.00000000000E+00 0. -1.
        1    1    5    5  501    0 -0.18088833207E+03 -0.18817925083E+03 -0.36185659661E+03  0.44617509526E+03  0.00000000000E+00 0. -1.
       -2    1    5    5    0  501 -0.17296829287E+03 -0.84912886074E+02 -0.29285340864E+03  0.35055862208E+03  0.00000000000E+00 0.  1.
</event>
<event>
 9   1  0.7335000E-04  0.1101261E+04  0.7818608E-02  0.9203964E-01
       21   -1    0    0  503  502  0.00000000000E+00  0.00000000000E+00  0.26254097803E+03  0.26254097803E+03  0.00000000000E+00 0. -1.
       21   -1    0    0  502  503 -0.00000000000E+00 -0.00000000000E+00 -0.11548446094E+04  0.11548446094E+04  0.00000000000E+00 0.  1.
       39    2    1    2    0    0  0.00000000000E+00  0.00000000000E+00 -0.89230363138E+03  0.14173855875E+04  0.11012611556E+04 0.  0.
       24    2    3    3    0    0 -0.34777056294E+03 -0.22474214724E+03  0.89379441765E+01  0.42222658074E+03  0.82109691526E+02 0.  0.
      -24    2    3    3    0    0  0.34777056294E+03  0.22474214724E+03 -0.90124157556E+03  0.99515900671E+03  0.81557795033E+02 0.  0.
      -13    1    4    4    0    0 -0.85292265716E+02 -0.19654102033E+02 -0.12603634946E+02  0.88430231999E+02  0.00000000000E+00 0.  1.
       14    1    4    4    0    0 -0.26247829722E+03 -0.20508804520E+03  0.21541579122E+02  0.33379634874E+03  0.00000000000E+00 0. -1.
        1    1    5    5  501    0  0.31428114950E+02  0.15343171085E+02 -0.34958616411E+02  0.49449410205E+02  0.00000000000E+00 0. -1.
       -2    1    5    5    0  501  0.31634244799E+03  0.20939897615E+03 -0.86628295915E+03  0.94570959651E+03  0.00000000000E+00 0.  1.
</event>
<event>
 9   1  0.7335000E-04  0.1002147E+04  0.7818608E-02  0.9306194E-01
        2   -1    0    0  501    0  0.00000000000E+00  0.00000000000E+00  0.47980122656E+03  0.47980122656E+03  0.00000000000E+00 0.  1.
       -2   -1    0    0    0  501 -0.00000000000E+00 -0.00000000000E+00 -0.52328854660E+03  0.52328854660E+03  0.00000000000E+00 0. -1.
       39    2    1    2    0    0  0.00000000000E+00  0.56843418861E-13 -0.43487320043E+02  0.10030897732E+04  0.10021466689E+04 0.  0.
       24    2    3    3    0    0  0.32505343457E+02  0.34317221534E+03  0.33252827711E+03  0.48561086090E+03  0.80119201285E+02 0.  0.
      -24    2    3    3    0    0 -0.32505343457E+02 -0.34317221534E+03 -0.37601559715E+03  0.51747891226E+03  0.87022575251E+02 0.  0.
      -13    1    4    4    0    0 -0.62103997449E+01  0.16187124491E+03  0.20175685801E+03  0.25874060128E+03  0.00000000000E+00 0.  1.
       14    1    4    4    0    0  0.38715743202E+02  0.18130097043E+03  0.13077141910E+03  0.22687025962E+03  0.00000000000E+00 0. -1.
        3    1    5    5  502    0 -0.18957121390E+02 -0.26064300416E+03 -0.33336311452E+03  0.42358601747E+03  0.00000000000E+00 0. -1.
       -4    1    5    5    0  502 -0.13548222068E+02 -0.82529211180E+02 -0.42652482627E+02  0.93892894797E+02  0.14200000000E+01 0.  1.
</event>
<event>
 9   1  0.7335000E-04  0.1001790E+04  0.7818608E-02  0.9306583E-01
       -2   -1    0    0    0  501 -0.00000000000E+00  0.00000000000E+00  0.37908312316E+03  0.37908312316E+03  0.00000000000E+00 0. -1.
        2   -1    0    0  501    0  0.00000000000E+00 -0.00000000000E+00 -0.66184947417E+03  0.66184947417E+03  0.00000000000E+00 0.  1.
       39    2    1    2    0    0  0.00000000000E+00  0.56843418861E-13 -0.28276635100E+03  0.10409325973E+04  0.10017903288E+04 0.  0.
       24    2    3    3    0    0 -0.41672898787E+03 -0.24834986380E+03 -0.41853247809E+02  0.49346687224E+03  0.80107149929E+02 0.  0.
      -24    2    3    3    0    0  0.41672898787E+03  0.24834986380E+03 -0.24091310319E+03  0.54746572509E+03  0.79617163195E+02 0.  0.
      -13    1    4    4    0    0 -0.72308732423E+02 -0.36733683227E+02 -0.37139378474E+02  0.89203417544E+02  0.00000000000E+00 0.  1.
       14    1    4    4    0    0 -0.34442025544E+03 -0.21161618058E+03 -0.47138693358E+01  0.40426345470E+03  0.00000000000E+00 0. -1.
        3    1    5    5  502    0  0.60291806980E+02  0.70680508791E+02 -0.54784305192E+02  0.10785247520E+03  0.00000000000E+00 0. -1.
       -4    1    5    5    0  502  0.35643718089E+03  0.17766935501E+03 -0.18612879800E+03  0.43961324989E+03  0.14200000000E+01 0.  1.
</event>
<event>
 9   1  0.7335000E-04  0.9996356E+03  0.7818608E-02  0.9308945E-01
        1   -1    0    0  501    0  0.00000000000E+00  0.00000000000E+00  0.12178245725E+04  0.12178245725E+04  0.00000000000E+00 0.  1.
       -1   -1    0    0    0  501 -0.00000000000E+00 -0.00000000000E+00 -0.20513450662E+03  0.20513450662E+03  0.00000000000E+00 0. -1.
       39    2    1    2    0    0  0.00000000000E+00  0.56843418861E-13  0.10126900658E+04  0.14229590791E+04  0.99963561924E+03 0.  0.
       24    2    3    3    0    0 -0.35950255582E+03  0.32224565645E+03  0.65058638784E+03  0.81423248465E+03  0.81409706283E+02 0.  0.
      -24    2    3    3    0    0  0.35950255582E+03 -0.32224565645E+03  0.36210367800E+03  0.60872659442E+03  0.79653263520E+02 0.  0.
      -13    1    4    4    0    0 -0.30870935872E+03  0.27417108154E+03  0.59819545425E+03  0.72684871301E+03  0.00000000000E+00 0.  1.
       14    1    4    4    0    0 -0.50793197093E+02  0.48074574917E+02  0.52390933589E+02  0.87383771644E+02  0.00000000000E+00 0. -1.
        3    1    5    5  502    0  0.36365167698E+03 -0.31970357031E+03  0.35750711228E+03  0.60188391769E+03  0.00000000000E+00 0. -1.
       -4    1    5    5    0  502 -0.41491211659E+01 -0.25420861407E+01  0.45965657166E+01  0.68426767265E+01  0.14200000000E+01 0.  1.
</event>
<event>
 9   1  0.7335000E-04  0.1033888E+04  0.7818608E-02  0.9272138E-01
       21   -1    0    0  503  502  0.00000000000E+00  0.00000000000E+00  0.42643731027E+03  0.42643731027E+03  0.00000000000E+00 0.  1.
       21   -1    0    0  502  503 -0.00000000000E+00 -0.00000000000E+00 -0.62666008068E+03  0.62666008068E+03  0.00000000000E+00 0. -1.
       39    2    1    2    0    0  0.00000000000E+00 -0.53290705182E-14 -0.20022277041E+03  0.10530973910E+04  0.10338882711E+04 0.  0.
       24    2    3    3    0    0  0.26396568842E+03  0.11352631385E+02 -0.54457827897E+03  0.61117322275E+03  0.84619379420E+02 0.  0.
      -24    2    3    3    0    0 -0.26396568842E+03 -0.11352631385E+02  0.34435550856E+03  0.44192416821E+03  0.83123325677E+02 0.  0.
      -13    1    4    4    0    0  0.35757588129E+02 -0.21457365543E+02 -0.47363033956E+02  0.63105313804E+02  0.00000000000E+00 0.  1.
       14    1    4    4    0    0  0.22820810029E+03  0.32809996928E+02 -0.49721524501E+03  0.54806790894E+03  0.00000000000E+00 0. -1.
        1    1    5    5  501    0 -0.78270651316E+02 -0.19426199038E+02  0.53593425602E+02  0.96829372270E+02  0.00000000000E+00 0. -1.
       -2    1    5    5    0  501 -0.18569503710E+03  0.80735676536E+01  0.29076208296E+03  0.34509479594E+03  0.00000000000E+00 0.  1.
</event>
<event>
 9   1  0.7335000E-04  0.1009688E+04  0.7818608E-02  0.9297983E-01
       21   -1    0    0  503  502  0.00000000000E+00  0.00000000000E+00  0.36475027029E+03  0.36475027029E+03  0.00000000000E+00 0.  1.
       21   -1    0    0  502  503 -0.00000000000E+00 -0.00000000000E+00 -0.69874474733E+03  0.69874474733E+03  0.00000000000E+00 0. -1.
       39    2    1    2    0    0  0.00000000000E+00 -0.28421709430E-13 -0.33399447704E+03  0.10634950176E+04  0.10096877447E+04 0.  0.
       24    2    3    3    0    0 -0.12598022862E+03 -0.20625262845E+03  0.29203321305E+03  0.38746600653E+03  0.80220595517E+02 0.  0.
      -24    2    3    3    0    0  0.12598022862E+03  0.20625262845E+03 -0.62602769009E+03  0.67602901110E+03  0.81813142838E+02 0.  0.
      -13    1    4    4    0    0 -0.10037051807E+03 -0.19634400683E+03  0.22506427442E+03  0.31508592088E+03  0.00000000000E+00 0.  1.
       14    1    4    4    0    0 -0.25609710548E+02 -0.99086216132E+01  0.66968938636E+02  0.72380085649E+02  0.00000000000E+00 0. -1.
        1    1    5    5  501    0  0.11512692256E+03  0.16443401058E+03 -0.57575077180E+03  0.60973904530E+03  0.00000000000E+00 0. -1.
       -2    1    5    5    0  501  0.10853306062E+02  0.41818617868E+02 -0.50276918290E+02  0.66289965799E+02  0.00000000000E+00 0.  1.
</event>
<event>
 9   1  0.7335000E-04  0.1008483E+04  0.7818608E-02  0.9299290E-01
       21   -1    0    0  503  502  0.00000000000E+00  0.00000000000E+00  0.44308472624E+03  0.44308472624E+03  0.00000000000E+00 0.  1.
       21   -1    0    0  502  503 -0.00000000000E+00 -0.00000000000E+00 -0.57383920473E+03  0.57383920473E+03  0.00000000000E+00 0. -1.
       39    2    1    2    0    0  0.00000000000E+00  0.00000000000E+00 -0.13075447849E+03  0.10169239310E+04  0.10084827950E+04 0.  0.
       24    2    3    3    0    0  0.16307120127E+03 -0.23749718676E+03 -0.47476950877E+03  0.56102235075E+03  0.79642081735E+02 0.  0.
      -24    2    3    3    0    0 -0.16307120127E+03  0.23749718676E+03  0.34401503029E+03  0.45590158021E+03  0.80639812598E+02 0.  0.
      -13    1    4    4    0    0  0.42400689304E+01 -0.19034836061E+02 -0.82390672608E+02  0.84667148890E+02  0.00000000000E+00 0.  1.
       14    1    4    4    0    0  0.15883113234E+03 -0.21846235070E+03 -0.39237883617E+03  0.47635520186E+03  0.00000000000E+00 0. -1.
        1    1    5    5  501    0 -0.27099608314E+02  0.18404637512E+02  0.10643698932E+02  0.34444270636E+02  0.00000000000E+00 0. -1.
       -2    1    5    5    0  501 -0.13597159295E+03  0.21909254925E+03  0.33337133135E+03  0.42145730958E+03  0.00000000000E+00 0.  1.
</event>
<event>
 9   1  0.7335000E-04  0.9978373E+03  0.7818608E-02  0.9310920E-01
       21   -1    0    0  503  502  0.00000000000E+00  0.00000000000E+00  0.15438305393E+03  0.15438305393E+03  0.00000000000E+00 0.  1.
       21   -1    0    0  502  503 -0.00000000000E+00 -0.00000000000E+00 -0.16123520667E+04  0.16123520667E+04  0.00000000000E+00 0. -1.
       39    2    1    2    0    0  0.00000000000E+00  0.28421709430E-13 -0.14579690128E+04  0.17667351206E+04  0.99783733358E+03 0.  0.
       24    2    3    3    0    0 -0.93228512905E+02 -0.12722901911E+03  0.90180998281E+02  0.20854829885E+03  0.10237676290E+03 0.  0.
      -24    2    3    3    0    0  0.93228512905E+02  0.12722901911E+03 -0.15481500110E+04  0.15581868218E+04  0.79365836059E+02 0.  0.
      -13    1    4    4    0    0 -0.92031354281E+02 -0.11713239218E+03  0.35771731620E+02  0.15319720706E+03  0.00000000000E+00 0.  1.
       14    1    4    4    0    0 -0.11971586233E+01 -0.10096626930E+02  0.54409266662E+02  0.55351091794E+02  0.00000000000E+00 0. -1.
        3    1    5    5  501    0  0.62374100064E+02  0.64810135502E+02 -0.52338949026E+03  0.53106255803E+03  0.00000000000E+00 0. -1.
       -4    1    5    5    0  501  0.30854412841E+02  0.62418883604E+02 -0.10247605208E+04  0.10271242638E+04  0.14200000000E+01 0.  1.
</event>
<event>
 9   1  0.7335000E-04  0.1000763E+04  0.7818608E-02  0.9307709E-01
        2   -1    0    0  501    0  0.00000000000E+00  0.00000000000E+00  0.35577979837E+03  0.35577979837E+03  0.00000000000E+00 0.  1.
       -2   -1    0    0    0  501 -0.00000000000E+00 -0.00000000000E+00 -0.70375398878E+03  0.70375398878E+03  0.00000000000E+00 0. -1.
       39    2    1    2    0    0  0.28421709430E-13 -0.56843418861E-13 -0.34797419041E+03  0.10595337872E+04  0.10007626137E+04 0.  0.
       24    2    3    3    0    0  0.20663062261E+03 -0.44685818366E+03 -0.21181836863E+03  0.54197983713E+03  0.80601935892E+02 0.  0.
      -24    2    3    3    0    0 -0.20663062261E+03  0.44685818366E+03 -0.13615582178E+03  0.51755395002E+03  0.83338063813E+02 0.  0.
      -13    1    4    4    0    0  0.16695799520E+02 -0.11744585712E+03 -0.50621211664E+02  0.12897591305E+03  0.00000000000E+00 0.  1.
       14    1    4    4    0    0  0.18993482309E+03 -0.32941232654E+03 -0.16119715697E+03  0.41300392408E+03  0.00000000000E+00 0. -1.
        1    1    5    5  502    0  0.50407507440E+01  0.14199655286E+01 -0.49953581129E+01  0.72373387956E+01  0.00000000000E+00 0. -1.
       -2    1    5    5    0  502 -0.21167137335E+03  0.44543821813E+03 -0.13116046367E+03  0.51031661123E+03  0.00000000000E+00 0.  1.
</event>
<event>
 9   1  0.7335000E-04  0.9980417E+03  0.7818608E-02  0.9310695E-01
       21   -1    0    0  503  502  0.00000000000E+00  0.00000000000E+00  0.97465923012E+03  0.97465923012E+03  0.00000000000E+00 0. -1.
       21   -1    0    0  502  503 -0.00000000000E+00 -0.00000000000E+00 -0.25549628563E+03  0.25549628563E+03  0.00000000000E+00 0.  1.
       39    2    1    2    0    0  0.00000000000E+00 -0.71054273576E-14  0.71916294449E+03  0.12301555158E+04  0.99804170865E+03 0.  0.
       24    2    3    3    0    0  0.24477770716E+03  0.24649392908E+02  0.88566108120E+03  0.92272169717E+03  0.80598146297E+02 0.  0.
      -24    2    3    3    0    0 -0.24477770716E+03 -0.24649392908E+02 -0.16649813671E+03  0.30743381858E+03  0.79184624665E+02 0.  0.
      -13    1    4    4    0    0  0.45036504657E+02 -0.17225391237E+02  0.10046648507E+03  0.11143839319E+03  0.00000000000E+00 0.  1.
       14    1    4    4    0    0  0.19974120251E+03  0.41874784145E+02  0.78519459613E+03  0.81128330398E+03  0.00000000000E+00 0. -1.
        3    1    5    5  501    0  0.18074675853E+01  0.42173420174E+01  0.41358791027E+01  0.61772492840E+01  0.00000000000E+00 0. -1.
       -4    1    5    5    0  501 -0.24658517475E+03 -0.28866734926E+02 -0.17063401581E+03  0.30125656930E+03  0.14200000000E+01 0.  1.
</event>
<event>
 9   1  0.7335000E-04  0.1007677E+04  0.7818608E-02  0.9300165E-01
       21   -1    0    0  503  502  0.00000000000E+00  0.00000000000E+00  0.30185791480E+03  0.30185791480E+03  0.00000000000E+00 0.  1.
       21   -1    0    0  502  503 -0.00000000000E+00 -0.00000000000E+00 -0.84096848294E+03  0.84096848294E+03  0.00000000000E+00 0. -1.
       39    2    1    2    0    0  0.00000000000E+00  0.00000000000E+00 -0.53911056814E+03  0.11428263977E+04  0.10076765209E+04 0.  0.
       24    2    3    3    0    0 -0.35078917614E+03  0.32908320629E+03 -0.12699700940E+03  0.50400238760E+03  0.80878696511E+02 0.  0.
      -24    2    3    3    0    0  0.35078917614E+03 -0.32908320629E+03 -0.41211355874E+03  0.63882401014E+03  0.83124772905E+02 0.  0.
      -13    1    4    4    0    0 -0.18206559291E+03  0.11601134991E+03 -0.52007792957E+02  0.22206153192E+03  0.00000000000E+00 0.  1.
       14    1    4    4    0    0 -0.16872358323E+03  0.21307185638E+03 -0.74989216446E+02  0.28194085568E+03  0.00000000000E+00 0. -1.
        3    1    5    5  501    0  0.26679685948E+03 -0.28525432690E+03 -0.35734784601E+03  0.52938462227E+03  0.00000000000E+00 0. -1.
       -4    1    5    5    0  501  0.83992316661E+02 -0.43828879390E+02 -0.54765712728E+02  0.10943938787E+03  0.14200000000E+01 0.  1.
</event>
<event>
 9   1  0.7335000E-04  0.1002247E+04  0.7818608E-02  0.9306084E-01
       21   -1    0    0  503  502  0.00000000000E+00  0.00000000000E+00  0.22919331961E+03  0.22919331961E+03  0.00000000000E+00 0.  1.
       21   -1    0    0  502  503 -0.00000000000E+00 -0.00000000000E+00 -0.10956891798E+04  0.10956891798E+04  0.00000000000E+00 0. -1.
       39    2    1    2    0    0  0.00000000000E+00  0.00000000000E+00 -0.86649586015E+03  0.13248824994E+04  0.10022467568E+04 0.  0.
       24    2    3    3    0    0  0.28055883035E+03  0.12545159223E+03 -0.94548298150E+03  0.99794016782E+03  0.86574539919E+02 0.  0.
      -24    2    3    3    0    0 -0.28055883035E+03 -0.12545159223E+03  0.78987121350E+02  0.32694233155E+03  0.78746196963E+02 0.  0.
      -13    1    4    4    0    0  0.13871371741E+03  0.26042438768E+02 -0.51299497885E+03  0.53205596730E+03  0.00000000000E+00 0.  1.
       14    1    4    4    0    0  0.14184511295E+03  0.99409153465E+02 -0.43248800265E+03  0.46588420052E+03  0.00000000000E+00 0. -1.
        1    1    5    5  501    0 -0.14335946195E+02 -0.29283312350E+02  0.18516285548E+02  0.37495127230E+02  0.00000000000E+00 0. -1.
       -2    1    5    5    0  501 -0.26622288416E+03 -0.96168279883E+02  0.60470835803E+02  0.28944720432E+03  0.00000000000E+00 0.  1.
</event>
<event>
 9   1  0.7335000E-04  0.9920330E+03  0.7818608E-02  0.9317326E-01
       21   -1    0    0  503  502  0.00000000000E+00  0.00000000000E+00  0.15961856852E+03  0.15961856852E+03  0.00000000000E+00 0. -1.
       21   -1    0    0  502  503 -0.00000000000E+00 -0.00000000000E+00 -0.15413768731E+04  0.15413768731E+04  0.00000000000E+00 0.  1.
       39    2    1    2    0    0  0.00000000000E+00  0.00000000000E+00 -0.13817583046E+04  0.17009954416E+04  0.99203300355E+03 0.  0.
       24    2    3    3    0    0  0.65780453312E+02  0.45007058649E+03 -0.38097336078E+03  0.59879207288E+03  0.80750505030E+02 0.  0.
      -24    2    3    3    0    0 -0.65780453312E+02 -0.45007058649E+03 -0.10007849438E+04  0.11022033688E+04  0.79944739938E+02 0.  0.
      -13    1    4    4    0    0  0.10974900168E+02  0.24962686377E+03 -0.24823482814E+03  0.35221378374E+03  0.00000000000E+00 0.  1.
       14    1    4    4    0    0  0.54805553144E+02  0.20044372272E+03 -0.13273853264E+03  0.24657828915E+03  0.00000000000E+00 0. -1.
        3    1    5    5  501    0 -0.41324520604E+02 -0.16154198423E+03 -0.28705397283E+03  0.33196914312E+03  0.00000000000E+00 0. -1.
       -4    1    5    5    0  501 -0.24455932708E+02 -0.28852860226E+03 -0.71373097100E+03  0.77023422563E+03  0.14200000000E+01 0.  1.
</event>
<event>
 9   1  0.7335000E-04  0.1002510E+04  0.7818608E-02  0.9305796E-01
       21   -1    0    0  503  502  0.00000000000E+00  0.00000000000E+00  0.84400976077E+03  0.84400976077E+03  0.00000000000E+00 0. -1.
       21   -1    0    0  502  503 -0.00000000000E+00 -0.00000000000E+00 -0.29769411190E+03  0.29769411190E+03  0.00000000000E+00 0.  1.
       39    2    1    2    0    0  0.35527136788E-14 -0.28421709430E-13  0.54631564887E+03  0.11417038727E+04  0.10025103215E+04 0.  0.
       24    2    3    3    0    0 -0.13815176926E+02 -0.17388497161E+03  0.80084103004E+03  0.82350930242E+03  0.79964825489E+02 0.  0.
      -24    2    3    3    0    0  0.13815176926E+02  0.17388497161E+03 -0.25452538117E+03  0.31819457024E+03  0.77703104236E+02 0.  0.
      -13    1    4    4    0    0 -0.45857283871E+02 -0.82608536545E+02  0.36140236577E+03  0.37354883319E+03  0.00000000000E+00 0.  1.
       14    1    4    4    0    0  0.32042106945E+02 -0.91276435063E+02  0.43943866428E+03  0.44996046924E+03  0.00000000000E+00 0. -1.
        1    1    5    5  501    0  0.23505819864E+02  0.29742895428E+02 -0.20309329707E+02  0.43007351338E+02  0.00000000000E+00 0. -1.
       -2    1    5    5    0  501 -0.96906429387E+01  0.14414207618E+03 -0.23421605146E+03  0.27518721891E+03  0.00000000000E+00 0.  1.
</event>
<event>
 9   1  0.7335000E-04  0.9959936E+03  0.7818608E-02  0.9312950E-01
       21   -1    0    0  503  502  0.00000000000E+00  0.00000000000E+00  0.54673916515E+03  0.54673916515E+03  0.00000000000E+00 0. -1.
       21   -1    0    0  502  503 -0.00000000000E+00 -0.00000000000E+00 -0.45359988730E+03  0.45359988730E+03  0.00000000000E+00 0.  1.
       39    2    1    2    0    0 -0.28421709430E-13  0.14210854715E-13  0.93139277844E+02  0.10003390524E+04  0.99599362185E+03 0.  0.
       24    2    3    3    0    0  0.19077784650E+03 -0.95657165340E+02 -0.39844197202E+03  0.45915627588E+03  0.80758904247E+02 0.  0.
      -24    2    3    3    0    0 -0.19077784650E+03  0.95657165340E+02  0.49158124987E+03  0.54118277656E+03  0.75367051351E+02 0.  0.
      -13    1    4    4    0    0  0.14926078858E+03 -0.86630462018E+02 -0.36930179722E+03  0.40763640341E+03  0.00000000000E+00 0.  1.
       14    1    4    4    0    0  0.41517057929E+02 -0.90267033222E+01 -0.29140174802E+02  0.51519872471E+02  0.00000000000E+00 0. -1.
        1    1    5    5  501    0 -0.16859760466E+03  0.94656797313E+02  0.47679218028E+03  0.51450543705E+03  0.00000000000E+00 0. -1.
       -2    1    5    5    0  501 -0.22180241844E+02  0.10003680270E+01  0.14789069590E+02  0.26677339519E+02  0.00000000000E+00 0.  1.
</event>
<event>
 9   1  0.7335000E-04  0.1001928E+04  0.7818608E-02  0.9306432E-01
       21   -1    0    0  503  502  0.00000000000E+00  0.00000000000E+00  0.10938003082E+04  0.10938003082E+04  0.00000000000E+00 0. -1.
       21   -1    0    0  502  503 -0.00000000000E+00 -0.00000000000E+00 -0.22944330025E+03  0.22944330025E+03  0.00000000000E+00 0.  1.
       39    2    1    2    0    0  0.00000000000E+00  0.00000000000E+00  0.86435700797E+03  0.13232436085E+04  0.10019284456E+04 0.  0.
       24    2    3    3    0    0  0.16772751571E+03  0.27899441519E+03 -0.59437119235E+02  0.34056333882E+03  0.80499772502E+02 0.  0.
      -24    2    3    3    0    0 -0.16772751571E+03 -0.27899441519E+03  0.92379412720E+03  0.98268026964E+03  0.79338008913E+02 0.  0.
      -13    1    4    4    0    0  0.15039443811E+03  0.20302900727E+03 -0.20599178356E+02  0.25350264487E+03  0.00000000000E+00 0.  1.
       14    1    4    4    0    0  0.17333077599E+02  0.75965407912E+02 -0.38837940879E+02  0.87060693944E+02  0.00000000000E+00 0. -1.
        3    1    5    5  501    0 -0.12755727823E+03 -0.24872332315E+03  0.70996112428E+03  0.76300651943E+03  0.00000000000E+00 0. -1.
       -4    1    5    5    0  501 -0.40170237472E+02 -0.30271092039E+02  0.21383300292E+03  0.21967375021E+03  0.14200000000E+01 0.  1.
</event>
<event>
 9   1  0.7335000E-04  0.9814380E+03  0.7818608E-02  0.9329141E-01
       21   -1    0    0  503  502  0.00000000000E+00  0.00000000000E+00  0.12377796090E+04  0.12377796090E+04  0.00000000000E+00 0.  1.
       21   -1    0    0  502  503 -0.00000000000E+00 -0.00000000000E+00 -0.19454605232E+03  0.19454605232E+03  0.00000000000E+00 0. -1.
       39    2    1    2    0    0  0.00000000000E+00 -0.71054273576E-14  0.10432335566E+04  0.14323256613E+04  0.98143799919E+03 0.  0.
       24    2    3    3    0    0  0.26549445429E+03  0.41892291299E+02  0.11097314031E+04  0.11444618560E+04  0.77761710484E+02 0.  0.
      -24    2    3    3    0    0 -0.26549445429E+03 -0.41892291299E+02 -0.66497846425E+02  0.28786380525E+03  0.78748571204E+02 0.  0.
      -13    1    4    4    0    0  0.22261332494E+03  0.39049478720E+02  0.10229760637E+04  0.10476457326E+04  0.00000000000E+00 0.  1.
       14    1    4    4    0    0  0.42881129349E+02  0.28428125797E+01  0.86755339370E+02  0.96816123382E+02  0.00000000000E+00 0. -1.
        3    1    5    5  501    0 -0.16318501994E+03 -0.62504342740E+02 -0.53082091547E+02  0.18263036998E+03  0.00000000000E+00 0. -1.
       -4    1    5    5    0  501 -0.10230943434E+03  0.20612051441E+02 -0.13415754877E+02  0.10523343527E+03  0.14200000000E+01 0.  1.
</event>
<event>
 9   1  0.7335000E-04  0.9978105E+03  0.7818608E-02  0.9310949E-01
       21   -1    0    0  503  502  0.00000000000E+00  0.00000000000E+00  0.15902921889E+04  0.15902921889E+04  0.00000000000E+00 0. -1.
       21   -1    0    0  502  503 -0.00000000000E+00 -0.00000000000E+00 -0.15651616946E+03  0.15651616946E+03  0.00000000000E+00 0.  1.
       39    2    1    2    0    0  0.00000000000E+00  0.00000000000E+00  0.14337760194E+04  0.17468083584E+04  0.99781048648E+03 0.  0.
       24    2    3    3    0    0 -0.78784828311E+02  0.28365795309E+03  0.25953272860E+02  0.30628799523E+03  0.80435565084E+02 0.  0.
      -24    2    3    3    0    0  0.78784828311E+02 -0.28365795309E+03  0.14078227466E+04  0.14405203631E+04  0.80406139668E+02 0.  0.
      -13    1    4    4    0    0 -0.44682911532E+01  0.16498183976E+03  0.97741440434E+01  0.16533150627E+03  0.00000000000E+00 0.  1.
       14    1    4    4    0    0 -0.74316537157E+02  0.11867611333E+03  0.16179128817E+02  0.14095648896E+03  0.00000000000E+00 0. -1.
        3    1    5    5  501    0  0.82774408378E+02 -0.24607023997E+03  0.10918534141E+04  0.11222949895E+04  0.00000000000E+00 0. -1.
       -4    1    5    5    0  501 -0.39895800670E+01 -0.37587713114E+02  0.31596933250E+03  0.31822537361E+03  0.14200000000E+01 0.  1.
</event>
<event>
 9   1  0.7335000E-04  0.9926516E+03  0.7818608E-02  0.9316641E-01
       21   -1    0    0  503  502  0.00000000000E+00  0.00000000000E+00  0.43184321133E+03  0.43184321133E+03  0.00000000000E+00 0.  1.
       21   -1    0    0  502  503 -0.00000000000E+00 -0.00000000000E+00 -0.57043683984E+03  0.57043683984E+03  0.00000000000E+00 0. -1.
       39    2    1    2    0    0  0.00000000000E+00  0.11368683772E-12 -0.13859362851E+03  0.10022800512E+04  0.99265155373E+03 0.  0.
       24    2    3    3    0    0  0.18787487464E+03  0.39482021706E+03 -0.29217009681E+03  0.53214962531E+03  0.81485495178E+02 0.  0.
      -24    2    3    3    0    0 -0.18787487464E+03 -0.39482021706E+03  0.15357646830E+03  0.47013042587E+03  0.79100653568E+02 0.  0.
      -13    1    4    4    0    0  0.20394944939E+02  0.32826734256E+02 -0.57796618404E+02  0.69526954197E+02  0.00000000000E+00 0.  1.
       14    1    4    4    0    0  0.16747992970E+03  0.36199348280E+03 -0.23437347841E+03  0.46262267111E+03  0.00000000000E+00 0. -1.
        3    1    5    5  501    0 -0.31816810426E+02 -0.18965193572E+02  0.17925503086E+02  0.41149868211E+02  0.00000000000E+00 0. -1.
       -4    1    5    5    0  501 -0.15605806421E+03 -0.37585502349E+03  0.13565096521E+03  0.42898055766E+03  0.14200000000E+01 0.  1.
</event>
<event>
 9   1  0.7335000E-04  0.9970340E+03  0.7818608E-02  0.9311804E-01
       21   -1    0    0  503  502  0.00000000000E+00  0.00000000000E+00  0.11198506372E+04  0.11198506372E+04  0.00000000000E+00 0. -1.
       21   -1    0    0  502  503 -0.00000000000E+00 -0.00000000000E+00 -0.22192175366E+03  0.22192175366E+03  0.00000000000E+00 0.  1.
       39    2    1    2    0    0  0.14210854715E-13  0.00000000000E+00  0.89792888349E+03  0.13417723908E+04  0.99703403599E+03 0.  0.
       24    2    3    3    0    0  0.10717231049E+03 -0.20604863406E+03  0.10328864652E+04  0.10617753842E+04  0.81059069467E+02 0.  0.
      -24    2    3    3    0    0 -0.10717231049E+03  0.20604863406E+03 -0.13495758169E+03  0.27999700664E+03  0.79011588647E+02 0.  0.
      -13    1    4    4    0    0 -0.11414909495E+02 -0.22409166709E+02  0.69825833922E+02  0.74216696196E+02  0.00000000000E+00 0.  1.
       14    1    4    4    0    0  0.11858721999E+03 -0.18363946735E+03  0.96306063126E+03  0.98755868797E+03  0.00000000000E+00 0. -1.
        1    1    5    5  501    0 -0.29315934875E+02  0.72662356083E+01 -0.28135575017E+02  0.41277509603E+02  0.00000000000E+00 0. -1.
       -2    1    5    5    0  501 -0.77856375619E+02  0.19878239845E+03 -0.10682200667E+03  0.23871949704E+03  0.00000000000E+00 0.  1.
</event>
<event>
 9   1  0.7335000E-04  0.1002956E+04  0.7818608E-02  0.9305309E-01
       21   -1    0    0  503  502  0.00000000000E+00  0.00000000000E+00  0.54807244260E+03  0.54807244260E+03  0.00000000000E+00 0.  1.
       21   -1    0    0  502  503 -0.00000000000E+00 -0.00000000000E+00 -0.45884488473E+03  0.45884488473E+03  0.00000000000E+00 0. -1.
       39    2    1    2    0    0 -0.85265128291E-13  0.56843418861E-13  0.89227557867E+02  0.10069173273E+04  0.10029561042E+04 0.  0.
       24    2    3    3    0    0 -0.23219063841E+03  0.42068888432E+03  0.16370508776E+03  0.51402187648E+03  0.80792968680E+02 0.  0.
      -24    2    3    3    0    0  0.23219063841E+03 -0.42068888432E+03 -0.74477529891E+02  0.49289545085E+03  0.80668414223E+02 0.  0.
      -13    1    4    4    0    0 -0.13862327584E+03  0.18526980513E+03  0.52029868857E+02  0.23716749472E+03  0.00000000000E+00 0.  1.
       14    1    4    4    0    0 -0.93567362569E+02  0.23541907918E+03  0.11167521890E+03  0.27685438176E+03  0.00000000000E+00 0. -1.
        3    1    5    5  501    0  0.22504589671E+03 -0.42264420169E+03 -0.69461520731E+02  0.48383745174E+03  0.00000000000E+00 0. -1.
       -4    1    5    5    0  501  0.71447416993E+01  0.19553173658E+01 -0.50160091596E+01  0.90579991080E+01  0.14200000000E+01 0.  1.
</event>
<event>
 9   1  0.7335000E-04  0.9894497E+03  0.7818608E-02  0.9320192E-01
       21   -1    0    0  503  502  0.00000000000E+00  0.00000000000E+00  0.57185121992E+03  0.57185121992E+03  0.00000000000E+00 0.  1.
       21   -1    0    0  502  503 -0.00000000000E+00 -0.00000000000E+00 -0.42800059747E+03  0.42800059747E+03  0.00000000000E+00 0. -1.
       39    2    1    2    0    0 -0.14210854715E-13  0.00000000000E+00  0.14385062246E+03  0.99985181739E+03  0.98944967288E+03 0.  0.
       24    2    3    3    0    0 -0.94746571309E+02  0.71540289841E+02 -0.40666240595E+03  0.43136295011E+03  0.81269652821E+02 0.  0.
      -24    2    3    3    0    0  0.94746571309E+02 -0.71540289841E+02  0.55051302840E+03  0.56848886728E+03  0.77589122569E+02 0.  0.
      -13    1    4    4    0    0  0.14007808752E+02  0.14907610536E+02 -0.75762182129E+02  0.78475243223E+02  0.00000000000E+00 0.  1.
       14    1    4    4    0    0 -0.10875438006E+03  0.56632679305E+02 -0.33090022382E+03  0.35288770688E+03  0.00000000000E+00 0. -1.
        3    1    5    5  501    0  0.54986384302E+01  0.15829272145E+02  0.74557071892E+02  0.76416999747E+02  0.00000000000E+00 0. -1.
       -4    1    5    5    0  501  0.89247932879E+02 -0.87369561986E+02  0.47595595651E+03  0.49207186754E+03  0.14200000000E+01 0.  1.
</event>
<event>
 9   1  0.7335000E-04  0.9980259E+03  0.7818608E-02  0.9310713E-01
       -2   -1    0    0    0  501 -0.00000000000E+00  0.00000000000E+00  0.15553656682E+03  0.15553656682E+03  0.00000000000E+00 0.  1.
        2   -1    0    0  501    0  0.00000000000E+00 -0.00000000000E+00 -0.16009992427E+04  0.16009992427E+04  0.00000000000E+00 0. -1.
       39    2    1    2    0    0  0.56843418861E-13  0.00000000000E+00 -0.14454626759E+04  0.17565358095E+04  0.99802590287E+03 0.  0.
       24    2    3    3    0    0  0.26707026715E+03 -0.28182709409E+03 -0.18880894929E+03  0.43886579024E+03  0.78748485397E+02 0.  0.
      -24    2    3    3    0    0 -0.26707026715E+03  0.28182709409E+03 -0.12566537266E+04  0.13176700193E+04  0.79515109415E+02 0.  0.
      -13    1    4    4    0    0  0.19452595093E+03 -0.21977878079E+03 -0.17683666398E+03  0.34265764810E+03  0.00000000000E+00 0.  1.
       14    1    4    4    0    0  0.72544316215E+02 -0.62048313306E+02 -0.11972285306E+02  0.96208142143E+02  0.00000000000E+00 0. -1.
        3    1    5    5  502    0 -0.24264853607E+03  0.27693919368E+03 -0.11265294560E+04  0.11851760394E+04  0.00000000000E+00 0. -1.
       -4    1    5    5    0  502 -0.24421731072E+02  0.48879004106E+01 -0.13012427060E+03  0.13249397993E+03  0.14200000000E+01 0.  1.
</event>
<event>
 9   1  0.7335000E-04  0.1003322E+04  0.7818608E-02  0.9304909E-01
       21   -1    0    0  503  502  0.00000000000E+00  0.00000000000E+00  0.16230919147E+03  0.16230919147E+03  0.00000000000E+00 0.  1.
       21   -1    0    0  502  503 -0.00000000000E+00 -0.00000000000E+00 -0.15505210701E+04  0.15505210701E+04  0.00000000000E+00 0. -1.
       39    2    1    2    0    0  0.14210854715E-13  0.56843418861E-13 -0.13882118786E+04  0.17128302616E+04  0.10033221242E+04 0.  0.
       24    2    3    3    0    0 -0.12099803606E+03 -0.37866140274E+03 -0.18962628090E+03  0.44751399773E+03  0.79282211743E+02 0.  0.
      -24    2    3    3    0    0  0.12099803606E+03  0.37866140274E+03 -0.11985855977E+04  0.12653162639E+04  0.79955173757E+02 0.  0.
      -13    1    4    4    0    0 -0.47819866163E+02 -0.61317057552E+02 -0.19886919052E+02  0.80262137375E+02  0.00000000000E+00 0.  1.
       14    1    4    4    0    0 -0.73178169902E+02 -0.31734434519E+03 -0.16973936184E+03  0.36725186035E+03  0.00000000000E+00 0. -1.
        1    1    5    5  501    0  0.74640763436E+02  0.32304712513E+03 -0.93871054485E+03  0.99554416056E+03  0.00000000000E+00 0. -1.
       -2    1    5    5    0  501  0.46357272628E+02  0.55614277613E+02 -0.25987505289E+03  0.26977210330E+03  0.00000000000E+00 0.  1.
</event>
<event>
 9   1  0.7335000E-04  0.1007006E+04  0.7818608E-02  0.9300894E-01
       21   -1    0    0  503  502  0.00000000000E+00  0.00000000000E+00  0.62428759501E+03  0.62428759501E+03  0.00000000000E+00 0. -1.
       21   -1    0    0  502  503 -0.00000000000E+00 -0.00000000000E+00 -0.40608701939E+03  0.40608701939E+03  0.00000000000E+00 0.  1.
       39    2    1    2    0    0  0.00000000000E+00 -0.28421709430E-13  0.21820057563E+03  0.10303746144E+04  0.10070056379E+04 0.  0.
       24    2    3    3    0    0  0.81954788888E+02 -0.22652050179E+03  0.55395564861E+03  0.60923792482E+03  0.79220346273E+02 0.  0.
      -24    2    3    3    0    0 -0.81954788888E+02  0.22652050179E+03 -0.33575507299E+03  0.42113668957E+03  0.81218945565E+02 0.  0.
      -13    1    4    4    0    0  0.29599949082E+02 -0.81572820627E+02  0.11536276935E+03  0.14435667842E+03  0.00000000000E+00 0.  1.
       14    1    4    4    0    0  0.52354839806E+02 -0.14494768116E+03  0.43859287926E+03  0.46488124641E+03  0.00000000000E+00 0. -1.
        1    1    5    5  501    0 -0.66360264486E+02  0.11148882981E+03 -0.12303959076E+03  0.17880767537E+03  0.00000000000E+00 0. -1.
       -2    1    5    5    0  501 -0.15594524401E+02  0.11503167197E+03 -0.21271548222E+03  0.24232901421E+03  0.00000000000E+00 0.  1.
</event>
<event>
 9   1  0.7335000E-04  0.9881790E+03  0.7818608E-02  0.9321606E-01
       21   -1    0    0  503  502  0.00000000000E+00  0.00000000000E+00  0.54873711412E+03  0.54873711412E+03  0.00000000000E+00 0.  1.
       21   -1    0    0  502  503 -0.00000000000E+00 -0.00000000000E+00 -0.44488414899E+03  0.44488414899E+03  0.00000000000E+00 0. -1.
       39    2    1    2    0    0  0.00000000000E+00 -0.14210854715E-13  0.10385296513E+03  0.99362126310E+03  0.98817902028E+03 0.  0.
       24    2    3    3    0    0  0.48111419194E+03 -0.80660141601E+02  0.57626051076E+02  0.49710484054E+03  0.76259665607E+02 0.  0.
      -24    2    3    3    0    0 -0.48111419194E+03  0.80660141601E+02  0.46226914055E+02  0.49651642256E+03  0.80091860782E+02 0.  0.
      -13    1    4    4    0    0  0.46454311770E+03 -0.71325314690E+02  0.68876696278E+02  0.47500695575E+03  0.00000000000E+00 0.  1.
       14    1    4    4    0    0  0.16571074238E+02 -0.93348269108E+01 -0.11250645202E+02  0.22097884793E+02  0.00000000000E+00 0. -1.
        3    1    5    5  501    0 -0.42366456926E+03  0.58518549840E+02  0.16181143409E+02  0.42799289401E+03  0.00000000000E+00 0. -1.
       -4    1    5    5    0  501 -0.57449622683E+02  0.22141591761E+02  0.30045770645E+02  0.68523528556E+02  0.14200000000E+01 0.  1.
</event>
<event>
 9   1  0.7335000E-04  0.9958772E+03  0.7818608E-02  0.9313078E-01
       21   -1    0    0  503  502  0.00000000000E+00  0.00000000000E+00  0.52815161997E+03  0.52815161997E+03  0.00000000000E+00 0.  1.
       21   -1    0    0  502  503 -0.00000000000E+00 -0.00000000000E+00 -0.46945396283E+03  0.46945396283E+03  0.00000000000E+00 0. -1.
       39    2    1    2    0    0  0.00000000000E+00  0.00000000000E+00  0.58697657142E+02  0.99760558280E+03  0.99587724338E+03 0.  0.
       24    2    3    3    0    0  0.22750283515E+03 -0.27891522127E+02  0.46458303674E+03  0.52465407566E+03  0.83000144977E+02 0.  0.
      -24    2    3    3    0    0 -0.22750283515E+03  0.27891522127E+02 -0.40588537960E+03  0.47295150714E+03  0.80029430383E+02 0.  0.
      -13    1    4    4    0    0  0.20127254300E+03 -0.40093125467E+02  0.34327979337E+03  0.39994888650E+03  0.00000000000E+00 0.  1.
       14    1    4    4    0    0  0.26230292154E+02  0.12201603340E+02  0.12130324337E+03  0.12470518916E+03  0.00000000000E+00 0. -1.
        3    1    5    5  501    0 -0.11571881324E+03 -0.25876688227E+02 -0.20662384618E+03  0.23823068766E+03  0.00000000000E+00 0. -1.
       -4    1    5    5    0  501 -0.11178402191E+03  0.53768210354E+02 -0.19926153342E+03  0.23472081949E+03  0.14200000000E+01 0.  1.
</event>
<event>
 9   1  0.7335000E-04  0.9979696E+03  0.7818608E-02  0.9310775E-01
       21   -1    0    0  503  502  0.00000000000E+00  0.00000000000E+00  0.30070688356E+03  0.30070688356E+03  0.00000000000E+00 0. -1.
       21   -1    0    0  502  503 -0.00000000000E+00 -0.00000000000E+00 -0.82800176613E+03  0.82800176613E+03  0.00000000000E+00 0.  1.
       39    2    1    2    0    0 -0.35527136788E-14  0.00000000000E+00 -0.52729488257E+03  0.11287086497E+04  0.99796960009E+03 0.  0.
       24    2    3    3    0    0 -0.22705946608E+02  0.18618849827E+03  0.25123943045E+03  0.32389601426E+03  0.81275209894E+02 0.  0.
      -24    2    3    3    0    0  0.22705946608E+02 -0.18618849827E+03 -0.77853431302E+03  0.80481263543E+03  0.80162239857E+02 0.  0.
      -13    1    4    4    0    0 -0.30403049254E+01  0.26901422302E+02  0.16062565663E+01  0.27120288274E+02  0.00000000000E+00 0.  1.
       14    1    4    4    0    0 -0.19665641682E+02  0.15928707597E+03  0.24963317388E+03  0.29677572599E+03  0.00000000000E+00 0. -1.
        3    1    5    5  501    0 -0.49263621194E+01  0.71371016844E+01 -0.34897957754E+02  0.35959348153E+02  0.00000000000E+00 0. -1.
       -4    1    5    5    0  501  0.27632308727E+02 -0.19332559996E+03 -0.74363635526E+03  0.76885328728E+03  0.14200000000E+01 0.  1.
</event>
<event>
 9   1  0.7335000E-04  0.9611768E+03  0.7818608E-02  0.9352181E-01
       21   -1    0    0  503  502  0.00000000000E+00  0.00000000000E+00  0.23062299241E+03  0.23062299241E+03  0.00000000000E+00 0. -1.
       21   -1    0    0  502  503 -0.00000000000E+00 -0.00000000000E+00 -0.10014837804E+04  0.10014837804E+04  0.00000000000E+00 0.  1.
       39    2    1    2    0    0  0.00000000000E+00  0.56843418861E-13 -0.77086078801E+03  0.12321067728E+04  0.96117675022E+03 0.  0.
       24    2    3    3    0    0 -0.66811172188E+02 -0.46747546536E+03 -0.33441186298E+03  0.58413069501E+03  0.79876976097E+02 0.  0.
      -24    2    3    3    0    0  0.66811172188E+02  0.46747546536E+03 -0.43644892503E+03  0.64797607782E+03  0.79926777919E+02 0.  0.
      -13    1    4    4    0    0 -0.37319715664E+02 -0.35763529033E+03 -0.29033372338E+03  0.46215736822E+03  0.00000000000E+00 0.  1.
       14    1    4    4    0    0 -0.29491456525E+02 -0.10984017503E+03 -0.44078139601E+02  0.12197332679E+03  0.00000000000E+00 0. -1.
        1    1    5    5  501    0  0.77985530303E+02  0.45106408982E+03 -0.40741713832E+03  0.61280443917E+03  0.00000000000E+00 0. -1.
       -2    1    5    5    0  501 -0.11174358115E+02  0.16411375537E+02 -0.29031786707E+02  0.35171638655E+02  0.00000000000E+00 0.  1.
</event>
<event>
 9   1  0.7335000E-04  0.9971316E+03  0.7818608E-02  0.9311696E-01
        2   -1    0    0  501    0  0.00000000000E+00  0.00000000000E+00  0.33813015389E+04  0.33813015389E+04  0.00000000000E+00 0. -1.
       -2   -1    0    0    0  501 -0.00000000000E+00 -0.00000000000E+00 -0.73512475269E+02  0.73512475269E+02  0.00000000000E+00 0.  1.
       39    2    1    2    0    0  0.00000000000E+00  0.00000000000E+00  0.33077890636E+04  0.34548140141E+04  0.99713157758E+03 0.  0.
       24    2    3    3    0    0  0.53463963205E+01  0.40266715764E+03  0.26341230601E+04  0.26659266450E+04  0.79944710498E+02 0.  0.
      -24    2    3    3    0    0 -0.53463963205E+01 -0.40266715764E+03  0.67366600346E+03  0.78888736914E+03  0.79674168857E+02 0.  0.
      -13    1    4    4    0    0  0.31416703696E+02  0.87473242602E+02  0.69352571268E+03  0.69972601180E+03  0.00000000000E+00 0.  1.
       14    1    4    4    0    0 -0.26070307376E+02  0.31519391503E+03  0.19405973475E+04  0.19662006332E+04  0.00000000000E+00 0. -1.
        3    1    5    5  502    0 -0.10214236580E+02 -0.64474403736E+02  0.17086084857E+03  0.18290628459E+03  0.00000000000E+00 0. -1.
       -4    1    5    5    0  502  0.48678402594E+01 -0.33819275390E+03  0.50280515488E+03  0.60598108455E+03  0.14200000000E+01 0.  1.
</event>
<event>
 9   1  0.7335000E-04  0.9947351E+03  0.7818608E-02  0.9314338E-01
       21   -1    0    0  503  502  0.00000000000E+00  0.00000000000E+00  0.81706914538E+03  0.81706914538E+03  0.00000000000E+00 0. -1.
       21   -1    0    0  502  503 -0.00000000000E+00 -0.00000000000E+00 -0.30275833902E+03  0.30275833902E+03  0.00000000000E+00 0.  1.
       39    2    1    2    0    0  0.00000000000E+00  0.28421709430E-13  0.51431080636E+03  0.11198274844E+04  0.99473513524E+03 0.  0.
       24    2    3    3    0    0 -0.33576911206E+03  0.14681538253E+03  0.62656299662E+03  0.72835805353E+03  0.60237963417E+02 0.  0.
      -24    2    3    3    0    0  0.33576911206E+03 -0.14681538253E+03 -0.11225219026E+03  0.39146943088E+03  0.79700112497E+02 0.  0.
      -13    1    4    4    0    0 -0.15466131993E+03  0.86829618846E+02  0.34995734544E+03  0.39233869324E+03  0.00000000000E+00 0.  1.
       14    1    4    4    0    0 -0.18110779214E+03  0.59985763680E+02  0.27660565119E+03  0.33601936028E+03  0.00000000000E+00 0. -1.
        1    1    5    5  501    0  0.61189213782E+01 -0.20869953265E+02 -0.24218678956E+01  0.21882906393E+02  0.00000000000E+00 0. -1.
       -2    1    5    5    0  501  0.32965019068E+03 -0.12594542926E+03 -0.10983032237E+03  0.36958652448E+03  0.00000000000E+00 0.  1.
</event>
<event>
 9   1  0.7335000E-04  0.9811497E+03  0.7818608E-02  0.9329465E-01
       21   -1    0    0  503  502  0.00000000000E+00  0.00000000000E+00  0.15838520223E+03  0.15838520223E+03  0.00000000000E+00 0.  1.
       21   -1    0    0  502  503 -0.00000000000E+00 -0.00000000000E+00 -0.15194833807E+04  0.15194833807E+04  0.00000000000E+00 0. -1.
       39    2    1    2    0    0 -0.28421709430E-13  0.56843418861E-13 -0.13610981784E+04  0.16778685829E+04  0.98114969813E+03 0.  0.
       24    2    3    3    0    0 -0.23701232572E+03  0.39028200779E+03 -0.95504914691E+03  0.10616336288E+04  0.80325591177E+02 0.  0.
      -24    2    3    3    0    0  0.23701232572E+03 -0.39028200779E+03 -0.40604903153E+03  0.61623495412E+03  0.79842435605E+02 0.  0.
      -13    1    4    4    0    0 -0.75661892664E+02  0.67105673591E+02 -0.24294650324E+03  0.26315565141E+03  0.00000000000E+00 0.  1.
       14    1    4    4    0    0 -0.16135043306E+03  0.32317633420E+03 -0.71210264367E+03  0.79847797738E+03  0.00000000000E+00 0. -1.
        3    1    5    5  501    0  0.36327335428E+01 -0.47251014057E+02 -0.28692269949E+02  0.55399471453E+02  0.00000000000E+00 0. -1.
       -4    1    5    5    0  501  0.23337959218E+03 -0.34303099374E+03 -0.37735676158E+03  0.56083548267E+03  0.14200000000E+01 0.  1.
</event>
<event>
 9   1  0.7335000E-04  0.1011363E+04  0.7818608E-02  0.9296170E-01
       21   -1    0    0  503  502  0.00000000000E+00  0.00000000000E+00  0.41625249926E+03  0.41625249926E+03  0.00000000000E+00 0. -1.
       21   -1    0    0  502  503 -0.00000000000E+00 -0.00000000000E+00 -0.61432315827E+03  0.61432315827E+03  0.00000000000E+00 0.  1.
       39    2    1    2    0    0  0.00000000000E+00 -0.56843418861E-13 -0.19807065901E+03  0.10305756575E+04  0.10113625462E+04 0.  0.
       24    2    3    3    0    0  0.29894761398E+03 -0.36123093044E+03  0.74673111188E+02  0.48196410227E+03  0.82800128843E+02 0.  0.
      -24    2    3    3    0    0 -0.29894761398E+03  0.36123093044E+03 -0.27274377020E+03  0.54861155526E+03  0.82024468145E+02 0.  0.
      -13    1    4    4    0    0  0.29933052910E+02 -0.51334303284E+02 -0.16322822896E+02  0.61624937302E+02  0.00000000000E+00 0.  1.
       14    1    4    4    0    0  0.26901456107E+03 -0.30989662715E+03  0.90995934085E+02  0.42033916497E+03  0.00000000000E+00 0. -1.
        3    1    5    5  501    0 -0.19074587900E+03  0.20556405135E+03 -0.11946194563E+03  0.30481424838E+03  0.00000000000E+00 0. -1.
       -4    1    5    5    0  501 -0.10820173498E+03  0.15566687909E+03 -0.15328182458E+03  0.24379730688E+03  0.14200000000E+01 0.  1.
</event>
<event>
 9   1  0.7335000E-04  0.1010735E+04  0.7818608E-02  0.9296848E-01
       21   -1    0    0  503  502  0.00000000000E+00  0.00000000000E+00  0.15282798432E+03  0.15282798432E+03  0.00000000000E+00 0.  1.
       21   -1    0    0  502  503 -0.00000000000E+00 -0.00000000000E+00 -0.16711367218E+04  0.16711367218E+04  0.00000000000E+00 0. -1.
       39    2    1    2    0    0  0.00000000000E+00  0.00000000000E+00 -0.15183087375E+04  0.18239647061E+04  0.10107352902E+04 0.  0.
       24    2    3    3    0    0  0.19172823295E+03  0.19598600462E+03 -0.61136485775E+01  0.28525770678E+03  0.78513395426E+02 0.  0.
      -24    2    3    3    0    0 -0.19172823295E+03 -0.19598600462E+03 -0.15121950889E+04  0.15387069993E+04  0.75597709034E+02 0.  0.
      -13    1    4    4    0    0  0.16844445819E+03  0.12657015130E+03  0.72915942240E+01  0.21082387446E+03  0.00000000000E+00 0.  1.
       14    1    4    4    0    0  0.23283774756E+02  0.69415853324E+02 -0.13405242801E+02  0.74433832322E+02  0.00000000000E+00 0. -1.
        3    1    5    5  501    0 -0.38188119939E+02 -0.83447608989E+02 -0.58685569805E+03  0.59398774927E+03  0.00000000000E+00 0. -1.
       -4    1    5    5    0  501 -0.15354011301E+03 -0.11253839563E+03 -0.92533939084E+03  0.94471925006E+03  0.14200000000E+01 0.  1.
</event>
<event>
 9   1  0.7335000E-04  0.9999141E+03  0.7818608E-02  0.9308639E-01
       21   -1    0    0  503  502  0.00000000000E+00  0.00000000000E+00  0.79217101418E+03  0.79217101418E+03  0.00000000000E+00 0.  1.
       21   -1    0    0  502  503 -0.00000000000E+00 -0.00000000000E+00 -0.31553422255E+03  0.31553422255E+03  0.00000000000E+00 0. -1.
       39    2    1    2    0    0  0.00000000000E+00  0.00000000000E+00  0.47663679163E+03  0.11077052367E+04  0.99991412648E+03 0.  0.
       24    2    3    3    0    0  0.15699369016E+03 -0.46463988387E+03  0.29972712459E+03  0.58029981311E+03  0.79839109755E+02 0.  0.
      -24    2    3    3    0    0 -0.15699369016E+03  0.46463988387E+03  0.17690966704E+03  0.52740542362E+03  0.79512326963E+02 0.  0.
      -13    1    4    4    0    0  0.11954512368E+02 -0.11452780823E+03  0.96746620515E+02  0.15039759907E+03  0.00000000000E+00 0.  1.
       14    1    4    4    0    0  0.14503917780E+03 -0.35011207564E+03  0.20298050407E+03  0.42990221404E+03  0.00000000000E+00 0. -1.
        3    1    5    5  501    0 -0.45792323902E+01  0.11815761104E+03  0.38171417422E+02  0.12425476861E+03  0.00000000000E+00 0. -1.
       -4    1    5    5    0  501 -0.15241445777E+03  0.34648227283E+03  0.13873824962E+03  0.40315065501E+03  0.14200000000E+01 0.  1.
</event>
<event>
 9   1  0.7335000E-04  0.9918964E+03  0.7818608E-02  0.9317478E-01
       21   -1    0    0  503  502  0.00000000000E+00  0.00000000000E+00  0.40548176018E+03  0.40548176018E+03  0.00000000000E+00 0. -1.
       21   -1    0    0  502  503 -0.00000000000E+00 -0.00000000000E+00 -0.60659849356E+03  0.60659849356E+03  0.00000000000E+00 0.  1.
       39    2    1    2    0    0  0.00000000000E+00  0.56843418861E-13 -0.20111673338E+03  0.10120802537E+04  0.99189641575E+03 0.  0.
       24    2    3    3    0    0  0.21680680494E+03 -0.29527572325E+03 -0.43183924253E+03  0.57126155606E+03  0.75244206615E+02 0.  0.
      -24    2    3    3    0    0 -0.21680680494E+03  0.29527572325E+03  0.23072250915E+03  0.44081869769E+03  0.83037970805E+02 0.  0.
      -13    1    4    4    0    0  0.12728056836E+03 -0.16138564030E+03 -0.29711861762E+03  0.36128263301E+03  0.00000000000E+00 0.  1.
       14    1    4    4    0    0  0.89526236577E+02 -0.13389008295E+03 -0.13472062491E+03  0.20997892305E+03  0.00000000000E+00 0. -1.
        3    1    5    5  501    0 -0.87340715103E+02  0.15357757740E+03  0.68445578034E+02  0.18947102667E+03  0.00000000000E+00 0. -1.
       -4    1    5    5    0  501 -0.12946608984E+03  0.14169814585E+03  0.16227693112E+03  0.25134767102E+03  0.14200000000E+01 0.  1.
</event>
<event>
 9   1  0.7335000E-04  0.9851776E+03  0.7818608E-02  0.9324953E-01
       21   -1    0    0  503  502  0.00000000000E+00  0.00000000000E+00  0.11370635381E+04  0.11370635381E+04  0.00000000000E+00 0. -1.
       21   -1    0    0  502  503 -0.00000000000E+00 -0.00000000000E+00 -0.21339503987E+03  0.21339503987E+03  0.00000000000E+00 0.  1.
       39    2    1    2    0    0 -0.56843418861E-13  0.28421709430E-13  0.92366849822E+03  0.13504585780E+04  0.98517758611E+03 0.  0.
       24    2    3    3    0    0 -0.42145481129E+03  0.16922176630E+03  0.69952408971E+03  0.83796228916E+03  0.81158374883E+02 0.  0.
      -24    2    3    3    0    0  0.42145481129E+03 -0.16922176630E+03  0.22414440851E+03  0.51249628880E+03  0.78431919644E+02 0.  0.
      -13    1    4    4    0    0 -0.31545082773E+02  0.37748893868E+02  0.61427891221E+02  0.78698520032E+02  0.00000000000E+00 0.  1.
       14    1    4    4    0    0 -0.38990972852E+03  0.13147287243E+03  0.63809619849E+03  0.75926376913E+03  0.00000000000E+00 0. -1.
        3    1    5    5  501    0  0.70844009582E+00 -0.57565355728E+01 -0.36846842893E+01  0.68714254331E+01  0.00000000000E+00 0. -1.
       -4    1    5    5    0  501  0.42074637119E+03 -0.16346523073E+03  0.22782909280E+03  0.50562486337E+03  0.14200000000E+01 0.  1.
</event>
<event>
 9   1  0.7335000E-04  0.9964167E+03  0.7818608E-02  0.9312484E-01
       21   -1    0    0  503  502  0.00000000000E+00  0.00000000000E+00  0.35633694423E+03  0.35633694423E+03  0.00000000000E+00 0. -1.
       21   -1    0    0  502  503 -0.00000000000E+00 -0.00000000000E+00 -0.69656416832E+03  0.69656416832E+03  0.00000000000E+00 0.  1.
       39    2    1    2    0    0  0.28421709430E-13  0.56843418861E-13 -0.34022722409E+03  0.10529011125E+04  0.99641667428E+03 0.  0.
       24    2    3    3    0    0  0.18922474157E+03  0.30893563748E+03 -0.52113785288E+03  0.64003756623E+03  0.82560241958E+02 0.  0.
      -24    2    3    3    0    0 -0.18922474157E+03 -0.30893563748E+03  0.18091062879E+03  0.41286354632E+03  0.80501064231E+02 0.  0.
      -13    1    4    4    0    0  0.16507310726E+03  0.20783143247E+03 -0.34174229655E+03  0.43270178219E+03  0.00000000000E+00 0.  1.
       14    1    4    4    0    0  0.24151634313E+02  0.10110420502E+03 -0.17939555632E+03  0.20733578403E+03  0.00000000000E+00 0. -1.
        1    1    5    5  501    0 -0.91437828579E+02 -0.22045541304E+03  0.12745162954E+03  0.27056493399E+03  0.00000000000E+00 0. -1.
       -2    1    5    5    0  501 -0.97786912992E+02 -0.88480224446E+02  0.53458999243E+02  0.14229861233E+03  0.00000000000E+00 0.  1.
</event>
<event>
 9   1  0.7335000E-04  0.1012299E+04  0.7818608E-02  0.9295158E-01
       21   -1    0    0  503  502  0.00000000000E+00  0.00000000000E+00  0.14558018624E+04  0.14558018624E+04  0.00000000000E+00 0. -1.
       21   -1    0    0  502  503 -0.00000000000E+00 -0.00000000000E+00 -0.17597671431E+03  0.17597671431E+03  0.00000000000E+00 0.  1.
       39    2    1    2    0    0 -0.11368683772E-12 -0.88817841970E-15  0.12798251481E+04  0.16317785768E+04  0.10122988263E+04 0.  0.
       24    2    3    3    0    0  0.31346761572E+03  0.22299627848E+01  0.12673354319E+04  0.13079481128E+04  0.79512576859E+02 0.  0.
      -24    2    3    3    0    0 -0.31346761572E+03 -0.22299627848E+01  0.12489716215E+02  0.32383046398E+03  0.80269904387E+02 0.  0.
      -13    1    4    4    0    0  0.11087405712E+02 -0.45582170867E+01  0.14750055695E+03  0.14798689878E+03  0.00000000000E+00 0.  1.
       14    1    4    4    0    0  0.30238021001E+03  0.67881798715E+01  0.11198348750E+04  0.11599612140E+04  0.00000000000E+00 0. -1.
        1    1    5    5  501    0 -0.27402587112E+02  0.13979935011E+02  0.20887144353E+02  0.37183506593E+02  0.00000000000E+00 0. -1.
       -2    1    5    5    0  501 -0.28606502861E+03 -0.16209897795E+02 -0.83974281379E+01  0.28664695739E+03  0.00000000000E+00 0.  1.
</event>
<event>
 9   1  0.7335000E-04  0.1011912E+04  0.7818608E-02  0.9295575E-01
       21   -1    0    0  503  502  0.00000000000E+00  0.00000000000E+00  0.46048547269E+03  0.46048547269E+03  0.00000000000E+00 0.  1.
       21   -1    0    0  502  503 -0.00000000000E+00 -0.00000000000E+00 -0.55591691073E+03  0.55591691073E+03  0.00000000000E+00 0. -1.
       39    2    1    2    0    0  0.00000000000E+00  0.00000000000E+00 -0.95431438038E+02  0.10164023834E+04  0.10119123705E+04 0.  0.
       24    2    3    3    0    0  0.30495292895E+03  0.61185209679E+02  0.34488261084E+03  0.47135369862E+03  0.80562864839E+02 0.  0.
      -24    2    3    3    0    0 -0.30495292895E+03 -0.61185209679E+02 -0.44031404887E+03  0.54504868480E+03  0.80384627917E+02 0.  0.
      -13    1    4    4    0    0  0.26890563134E+03  0.60830937306E+02  0.33522180164E+03  0.43403259992E+03  0.00000000000E+00 0.  1.
       14    1    4    4    0    0  0.36047297612E+02  0.35427237327E+00  0.96608091932E+01  0.37321098702E+02  0.00000000000E+00 0. -1.
        3    1    5    5  501    0 -0.11130937718E+03 -0.62239649850E+02 -0.16929238674E+03  0.21195155973E+03  0.00000000000E+00 0. -1.
       -4    1    5    5    0  501 -0.19364355177E+03  0.10544401708E+01 -0.27102166213E+03  0.33309712507E+03  0.14200000000E+01 0.  1.
</event>
<event>
 9   1  0.7335000E-04  0.1000345E+04  0.7818608E-02  0.9308167E-01
       21   -1    0    0  503  502  0.00000000000E+00  0.00000000000E+00  0.64310531694E+03  0.64310531694E+03  0.00000000000E+00 0. -1.
       21   -1    0    0  502  503 -0.00000000000E+00 -0.00000000000E+00 -0.38900688268E+03  0.38900688268E+03  0.00000000000E+00 0.  1.
       39    2    1    2    0    0 -0.28421709430E-13  0.14210854715E-13  0.25409843427E+03  0.10321121996E+04  0.10003447297E+04 0.  0.
       24    2    3    3    0    0  0.21813940737E+03 -0.70017643357E+02 -0.32480714957E+03  0.40523339928E+03  0.78912306085E+02 0.  0.
      -24    2    3    3    0    0 -0.21813940737E+03  0.70017643357E+02  0.57890558383E+03  0.62687880034E+03  0.73198933722E+02 0.  0.
      -13    1    4    4    0    0  0.21002628147E+03 -0.43396978973E+02 -0.28906347071E+03  0.35993336438E+03  0.00000000000E+00 0.  1.
       14    1    4    4    0    0  0.81131259058E+01 -0.26620664384E+02 -0.35743678852E+02  0.45300034901E+02  0.00000000000E+00 0. -1.
        1    1    5    5  501    0 -0.17135998129E+03  0.68506893309E+02  0.51914839736E+03  0.55097413379E+03  0.00000000000E+00 0. -1.
       -2    1    5    5    0  501 -0.46779426080E+02  0.15107500475E+01  0.59757186468E+02  0.75904666554E+02  0.00000000000E+00 0.  1.
</event>
<event>
 9   1  0.7335000E-04  0.9998469E+03  0.7818608E-02  0.9308713E-01
        1   -1    0    0  501    0  0.00000000000E+00  0.00000000000E+00  0.12990128136E+04  0.12990128136E+04  0.00000000000E+00 0. -1.
       -1   -1    0    0    0  501 -0.00000000000E+00 -0.00000000000E+00 -0.19239490389E+03  0.19239490389E+03  0.00000000000E+00 0.  1.
       39    2    1    2    0    0  0.00000000000E+00 -0.56843418861E-13  0.11066179097E+04  0.14914077174E+04  0.99984687910E+03 0.  0.
       24    2    3    3    0    0 -0.61367789069E+02 -0.48639886430E+03  0.46986214338E+03  0.68373041394E+03  0.79793385947E+02 0.  0.
      -24    2    3    3    0    0  0.61367789069E+02  0.48639886430E+03  0.63675576629E+03  0.80767730350E+03  0.80838480728E+02 0.  0.
      -13    1    4    4    0    0 -0.52708547396E+02 -0.13136568843E+03  0.13679638240E+03  0.19684609548E+03  0.00000000000E+00 0.  1.
       14    1    4    4    0    0 -0.86592416734E+01 -0.35503317586E+03  0.33306576098E+03  0.48688431846E+03  0.00000000000E+00 0. -1.
        1    1    5    5  502    0 -0.75992122324E+01  0.18638814943E+02  0.51503138980E+02  0.55296715760E+02  0.00000000000E+00 0. -1.
       -2    1    5    5    0  502  0.68967001301E+02  0.46776004935E+03  0.58525262731E+03  0.75238058774E+03  0.00000000000E+00 0.  1.
</event>
<event>
 9   1  0.7335000E-04  0.1021120E+04  0.7818608E-02  0.9285679E-01
       21   -1    0    0  503  502  0.00000000000E+00  0.00000000000E+00  0.16031359766E+04  0.16031359766E+04  0.00000000000E+00 0.  1.
       21   -1    0    0  502  503 -0.00000000000E+00 -0.00000000000E+00 -0.16260103731E+03  0.16260103731E+03  0.00000000000E+00 0. -1.
       39    2    1    2    0    0  0.28421709430E-13  0.00000000000E+00  0.14405349393E+04  0.17657370139E+04  0.10211201158E+04 0.  0.
       24    2    3    3    0    0 -0.24552539213E+03  0.31748082210E+03  0.12508712684E+04  0.13161100393E+04  0.79936942549E+02 0.  0.
      -24    2    3    3    0    0  0.24552539213E+03 -0.31748082210E+03  0.18966367087E+03  0.44962697462E+03  0.71521449057E+02 0.  0.
      -13    1    4    4    0    0 -0.20185989844E+03  0.29361497260E+03  0.10363090657E+04  0.10958529328E+04  0.00000000000E+00 0.  1.
       14    1    4    4    0    0 -0.43665493697E+02  0.23865849492E+02  0.21456220274E+03  0.22025710648E+03  0.00000000000E+00 0. -1.
        3    1    5    5  501    0  0.24568219929E+03 -0.29359109140E+03  0.17101660119E+03  0.41928766960E+03  0.00000000000E+00 0. -1.
       -4    1    5    5    0  501 -0.15680715671E+00 -0.23889730693E+02  0.18647069682E+02  0.30339305015E+02  0.14200000000E+01 0.  1.
</event>
<event>
 9   1  0.7335000E-04  0.9986397E+03  0.7818608E-02  0.9310038E-01
       -2   -1    0    0    0  501 -0.00000000000E+00  0.00000000000E+00  0.82357045490E+02  0.82357045490E+02  0.00000000000E+00 0.  1.
        2   -1    0    0  501    0  0.00000000000E+00 -0.00000000000E+00 -0.30273100176E+04  0.30273100176E+04  0.00000000000E+00 0. -1.
       39    2    1    2    0    0 -0.14210854715E-13  0.56843418861E-13 -0.29449529721E+04  0.31096670630E+04  0.99863969244E+03 0.  0.
       24    2    3    3    0    0 -0.12711923581E+03  0.34573713132E+03 -0.45107956967E+03  0.58776253370E+03  0.79363428392E+02 0.  0.
      -24    2    3    3    0    0  0.12711923581E+03 -0.34573713132E+03 -0.24938734024E+04  0.25219045293E+04  0.70031734643E+02 0.  0.
      -13    1    4    4    0    0 -0.73812407697E+02  0.27790932905E+03 -0.37636587867E+03  0.47363819665E+03  0.00000000000E+00 0.  1.
       14    1    4    4    0    0 -0.53306828112E+02  0.67827802268E+02 -0.74713691002E+02  0.11412433705E+03  0.00000000000E+00 0. -1.
        3    1    5    5  502    0  0.12233388418E+03 -0.33134831544E+03 -0.24527476178E+04  0.24780492654E+04  0.00000000000E+00 0. -1.
       -4    1    5    5    0  502  0.47853516326E+01 -0.14388815884E+02 -0.41125784608E+02  0.43855263907E+02  0.14200000000E+01 0.  1.
</event>
<event>
 9   1  0.7335000E-04  0.9598395E+03  0.7818608E-02  0.9353723E-01
       21   -1    0    0  503  502  0.00000000000E+00  0.00000000000E+00  0.12911983665E+03  0.12911983665E+03  0.00000000000E+00 0.  1.
       21   -1    0    0  502  503 -0.00000000000E+00 -0.00000000000E+00 -0.17837924010E+04  0.17837924010E+04  0.00000000000E+00 0. -1.
       39    2    1    2    0    0  0.00000000000E+00  0.00000000000E+00 -0.16546725643E+04  0.19129122376E+04  0.95983953540E+03 0.  0.
       24    2    3    3    0    0  0.19080093783E+03 -0.25323943138E+03 -0.15289128960E+04  0.15635282830E+04  0.80689782051E+02 0.  0.
      -24    2    3    3    0    0 -0.19080093783E+03  0.25323943138E+03 -0.12575966834E+03  0.34938395457E+03  0.75620407609E+02 0.  0.
      -13    1    4    4    0    0  0.89221222454E+02 -0.56781535330E+02 -0.46606173637E+03  0.47791014993E+03  0.00000000000E+00 0.  1.
       14    1    4    4    0    0  0.10157971538E+03 -0.19645789605E+03 -0.10628511596E+04  0.10856181331E+04  0.00000000000E+00 0. -1.
        1    1    5    5  501    0 -0.18170705415E+02  0.48977270750E+02 -0.47811657396E+02  0.70815973963E+02  0.00000000000E+00 0. -1.
       -2    1    5    5    0  501 -0.17263023242E+03  0.20426216063E+03 -0.77948010949E+02  0.27856798061E+03  0.00000000000E+00 0.  1.
</event>
<event>
 9   1  0.7335000E-04  0.9854424E+03  0.7818608E-02  0.9324657E-01
       21   -1    0    0  503  502  0.00000000000E+00  0.00000000000E+00  0.21541440569E+03  0.21541440569E+03  0.00000000000E+00 0.  1.
       21   -1    0    0  502  503 -0.00000000000E+00 -0.00000000000E+00 -0.11270099183E+04  0.11270099183E+04  0.00000000000E+00 0. -1.
       39    2    1    2    0    0  0.35527136788E-14  0.14210854715E-13 -0.91159551259E+03  0.13424243240E+04  0.98544238136E+03 0.  0.
       24    2    3    3    0    0  0.30839110466E+02  0.86154517586E+02 -0.11058797400E+04  0.11126966263E+04  0.82159182168E+02 0.  0.
      -24    2    3    3    0    0 -0.30839110466E+02 -0.86154517586E+02  0.19428422744E+03  0.22972769763E+03  0.81576972191E+02 0.  0.
      -13    1    4    4    0    0  0.19553571242E+01 -0.10932584209E+02 -0.28844844227E+02  0.30909057854E+02  0.00000000000E+00 0.  1.
       14    1    4    4    0    0  0.28883753342E+02  0.97087101796E+02 -0.10770348958E+04  0.10817875685E+04  0.00000000000E+00 0. -1.
        1    1    5    5  501    0  0.48333699458E+01 -0.77371413422E+02  0.88014998281E+02  0.11728741195E+03  0.00000000000E+00 0. -1.
       -2    1    5    5    0  501 -0.35672480412E+02 -0.87831041639E+01  0.10626922916E+03  0.11244028568E+03  0.00000000000E+00 0.  1.
</event>
<event>
 9   1  0.7335000E-04  0.9977131E+03  0.7818608E-02  0.9311057E-01
       21   -1    0    0  503  502  0.00000000000E+00  0.00000000000E+00  0.10120624080E+04  0.10120624080E+04  0.00000000000E+00 0.  1.
       21   -1    0    0  502  503 -0.00000000000E+00 -0.00000000000E+00 -0.24589180607E+03  0.24589180607E+03  0.00000000000E+00 0. -1.
       39    2    1    2    0    0  0.28421709430E-13  0.00000000000E+00  0.76617060189E+03  0.12579542140E+04  0.99771309172E+03 0.  0.
       24    2    3    3    0    0 -0.24814262570E+03  0.37916109572E+03  0.62479258456E+03  0.77653513992E+03  0.85458473089E+02 0.  0.
      -24    2    3    3    0    0  0.24814262570E+03 -0.37916109572E+03  0.14137801733E+03  0.48141907410E+03  0.80241397857E+02 0.  0.
      -13    1    4    4    0    0 -0.14129160070E+03  0.13968623795E+03  0.28108407797E+03  0.34421478816E+03  0.00000000000E+00 0.  1.
       14    1    4    4    0    0 -0.10685102500E+03  0.23947485777E+03  0.34370850659E+03  0.43232035176E+03  0.00000000000E+00 0. -1.
        1    1    5    5  501    0  0.14642945496E+03 -0.28736781199E+03  0.11092326964E+03  0.34106570686E+03  0.00000000000E+00 0. -1.
       -2    1    5    5    0  501  0.10171317074E+03 -0.91793283729E+02  0.30454747687E+02  0.14035336724E+03  0.00000000000E+00 0.  1.
</event>
<event>
 9   1  0.7335000E-04  0.1000382E+04  0.7818608E-02  0.9308126E-01
       21   -1    0    0  503  502  0.00000000000E+00  0.00000000000E+00  0.95213994796E+03  0.95213994796E+03  0.00000000000E+00 0.  1.
       21   -1    0    0  502  503 -0.00000000000E+00 -0.00000000000E+00 -0.26276718925E+03  0.26276718925E+03  0.00000000000E+00 0. -1.
       39    2    1    2    0    0  0.28421709430E-13  0.00000000000E+00  0.68937275871E+03  0.12149071372E+04  0.10003822028E+04 0.  0.
       24    2    3    3    0    0 -0.13962892191E+03  0.26247782760E+03 -0.13395118446E+03  0.33592411460E+03  0.80692286737E+02 0.  0.
      -24    2    3    3    0    0  0.13962892191E+03 -0.26247782760E+03  0.82332394317E+03  0.87898302260E+03  0.79737022884E+02 0.  0.
      -13    1    4    4    0    0 -0.61269274317E+02  0.66001421044E+02 -0.96306157191E+01  0.90569643447E+02  0.00000000000E+00 0.  1.
       14    1    4    4    0    0 -0.78359647590E+02  0.19647640656E+03 -0.12432056874E+03  0.24535447116E+03  0.00000000000E+00 0. -1.
        1    1    5    5  501    0  0.67049464139E+02 -0.18185325455E+03  0.44419593183E+03  0.48464034364E+03  0.00000000000E+00 0. -1.
       -2    1    5    5    0  501  0.72579457768E+02 -0.80624573051E+02  0.37912801134E+03  0.39434267896E+03  0.00000000000E+00 0.  1.
</event>
<event>
 9   1  0.7335000E-04  0.1002668E+04  0.7818608E-02  0.9305624E-01
       21   -1    0    0  503  502  0.00000000000E+00  0.00000000000E+00  0.10554543196E+04  0.10554543196E+04  0.00000000000E+00 0. -1.
       21   -1    0    0  502  503 -0.00000000000E+00 -0.00000000000E+00 -0.23813019566E+03  0.23813019566E+03  0.00000000000E+00 0.  1.
       39    2    1    2    0    0 -0.56843418861E-13  0.56843418861E-13  0.81732412394E+03  0.12935845153E+04  0.10026675294E+04 0.  0.
       24    2    3    3    0    0 -0.28470340883E+03  0.39516364287E+03  0.51193337962E+03  0.71318352524E+03  0.96667573973E+02 0.  0.
      -24    2    3    3    0    0  0.28470340883E+03 -0.39516364287E+03  0.30539074433E+03  0.58040099002E+03  0.79946650015E+02 0.  0.
      -13    1    4    4    0    0 -0.24902910874E+03  0.37226597021E+03  0.49496324546E+03  0.66752233216E+03  0.00000000000E+00 0.  1.
       14    1    4    4    0    0 -0.35674300086E+02  0.22897672665E+02  0.16970134160E+02  0.45661193080E+02  0.00000000000E+00 0. -1.
        1    1    5    5  501    0  0.22084793811E+03 -0.25951305670E+03  0.18258992768E+03  0.38660046567E+03  0.00000000000E+00 0. -1.
       -2    1    5    5    0  501  0.63855470719E+02 -0.13565058617E+03  0.12280081665E+03  0.19380052435E+03  0.00000000000E+00 0.  1.
</event>
<event>
 9   1  0.7335000E-04  0.1006074E+04  0.7818608E-02  0.9301907E-01
       21   -1    0    0  503  502  0.00000000000E+00  0.00000000000E+00  0.65199926390E+03  0.65199926390E+03  0.00000000000E+00 0. -1.
       21   -1    0    0  502  503 -0.00000000000E+00 -0.00000000000E+00 -0.38810850240E+03  0.38810850240E+03  0.00000000000E+00 0.  1.
       39    2    1    2    0    0  0.56843418861E-13 -0.28421709430E-13  0.26389076149E+03  0.10401077663E+04  0.10060744662E+04 0.  0.
       24    2    3    3    0    0 -0.38777554190E+03  0.13418192371E+03 -0.15705395206E+03  0.44672998328E+03  0.80790312249E+02 0.  0.
      -24    2    3    3    0    0  0.38777554190E+03 -0.13418192371E+03  0.42094471355E+03  0.59337778302E+03  0.80796546762E+02 0.  0.
      -13    1    4    4    0    0 -0.37399234910E+03  0.11364115266E+03 -0.15886462916E+03  0.42192719652E+03  0.00000000000E+00 0.  1.
       14    1    4    4    0    0 -0.13783192804E+02  0.20540771058E+02  0.18106771068E+01  0.24802786761E+02  0.00000000000E+00 0. -1.
        3    1    5    5  501    0  0.19410154591E+03 -0.31748138766E+02  0.23117290516E+03  0.30351979593E+03  0.00000000000E+00 0. -1.
       -4    1    5    5    0  501  0.19367399599E+03 -0.10243378495E+03  0.18977180839E+03  0.28985798709E+03  0.14200000000E+01 0.  1.
</event>
<event>
 9   1  0.7335000E-04  0.1008163E+04  0.7818608E-02  0.9299637E-01
       21   -1    0    0  503  502  0.00000000000E+00  0.00000000000E+00  0.47528123761E+03  0.47528123761E+03  0.00000000000E+00 0.  1.
       21   -1    0    0  502  503 -0.00000000000E+00 -0.00000000000E+00 -0.53462714884E+03  0.53462714884E+03  0.00000000000E+00 0. -1.
       39    2    1    2    0    0  0.56843418861E-13  0.00000000000E+00 -0.59345911231E+02  0.10099083865E+04  0.10081631871E+04 0.  0.
       24    2    3    3    0    0 -0.28514015481E+03 -0.28618544705E+03 -0.31696750225E+03  0.51977386795E+03  0.80557174314E+02 0.  0.
      -24    2    3    3    0    0  0.28514015481E+03  0.28618544705E+03  0.25762159102E+03  0.49013451851E+03  0.10322763242E+03 0.  0.
      -13    1    4    4    0    0 -0.93421478777E+02 -0.97576916729E+02 -0.60033047776E+02  0.14782690621E+03  0.00000000000E+00 0.  1.
       14    1    4    4    0    0 -0.19171867603E+03 -0.18860853032E+03 -0.25693445447E+03  0.37194696173E+03  0.00000000000E+00 0. -1.
        3    1    5    5  501    0  0.13001567855E+03  0.20201279864E+03  0.14031762406E+03  0.27821265806E+03  0.00000000000E+00 0. -1.
       -4    1    5    5    0  501  0.15512447625E+03  0.84172648403E+02  0.11730396696E+03  0.21192186045E+03  0.14200000000E+01 0.  1.
</event>
<event>
 9   1  0.7335000E-04  0.1005224E+04  0.7818608E-02  0.9302834E-01
       21   -1    0    0  503  502  0.00000000000E+00  0.00000000000E+00  0.34887686678E+03  0.34887686678E+03  0.00000000000E+00 0.  1.
       21   -1    0    0  502  503 -0.00000000000E+00 -0.00000000000E+00 -0.72409186738E+03  0.72409186738E+03  0.00000000000E+00 0. -1.
       39    2    1    2    0    0  0.00000000000E+00  0.00000000000E+00 -0.37521500060E+03  0.10729687342E+04  0.10052241580E+04 0.  0.
       24    2    3    3    0    0 -0.20914166534E+03  0.30675418668E+03 -0.53934462769E+03  0.65969578847E+03  0.80421008929E+02 0.  0.
      -24    2    3    3    0    0  0.20914166534E+03 -0.30675418668E+03  0.16412962709E+03  0.41327294568E+03  0.77573358293E+02 0.  0.
      -13    1    4    4    0    0 -0.16094238470E+03  0.17887998360E+03 -0.30595956765E+03  0.38924511141E+03  0.00000000000E+00 0.  1.
       14    1    4    4    0    0 -0.48199280646E+02  0.12787420308E+03 -0.23338506004E+03  0.27045067706E+03  0.00000000000E+00 0. -1.
        3    1    5    5  501    0  0.54889201054E+02 -0.10199380802E+03  0.15279601826E+02  0.11682905246E+03  0.00000000000E+00 0. -1.
       -4    1    5    5    0  501  0.15425246429E+03 -0.20476037866E+03  0.14885002526E+03  0.29644389322E+03  0.14200000000E+01 0.  1.
</event>
<event>
 9   1  0.7335000E-04  0.1011416E+04  0.7818608E-02  0.9296112E-01
       -1   -1    0    0    0  501 -0.00000000000E+00  0.00000000000E+00  0.10039402967E+04  0.10039402967E+04  0.00000000000E+00 0. -1.
        1   -1    0    0  501    0  0.00000000000E+00 -0.00000000000E+00 -0.25473694881E+03  0.25473694881E+03  0.00000000000E+00 0.  1.
       39    2    1    2    0    0  0.00000000000E+00  0.28421709430E-13  0.74920334788E+03  0.12586772455E+04  0.10114162110E+04 0.  0.
       24    2    3    3    0    0  0.36652322580E+03 -0.25497723980E+03  0.65303040130E+03  0.79511899583E+03  0.80080238764E+02 0.  0.
      -24    2    3    3    0    0 -0.36652322580E+03  0.25497723980E+03  0.96172946583E+02  0.46355824967E+03  0.79273875345E+02 0.  0.
      -13    1    4    4    0    0  0.19726077734E+03 -0.18492299362E+03  0.39455959799E+03  0.47831538153E+03  0.00000000000E+00 0.  1.
       14    1    4    4    0    0  0.16926244847E+03 -0.70054246181E+02  0.25847080331E+03  0.31680361430E+03  0.00000000000E+00 0. -1.
        3    1    5    5  502    0 -0.10052086606E+03  0.62001286853E+02 -0.91582770922E+01  0.11845876128E+03  0.00000000000E+00 0. -1.
       -4    1    5    5    0  502 -0.26600235975E+03  0.19297595295E+03  0.10533122367E+03  0.34509948839E+03  0.14200000000E+01 0.  1.
</event>
<event>
 9   1  0.7335000E-04  0.9760796E+03  0.7818608E-02  0.9335176E-01
       21   -1    0    0  503  502  0.00000000000E+00  0.00000000000E+00  0.71388757860E+03  0.71388757860E+03  0.00000000000E+00 0.  1.
       21   -1    0    0  502  503 -0.00000000000E+00 -0.00000000000E+00 -0.33364198173E+03  0.33364198173E+03  0.00000000000E+00 0. -1.
       39    2    1    2    0    0  0.00000000000E+00 -0.28421709430E-13  0.38024559686E+03  0.10475295603E+04  0.97607964113E+03 0.  0.
       24    2    3    3    0    0 -0.18288736135E+03  0.21052703201E+03 -0.23074541689E+03  0.37082195586E+03  0.80598122737E+02 0.  0.
      -24    2    3    3    0    0  0.18288736135E+03 -0.21052703201E+03  0.61099101375E+03  0.67670760447E+03  0.82787347578E+02 0.  0.
      -13    1    4    4    0    0  0.69141523089E+01  0.19482724661E+02 -0.21097895074E+02  0.29538165801E+02  0.00000000000E+00 0.  1.
       14    1    4    4    0    0 -0.18980151366E+03  0.19104430734E+03 -0.20964752181E+03  0.34128379006E+03  0.00000000000E+00 0. -1.
        1    1    5    5  501    0  0.13578242482E+02 -0.28294900348E+02  0.14630606990E+03  0.14963434146E+03  0.00000000000E+00 0. -1.
       -2    1    5    5    0  501  0.16930911887E+03 -0.18223213166E+03  0.46468494385E+03  0.52707326301E+03  0.00000000000E+00 0.  1.
</event>
<event>
 9   1  0.7335000E-04  0.1005386E+04  0.7818608E-02  0.9302657E-01
       21   -1    0    0  503  502  0.00000000000E+00  0.00000000000E+00  0.46475229909E+03  0.46475229909E+03  0.00000000000E+00 0.  1.
       21   -1    0    0  502  503 -0.00000000000E+00 -0.00000000000E+00 -0.54373083188E+03  0.54373083188E+03  0.00000000000E+00 0. -1.
       39    2    1    2    0    0  0.00000000000E+00  0.28421709430E-13 -0.78978532791E+02  0.10084831310E+04  0.10053858050E+04 0.  0.
       24    2    3    3    0    0  0.37887032629E+02 -0.13039839738E+03 -0.51793828220E+03  0.54157971545E+03  0.81297938093E+02 0.  0.
      -24    2    3    3    0    0 -0.37887032629E+02  0.13039839738E+03  0.43895974941E+03  0.46690341552E+03  0.82909399615E+02 0.  0.
      -13    1    4    4    0    0 -0.48117474276E+01  0.29999803045E+01 -0.70114275698E+00  0.57135274831E+01  0.00000000000E+00 0.  1.
       14    1    4    4    0    0  0.42698780057E+02 -0.13339837769E+03 -0.51723713944E+03  0.53586618796E+03  0.00000000000E+00 0. -1.
        1    1    5    5  501    0  0.15039889839E+02  0.92982751771E+02  0.26783070229E+03  0.28391068226E+03  0.00000000000E+00 0. -1.
       -2    1    5    5    0  501 -0.52926922469E+02  0.37415645612E+02  0.17112904711E+03  0.18299273326E+03  0.00000000000E+00 0.  1.
</event>
<event>
 9   1  0.7335000E-04  0.1005487E+04  0.7818608E-02  0.9302547E-01
       21   -1    0    0  503  502  0.00000000000E+00  0.00000000000E+00  0.75916679301E+03  0.75916679301E+03  0.00000000000E+00 0. -1.
       21   -1    0    0  502  503 -0.00000000000E+00 -0.00000000000E+00 -0.33293242137E+03  0.33293242137E+03  0.00000000000E+00 0.  1.
       39    2    1    2    0    0  0.00000000000E+00  0.00000000000E+00  0.42623437163E+03  0.10920992144E+04  0.10054874213E+04 0.  0.
       24    2    3    3    0    0 -0.15910179879E+03  0.79636587996E+02 -0.29086561992E+03  0.34831953889E+03  0.71192161016E+02 0.  0.
      -24    2    3    3    0    0  0.15910179879E+03 -0.79636587996E+02  0.71709999156E+03  0.74377967549E+03  0.85559565583E+02 0.  0.
      -13    1    4    4    0    0 -0.13523999808E+03  0.57429401330E+02 -0.27561310149E+03  0.31233087413E+03  0.00000000000E+00 0.  1.
       14    1    4    4    0    0 -0.23861800711E+02  0.22207186666E+02 -0.15252518432E+02  0.35988664761E+02  0.00000000000E+00 0. -1.
        3    1    5    5  501    0  0.15729964180E+03 -0.83854895004E+02  0.58413164006E+03  0.61072464634E+03  0.00000000000E+00 0. -1.
       -4    1    5    5    0  501  0.18021569889E+01  0.42183070086E+01  0.13296835150E+03  0.13305502916E+03  0.14200000000E+01 0.  1.
</event>
<event>
 9   1  0.7335000E-04  0.1010245E+04  0.7818608E-02  0.9297379E-01
       -3   -1    0    0    0  501 -0.00000000000E+00  0.00000000000E+00  0.11984549888E+04  0.11984549888E+04  0.00000000000E+00 0.  1.
        3   -1    0    0  501    0  0.00000000000E+00 -0.00000000000E+00 -0.21289808551E+03  0.21289808551E+03  0.00000000000E+00 0. -1.
       39    2    1    2    0    0 -0.56843418861E-13 -0.28421709430E-13  0.98555690331E+03  0.14113530743E+04  0.10102450647E+04 0.  0.
       24    2    3    3    0    0 -0.25948735281E+03 -0.23564500712E+03 -0.25750596293E+01  0.35982839654E+03  0.81287073818E+02 0.  0.
      -24    2    3    3    0    0  0.25948735281E+03  0.23564500712E+03  0.98813196294E+03  0.10515246778E+04  0.80231640792E+02 0.  0.
      -13    1    4    4    0    0 -0.31694540385E+02 -0.73982386485E+02  0.22419276313E+00  0.80485946988E+02  0.00000000000E+00 0.  1.
       14    1    4    4    0    0 -0.22779281243E+03 -0.16166262064E+03 -0.27992523925E+01  0.27934244955E+03  0.00000000000E+00 0. -1.
        3    1    5    5  502    0  0.13955563066E+03  0.13863192100E+03  0.43742871870E+03  0.47962325581E+03  0.00000000000E+00 0. -1.
       -4    1    5    5    0  502  0.11993172215E+03  0.97013086122E+02  0.55070324424E+03  0.57190142199E+03  0.14200000000E+01 0.  1.
</event>
<event>
 9   1  0.7335000E-04  0.9963246E+03  0.7818608E-02  0.9312585E-01
        1   -1    0    0  501    0  0.00000000000E+00  0.00000000000E+00  0.13715551895E+04  0.13715551895E+04  0.00000000000E+00 0.  1.
       -1   -1    0    0    0  501 -0.00000000000E+00 -0.00000000000E+00 -0.18093744550E+03  0.18093744550E+03  0.00000000000E+00 0. -1.
       39    2    1    2    0    0 -0.28421709430E-13  0.11368683772E-12  0.11906177440E+04  0.15524926351E+04  0.99632463056E+03 0.  0.
       24    2    3    3    0    0  0.17169567515E+03 -0.43177645098E+03  0.34665239190E+03  0.58634478124E+03  0.87874986097E+02 0.  0.
      -24    2    3    3    0    0 -0.17169567515E+03  0.43177645098E+03  0.84396535214E+03  0.96614785382E+03  0.72483455553E+02 0.  0.
      -13    1    4    4    0    0  0.74467952692E+01  0.16567770624E+01  0.13572609630E+02  0.15569694993E+02  0.00000000000E+00 0.  1.
       14    1    4    4    0    0  0.16424887988E+03 -0.43343322804E+03  0.33307978227E+03  0.57077508624E+03  0.00000000000E+00 0. -1.
        3    1    5    5  502    0 -0.45338355888E+02  0.13118854603E+03  0.18886359664E+03  0.23438314628E+03  0.00000000000E+00 0. -1.
       -4    1    5    5    0  502 -0.12635731927E+03  0.30058790496E+03  0.65510175550E+03  0.73176470754E+03  0.14200000000E+01 0.  1.
</event>
<event>
 9   1  0.7335000E-04  0.1016309E+04  0.7818608E-02  0.9290836E-01
       21   -1    0    0  503  502  0.00000000000E+00  0.00000000000E+00  0.22340145837E+03  0.22340145837E+03  0.00000000000E+00 0.  1.
       21   -1    0    0  502  503 -0.00000000000E+00 -0.00000000000E+00 -0.11558610642E+04  0.11558610642E+04  0.00000000000E+00 0. -1.
       39    2    1    2    0    0  0.00000000000E+00  0.00000000000E+00 -0.93245960585E+03  0.13792625226E+04  0.10163091015E+04 0.  0.
       24    2    3    3    0    0  0.33142608648E+02 -0.27569914480E+03 -0.10326334118E+04  0.10723406742E+04  0.80463081124E+02 0.  0.
      -24    2    3    3    0    0 -0.33142608648E+02  0.27569914480E+03  0.10017380597E+03  0.30692184838E+03  0.84010586594E+02 0.  0.
      -13    1    4    4    0    0 -0.89597991070E+01 -0.60463215530E+02 -0.13320131377E+03  0.14655602486E+03  0.00000000000E+00 0.  1.
       14    1    4    4    0    0  0.42102407755E+02 -0.21523592927E+03 -0.89943209804E+03  0.92578464935E+03  0.00000000000E+00 0. -1.
        1    1    5    5  501    0  0.67785816486E+01  0.21680770549E+02 -0.12787018348E+02  0.26067466677E+02  0.00000000000E+00 0. -1.
       -2    1    5    5    0  501 -0.39921190297E+02  0.25401837425E+03  0.11296082431E+03  0.28085438171E+03  0.00000000000E+00 0.  1.
</event>
<event>
 9   1  0.7335000E-04  0.9937849E+03  0.7818608E-02  0.9315388E-01
       21   -1    0    0  503  502  0.00000000000E+00  0.00000000000E+00  0.16340700839E+04  0.16340700839E+04  0.00000000000E+00 0.  1.
       21   -1    0    0  502  503 -0.00000000000E+00 -0.00000000000E+00 -0.15109640264E+03  0.15109640264E+03  0.00000000000E+00 0. -1.
       39    2    1    2    0    0  0.56843418861E-13  0.00000000000E+00  0.14829736812E+04  0.17851664865E+04  0.99378490900E+03 0.  0.
       24    2    3    3    0    0 -0.20197538634E+03  0.31571766044E+03  0.17304196795E+03  0.42034089123E+03  0.79191188697E+02 0.  0.
      -24    2    3    3    0    0  0.20197538634E+03 -0.31571766044E+03  0.13099317133E+04  0.13648255953E+04  0.79725242554E+02 0.  0.
      -13    1    4    4    0    0 -0.56358774669E+01  0.11822566582E+02  0.27314612795E+02  0.30292313672E+02  0.00000000000E+00 0.  1.
       14    1    4    4    0    0 -0.19633950887E+03  0.30389509385E+03  0.14572735516E+03  0.39004857755E+03  0.00000000000E+00 0. -1.
        3    1    5    5  501    0  0.22788837477E+02 -0.15923959051E+02  0.48176322603E+02  0.55622492258E+02  0.00000000000E+00 0. -1.
       -4    1    5    5    0  501  0.17918654886E+03 -0.29979370138E+03  0.12617553907E+04  0.13092031030E+04  0.14200000000E+01 0.  1.
</event>
<event>
 9   1  0.7335000E-04  0.9988942E+03  0.7818608E-02  0.9309758E-01
       21   -1    0    0  503  502  0.00000000000E+00  0.00000000000E+00  0.37201814019E+03  0.37201814019E+03  0.00000000000E+00 0.  1.
       21   -1    0    0  502  503 -0.00000000000E+00 -0.00000000000E+00 -0.67052484621E+03  0.67052484621E+03  0.00000000000E+00 0. -1.
       39    2    1    2    0    0  0.00000000000E+00  0.00000000000E+00 -0.29850670602E+03  0.10425429864E+04  0.99889420108E+03 0.  0.
       24    2    3    3    0    0  0.12149436770E+03 -0.34823052479E+03 -0.49081772224E+03  0.61892184480E+03  0.78337945629E+02 0.  0.
      -24    2    3    3    0    0 -0.12149436770E+03  0.34823052479E+03  0.19231101622E+03  0.42362114160E+03  0.80286766460E+02 0.  0.
      -13    1    4    4    0    0  0.12497140149E+03 -0.30667963535E+03 -0.40227184922E+03  0.52104979666E+03  0.00000000000E+00 0.  1.
       14    1    4    4    0    0 -0.34770337836E+01 -0.41550889438E+02 -0.88545873025E+02  0.97872048139E+02  0.00000000000E+00 0. -1.
        3    1    5    5  501    0  0.11510555180E+02  0.18191024068E+02  0.88398267909E+01  0.23271200546E+02  0.00000000000E+00 0. -1.
       -4    1    5    5    0  501 -0.13300492288E+03  0.33003950072E+03  0.18347118943E+03  0.40034994105E+03  0.14200000000E+01 0.  1.
</event>
<event>
 9   1  0.7335000E-04  0.1005589E+04  0.7818608E-02  0.9302436E-01
       21   -1    0    0  503  502  0.00000000000E+00  0.00000000000E+00  0.49062984956E+03  0.49062984956E+03  0.00000000000E+00 0.  1.
       21   -1    0    0  502  503 -0.00000000000E+00 -0.00000000000E+00 -0.51526119385E+03  0.51526119385E+03  0.00000000000E+00 0. -1.
       39    2    1    2    0    0  0.00000000000E+00  0.00000000000E+00 -0.24631344291E+02  0.10058910434E+04  0.10055894232E+04 0.  0.
       24    2    3    3    0    0  0.38997828010E+03 -0.50345491214E+02 -0.31583526133E+03  0.51005971200E+03  0.76100394678E+02 0.  0.
      -24    2    3    3    0    0 -0.38997828010E+03  0.50345491214E+02  0.29120391704E+03  0.49583133140E+03  0.80195139929E+02 0.  0.
      -13    1    4    4    0    0  0.13696005524E+03 -0.67410448816E+01 -0.15565869280E+03  0.20744427459E+03  0.00000000000E+00 0.  1.
       14    1    4    4    0    0  0.25301822486E+03 -0.43604446332E+02 -0.16017656854E+03  0.30261543741E+03  0.00000000000E+00 0. -1.
        1    1    5    5  501    0 -0.25032267224E+02 -0.12128399399E+02  0.59722730812E+01  0.28449613707E+02  0.00000000000E+00 0. -1.
       -2    1    5    5    0  501 -0.36494601287E+03  0.62473890613E+02  0.28523164396E+03  0.46738171770E+03  0.00000000000E+00 0.  1.
</event>
<event>
 9   1  0.7335000E-04  0.1003805E+04  0.7818608E-02  0.9304381E-01
       21   -1    0    0  503  502  0.00000000000E+00  0.00000000000E+00  0.20717711424E+03  0.20717711424E+03  0.00000000000E+00 0. -1.
       21   -1    0    0  502  503 -0.00000000000E+00 -0.00000000000E+00 -0.12158979761E+04  0.12158979761E+04  0.00000000000E+00 0.  1.
       39    2    1    2    0    0  0.00000000000E+00  0.28421709430E-13 -0.10087208618E+04  0.14230750903E+04  0.10038052279E+04 0.  0.
       24    2    3    3    0    0  0.22590883340E+03 -0.15713354818E+03  0.79216093528E+02  0.29818478710E+03  0.83145804515E+02 0.  0.
      -24    2    3    3    0    0 -0.22590883340E+03  0.15713354818E+03 -0.10879369554E+04  0.11248903032E+04  0.77753600805E+02 0.  0.
      -13    1    4    4    0    0  0.35442118342E+02 -0.28462991265E+02  0.48187089344E+02  0.66244103162E+02  0.00000000000E+00 0.  1.
       14    1    4    4    0    0  0.19046671506E+03 -0.12867055692E+03  0.31029004184E+02  0.23194068394E+03  0.00000000000E+00 0. -1.
        3    1    5    5  501    0 -0.12518973173E+03  0.12190275997E+03 -0.76795071336E+03  0.78757923409E+03  0.00000000000E+00 0. -1.
       -4    1    5    5    0  501 -0.10071910168E+03  0.35230788211E+02 -0.31998624201E+03  0.33731106913E+03  0.14200000000E+01 0.  1.
</event>
<event>
 9   1  0.7335000E-04  0.1033332E+04  0.7818608E-02  0.9272723E-01
       21   -1    0    0  503  502  0.00000000000E+00  0.00000000000E+00  0.10416714609E+03  0.10416714609E+03  0.00000000000E+00 0. -1.
       21   -1    0    0  502  503 -0.00000000000E+00 -0.00000000000E+00 -0.25626505880E+04  0.25626505880E+04  0.00000000000E+00 0.  1.
       39    2    1    2    0    0  0.56843418861E-13  0.28421709430E-13 -0.24584834420E+04  0.26668177341E+04  0.10333324696E+04 0.  0.
       24    2    3    3    0    0  0.45390825629E+03  0.13218779327E+03 -0.17263001373E+04  0.17916059418E+04  0.78951686011E+02 0.  0.
      -24    2    3    3    0    0 -0.45390825629E+03 -0.13218779327E+03 -0.73218330465E+03  0.87521179235E+03  0.79981073067E+02 0.  0.
      -13    1    4    4    0    0  0.20217816819E+03  0.92618808199E+02 -0.88871314748E+03  0.91611424715E+03  0.00000000000E+00 0.  1.
       14    1    4    4    0    0  0.25173008810E+03  0.39568985071E+02 -0.83758698982E+03  0.87549169462E+03  0.00000000000E+00 0. -1.
        1    1    5    5  501    0 -0.28380367048E+03 -0.43783739956E+02 -0.41714835542E+03  0.50643290740E+03  0.00000000000E+00 0. -1.
       -2    1    5    5    0  501 -0.17010458582E+03 -0.88404053313E+02 -0.31503494922E+03  0.36877888496E+03  0.00000000000E+00 0.  1.
</event>
<event>
 9   1  0.7335000E-04  0.9771570E+03  0.7818608E-02  0.9333960E-01
       21   -1    0    0  503  502  0.00000000000E+00  0.00000000000E+00  0.62549244982E+03  0.62549244982E+03  0.00000000000E+00 0.  1.
       21   -1    0    0  502  503 -0.00000000000E+00 -0.00000000000E+00 -0.38163362347E+03  0.38163362347E+03  0.00000000000E+00 0. -1.
       39    2    1    2    0    0  0.00000000000E+00 -0.14210854715E-13  0.24385882635E+03  0.10071260733E+04  0.97715699880E+03 0.  0.
       24    2    3    3    0    0 -0.28728718135E+03 -0.10788244548E+03 -0.26120954944E+03  0.41083122789E+03  0.79870660980E+02 0.  0.
      -24    2    3    3    0    0  0.28728718135E+03  0.10788244548E+03  0.50506837579E+03  0.59629484539E+03  0.79378408995E+02 0.  0.
      -13    1    4    4    0    0 -0.69067463351E+02 -0.32355071642E+02 -0.11337757195E+03  0.13664420579E+03  0.00000000000E+00 0.  1.
       14    1    4    4    0    0 -0.21821971800E+03 -0.75527373835E+02 -0.14783197749E+03  0.27418702210E+03  0.00000000000E+00 0. -1.
        1    1    5    5  501    0  0.82634819373E+02 -0.25147521030E+01  0.10606526569E+03  0.13447928442E+03  0.00000000000E+00 0. -1.
       -2    1    5    5    0  501  0.20465236198E+03  0.11039719758E+03  0.39900311009E+03  0.46181556098E+03  0.00000000000E+00 0.  1.
</event>
<event>
 9   1  0.7335000E-04  0.1004440E+04  0.7818608E-02  0.9303688E-01
       21   -1    0    0  503  502  0.00000000000E+00  0.00000000000E+00  0.10214299113E+04  0.10214299113E+04  0.00000000000E+00 0. -1.
       21   -1    0    0  502  503 -0.00000000000E+00 -0.00000000000E+00 -0.24693315441E+03  0.24693315441E+03  0.00000000000E+00 0.  1.
       39    2    1    2    0    0  0.00000000000E+00 -0.56843418861E-13  0.77449675687E+03  0.12683630657E+04  0.10044399634E+04 0.  0.
       24    2    3    3    0    0  0.27074119153E+03  0.33356224964E+03  0.70058552939E+03  0.82574545878E+03  0.80441976196E+02 0.  0.
      -24    2    3    3    0    0 -0.27074119153E+03 -0.33356224964E+03  0.73911227476E+02  0.44261760691E+03  0.76700125298E+02 0.  0.
      -13    1    4    4    0    0  0.16382080462E+03  0.17255311270E+03  0.31853349347E+03  0.39758699576E+03  0.00000000000E+00 0.  1.
       14    1    4    4    0    0  0.10692038691E+03  0.16100913693E+03  0.38205203592E+03  0.42815846303E+03  0.00000000000E+00 0. -1.
        3    1    5    5  501    0  0.37887326619E+00 -0.26569006874E+02  0.91773670856E+00  0.26587551823E+02  0.00000000000E+00 0. -1.
       -4    1    5    5    0  501 -0.27112006480E+03 -0.30699324276E+03  0.72993490767E+02  0.41603005508E+03  0.14200000000E+01 0.  1.
</event>
<event>
 9   1  0.7335000E-04  0.1004429E+04  0.7818608E-02  0.9303700E-01
       21   -1    0    0  503  502  0.00000000000E+00  0.00000000000E+00  0.49343358137E+03  0.49343358137E+03  0.00000000000E+00 0.  1.
       21   -1    0    0  502  503 -0.00000000000E+00 -0.00000000000E+00 -0.51115190583E+03  0.51115190583E+03  0.00000000000E+00 0. -1.
       39    2    1    2    0    0  0.00000000000E+00  0.00000000000E+00 -0.17718324456E+02  0.10045854872E+04  0.10044292220E+04 0.  0.
       24    2    3    3    0    0  0.10076409302E+03 -0.97682955270E+02  0.46646513431E+03  0.49373815822E+03  0.80574717861E+02 0.  0.
      -24    2    3    3    0    0 -0.10076409302E+03  0.97682955270E+02 -0.48418345877E+03  0.51084732898E+03  0.82680164467E+02 0.  0.
      -13    1    4    4    0    0  0.58547266903E+02 -0.34545501456E+02  0.33572019682E+03  0.34253353805E+03  0.00000000000E+00 0.  1.
       14    1    4    4    0    0  0.42216826114E+02 -0.63137453814E+02  0.13074493749E+03  0.15120462017E+03  0.00000000000E+00 0. -1.
        1    1    5    5  501    0 -0.85687837418E+02  0.11271564993E+03 -0.42236587987E+03  0.44546622734E+03  0.00000000000E+00 0. -1.
       -2    1    5    5    0  501 -0.15076255600E+02 -0.15032694665E+02 -0.61817578894E+02  0.65381101644E+02  0.00000000000E+00 0.  1.
</event>
<event>
 9   1  0.7335000E-04  0.1014276E+04  0.7818608E-02  0.9293024E-01
       21   -1    0    0  503  502  0.00000000000E+00  0.00000000000E+00  0.13500922861E+04  0.13500922861E+04  0.00000000000E+00 0.  1.
       21   -1    0    0  502  503 -0.00000000000E+00 -0.00000000000E+00 -0.19049737198E+03  0.19049737198E+03  0.00000000000E+00 0. -1.
       39    2    1    2    0    0  0.00000000000E+00  0.00000000000E+00  0.11595949141E+04  0.15405896581E+04  0.10142761605E+04 0.  0.
       24    2    3    3    0    0  0.11897274223E+03 -0.40397910529E+03  0.99099916177E+03  0.10799633788E+04  0.82993553698E+02 0.  0.
      -24    2    3    3    0    0 -0.11897274223E+03  0.40397910529E+03  0.16859575233E+03  0.46062627928E+03  0.79990065407E+02 0.  0.
      -13    1    4    4    0    0  0.10352342271E+03 -0.38067059451E+03  0.96166645917E+03  0.10394371454E+04  0.00000000000E+00 0.  1.
       14    1    4    4    0    0  0.15449319522E+02 -0.23308510777E+02  0.29332702603E+02  0.40526233359E+02  0.00000000000E+00 0. -1.
        3    1    5    5  501    0 -0.11796671864E+03  0.40402889108E+03  0.17362566434E+03  0.45530359416E+03  0.00000000000E+00 0. -1.
       -4    1    5    5    0  501 -0.10060235893E+01 -0.49785799592E-01 -0.50299120115E+01  0.53226851242E+01  0.14200000000E+01 0.  1.
</event>
<event>
 9   1  0.7335000E-04  0.9997055E+03  0.7818608E-02  0.9308868E-01
       21   -1    0    0  503  502  0.00000000000E+00  0.00000000000E+00  0.26469223869E+03  0.26469223869E+03  0.00000000000E+00 0.  1.
       21   -1    0    0  502  503 -0.00000000000E+00 -0.00000000000E+00 -0.94393682939E+03  0.94393682939E+03  0.00000000000E+00 0. -1.
       39    2    1    2    0    0  0.56843418861E-13  0.00000000000E+00 -0.67924459070E+03  0.12086290681E+04  0.99970546172E+03 0.  0.
       24    2    3    3    0    0  0.28122858017E+03 -0.26078880158E+03  0.40590907908E+02  0.38991374622E+03  0.57313125436E+02 0.  0.
      -24    2    3    3    0    0 -0.28122858017E+03  0.26078880158E+03 -0.71983549861E+03  0.81871532185E+03  0.70931797117E+02 0.  0.
      -13    1    4    4    0    0  0.27061220921E+03 -0.23035740374E+03  0.40522339406E+02  0.35768360491E+03  0.00000000000E+00 0.  1.
       14    1    4    4    0    0  0.10616370965E+02 -0.30431397839E+02  0.68568501672E-01  0.32230141306E+02  0.00000000000E+00 0. -1.
        1    1    5    5  501    0 -0.26611989492E+03  0.25918693442E+03 -0.70769057586E+03  0.79926442221E+03  0.00000000000E+00 0. -1.
       -2    1    5    5    0  501 -0.15108685251E+02  0.16018671638E+01 -0.12144922749E+02  0.19450899645E+02  0.00000000000E+00 0.  1.
</event>
<event>
 9   1  0.7335000E-04  0.9942960E+03  0.7818608E-02  0.9314823E-01
       21   -1    0    0  503  502  0.00000000000E+00  0.00000000000E+00  0.64076203118E+03  0.64076203118E+03  0.00000000000E+00 0. -1.
       21   -1    0    0  502  503 -0.00000000000E+00 -0.00000000000E+00 -0.38572222747E+03  0.38572222747E+03  0.00000000000E+00 0.  1.
       39    2    1    2    0    0 -0.28421709430E-13  0.56843418861E-13  0.25503980371E+03  0.10264842587E+04  0.99429604836E+03 0.  0.
       24    2    3    3    0    0 -0.24937098053E+03  0.42167295109E+03  0.10092138960E+03  0.50654390719E+03  0.80047732121E+02 0.  0.
      -24    2    3    3    0    0  0.24937098053E+03 -0.42167295109E+03  0.15411841412E+03  0.51994035147E+03  0.81188175891E+02 0.  0.
      -13    1    4    4    0    0 -0.41542393718E+00  0.43822729675E+02  0.11357205128E+02  0.45272401323E+02  0.00000000000E+00 0.  1.
       14    1    4    4    0    0 -0.24895555659E+03  0.37785022142E+03  0.89564184468E+02  0.46127150586E+03  0.00000000000E+00 0. -1.
        1    1    5    5  501    0 -0.61402467106E+01 -0.10217432748E+02  0.93424483968E+00  0.11957063813E+02  0.00000000000E+00 0. -1.
       -2    1    5    5    0  501  0.25551122724E+03 -0.41145551834E+03  0.15318416928E+03  0.50798328766E+03  0.00000000000E+00 0.  1.
</event>
<event>
 9   1  0.7335000E-04  0.1006192E+04  0.7818608E-02  0.9301780E-01
       21   -1    0    0  503  502  0.00000000000E+00  0.00000000000E+00  0.34032407563E+04  0.34032407563E+04  0.00000000000E+00 0. -1.
       21   -1    0    0  502  503 -0.00000000000E+00 -0.00000000000E+00 -0.74371906725E+02  0.74371906725E+02  0.00000000000E+00 0.  1.
       39    2    1    2    0    0 -0.71054273576E-14 -0.28421709430E-13  0.33288688496E+04  0.34776126630E+04  0.10061918387E+04 0.  0.
       24    2    3    3    0    0 -0.32325747542E+02 -0.18565561150E+03  0.32527037014E+04  0.32594516750E+04  0.91819892185E+02 0.  0.
      -24    2    3    3    0    0  0.32325747542E+02  0.18565561150E+03  0.76165148193E+02  0.21816098803E+03  0.79247251458E+02 0.  0.
      -13    1    4    4    0    0  0.38110917944E+01 -0.11128887088E+03  0.12212768755E+04  0.12263429145E+04  0.00000000000E+00 0.  1.
       14    1    4    4    0    0 -0.36136839337E+02 -0.74366740616E+02  0.20314268259E+04  0.20331087605E+04  0.00000000000E+00 0. -1.
        3    1    5    5  501    0  0.40906563313E+02  0.90058230916E+02  0.71511108531E+02  0.12205601387E+03  0.00000000000E+00 0. -1.
       -4    1    5    5    0  501 -0.85808157708E+01  0.95597380583E+02  0.46540396618E+01  0.96104974163E+02  0.14200000000E+01 0.  1.
</event>
<event>
 9   1  0.7335000E-04  0.1026932E+04  0.7818608E-02  0.9279490E-01
        1   -1    0    0  501    0  0.00000000000E+00  0.00000000000E+00  0.21420681487E+03  0.21420681487E+03  0.00000000000E+00 0. -1.
       -1   -1    0    0    0  501 -0.00000000000E+00 -0.00000000000E+00 -0.12308074151E+04  0.12308074151E+04  0.00000000000E+00 0.  1.
       39    2    1    2    0    0  0.56843418861E-13  0.00000000000E+00 -0.10166006002E+04  0.14450142299E+04  0.10269320057E+04 0.  0.
       24    2    3    3    0    0  0.25673808140E+03 -0.31370077242E+03 -0.79735539363E+02  0.42098599399E+03  0.80924865421E+02 0.  0.
      -24    2    3    3    0    0 -0.25673808140E+03  0.31370077242E+03 -0.93686506084E+03  0.10240282359E+04  0.81210028467E+02 0.  0.
      -13    1    4    4    0    0  0.92602346952E+02 -0.88886574806E+02 -0.60678703776E+02  0.14197860027E+03  0.00000000000E+00 0.  1.
       14    1    4    4    0    0  0.16413573444E+03 -0.22481419762E+03 -0.19056835587E+02  0.27900739373E+03  0.00000000000E+00 0. -1.
        3    1    5    5  502    0 -0.95730712266E+02  0.67111363323E+02 -0.22267398480E+03  0.25149951862E+03  0.00000000000E+00 0. -1.
       -4    1    5    5    0  502 -0.16100736913E+03  0.24658940910E+03 -0.71419107603E+03  0.77252871732E+03  0.14200000000E+01 0.  1.
</event>
<event>
 9   1  0.7335000E-04  0.9988010E+03  0.7818608E-02  0.9309861E-01
       -1   -1    0    0    0  501 -0.00000000000E+00  0.00000000000E+00  0.14870122564E+03  0.14870122564E+03  0.00000000000E+00 0.  1.
        1   -1    0    0  501    0  0.00000000000E+00 -0.00000000000E+00 -0.16771944221E+04  0.16771944221E+04  0.00000000000E+00 0. -1.
       39    2    1    2    0    0  0.00000000000E+00  0.00000000000E+00 -0.15284931965E+04  0.18258956478E+04  0.99880101361E+03 0.  0.
       24    2    3    3    0    0  0.10875932036E+03 -0.14337202717E+03  0.74630669671E+02  0.21070823201E+03  0.80275115964E+02 0.  0.
      -24    2    3    3    0    0 -0.10875932036E+03  0.14337202717E+03 -0.16031238662E+04  0.16151874157E+04  0.80250419308E+02 0.  0.
      -13    1    4    4    0    0  0.71614202324E+02 -0.10019947654E+03  0.89021952850E+02  0.15196524985E+03  0.00000000000E+00 0.  1.
       14    1    4    4    0    0  0.37145118036E+02 -0.43172550632E+02 -0.14391283178E+02  0.58742982163E+02  0.00000000000E+00 0. -1.
        1    1    5    5  502    0 -0.53866205019E+02  0.94697190648E+02 -0.63416255355E+03  0.64345261697E+03  0.00000000000E+00 0. -1.
       -2    1    5    5    0  502 -0.54893115341E+02  0.48674836519E+02 -0.96896131260E+03  0.97173479877E+03  0.00000000000E+00 0.  1.
</event>
<event>
 9   1  0.7335000E-04  0.9800417E+03  0.7818608E-02  0.9330710E-01
       21   -1    0    0  503  502  0.00000000000E+00  0.00000000000E+00  0.50929738285E+03  0.50929738285E+03  0.00000000000E+00 0. -1.
       21   -1    0    0  502  503 -0.00000000000E+00 -0.00000000000E+00 -0.47147387985E+03  0.47147387985E+03  0.00000000000E+00 0.  1.
       39    2    1    2    0    0  0.00000000000E+00  0.00000000000E+00  0.37823502997E+02  0.98077126270E+03  0.98004165848E+03 0.  0.
       24    2    3    3    0    0  0.14817183607E+03  0.11532903770E+03 -0.42679648016E+03  0.47314929647E+03  0.80370027590E+02 0.  0.
      -24    2    3    3    0    0 -0.14817183607E+03 -0.11532903770E+03  0.46461998316E+03  0.50762196623E+03  0.80948452166E+02 0.  0.
      -13    1    4    4    0    0  0.15418288889E+03  0.91847720876E+02 -0.36401510423E+03  0.40585140528E+03  0.00000000000E+00 0.  1.
       14    1    4    4    0    0 -0.60110528222E+01  0.23481316825E+02 -0.62781375929E+02  0.67297891196E+02  0.00000000000E+00 0. -1.
        3    1    5    5  501    0 -0.12862227593E+03 -0.11414733156E+03  0.45360016737E+03  0.48510454029E+03  0.00000000000E+00 0. -1.
       -4    1    5    5    0  501 -0.19549560142E+02 -0.11817061372E+01  0.11019815787E+02  0.22517425943E+02  0.14200000000E+01 0.  1.
</event>
<event>
 9   1  0.7335000E-04  0.1026186E+04  0.7818608E-02  0.9280282E-01
       21   -1    0    0  503  502  0.00000000000E+00  0.00000000000E+00  0.45989387627E+03  0.45989387627E+03  0.00000000000E+00 0. -1.
       21   -1    0    0  502  503 -0.00000000000E+00 -0.00000000000E+00 -0.57244557205E+03  0.57244557205E+03  0.00000000000E+00 0.  1.
       39    2    1    2    0    0 -0.56843418861E-13  0.00000000000E+00 -0.11255169578E+03  0.10323394483E+04  0.10261855838E+04 0.  0.
       24    2    3    3    0    0  0.27717045851E+03 -0.79324707848E+01  0.36947451459E+03  0.47048588738E+03  0.89214158822E+02 0.  0.
      -24    2    3    3    0    0 -0.27717045851E+03  0.79324707848E+01 -0.48202621037E+03  0.56185356094E+03  0.80273092002E+02 0.  0.
      -13    1    4    4    0    0  0.17152067212E+03 -0.24613386292E+02  0.16271919713E+03  0.23770295931E+03  0.00000000000E+00 0.  1.
       14    1    4    4    0    0  0.10564978638E+03  0.16680915507E+02  0.20675531745E+03  0.23278292807E+03  0.00000000000E+00 0. -1.
        1    1    5    5  501    0 -0.91928503546E+00  0.19647352634E+01 -0.43366173536E+02  0.43420390104E+02  0.00000000000E+00 0. -1.
       -2    1    5    5    0  501 -0.27625117347E+03  0.59677355214E+01 -0.43866003683E+03  0.51843317084E+03  0.00000000000E+00 0.  1.
</event>
<event>
 9   1  0.7335000E-04  0.1012823E+04  0.7818608E-02  0.9294591E-01
        1   -1    0    0  501    0  0.00000000000E+00  0.00000000000E+00  0.71960031397E+03  0.71960031397E+03  0.00000000000E+00 0. -1.
       -1   -1    0    0    0  501 -0.00000000000E+00 -0.00000000000E+00 -0.35638228533E+03  0.35638228533E+03  0.00000000000E+00 0.  1.
       39    2    1    2    0    0  0.28421709430E-13  0.00000000000E+00  0.36321802864E+03  0.10759825993E+04  0.10128233892E+04 0.  0.
       24    2    3    3    0    0 -0.17989328069E+03  0.45955006845E+03  0.26669380492E+03  0.56658253690E+03  0.79638732334E+02 0.  0.
      -24    2    3    3    0    0  0.17989328069E+03 -0.45955006845E+03  0.96524223719E+02  0.50940006240E+03  0.81385747889E+02 0.  0.
      -13    1    4    4    0    0 -0.11743907752E+03  0.37502875109E+03  0.22956229512E+03  0.45512344305E+03  0.00000000000E+00 0.  1.
       14    1    4    4    0    0 -0.62454203168E+02  0.84521317364E+02  0.37131509796E+02  0.11145909385E+03  0.00000000000E+00 0. -1.
        3    1    5    5  502    0  0.17088144579E+03 -0.35729146784E+03  0.92207141106E+02  0.40664458483E+03  0.00000000000E+00 0. -1.
       -4    1    5    5    0  502  0.90118349002E+01 -0.10225860061E+03  0.43170826125E+01  0.10275547757E+03  0.14200000000E+01 0.  1.
</event>
<event>
 9   1  0.7335000E-04  0.1007493E+04  0.7818608E-02  0.9300365E-01
       21   -1    0    0  503  502  0.00000000000E+00  0.00000000000E+00  0.27263599694E+03  0.27263599694E+03  0.00000000000E+00 0.  1.
       21   -1    0    0  502  503 -0.00000000000E+00 -0.00000000000E+00 -0.93076680992E+03  0.93076680992E+03  0.00000000000E+00 0. -1.
       39    2    1    2    0    0 -0.14210854715E-13  0.00000000000E+00 -0.65813081298E+03  0.12034028069E+04  0.10074930018E+04 0.  0.
       24    2    3    3    0    0 -0.12720145964E+03 -0.24017093187E+03  0.16845667767E+03  0.32960545061E+03  0.79998831052E+02 0.  0.
      -24    2    3    3    0    0  0.12720145964E+03  0.24017093187E+03 -0.82658749065E+03  0.87379735625E+03  0.80079037534E+02 0.  0.
      -13    1    4    4    0    0 -0.12683461443E+03 -0.17473102416E+03  0.14502276554E+03  0.26009527629E+03  0.00000000000E+00 0.  1.
       14    1    4    4    0    0 -0.36684520591E+00 -0.65439907705E+02  0.23433912128E+02  0.69510174316E+02  0.00000000000E+00 0. -1.
        1    1    5    5  501    0  0.11615649491E+03  0.23331156882E+03 -0.70706626497E+03  0.75357104676E+03  0.00000000000E+00 0. -1.
       -2    1    5    5    0  501  0.11044964730E+02  0.68593630494E+01 -0.11952122568E+03  0.12022630950E+03  0.00000000000E+00 0.  1.
</event>
<event>
 9   1  0.7335000E-04  0.1007145E+04  0.7818608E-02  0.9300743E-01
       21   -1    0    0  503  502  0.00000000000E+00  0.00000000000E+00  0.59753406911E+03  0.59753406911E+03  0.00000000000E+00 0. -1.
       21   -1    0    0  502  503 -0.00000000000E+00 -0.00000000000E+00 -0.42438599541E+03  0.42438599541E+03  0.00000000000E+00 0.  1.
       39    2    1    2    0    0  0.00000000000E+00 -0.56843418861E-13  0.17314807369E+03  0.10219200645E+04  0.10071446584E+04 0.  0.
       24    2    3    3    0    0  0.23626185586E+03  0.40116736065E+03  0.26299900242E+03  0.54100994224E+03  0.82270082922E+02 0.  0.
      -24    2    3    3    0    0 -0.23626185586E+03 -0.40116736065E+03 -0.89850928729E+02  0.48091012228E+03  0.80289728689E+02 0.  0.
      -13    1    4    4    0    0  0.61263537783E+02  0.50610100566E+02  0.28693232221E+02  0.84486122625E+02  0.00000000000E+00 0.  1.
       14    1    4    4    0    0  0.17499831808E+03  0.35055726008E+03  0.23430577020E+03  0.45652381962E+03  0.00000000000E+00 0. -1.
        1    1    5    5  501    0 -0.17912475474E+03 -0.22783241932E+03 -0.60330040313E+02  0.29602871959E+03  0.00000000000E+00 0. -1.
       -2    1    5    5    0  501 -0.57137101116E+02 -0.17333494132E+03 -0.29520888416E+02  0.18488140269E+03  0.00000000000E+00 0.  1.
</event>
<event>
 9   1  0.7335000E-04  0.1017278E+04  0.7818608E-02  0.9289795E-01
       21   -1    0    0  503  502  0.00000000000E+00  0.00000000000E+00  0.19586414786E+03  0.19586414786E+03  0.00000000000E+00 0. -1.
       21   -1    0    0  502  503 -0.00000000000E+00 -0.00000000000E+00 -0.13208820504E+04  0.13208820504E+04  0.00000000000E+00 0.  1.
       39    2    1    2    0    0  0.00000000000E+00  0.00000000000E+00 -0.11250179025E+04  0.15167461982E+04  0.10172776164E+04 0.  0.
       24    2    3    3    0    0  0.69963854894E+02 -0.31229912876E+03 -0.11400048916E+04  0.11868190752E+04  0.80639181022E+02 0.  0.
      -24    2    3    3    0    0 -0.69963854894E+02  0.31229912876E+03  0.14986989087E+02  0.32992712305E+03  0.78750300734E+02 0.  0.
      -13    1    4    4    0    0  0.27923428027E+00 -0.15350061686E+03 -0.45459513367E+03  0.47981168483E+03  0.00000000000E+00 0.  1.
       14    1    4    4    0    0  0.69684620614E+02 -0.15879851190E+03 -0.68540975792E+03  0.70700739033E+03  0.00000000000E+00 0. -1.
        1    1    5    5  501    0 -0.48318014954E+02  0.27424496311E+03 -0.11593421783E+02  0.27871013219E+03  0.00000000000E+00 0. -1.
       -2    1    5    5    0  501 -0.21645839940E+02  0.38054165652E+02  0.26580410871E+02  0.51216990855E+02  0.00000000000E+00 0.  1.
</event>
<event>
 9   1  0.7335000E-04  0.1017881E+04  0.7818608E-02  0.9289148E-01
       21   -1    0    0  503  502  0.00000000000E+00  0.00000000000E+00  0.38304187681E+03  0.38304187681E+03  0.00000000000E+00 0. -1.
       21   -1    0    0  502  503 -0.00000000000E+00 -0.00000000000E+00 -0.67621963026E+03  0.67621963026E+03  0.00000000000E+00 0.  1.
       39    2    1    2    0    0  0.35527136788E-14 -0.28421709430E-13 -0.29317775345E+03  0.10592615071E+04  0.10178810074E+04 0.  0.
       24    2    3    3    0    0 -0.20909278069E+02 -0.16630393415E+03  0.34554058976E+03  0.39464368327E+03  0.90835792194E+02 0.  0.
      -24    2    3    3    0    0  0.20909278069E+02  0.16630393415E+03 -0.63871834321E+03  0.66461782381E+03  0.75243161416E+02 0.  0.
      -13    1    4    4    0    0 -0.19896728813E+02 -0.17409248917E+02  0.11327257282E+02  0.28762276037E+02  0.00000000000E+00 0.  1.
       14    1    4    4    0    0 -0.10125492561E+01 -0.14889468524E+03  0.33421333248E+03  0.36588140723E+03  0.00000000000E+00 0. -1.
        3    1    5    5  501    0 -0.21537850066E+01 -0.43512006538E+01 -0.24159066430E+01  0.54229458684E+01  0.00000000000E+00 0. -1.
       -4    1    5    5    0  501  0.23063063076E+02  0.17065513481E+03 -0.63630243657E+03  0.65919487794E+03  0.14200000000E+01 0.  1.
</event>
<event>
 9   1  0.7335000E-04  0.9995116E+03  0.7818608E-02  0.9309081E-01
       21   -1    0    0  503  502  0.00000000000E+00  0.00000000000E+00  0.28510828666E+03  0.28510828666E+03  0.00000000000E+00 0.  1.
       21   -1    0    0  502  503 -0.00000000000E+00 -0.00000000000E+00 -0.87600358996E+03  0.87600358996E+03  0.00000000000E+00 0. -1.
       39    2    1    2    0    0  0.00000000000E+00  0.56843418861E-13 -0.59089530330E+03  0.11611118766E+04  0.99951164603E+03 0.  0.
       24    2    3    3    0    0 -0.22784265832E+03  0.28346569914E+03 -0.68228173812E+03  0.77724996429E+03  0.79649590609E+02 0.  0.
      -24    2    3    3    0    0  0.22784265832E+03 -0.28346569914E+03  0.91386434813E+02  0.38386191232E+03  0.82057344123E+02 0.  0.
      -13    1    4    4    0    0 -0.49577961901E+02  0.27354510953E+02 -0.14879926791E+03  0.15920887446E+03  0.00000000000E+00 0.  1.
       14    1    4    4    0    0 -0.17826469642E+03  0.25611118819E+03 -0.53348247020E+03  0.61804108983E+03  0.00000000000E+00 0. -1.
        3    1    5    5  501    0  0.73810388948E+02 -0.79565853711E+02  0.66087569759E+02  0.12706795611E+03  0.00000000000E+00 0. -1.
       -4    1    5    5    0  501  0.15403226937E+03 -0.20389984543E+03  0.25298865054E+02  0.25679395621E+03  0.14200000000E+01 0.  1.
</event>
<event>
 9   1  0.7335000E-04  0.1012039E+04  0.7818608E-02  0.9295438E-01
       21   -1    0    0  503  502  0.00000000000E+00  0.00000000000E+00  0.38770145751E+03  0.38770145751E+03  0.00000000000E+00 0.  1.
       21   -1    0    0  502  503 -0.00000000000E+00 -0.00000000000E+00 -0.66044626258E+03  0.66044626258E+03  0.00000000000E+00 0. -1.
       39    2    1    2    0    0  0.11368683772E-12  0.00000000000E+00 -0.27274480507E+03  0.10481477201E+04  0.10120394826E+04 0.  0.
       24    2    3    3    0    0 -0.46767904763E+03 -0.94010711504E+02 -0.29018091145E+03  0.56410567175E+03  0.80302814811E+02 0.  0.
      -24    2    3    3    0    0  0.46767904763E+03  0.94010711504E+02  0.17436106374E+02  0.48404204834E+03  0.80193399281E+02 0.  0.
      -13    1    4    4    0    0 -0.14213128762E+03 -0.15555708091E+02 -0.12854689719E+03  0.19226957053E+03  0.00000000000E+00 0.  1.
       14    1    4    4    0    0 -0.32554776000E+03 -0.78455003414E+02 -0.16163401425E+03  0.37183610122E+03  0.00000000000E+00 0. -1.
        1    1    5    5  501    0  0.14235447438E+03  0.24198601220E+02  0.42070726580E+02  0.15040051433E+03  0.00000000000E+00 0. -1.
       -2    1    5    5    0  501  0.32532457325E+03  0.69812110285E+02 -0.24634620205E+02  0.33364153401E+03  0.00000000000E+00 0.  1.
</event>
<event>
 9   1  0.7335000E-04  0.1024062E+04  0.7818608E-02  0.9282541E-01
       21   -1    0    0  503  502  0.00000000000E+00  0.00000000000E+00  0.31909901771E+03  0.31909901771E+03  0.00000000000E+00 0. -1.
       21   -1    0    0  502  503 -0.00000000000E+00 -0.00000000000E+00 -0.82161196202E+03  0.82161196202E+03  0.00000000000E+00 0.  1.
       39    2    1    2    0    0 -0.28421709430E-13  0.00000000000E+00 -0.50251294431E+03  0.11407109797E+04  0.10240616583E+04 0.  0.
       24    2    3    3    0    0 -0.13206758052E+03  0.13736811820E+03 -0.77312873354E+03  0.80027223695E+03  0.79973551163E+02 0.  0.
      -24    2    3    3    0    0  0.13206758052E+03 -0.13736811820E+03  0.27061578923E+03  0.34043874277E+03  0.79710642146E+02 0.  0.
      -13    1    4    4    0    0  0.15057035112E+01  0.42494805422E+02 -0.14254278399E+03  0.14874986016E+03  0.00000000000E+00 0.  1.
       14    1    4    4    0    0 -0.13357328403E+03  0.94873312780E+02 -0.63058594955E+03  0.65152237679E+03  0.00000000000E+00 0. -1.
        3    1    5    5  501    0  0.76699950597E+02 -0.65271044569E+02  0.20472591326E+03  0.22815760176E+03  0.00000000000E+00 0. -1.
       -4    1    5    5    0  501  0.55367629921E+02 -0.72097073634E+02  0.65889875970E+02  0.11228114100E+03  0.14200000000E+01 0.  1.
</event>
<event>
 9   1  0.7335000E-04  0.1004802E+04  0.7818608E-02  0.9303294E-01
       21   -1    0    0  503  502  0.00000000000E+00  0.00000000000E+00  0.20009714180E+03  0.20009714180E+03  0.00000000000E+00 0. -1.
       21   -1    0    0  502  503 -0.00000000000E+00 -0.00000000000E+00 -0.12614201713E+04  0.12614201713E+04  0.00000000000E+00 0.  1.
       39    2    1    2    0    0  0.00000000000E+00  0.56843418861E-13 -0.10613230295E+04  0.14615173131E+04  0.10048016140E+04 0.  0.
       24    2    3    3    0    0 -0.87759086231E+02  0.43442975499E+03 -0.20739328769E+03  0.49602028695E+03  0.81199015037E+02 0.  0.
      -24    2    3    3    0    0  0.87759086231E+02 -0.43442975499E+03 -0.85392974178E+03  0.96549702612E+03  0.80979221516E+02 0.  0.
      -13    1    4    4    0    0 -0.46873820256E+02  0.14714430973E+03 -0.11124418055E+03  0.19032569616E+03  0.00000000000E+00 0.  1.
       14    1    4    4    0    0 -0.40885265976E+02  0.28728544526E+03 -0.96149107140E+02  0.30569459079E+03  0.00000000000E+00 0. -1.
        3    1    5    5  501    0  0.25992433845E+02 -0.23983452825E+02 -0.61596047234E+02  0.71027358542E+02  0.00000000000E+00 0. -1.
       -4    1    5    5    0  501  0.61766652386E+02 -0.41044630217E+03 -0.79233369455E+03  0.89446966758E+03  0.14200000000E+01 0.  1.
</event>
<event>
 9   1  0.7335000E-04  0.1005197E+04  0.7818608E-02  0.9302863E-01
       21   -1    0    0  503  502  0.00000000000E+00  0.00000000000E+00  0.26006057646E+03  0.26006057646E+03  0.00000000000E+00 0. -1.
       21   -1    0    0  502  503 -0.00000000000E+00 -0.00000000000E+00 -0.97133331166E+03  0.97133331166E+03  0.00000000000E+00 0.  1.
       39    2    1    2    0    0  0.00000000000E+00  0.00000000000E+00 -0.71127273521E+03  0.12313938881E+04  0.10051974949E+04 0.  0.
       24    2    3    3    0    0 -0.31260291472E+03  0.31951455800E+03 -0.61932176112E+03  0.76794191368E+03  0.79782228088E+02 0.  0.
      -24    2    3    3    0    0  0.31260291472E+03 -0.31951455800E+03 -0.91950974090E+02  0.46345197444E+03  0.80762713607E+02 0.  0.
      -13    1    4    4    0    0 -0.29038119710E+03  0.31848732515E+03 -0.57782557956E+03  0.72085908214E+03  0.00000000000E+00 0.  1.
       14    1    4    4    0    0 -0.22221717629E+02  0.10272328490E+01 -0.41496181555E+02  0.47082831535E+02  0.00000000000E+00 0. -1.
        3    1    5    5  501    0  0.23068435757E+03 -0.20052827294E+03 -0.33048749002E+02  0.30743955648E+03  0.00000000000E+00 0. -1.
       -4    1    5    5    0  501  0.81918557150E+02 -0.11898628506E+03 -0.58902225089E+02  0.15601241796E+03  0.14200000000E+01 0.  1.
</event>
<event>
 9   1  0.7335000E-04  0.9927806E+03  0.7818608E-02  0.9316499E-01
       21   -1    0    0  503  502  0.00000000000E+00  0.00000000000E+00  0.24210553224E+03  0.24210553224E+03  0.00000000000E+00 0.  1.
       21   -1    0    0  502  503 -0.00000000000E+00 -0.00000000000E+00 -0.10177517393E+04  0.10177517393E+04  0.00000000000E+00 0. -1.
       39    2    1    2    0    0  0.00000000000E+00  0.00000000000E+00 -0.77564620704E+03  0.12598572715E+04  0.99278059312E+03 0.  0.
       24    2    3    3    0    0 -0.15283561962E+03  0.22814877792E+03  0.12688504799E+03  0.31301659651E+03  0.80429986916E+02 0.  0.
      -24    2    3    3    0    0  0.15283561962E+03 -0.22814877792E+03 -0.90253125502E+03  0.94684067500E+03  0.80833198965E+02 0.  0.
      -13    1    4    4    0    0 -0.15027361677E+03  0.23493931318E+03  0.12370322057E+03  0.30509199851E+03  0.00000000000E+00 0.  1.
       14    1    4    4    0    0 -0.25620028513E+01 -0.67905352605E+01  0.31818274162E+01  0.79245979987E+01  0.00000000000E+00 0. -1.
        3    1    5    5  501    0  0.15411442104E+03 -0.18471998582E+03 -0.80225038678E+03  0.83754308010E+03  0.00000000000E+00 0. -1.
       -4    1    5    5    0  501 -0.12788014179E+01 -0.43428792095E+02 -0.10028086825E+03  0.10929759491E+03  0.14200000000E+01 0.  1.
</event>
<event>
 9   1  0.7335000E-04  0.1002752E+04  0.7818608E-02  0.9305532E-01
       21   -1    0    0  503  502  0.00000000000E+00  0.00000000000E+00  0.33162738011E+03  0.33162738011E+03  0.00000000000E+00 0. -1.
       21   -1    0    0  502  503 -0.00000000000E+00 -0.00000000000E+00 -0.75801248385E+03  0.75801248385E+03  0.00000000000E+00 0.  1.
       39    2    1    2    0    0  0.00000000000E+00  0.00000000000E+00 -0.42638510374E+03  0.10896398640E+04  0.10027516026E+04 0.  0.
       24    2    3    3    0    0 -0.43090681696E+02  0.10981091306E+03  0.30900718790E+03  0.34026087783E+03  0.79854738985E+02 0.  0.
      -24    2    3    3    0    0  0.43090681696E+02 -0.10981091306E+03 -0.73539229163E+03  0.74937898613E+03  0.82775592926E+02 0.  0.
      -13    1    4    4    0    0 -0.42225451169E+02  0.58094574876E+02  0.89555819661E+02  0.11479639886E+03  0.00000000000E+00 0.  1.
       14    1    4    4    0    0 -0.86523052668E+00  0.51716338181E+02  0.21945136823E+03  0.22546447897E+03  0.00000000000E+00 0. -1.
        1    1    5    5  501    0  0.33379653821E+02 -0.20440236024E+02 -0.40786145277E+03  0.40973524280E+03  0.00000000000E+00 0. -1.
       -2    1    5    5    0  501  0.97110278743E+01 -0.89370677033E+02 -0.32753083886E+03  0.33964374333E+03  0.00000000000E+00 0.  1.
</event>
<event>
 9   1  0.7335000E-04  0.1012539E+04  0.7818608E-02  0.9294898E-01
       21   -1    0    0  503  502  0.00000000000E+00  0.00000000000E+00  0.27521730072E+03  0.27521730072E+03  0.00000000000E+00 0.  1.
       21   -1    0    0  502  503 -0.00000000000E+00 -0.00000000000E+00 -0.93129605047E+03  0.93129605047E+03  0.00000000000E+00 0. -1.
       39    2    1    2    0    0  0.00000000000E+00  0.00000000000E+00 -0.65607874975E+03  0.12065133512E+04  0.10125389576E+04 0.  0.
       24    2    3    3    0    0 -0.12291472956E+03 -0.31841399453E+02 -0.90446181142E+03  0.91641667428E+03  0.75142844877E+02 0.  0.
      -24    2    3    3    0    0  0.12291472956E+03  0.31841399453E+02  0.24838306167E+03  0.29009667691E+03  0.79624312692E+02 0.  0.
      -13    1    4    4    0    0 -0.60778122130E+02 -0.14655173999E+02 -0.21383393847E+03  0.22278623722E+03  0.00000000000E+00 0.  1.
       14    1    4    4    0    0 -0.62136607426E+02 -0.17186225454E+02 -0.69062787295E+03  0.69363043706E+03  0.00000000000E+00 0. -1.
        3    1    5    5  501    0  0.38290844195E+01  0.30317604603E+02  0.57126118698E+02  0.64785897184E+02  0.00000000000E+00 0. -1.
       -4    1    5    5    0  501  0.11908564514E+03  0.15237948499E+01  0.19125694297E+03  0.22531077973E+03  0.14200000000E+01 0.  1.
</event>
<event>
 9   1  0.7335000E-04  0.1007699E+04  0.7818608E-02  0.9300140E-01
       21   -1    0    0  503  502  0.00000000000E+00  0.00000000000E+00  0.96017044196E+03  0.96017044196E+03  0.00000000000E+00 0. -1.
       21   -1    0    0  502  503 -0.00000000000E+00 -0.00000000000E+00 -0.26439526043E+03  0.26439526043E+03  0.00000000000E+00 0.  1.
       39    2    1    2    0    0  0.00000000000E+00  0.71054273576E-14  0.69577518153E+03  0.12245657024E+04  0.10076993878E+04 0.  0.
       24    2    3    3    0    0  0.24666623819E+03 -0.57704972259E+02  0.86847349542E+03  0.90822583962E+03  0.80335960958E+02 0.  0.
      -24    2    3    3    0    0 -0.24666623819E+03  0.57704972259E+02 -0.17269831390E+03  0.31633986276E+03  0.77923707968E+02 0.  0.
      -13    1    4    4    0    0  0.14639114487E+03 -0.17064047197E+02  0.37269334376E+03  0.40077659299E+03  0.00000000000E+00 0.  1.
       14    1    4    4    0    0  0.10027509332E+03 -0.40640925062E+02  0.49578015166E+03  0.50744924663E+03  0.00000000000E+00 0. -1.
        3    1    5    5  501    0 -0.25361535748E+02  0.33994887824E+02 -0.25381722279E+02  0.49427641250E+02  0.00000000000E+00 0. -1.
       -4    1    5    5    0  501 -0.22130470244E+03  0.23710084435E+02 -0.14731659162E+03  0.26691222151E+03  0.14200000000E+01 0.  1.
</event>
<event>
 9   1  0.7335000E-04  0.9984122E+03  0.7818608E-02  0.9310288E-01
       21   -1    0    0  503  502  0.00000000000E+00  0.00000000000E+00  0.51552412955E+03  0.51552412955E+03  0.00000000000E+00 0. -1.
       21   -1    0    0  502  503 -0.00000000000E+00 -0.00000000000E+00 -0.48340462971E+03  0.48340462971E+03  0.00000000000E+00 0.  1.
       39    2    1    2    0    0 -0.28421709430E-13  0.00000000000E+00  0.32119499842E+02  0.99892875926E+03  0.99841224141E+03 0.  0.
       24    2    3    3    0    0 -0.19637156764E+03  0.43047482751E+03  0.15136904995E+03  0.50425067325E+03  0.86520416578E+02 0.  0.
      -24    2    3    3    0    0  0.19637156764E+03 -0.43047482751E+03 -0.11924955011E+03  0.49467808601E+03  0.81336239626E+02 0.  0.
      -13    1    4    4    0    0 -0.13434831794E+02  0.11230611400E+03  0.22880572603E+02  0.11539791397E+03  0.00000000000E+00 0.  1.
       14    1    4    4    0    0 -0.18293673585E+03  0.31816871352E+03  0.12848847735E+03  0.38885275927E+03  0.00000000000E+00 0. -1.
        1    1    5    5  501    0  0.15208210725E+01 -0.21555011789E+02  0.97363685595E+01  0.23700808060E+02  0.00000000000E+00 0. -1.
       -2    1    5    5    0  501  0.19485074657E+03 -0.40891981572E+03 -0.12898591867E+03  0.47097727795E+03  0.00000000000E+00 0.  1.
</event>
<event>
 9   1  0.7335000E-04  0.9784059E+03  0.7818608E-02  0.9332551E-01
       21   -1    0    0  503  502  0.00000000000E+00  0.00000000000E+00  0.12084558692E+04  0.12084558692E+04  0.00000000000E+00 0.  1.
       21   -1    0    0  502  503 -0.00000000000E+00 -0.00000000000E+00 -0.19803745937E+03  0.19803745937E+03  0.00000000000E+00 0. -1.
       39    2    1    2    0    0  0.56843418861E-13 -0.28421709430E-13  0.10104184098E+04  0.14064933286E+04  0.97840590779E+03 0.  0.
       24    2    3    3    0    0 -0.31409179777E+03  0.24908000575E+03  0.11732192911E+03  0.42408324361E+03  0.73400652377E+02 0.  0.
      -24    2    3    3    0    0  0.31409179777E+03 -0.24908000575E+03  0.89309648073E+03  0.98241008497E+03  0.82545408573E+02 0.  0.
      -13    1    4    4    0    0 -0.54208590710E+02  0.28266716069E+02  0.43845140939E+02  0.75232804866E+02  0.00000000000E+00 0.  1.
       14    1    4    4    0    0 -0.25988320706E+03  0.22081328968E+03  0.73476788176E+02  0.34885043874E+03  0.00000000000E+00 0. -1.
        3    1    5    5  501    0  0.23725858446E+02 -0.47726950229E+02  0.83483284285E+02  0.99046639984E+02  0.00000000000E+00 0. -1.
       -4    1    5    5    0  501  0.29036593932E+03 -0.20135305552E+03  0.80961319645E+03  0.88336344499E+03  0.14200000000E+01 0.  1.
</event>
<event>
 9   1  0.7335000E-04  0.9775804E+03  0.7818608E-02  0.9333482E-01
       21   -1    0    0  503  502  0.00000000000E+00  0.00000000000E+00  0.19745492052E+03  0.19745492052E+03  0.00000000000E+00 0.  1.
       21   -1    0    0  502  503 -0.00000000000E+00 -0.00000000000E+00 -0.12099767513E+04  0.12099767513E+04  0.00000000000E+00 0. -1.
       39    2    1    2    0    0  0.00000000000E+00 -0.56843418861E-13 -0.10125218308E+04  0.14074316718E+04  0.97758040746E+03 0.  0.
       24    2    3    3    0    0  0.61634541891E+02  0.37150579631E+03 -0.72849784708E+02  0.39194356892E+03  0.80605810222E+02 0.  0.
      -24    2    3    3    0    0 -0.61634541891E+02 -0.37150579631E+03 -0.93967204604E+03  0.10154881029E+04  0.80107175291E+02 0.  0.
      -13    1    4    4    0    0 -0.11916948294E+02  0.49361968207E+02 -0.29368923962E+02  0.58661326754E+02  0.00000000000E+00 0.  1.
       14    1    4    4    0    0  0.73551490185E+02  0.32214382810E+03 -0.43480860746E+02  0.33328224217E+03  0.00000000000E+00 0. -1.
        3    1    5    5  501    0 -0.80062386690E+02 -0.31625243841E+03 -0.81530382984E+03  0.87814914765E+03  0.00000000000E+00 0. -1.
       -4    1    5    5    0  501  0.18427844799E+02 -0.55253357902E+02 -0.12436821620E+03  0.13733895523E+03  0.14200000000E+01 0.  1.
</event>
<event>
 9   1  0.7335000E-04  0.1002483E+04  0.7818608E-02  0.9305826E-01
        1   -1    0    0  501    0  0.00000000000E+00  0.00000000000E+00  0.46711163122E+03  0.46711163122E+03  0.00000000000E+00 0.  1.
       -1   -1    0    0    0  501 -0.00000000000E+00 -0.00000000000E+00 -0.53786514424E+03  0.53786514424E+03  0.00000000000E+00 0. -1.
       39    2    1    2    0    0  0.00000000000E+00 -0.56843418861E-13 -0.70753513021E+02  0.10049767755E+04  0.10024830470E+04 0.  0.
       24    2    3    3    0    0  0.14228350043E+03 -0.46887530609E+03 -0.10540233753E+03  0.50749214168E+03  0.79686723836E+02 0.  0.
      -24    2    3    3    0    0 -0.14228350043E+03  0.46887530609E+03  0.34648824508E+02  0.49748463377E+03  0.78751334219E+02 0.  0.
      -13    1    4    4    0    0  0.14169894772E+03 -0.45822516008E+03 -0.88839957078E+02  0.48779240163E+03  0.00000000000E+00 0.  1.
       14    1    4    4    0    0  0.58455270537E+00 -0.10650146018E+02 -0.16562380451E+02  0.19699740056E+02  0.00000000000E+00 0. -1.
        3    1    5    5  502    0 -0.11113079258E+03  0.36853986259E+03 -0.55944152710E+01  0.38497140265E+03  0.00000000000E+00 0. -1.
       -4    1    5    5    0  502 -0.31152707844E+02  0.10033544351E+03  0.40243239779E+02  0.11251323112E+03  0.14200000000E+01 0.  1.
</event>
<event>
 9   1  0.7335000E-04  0.9985526E+03  0.7818608E-02  0.9310134E-01
       21   -1    0    0  503  502  0.00000000000E+00  0.00000000000E+00  0.38551854122E+03  0.38551854122E+03  0.00000000000E+00 0. -1.
       21   -1    0    0  502  503 -0.00000000000E+00 -0.00000000000E+00 -0.64660138401E+03  0.64660138401E+03  0.00000000000E+00 0.  1.
       39    2    1    2    0    0  0.00000000000E+00  0.00000000000E+00 -0.26108284279E+03  0.10321199252E+04  0.99855259714E+03 0.  0.
       24    2    3    3    0    0  0.19651315283E+03 -0.17849112962E+03 -0.55960368743E+03  0.62452081846E+03  0.79959134058E+02 0.  0.
      -24    2    3    3    0    0 -0.19651315283E+03  0.17849112962E+03  0.29852084464E+03  0.40759910677E+03  0.80906332053E+02 0.  0.
      -13    1    4    4    0    0  0.19010188304E+03 -0.18553707964E+03 -0.52165186685E+03  0.58539166722E+03  0.00000000000E+00 0.  1.
       14    1    4    4    0    0  0.64112697849E+01  0.70459500184E+01 -0.37951820577E+02  0.39129151244E+02  0.00000000000E+00 0. -1.
        3    1    5    5  501    0 -0.11597158100E+03  0.15004078065E+03  0.17969812050E+03  0.26125286212E+03  0.00000000000E+00 0. -1.
       -4    1    5    5    0  501 -0.80541571826E+02  0.28450348971E+02  0.11882272414E+03  0.14634624464E+03  0.14200000000E+01 0.  1.
</event>
<event>
 9   1  0.7335000E-04  0.1025944E+04  0.7818608E-02  0.9280539E-01
       21   -1    0    0  503  502  0.00000000000E+00  0.00000000000E+00  0.51141635223E+03  0.51141635223E+03  0.00000000000E+00 0.  1.
       21   -1    0    0  502  503 -0.00000000000E+00 -0.00000000000E+00 -0.51453231472E+03  0.51453231472E+03  0.00000000000E+00 0. -1.
       39    2    1    2    0    0  0.00000000000E+00 -0.56843418861E-13 -0.31159624926E+01  0.10259486670E+04  0.10259439351E+04 0.  0.
       24    2    3    3    0    0  0.18307639845E+03 -0.25956353011E+03  0.39306100549E+03  0.51172291031E+03  0.80456131339E+02 0.  0.
      -24    2    3    3    0    0 -0.18307639845E+03  0.25956353011E+03 -0.39617696798E+03  0.51422575664E+03  0.81127954481E+02 0.  0.
      -13    1    4    4    0    0  0.15332625823E+03 -0.22368626880E+03  0.28180615650E+03  0.39109998486E+03  0.00000000000E+00 0.  1.
       14    1    4    4    0    0  0.29750140216E+02 -0.35877261311E+02  0.11125484899E+03  0.12062292546E+03  0.00000000000E+00 0. -1.
        3    1    5    5  501    0 -0.17046174164E+03  0.18286983378E+03 -0.30740545575E+03  0.39622808544E+03  0.00000000000E+00 0. -1.
       -4    1    5    5    0  501 -0.12614656808E+02  0.76693696332E+02 -0.88771512231E+02  0.11799767119E+03  0.14200000000E+01 0.  1.
</event>
<event>
 9   1  0.7335000E-04  0.9903491E+03  0.7818608E-02  0.9319194E-01
       21   -1    0    0  503  502  0.00000000000E+00  0.00000000000E+00  0.46156419110E+03  0.46156419110E+03  0.00000000000E+00 0.  1.
       21   -1    0    0  502  503 -0.00000000000E+00 -0.00000000000E+00 -0.53123235588E+03  0.53123235588E+03  0.00000000000E+00 0. -1.
       39    2    1    2    0    0  0.00000000000E+00 -0.56843418861E-13 -0.69668164780E+02  0.99279654698E+03  0.99034909528E+03 0.  0.
       24    2    3    3    0    0 -0.20927715229E+03 -0.26319441821E+03 -0.39038002165E+03  0.52132709850E+03  0.79480526365E+02 0.  0.
      -24    2    3    3    0    0  0.20927715229E+03  0.26319441821E+03  0.32071185687E+03  0.47146944849E+03  0.79744074811E+02 0.  0.
      -13    1    4    4    0    0 -0.23851219694E+02 -0.50604388675E+02 -0.29406832057E+02  0.63201634518E+02  0.00000000000E+00 0.  1.
       14    1    4    4    0    0 -0.18542593260E+03 -0.21259002954E+03 -0.36097318960E+03  0.45812546398E+03  0.00000000000E+00 0. -1.
        3    1    5    5  501    0  0.17707609165E+03  0.16461953696E+03  0.21930870054E+03  0.32642279381E+03  0.00000000000E+00 0. -1.
       -4    1    5    5    0  501  0.32201060645E+02  0.98574881250E+02  0.10140315633E+03  0.14504665468E+03  0.14200000000E+01 0.  1.
</event>
<event>
 9   1  0.7335000E-04  0.1003904E+04  0.7818608E-02  0.9304273E-01
       21   -1    0    0  503  502  0.00000000000E+00  0.00000000000E+00  0.19669433760E+04  0.19669433760E+04  0.00000000000E+00 0.  1.
       21   -1    0    0  502  503 -0.00000000000E+00 -0.00000000000E+00 -0.12809516747E+03  0.12809516747E+03  0.00000000000E+00 0. -1.
       39    2    1    2    0    0  0.00000000000E+00  0.00000000000E+00  0.18388482085E+04  0.20950385435E+04  0.10039042607E+04 0.  0.
       24    2    3    3    0    0 -0.44592219675E+02 -0.23928724948E+03  0.17785236721E+02  0.25600442305E+03  0.77298746148E+02 0.  0.
      -24    2    3    3    0    0  0.44592219675E+02  0.23928724948E+03  0.18210629718E+04  0.18390341204E+04  0.80804052802E+02 0.  0.
      -13    1    4    4    0    0 -0.25626499559E+02 -0.16649071490E+02 -0.65015696403E+01  0.31243870901E+02  0.00000000000E+00 0.  1.
       14    1    4    4    0    0 -0.18965720116E+02 -0.22263817800E+03  0.24286806361E+02  0.22476055215E+03  0.00000000000E+00 0. -1.
        1    1    5    5  501    0  0.87490723851E+01  0.77750147696E+01  0.23334624207E+02  0.26105589615E+02  0.00000000000E+00 0. -1.
       -2    1    5    5    0  501  0.35843147290E+02  0.23151223472E+03  0.17977283476E+04  0.18129285308E+04  0.00000000000E+00 0.  1.
</event>
<event>
 9   1  0.7335000E-04  0.9977605E+03  0.7818608E-02  0.9311004E-01
       21   -1    0    0  503  502  0.00000000000E+00  0.00000000000E+00  0.68717934685E+03  0.68717934685E+03  0.00000000000E+00 0.  1.
       21   -1    0    0  502  503 -0.00000000000E+00 -0.00000000000E+00 -0.36217836038E+03  0.36217836038E+03  0.00000000000E+00 0. -1.
       39    2    1    2    0    0  0.14210854715E-13 -0.28421709430E-13  0.32500098647E+03  0.10493577072E+04  0.99776047051E+03 0.  0.
       24    2    3    3    0    0 -0.80480788158E+02  0.64714627471E+02 -0.34376261999E+03  0.36780992297E+03  0.80288606045E+02 0.  0.
      -24    2    3    3    0    0  0.80480788158E+02 -0.64714627471E+02  0.66876360646E+03  0.68154778426E+03  0.81224876935E+02 0.  0.
      -13    1    4    4    0    0  0.13135782526E+02 -0.17617035741E+01 -0.64816724362E+02  0.66157842613E+02  0.00000000000E+00 0.  1.
       14    1    4    4    0    0 -0.93616570684E+02  0.66476331045E+02 -0.27894589563E+03  0.30165208036E+03  0.00000000000E+00 0. -1.
        1    1    5    5  501    0  0.19018786410E+02 -0.52870096128E+01  0.23703285421E+02  0.30846595386E+02  0.00000000000E+00 0. -1.
       -2    1    5    5    0  501  0.61462001747E+02 -0.59427617858E+02  0.64506032104E+03  0.65070118887E+03  0.00000000000E+00 0.  1.
</event>
<event>
 9   1  0.7335000E-04  0.1004811E+04  0.7818608E-02  0.9303284E-01
       21   -1    0    0  503  502  0.00000000000E+00  0.00000000000E+00  0.31918542170E+03  0.31918542170E+03  0.00000000000E+00 0. -1.
       21   -1    0    0  502  503 -0.00000000000E+00 -0.00000000000E+00 -0.79079825583E+03  0.79079825583E+03  0.00000000000E+00 0.  1.
       39    2    1    2    0    0  0.00000000000E+00  0.00000000000E+00 -0.47161283413E+03  0.11099836775E+04  0.10048109768E+04 0.  0.
       24    2    3    3    0    0  0.30193423090E+03  0.37593973403E+03 -0.10374663339E+03  0.49967492428E+03  0.80104323268E+02 0.  0.
      -24    2    3    3    0    0 -0.30193423090E+03 -0.37593973403E+03 -0.36786620074E+03  0.61030875324E+03  0.68236861188E+02 0.  0.
      -13    1    4    4    0    0  0.26078621457E+03  0.28658221234E+03 -0.10440256797E+03  0.40129628747E+03  0.00000000000E+00 0.  1.
       14    1    4    4    0    0  0.41148016333E+02  0.89357521695E+02  0.65593458714E+00  0.98378636816E+02  0.00000000000E+00 0. -1.
        3    1    5    5  501    0 -0.79458088036E+02 -0.14990331297E+03 -0.12073832565E+03  0.20823624630E+03  0.00000000000E+00 0. -1.
       -4    1    5    5    0  501 -0.22247614286E+03 -0.22603642106E+03 -0.24712787509E+03  0.40207250694E+03  0.14200000000E+01 0.  1.
</event>
<event>
 8   1  0.7335000E-04  0.1231357E+04  0.7818608E-02  0.9085844E-01
       21   -1    0    0  503  502  0.00000000000E+00  0.00000000000E+00  0.31757281520E+03  0.31757281520E+03  0.00000000000E+00 0.  1.
       21   -1    0    0  502  503 -0.00000000000E+00 -0.00000000000E+00 -0.11936161146E+04  0.11936161146E+04  0.00000000000E+00 0. -1.
       24    2    1    2    0    0  0.22327851992E+03 -0.17196664782E+03 -0.11028396777E+04  0.11406453160E+04  0.73420411733E+02 0.  0.
      -24    2    1    2    0    0 -0.22327851992E+03  0.17196664782E+03  0.22679637832E+03  0.37054361375E+03  0.80250526801E+02 0.  0.
      -13    1    3    3    0    0  0.48990777426E+02 -0.50114024305E+02 -0.17012948309E+03  0.18399878456E+03  0.00000000000E+00 0.  1.
       14    1    3    3    0    0  0.17428774250E+03 -0.12185262351E+03 -0.93271019460E+03  0.95664653146E+03  0.00000000000E+00 0. -1.
        1    1    4    4  501    0 -0.26163955661E+02 -0.27047482777E+01  0.62758476463E+01  0.27041717822E+02  0.00000000000E+00 0. -1.
       -2    1    4    4    0  501 -0.19711456426E+03  0.17467139610E+03  0.22052053067E+03  0.34350189593E+03  0.00000000000E+00 0.  1.
</event>
<event>
 9   1  0.7335000E-04  0.9972686E+03  0.7818608E-02  0.9311546E-01
       21   -1    0    0  503  502  0.00000000000E+00  0.00000000000E+00  0.25034604955E+03  0.25034604955E+03  0.00000000000E+00 0.  1.
       21   -1    0    0  502  503 -0.00000000000E+00 -0.00000000000E+00 -0.99316995678E+03  0.99316995678E+03  0.00000000000E+00 0. -1.
       39    2    1    2    0    0  0.00000000000E+00  0.00000000000E+00 -0.74282390723E+03  0.12435160063E+04  0.99726862021E+03 0.  0.
       24    2    3    3    0    0 -0.45994069480E+03 -0.17459326145E+03 -0.38340945245E+03  0.62894836393E+03  0.80901091385E+02 0.  0.
      -24    2    3    3    0    0  0.45994069480E+03  0.17459326145E+03 -0.35941445478E+03  0.61456764240E+03  0.80538109656E+02 0.  0.
      -13    1    4    4    0    0 -0.97269473824E+02 -0.38197982346E+02 -0.42354344205E+02  0.11275782397E+03  0.00000000000E+00 0.  1.
       14    1    4    4    0    0 -0.36267122098E+03 -0.13639527910E+03 -0.34105510825E+03  0.51619053996E+03  0.00000000000E+00 0. -1.
        1    1    5    5  501    0  0.85222931645E+02  0.41492235864E+02 -0.10983129599E+03  0.14507745274E+03  0.00000000000E+00 0. -1.
       -2    1    5    5    0  501  0.37471776316E+03  0.13310102558E+03 -0.24958315879E+03  0.46949018966E+03  0.00000000000E+00 0.  1.
</event>
<event>
 9   1  0.7335000E-04  0.1002045E+04  0.7818608E-02  0.9306305E-01
       21   -1    0    0  503  502  0.00000000000E+00  0.00000000000E+00  0.23540751666E+04  0.23540751666E+04  0.00000000000E+00 0.  1.
       21   -1    0    0  502  503 -0.00000000000E+00 -0.00000000000E+00 -0.10663360745E+03  0.10663360745E+03  0.00000000000E+00 0. -1.
       39    2    1    2    0    0 -0.35527136788E-14  0.00000000000E+00  0.22474415591E+04  0.24607087740E+04  0.10020449635E+04 0.  0.
       24    2    3    3    0    0 -0.16129737445E+02  0.46482076479E+03  0.71080938308E+03  0.85330973431E+03  0.81049440340E+02 0.  0.
      -24    2    3    3    0    0  0.16129737445E+02 -0.46482076479E+03  0.15366321761E+04  0.16073990397E+04  0.78579365022E+02 0.  0.
      -13    1    4    4    0    0 -0.12939232113E+02  0.13636149763E+02  0.15157013345E+02  0.24147533240E+02  0.00000000000E+00 0.  1.
       14    1    4    4    0    0 -0.31905053317E+01  0.45118461503E+03  0.69565236973E+03  0.82916220107E+03  0.00000000000E+00 0. -1.
        1    1    5    5  501    0 -0.28748678631E+02 -0.24893713617E+03  0.77678779653E+03  0.81620797908E+03  0.00000000000E+00 0. -1.
       -2    1    5    5    0  501  0.44878416076E+02 -0.21588362862E+03  0.75984437954E+03  0.79119106066E+03  0.00000000000E+00 0.  1.
</event>
<event>
 9   1  0.7335000E-04  0.9913208E+03  0.7818608E-02  0.9318116E-01
       -2   -1    0    0    0  501 -0.00000000000E+00  0.00000000000E+00  0.27349317384E+03  0.27349317384E+03  0.00000000000E+00 0.  1.
        2   -1    0    0  501    0  0.00000000000E+00 -0.00000000000E+00 -0.89830120185E+03  0.89830120185E+03  0.00000000000E+00 0. -1.
       39    2    1    2    0    0  0.00000000000E+00  0.56843418861E-13 -0.62480802802E+03  0.11717943757E+04  0.99132082951E+03 0.  0.
       24    2    3    3    0    0 -0.12342818473E+03  0.22847447507E+03 -0.80301845395E+03  0.84769845882E+03  0.79491742715E+02 0.  0.
      -24    2    3    3    0    0  0.12342818473E+03 -0.22847447507E+03  0.17821042593E+03  0.32409591687E+03  0.76446745379E+02 0.  0.
      -13    1    4    4    0    0 -0.10984487704E+03  0.15973342788E+03 -0.49045768349E+03  0.52737975339E+03  0.00000000000E+00 0.  1.
       14    1    4    4    0    0 -0.13583307689E+02  0.68741047186E+02 -0.31256077046E+03  0.32031870543E+03  0.00000000000E+00 0. -1.
        1    1    5    5  502    0  0.68309687006E+02 -0.52624206114E+02  0.62445308335E+02  0.10646566085E+03  0.00000000000E+00 0. -1.
       -2    1    5    5    0  502  0.55118497727E+02 -0.17585026895E+03  0.11576511759E+03  0.21763025602E+03  0.00000000000E+00 0.  1.
</event>
<event>
 9   1  0.7335000E-04  0.9510387E+03  0.7818608E-02  0.9363937E-01
       21   -1    0    0  503  502  0.00000000000E+00  0.00000000000E+00  0.57228134474E+03  0.57228134474E+03  0.00000000000E+00 0. -1.
       21   -1    0    0  502  503 -0.00000000000E+00 -0.00000000000E+00 -0.39511799328E+03  0.39511799328E+03  0.00000000000E+00 0.  1.
       39    2    1    2    0    0  0.00000000000E+00  0.56843418861E-13  0.17716335146E+03  0.96739933802E+03  0.95103870904E+03 0.  0.
       24    2    3    3    0    0  0.26253651348E+03  0.38689743668E+03  0.61542029705E+02  0.47870899652E+03  0.82218212741E+02 0.  0.
      -24    2    3    3    0    0 -0.26253651348E+03 -0.38689743668E+03  0.11562132176E+03  0.48869034150E+03  0.82673529045E+02 0.  0.
      -13    1    4    4    0    0  0.84022470323E+02  0.14543469824E+03 -0.15566498002E+02  0.16868118695E+03  0.00000000000E+00 0.  1.
       14    1    4    4    0    0  0.17851404316E+03  0.24146273845E+03  0.77108527706E+02  0.31002780957E+03  0.00000000000E+00 0. -1.
        3    1    5    5  501    0 -0.14748109595E+03 -0.15407516515E+03  0.30859214228E+02  0.21550434168E+03  0.00000000000E+00 0. -1.
       -4    1    5    5    0  501 -0.11505541753E+03 -0.23282227153E+03  0.84762107532E+02  0.27318599982E+03  0.14200000000E+01 0.  1.
</event>
<event>
 9   1  0.7335000E-04  0.9911992E+03  0.7818608E-02  0.9318250E-01
       21   -1    0    0  503  502  0.00000000000E+00  0.00000000000E+00  0.45843302826E+03  0.45843302826E+03  0.00000000000E+00 0.  1.
       21   -1    0    0  502  503 -0.00000000000E+00 -0.00000000000E+00 -0.53577939613E+03  0.53577939613E+03  0.00000000000E+00 0. -1.
       39    2    1    2    0    0  0.00000000000E+00  0.14210854715E-13 -0.77346367865E+02  0.99421242439E+03  0.99119921518E+03 0.  0.
       24    2    3    3    0    0 -0.14575471422E+03  0.45318784576E+02  0.42789877150E+03  0.46039752345E+03  0.74634388776E+02 0.  0.
      -24    2    3    3    0    0  0.14575471422E+03 -0.45318784576E+02 -0.50524513937E+03  0.53381490094E+03  0.79921640721E+02 0.  0.
      -13    1    4    4    0    0 -0.10323886945E+03  0.65007333728E+02  0.28503782643E+03  0.31004964135E+03  0.00000000000E+00 0.  1.
       14    1    4    4    0    0 -0.42515844770E+02 -0.19688549151E+02  0.14286094507E+03  0.15034788209E+03  0.00000000000E+00 0. -1.
        1    1    5    5  501    0  0.10975976940E+03 -0.65015523467E+02 -0.42431812489E+03  0.44308023696E+03  0.00000000000E+00 0. -1.
       -2    1    5    5    0  501  0.35994944823E+02  0.19696738891E+02 -0.80927014474E+02  0.90734663979E+02  0.00000000000E+00 0.  1.
</event>
<event>
 9   1  0.7335000E-04  0.1129941E+04  0.7818608E-02  0.9176491E-01
       21   -1    0    0  503  502  0.00000000000E+00  0.00000000000E+00  0.51353289341E+03  0.51353289341E+03  0.00000000000E+00 0. -1.
       21   -1    0    0  502  503 -0.00000000000E+00 -0.00000000000E+00 -0.62156031034E+03  0.62156031034E+03  0.00000000000E+00 0.  1.
       39    2    1    2    0    0  0.00000000000E+00  0.56843418861E-13 -0.10802741693E+03  0.11350932038E+04  0.11299409978E+04 0.  0.
       24    2    3    3    0    0  0.28686838649E+03  0.32807539834E+03 -0.40606508590E+03  0.60102126022E+03  0.80067241086E+02 0.  0.
      -24    2    3    3    0    0 -0.28686838649E+03 -0.32807539834E+03  0.29803766897E+03  0.53407194353E+03  0.80495034510E+02 0.  0.
      -13    1    4    4    0    0  0.28735650263E+03  0.33143912995E+03 -0.40585597566E+03  0.59761587114E+03  0.00000000000E+00 0.  1.
       14    1    4    4    0    0 -0.48811614106E+00 -0.33637316071E+01 -0.20911023404E+00  0.34053890794E+01  0.00000000000E+00 0. -1.
        3    1    5    5  501    0 -0.16287907461E+03 -0.15916922080E+03  0.19846998364E+03  0.30208404162E+03  0.00000000000E+00 0. -1.
       -4    1    5    5    0  501 -0.12398931188E+03 -0.16890617754E+03  0.99567685327E+02  0.23198790191E+03  0.14200000000E+01 0.  1.
</event>
<event>
 9   1  0.7335000E-04  0.1001815E+04  0.7818608E-02  0.9306556E-01
       21   -1    0    0  503  502  0.00000000000E+00  0.00000000000E+00  0.29067142738E+03  0.29067142738E+03  0.00000000000E+00 0.  1.
       21   -1    0    0  502  503 -0.00000000000E+00 -0.00000000000E+00 -0.86320260122E+03  0.86320260122E+03  0.00000000000E+00 0. -1.
       39    2    1    2    0    0  0.00000000000E+00 -0.71054273576E-14 -0.57253117384E+03  0.11538740286E+04  0.10018150173E+04 0.  0.
       24    2    3    3    0    0 -0.40473471995E+03 -0.41882901916E+02 -0.60963967334E+03  0.73752225249E+03  0.81940042694E+02 0.  0.
      -24    2    3    3    0    0  0.40473471995E+03  0.41882901916E+02  0.37108499498E+02  0.41635177611E+03  0.80046172497E+02 0.  0.
      -13    1    4    4    0    0 -0.12232572186E+03  0.22537686648E+02 -0.16007796188E+03  0.20272267616E+03  0.00000000000E+00 0.  1.
       14    1    4    4    0    0 -0.28240899809E+03 -0.64420588564E+02 -0.44956171146E+03  0.53479957633E+03  0.00000000000E+00 0. -1.
        1    1    5    5  501    0  0.13293128224E+03 -0.19153809461E+01 -0.22040937123E+02  0.13475977661E+03  0.00000000000E+00 0. -1.
       -2    1    5    5    0  501  0.27180343771E+03  0.43798282862E+02  0.59149436621E+02  0.28159199950E+03  0.00000000000E+00 0.  1.
</event>
<event>
 9   1  0.7335000E-04  0.1006082E+04  0.7818608E-02  0.9301900E-01
       -2   -1    0    0    0  501 -0.00000000000E+00  0.00000000000E+00  0.98583992129E+02  0.98583992129E+02  0.00000000000E+00 0.  1.
        2   -1    0    0  501    0  0.00000000000E+00 -0.00000000000E+00 -0.25668467495E+04  0.25668467495E+04  0.00000000000E+00 0. -1.
       39    2    1    2    0    0 -0.56843418861E-13  0.00000000000E+00 -0.24682627574E+04  0.26654307416E+04  0.10060815071E+04 0.  0.
       24    2    3    3    0    0 -0.21645338519E+03  0.34948512573E+03 -0.19721001843E+04  0.20161170427E+04  0.80974513177E+02 0.  0.
      -24    2    3    3    0    0  0.21645338519E+03 -0.34948512573E+03 -0.49616257302E+03  0.64931369890E+03  0.80243751474E+02 0.  0.
      -13    1    4    4    0    0  0.11716772346E+01 -0.71328338387E+00 -0.62365432990E+02  0.62380516451E+02  0.00000000000E+00 0.  1.
       14    1    4    4    0    0 -0.21762506242E+03  0.35019840912E+03 -0.19097347513E+04  0.19537365263E+04  0.00000000000E+00 0. -1.
        1    1    5    5  502    0  0.12916906968E+03 -0.13289161178E+03 -0.21857523495E+03  0.28656580811E+03  0.00000000000E+00 0. -1.
       -2    1    5    5    0  502  0.87284315513E+02 -0.21659351395E+03 -0.27758733807E+03  0.36274789080E+03  0.00000000000E+00 0.  1.
</event>
<event>
 9   1  0.7335000E-04  0.9911579E+03  0.7818608E-02  0.9318296E-01
       21   -1    0    0  503  502  0.00000000000E+00  0.00000000000E+00  0.25763184359E+03  0.25763184359E+03  0.00000000000E+00 0. -1.
       21   -1    0    0  502  503 -0.00000000000E+00 -0.00000000000E+00 -0.95329252645E+03  0.95329252645E+03  0.00000000000E+00 0.  1.
       39    2    1    2    0    0  0.00000000000E+00  0.00000000000E+00 -0.69566068286E+03  0.12109243700E+04  0.99115793105E+03 0.  0.
       24    2    3    3    0    0 -0.42006428766E+02 -0.31602321373E+02 -0.94115128586E+03  0.94595275421E+03  0.79357567767E+02 0.  0.
      -24    2    3    3    0    0  0.42006428766E+02  0.31602321373E+02  0.24549060300E+03  0.26497161583E+03  0.84741219370E+02 0.  0.
      -13    1    4    4    0    0 -0.51062910749E+02 -0.37331810454E+02 -0.42417284925E+03  0.42886325439E+03  0.00000000000E+00 0.  1.
       14    1    4    4    0    0  0.90564819838E+01  0.57294890808E+01 -0.51697843661E+03  0.51708949983E+03  0.00000000000E+00 0. -1.
        1    1    5    5  501    0 -0.78169618852E+01 -0.19084034515E+02  0.11055743423E+03  0.11246444563E+03  0.00000000000E+00 0. -1.
       -2    1    5    5    0  501  0.49823390651E+02  0.50686355888E+02  0.13493316877E+03  0.15250717020E+03  0.00000000000E+00 0.  1.
</event>
<event>
 9   1  0.7335000E-04  0.9983606E+03  0.7818608E-02  0.9310345E-01
       21   -1    0    0  503  502  0.00000000000E+00  0.00000000000E+00  0.14444817568E+04  0.14444817568E+04  0.00000000000E+00 0.  1.
       21   -1    0    0  502  503 -0.00000000000E+00 -0.00000000000E+00 -0.17250545859E+03  0.17250545859E+03  0.00000000000E+00 0. -1.
       39    2    1    2    0    0  0.00000000000E+00  0.00000000000E+00  0.12719762982E+04  0.16169872154E+04  0.99836063199E+03 0.  0.
       24    2    3    3    0    0  0.44774190960E+03 -0.11722033011E+03  0.36248637253E+03  0.59332020868E+03  0.80119138506E+02 0.  0.
      -24    2    3    3    0    0 -0.44774190960E+03  0.11722033011E+03  0.90948992569E+03  0.10236670067E+04  0.80677086456E+02 0.  0.
      -13    1    4    4    0    0  0.42643569004E+02 -0.13452727807E+02  0.86780064142E+01  0.45549507771E+02  0.00000000000E+00 0.  1.
       14    1    4    4    0    0  0.40509834060E+03 -0.10376760231E+03  0.35380836611E+03  0.54777070091E+03  0.00000000000E+00 0. -1.
        1    1    5    5  501    0 -0.16317652141E+02 -0.14095358713E+01  0.10418214555E+02  0.19411124575E+02  0.00000000000E+00 0. -1.
       -2    1    5    5    0  501 -0.43142425746E+03  0.11862986599E+03  0.89907171114E+03  0.10042558821E+04  0.00000000000E+00 0.  1.
</event>
<event>
 9   1  0.7335000E-04  0.9990722E+03  0.7818608E-02  0.9309563E-01
       21   -1    0    0  503  502  0.00000000000E+00  0.00000000000E+00  0.61621271765E+03  0.61621271765E+03  0.00000000000E+00 0.  1.
       21   -1    0    0  502  503 -0.00000000000E+00 -0.00000000000E+00 -0.40495154775E+03  0.40495154775E+03  0.00000000000E+00 0. -1.
       39    2    1    2    0    0  0.00000000000E+00  0.00000000000E+00  0.21126116989E+03  0.10211642654E+04  0.99907215707E+03 0.  0.
       24    2    3    3    0    0  0.20591440176E+03  0.12354512827E+02 -0.35202463673E+03  0.41613487464E+03  0.81813899759E+02 0.  0.
      -24    2    3    3    0    0 -0.20591440176E+03 -0.12354512827E+02  0.56328580662E+03  0.60502939076E+03  0.78843445559E+02 0.  0.
      -13    1    4    4    0    0  0.21469483012E+02  0.14026828755E+02 -0.10355871561E+03  0.10668691674E+03  0.00000000000E+00 0.  1.
       14    1    4    4    0    0  0.18444491874E+03 -0.16723159276E+01 -0.24846592112E+03  0.30944795790E+03  0.00000000000E+00 0. -1.
        1    1    5    5  501    0 -0.43167317330E+02 -0.35989360552E+02  0.13298562579E+03  0.14437391740E+03  0.00000000000E+00 0. -1.
       -2    1    5    5    0  501 -0.16274708443E+03  0.23634847725E+02  0.43030018083E+03  0.46065547336E+03  0.00000000000E+00 0.  1.
</event>
<event>
 9   1  0.7335000E-04  0.9784249E+03  0.7818608E-02  0.9332530E-01
       21   -1    0    0  503  502  0.00000000000E+00  0.00000000000E+00  0.27955380704E+03  0.27955380704E+03  0.00000000000E+00 0.  1.
       21   -1    0    0  502  503 -0.00000000000E+00 -0.00000000000E+00 -0.85610996321E+03  0.85610996321E+03  0.00000000000E+00 0. -1.
       39    2    1    2    0    0 -0.71054273576E-14  0.28421709430E-13 -0.57655615617E+03  0.11356637703E+04  0.97842485549E+03 0.  0.
       24    2    3    3    0    0  0.35642089229E+02  0.14824912617E+03  0.24196251236E+03  0.29790083912E+03  0.83372001464E+02 0.  0.
      -24    2    3    3    0    0 -0.35642089229E+02 -0.14824912617E+03 -0.81851866853E+03  0.83776293113E+03  0.92874948728E+02 0.  0.
      -13    1    4    4    0    0 -0.30459243124E+01  0.12106080392E+03  0.20410841819E+03  0.23732939615E+03  0.00000000000E+00 0.  1.
       14    1    4    4    0    0  0.38688013541E+02  0.27188322242E+02  0.37854094173E+02  0.60571442972E+02  0.00000000000E+00 0. -1.
        3    1    5    5  501    0 -0.61203914381E+02 -0.13712950873E+03 -0.71053159784E+03  0.72622694306E+03  0.00000000000E+00 0. -1.
       -4    1    5    5    0  501  0.25561825152E+02 -0.11119617439E+02 -0.10798707070E+03  0.11153598807E+03  0.14200000000E+01 0.  1.
</event>
<event>
 9   1  0.7335000E-04  0.1001831E+04  0.7818608E-02  0.9306539E-01
        2   -1    0    0  501    0  0.00000000000E+00  0.00000000000E+00  0.22873800721E+04  0.22873800721E+04  0.00000000000E+00 0. -1.
       -2   -1    0    0    0  501 -0.00000000000E+00 -0.00000000000E+00 -0.10969592737E+03  0.10969592737E+03  0.00000000000E+00 0.  1.
       39    2    1    2    0    0  0.14210854715E-13  0.56843418861E-13  0.21776841447E+04  0.23970759994E+04  0.10018308805E+04 0.  0.
       24    2    3    3    0    0 -0.92857157219E+02 -0.32730813720E+03  0.23290944636E+03  0.42106988730E+03  0.85439870468E+02 0.  0.
      -24    2    3    3    0    0  0.92857157219E+02  0.32730813720E+03  0.19447746983E+04  0.19760061121E+04  0.81844117628E+02 0.  0.
      -13    1    4    4    0    0 -0.80041016278E+02 -0.29777338773E+03  0.17429492474E+03  0.35419525056E+03  0.00000000000E+00 0.  1.
       14    1    4    4    0    0 -0.12816140941E+02 -0.29534749465E+02  0.58614521621E+02  0.66874636742E+02  0.00000000000E+00 0. -1.
        1    1    5    5  502    0  0.79536130529E+02  0.31491818310E+03  0.19018306796E+04  0.19293676145E+04  0.00000000000E+00 0. -1.
       -2    1    5    5    0  502  0.13321026690E+02  0.12389954101E+02  0.42944018786E+02  0.46638497662E+02  0.00000000000E+00 0.  1.
</event>
<event>
 9   1  0.7335000E-04  0.9907877E+03  0.7818608E-02  0.9318707E-01
       21   -1    0    0  503  502  0.00000000000E+00  0.00000000000E+00  0.31480463878E+03  0.31480463878E+03  0.00000000000E+00 0.  1.
       21   -1    0    0  502  503 -0.00000000000E+00 -0.00000000000E+00 -0.77957896669E+03  0.77957896669E+03  0.00000000000E+00 0. -1.
       39    2    1    2    0    0  0.00000000000E+00  0.00000000000E+00 -0.46477432792E+03  0.10943836055E+04  0.99078771694E+03 0.  0.
       24    2    3    3    0    0  0.48272420740E+02  0.13324564214E+03 -0.74922069348E+03  0.76664363863E+03  0.79537370920E+02 0.  0.
      -24    2    3    3    0    0 -0.48272420740E+02 -0.13324564214E+03  0.28444636556E+03  0.32773996684E+03  0.80119431034E+02 0.  0.
      -13    1    4    4    0    0  0.31775484845E+02  0.60788178010E+01 -0.10866452472E+03  0.11337818307E+03  0.00000000000E+00 0.  1.
       14    1    4    4    0    0  0.16496935895E+02  0.12716682434E+03 -0.64055616876E+03  0.65326545557E+03  0.00000000000E+00 0. -1.
        3    1    5    5  501    0 -0.23045541622E+02 -0.48142321158E+02  0.37252839489E+02  0.65088817205E+02  0.00000000000E+00 0. -1.
       -4    1    5    5    0  501 -0.25226879118E+02 -0.85103320983E+02  0.24719352607E+03  0.26265114963E+03  0.14200000000E+01 0.  1.
</event>
<event>
 9   1  0.7335000E-04  0.9809381E+03  0.7818608E-02  0.9329702E-01
       21   -1    0    0  503  502  0.00000000000E+00  0.00000000000E+00  0.11320174147E+04  0.11320174147E+04  0.00000000000E+00 0.  1.
       21   -1    0    0  502  503 -0.00000000000E+00 -0.00000000000E+00 -0.21250544795E+03  0.21250544795E+03  0.00000000000E+00 0. -1.
       39    2    1    2    0    0  0.00000000000E+00  0.14210854715E-13  0.91951196678E+03  0.13445228627E+04  0.98093805678E+03 0.  0.
       24    2    3    3    0    0 -0.51716394184E+02  0.11625515268E+03 -0.18017648132E+03  0.23455918808E+03  0.79778457854E+02 0.  0.
      -24    2    3    3    0    0  0.51716394184E+02 -0.11625515268E+03  0.10996884481E+04  0.11099636746E+04  0.80714497451E+02 0.  0.
      -13    1    4    4    0    0 -0.21754261975E+02  0.42763520002E+01 -0.23598562857E+01  0.22295829704E+02  0.00000000000E+00 0.  1.
       14    1    4    4    0    0 -0.29962132209E+02  0.11197880068E+03 -0.17781662504E+03  0.21226335838E+03  0.00000000000E+00 0. -1.
        3    1    5    5  501    0  0.38842836649E+01  0.12158139801E+02  0.13280980373E+03  0.13342170735E+03  0.00000000000E+00 0. -1.
       -4    1    5    5    0  501  0.47832110519E+02 -0.12841329248E+03  0.96687864437E+03  0.97654196726E+03  0.14200000000E+01 0.  1.
</event>
<event>
 9   1  0.7335000E-04  0.9995761E+03  0.7818608E-02  0.9309010E-01
       21   -1    0    0  503  502  0.00000000000E+00  0.00000000000E+00  0.24446148867E+03  0.24446148867E+03  0.00000000000E+00 0.  1.
       21   -1    0    0  502  503 -0.00000000000E+00 -0.00000000000E+00 -0.10217891520E+04  0.10217891520E+04  0.00000000000E+00 0. -1.
       39    2    1    2    0    0  0.14210854715E-13  0.00000000000E+00 -0.77732766333E+03  0.12662506407E+04  0.99957610456E+03 0.  0.
       24    2    3    3    0    0  0.62423589856E+02  0.16303603221E+03 -0.97251789089E+03  0.99217661388E+03  0.90254820773E+02 0.  0.
      -24    2    3    3    0    0 -0.62423589856E+02 -0.16303603221E+03  0.19519022756E+03  0.27407402678E+03  0.80869616383E+02 0.  0.
      -13    1    4    4    0    0 -0.21176886942E+02  0.37767372313E+02 -0.15659657329E+03  0.16247252604E+03  0.00000000000E+00 0.  1.
       14    1    4    4    0    0  0.83600476798E+02  0.12526865989E+03 -0.81592131760E+03  0.82970408784E+03  0.00000000000E+00 0. -1.
        1    1    5    5  501    0  0.11410599758E+02 -0.18421041107E+02  0.20752980779E+01  0.21767944424E+02  0.00000000000E+00 0. -1.
       -2    1    5    5    0  501 -0.73834189615E+02 -0.14461499110E+03  0.19311492948E+03  0.25230608236E+03  0.00000000000E+00 0.  1.
</event>
<event>
 9   1  0.7335000E-04  0.9950848E+03  0.7818608E-02  0.9313952E-01
       21   -1    0    0  503  502  0.00000000000E+00  0.00000000000E+00  0.18300512822E+04  0.18300512822E+04  0.00000000000E+00 0.  1.
       21   -1    0    0  502  503 -0.00000000000E+00 -0.00000000000E+00 -0.13526857185E+03  0.13526857185E+03  0.00000000000E+00 0. -1.
       39    2    1    2    0    0  0.00000000000E+00  0.00000000000E+00  0.16947827103E+04  0.19653198540E+04  0.99508476694E+03 0.  0.
       24    2    3    3    0    0  0.22431515644E+03 -0.28930909939E+03  0.20095313216E+03  0.42505141844E+03  0.79180190665E+02 0.  0.
      -24    2    3    3    0    0 -0.22431515644E+03  0.28930909939E+03  0.14938295781E+04  0.15402684356E+04  0.82963851614E+02 0.  0.
      -13    1    4    4    0    0  0.13456856179E+03 -0.18212719465E+03  0.16650735984E+03  0.28107599281E+03  0.00000000000E+00 0.  1.
       14    1    4    4    0    0  0.89746594647E+02 -0.10718190473E+03  0.34445772326E+02  0.14397542563E+03  0.00000000000E+00 0. -1.
        1    1    5    5  501    0 -0.10755300949E+03  0.18699419509E+03  0.74978616041E+03  0.78020110561E+03  0.00000000000E+00 0. -1.
       -2    1    5    5    0  501 -0.11676214695E+03  0.10231490429E+03  0.74404341773E+03  0.76006732995E+03  0.00000000000E+00 0.  1.
</event>
<event>
 9   1  0.7335000E-04  0.1002267E+04  0.7818608E-02  0.9306062E-01
       21   -1    0    0  503  502  0.00000000000E+00  0.00000000000E+00  0.89625193886E+03  0.89625193886E+03  0.00000000000E+00 0.  1.
       21   -1    0    0  502  503 -0.00000000000E+00 -0.00000000000E+00 -0.28020546473E+03  0.28020546473E+03  0.00000000000E+00 0. -1.
       39    2    1    2    0    0  0.00000000000E+00  0.00000000000E+00  0.61604647413E+03  0.11764574036E+04  0.10022668129E+04 0.  0.
       24    2    3    3    0    0 -0.71288069582E+02  0.26760291781E+03 -0.17312927561E+03  0.33630483665E+03  0.80211511649E+02 0.  0.
      -24    2    3    3    0    0  0.71288069582E+02 -0.26760291781E+03  0.78917574974E+03  0.84015256694E+03  0.79778827273E+02 0.  0.
      -13    1    4    4    0    0 -0.23704861177E+01 -0.36382649008E+01  0.33179999251E+01  0.54649153173E+01  0.00000000000E+00 0.  1.
       14    1    4    4    0    0 -0.68917583464E+02  0.27124118271E+03 -0.17644727553E+03  0.33083992134E+03  0.00000000000E+00 0. -1.
        3    1    5    5  501    0  0.15002664284E+02 -0.86937100641E+02  0.36784019555E+03  0.37827179232E+03  0.00000000000E+00 0. -1.
       -4    1    5    5    0  501  0.56285405297E+02 -0.18066581716E+03  0.42133555419E+03  0.46188077462E+03  0.14200000000E+01 0.  1.
</event>
<event>
 9   1  0.7335000E-04  0.9973062E+03  0.7818608E-02  0.9311504E-01
       21   -1    0    0  503  502  0.00000000000E+00  0.00000000000E+00  0.26843765956E+03  0.26843765956E+03  0.00000000000E+00 0.  1.
       21   -1    0    0  502  503 -0.00000000000E+00 -0.00000000000E+00 -0.92630409295E+03  0.92630409295E+03  0.00000000000E+00 0. -1.
       39    2    1    2    0    0  0.56843418861E-13 -0.71054273576E-14 -0.65786643339E+03  0.11947417525E+04  0.99730617716E+03 0.  0.
       24    2    3    3    0    0 -0.39964099761E+03 -0.17749379458E+02  0.14199347234E+02  0.40844342589E+03  0.81218490828E+02 0.  0.
      -24    2    3    3    0    0  0.39964099761E+03  0.17749379458E+02 -0.67206578062E+03  0.78629832662E+03  0.81022697548E+02 0.  0.
      -13    1    4    4    0    0 -0.36425598372E+03 -0.34482698282E+02  0.27964126606E+02  0.36695159154E+03  0.00000000000E+00 0.  1.
       14    1    4    4    0    0 -0.35385013884E+02  0.16733318824E+02 -0.13764779372E+02  0.41491834349E+02  0.00000000000E+00 0. -1.
        3    1    5    5  501    0  0.37165007961E+03  0.35258301323E+02 -0.63527095243E+03  0.73684198610E+03  0.00000000000E+00 0. -1.
       -4    1    5    5    0  501  0.27990917992E+02 -0.17508921865E+02 -0.36794828196E+02  0.49456340512E+02  0.14200000000E+01 0.  1.
</event>
<event>
 9   1  0.7335000E-04  0.9319942E+03  0.7818608E-02  0.9386448E-01
        2   -1    0    0  501    0  0.00000000000E+00  0.00000000000E+00  0.17189943347E+04  0.17189943347E+04  0.00000000000E+00 0.  1.
       -2   -1    0    0    0  501 -0.00000000000E+00 -0.00000000000E+00 -0.12632578164E+03  0.12632578164E+03  0.00000000000E+00 0. -1.
       39    2    1    2    0    0  0.00000000000E+00  0.56843418861E-13  0.15926685530E+04  0.18453201163E+04  0.93199421234E+03 0.  0.
       24    2    3    3    0    0 -0.20845412363E+02  0.40404832900E+03  0.12269085433E+04  0.12943466419E+04  0.79618291207E+02 0.  0.
      -24    2    3    3    0    0  0.20845412363E+02 -0.40404832900E+03  0.36576000967E+03  0.55097347439E+03  0.78114028366E+02 0.  0.
      -13    1    4    4    0    0  0.14230207244E+01  0.72325641052E+02  0.32909263281E+03  0.33694952784E+03  0.00000000000E+00 0.  1.
       14    1    4    4    0    0 -0.22268433087E+02  0.33172268795E+03  0.89781591053E+03  0.95739711406E+03  0.00000000000E+00 0. -1.
        3    1    5    5  502    0 -0.22837555134E+02 -0.24777556211E+03  0.23960133923E+03  0.34543173691E+03  0.00000000000E+00 0. -1.
       -4    1    5    5    0  502  0.43682967497E+02 -0.15627276689E+03  0.12615867044E+03  0.20554173748E+03  0.14200000000E+01 0.  1.
</event>
<event>
 9   1  0.7335000E-04  0.1001314E+04  0.7818608E-02  0.9307105E-01
       21   -1    0    0  503  502  0.00000000000E+00  0.00000000000E+00  0.40628103841E+03  0.40628103841E+03  0.00000000000E+00 0.  1.
       21   -1    0    0  502  503 -0.00000000000E+00 -0.00000000000E+00 -0.61695589305E+03  0.61695589305E+03  0.00000000000E+00 0. -1.
       39    2    1    2    0    0  0.00000000000E+00  0.00000000000E+00 -0.21067485464E+03  0.10232369315E+04  0.10013140983E+04 0.  0.
       24    2    3    3    0    0 -0.17698672746E+03  0.17256738040E+03  0.33173685866E+03  0.42153427935E+03  0.80857917367E+02 0.  0.
      -24    2    3    3    0    0  0.17698672746E+03 -0.17256738040E+03 -0.54241171330E+03  0.60170265211E+03  0.82047622455E+02 0.  0.
      -13    1    4    4    0    0 -0.14017769313E+03  0.17374856175E+03  0.28364841537E+03  0.36096367117E+03  0.00000000000E+00 0.  1.
       14    1    4    4    0    0 -0.36809034325E+02 -0.11811813540E+01  0.48088443294E+02  0.60570608184E+02  0.00000000000E+00 0. -1.
        3    1    5    5  501    0  0.16236897120E+03 -0.11371228545E+03 -0.38562695092E+03  0.43359233382E+03  0.00000000000E+00 0. -1.
       -4    1    5    5    0  501  0.14617756256E+02 -0.58855094945E+02 -0.15678476238E+03  0.16811031829E+03  0.14200000000E+01 0.  1.
</event>
<event>
 9   1  0.7335000E-04  0.9953079E+03  0.7818608E-02  0.9313706E-01
       21   -1    0    0  503  502  0.00000000000E+00  0.00000000000E+00  0.22884527647E+03  0.22884527647E+03  0.00000000000E+00 0. -1.
       21   -1    0    0  502  503 -0.00000000000E+00 -0.00000000000E+00 -0.10822135450E+04  0.10822135450E+04  0.00000000000E+00 0.  1.
       39    2    1    2    0    0  0.00000000000E+00  0.00000000000E+00 -0.85336826857E+03  0.13110588215E+04  0.99530790795E+03 0.  0.
       24    2    3    3    0    0 -0.15563761350E+03 -0.31963576933E+03 -0.87299538786E+03  0.94601375616E+03  0.80193440210E+02 0.  0.
      -24    2    3    3    0    0  0.15563761350E+03  0.31963576933E+03  0.19627119289E+02  0.36504506534E+03  0.80514496501E+02 0.  0.
      -13    1    4    4    0    0 -0.99795805018E+02 -0.20208635665E+03 -0.64819121436E+03  0.68625793155E+03  0.00000000000E+00 0.  1.
       14    1    4    4    0    0 -0.55841808480E+02 -0.11754941269E+03 -0.22480417349E+03  0.25975582461E+03  0.00000000000E+00 0. -1.
        3    1    5    5  501    0  0.97343978771E+02  0.24748753157E+03  0.42956783919E+02  0.26939044855E+03  0.00000000000E+00 0. -1.
       -4    1    5    5    0  501  0.58293634727E+02  0.72148237765E+02 -0.23329664630E+02  0.95654616794E+02  0.14200000000E+01 0.  1.
</event>
<event>
 9   1  0.7335000E-04  0.1003071E+04  0.7818608E-02  0.9305183E-01
       21   -1    0    0  503  502  0.00000000000E+00  0.00000000000E+00  0.42649502240E+03  0.42649502240E+03  0.00000000000E+00 0. -1.
       21   -1    0    0  502  503 -0.00000000000E+00 -0.00000000000E+00 -0.58977922236E+03  0.58977922236E+03  0.00000000000E+00 0.  1.
       39    2    1    2    0    0  0.28421709430E-13  0.00000000000E+00 -0.16328419996E+03  0.10162742448E+04  0.10030710895E+04 0.  0.
       24    2    3    3    0    0 -0.17887231308E+03  0.42181953813E+03 -0.27160066872E+03  0.53875849467E+03  0.81035579839E+02 0.  0.
      -24    2    3    3    0    0  0.17887231308E+03 -0.42181953813E+03  0.10831646876E+03  0.47751575008E+03  0.79760936756E+02 0.  0.
      -13    1    4    4    0    0 -0.14184716023E+03  0.25905573069E+03 -0.20248640002E+03  0.35809388526E+03  0.00000000000E+00 0.  1.
       14    1    4    4    0    0 -0.37025152844E+02  0.16276380744E+03 -0.69114268700E+02  0.18066460941E+03  0.00000000000E+00 0. -1.
        1    1    5    5  501    0  0.87710464803E+02 -0.29958815561E+03  0.82288886803E+02  0.32282758480E+03  0.00000000000E+00 0. -1.
       -2    1    5    5    0  501  0.91161848272E+02 -0.12223138252E+03  0.26027581957E+02  0.15468816527E+03  0.00000000000E+00 0.  1.
</event>
<event>
 9   1  0.7335000E-04  0.1003814E+04  0.7818608E-02  0.9304371E-01
       21   -1    0    0  503  502  0.00000000000E+00  0.00000000000E+00  0.71213064476E+03  0.71213064476E+03  0.00000000000E+00 0. -1.
       21   -1    0    0  502  503 -0.00000000000E+00 -0.00000000000E+00 -0.35374220907E+03  0.35374220907E+03  0.00000000000E+00 0.  1.
       39    2    1    2    0    0  0.00000000000E+00  0.00000000000E+00  0.35838843568E+03  0.10658728538E+04  0.10038140613E+04 0.  0.
       24    2    3    3    0    0 -0.17307919749E+03  0.87448227008E+02 -0.30491402097E+03  0.37025794043E+03  0.80714194861E+02 0.  0.
      -24    2    3    3    0    0  0.17307919749E+03 -0.87448227008E+02  0.66330245665E+03  0.69561491340E+03  0.79412579213E+02 0.  0.
      -13    1    4    4    0    0 -0.16315803830E+03  0.99714111460E+02 -0.29523729284E+03  0.35175063407E+03  0.00000000000E+00 0.  1.
       14    1    4    4    0    0 -0.99211591935E+01 -0.12265884452E+02 -0.96767281264E+01  0.18507306351E+02  0.00000000000E+00 0. -1.
        1    1    5    5  501    0  0.98988624713E+02 -0.75938003120E+02  0.50889865526E+03  0.52396867222E+03  0.00000000000E+00 0. -1.
       -2    1    5    5    0  501  0.74090572780E+02 -0.11510223888E+02  0.15440380139E+03  0.17164624118E+03  0.00000000000E+00 0.  1.
</event>
<event>
 9   1  0.7335000E-04  0.9984680E+03  0.7818608E-02  0.9310227E-01
        1   -1    0    0  501    0  0.00000000000E+00  0.00000000000E+00  0.65500171479E+03  0.65500171479E+03  0.00000000000E+00 0. -1.
       -1   -1    0    0    0  501 -0.00000000000E+00 -0.00000000000E+00 -0.38050985958E+03  0.38050985958E+03  0.00000000000E+00 0.  1.
       39    2    1    2    0    0  0.00000000000E+00  0.56843418861E-13  0.27449185521E+03  0.10355115744E+04  0.99846804760E+03 0.  0.
       24    2    3    3    0    0  0.14613732940E+03 -0.34117534847E+03  0.47337764495E+03  0.60687785894E+03  0.80359215304E+02 0.  0.
      -24    2    3    3    0    0 -0.14613732940E+03  0.34117534847E+03 -0.19888578974E+03  0.42863371544E+03  0.80090993253E+02 0.  0.
      -13    1    4    4    0    0  0.71581115855E+02 -0.89332175481E+02  0.17783428395E+03  0.21149261517E+03  0.00000000000E+00 0.  1.
       14    1    4    4    0    0  0.74556213544E+02 -0.25184317299E+03  0.29554336100E+03  0.39538524377E+03  0.00000000000E+00 0. -1.
        3    1    5    5  502    0 -0.53253541005E+02  0.69900981380E+02 -0.77836528319E+02  0.11739085130E+03  0.00000000000E+00 0. -1.
       -4    1    5    5    0  502 -0.92883788394E+02  0.27127436709E+03 -0.12104926142E+03  0.31124286414E+03  0.14200000000E+01 0.  1.
</event>
<event>
 9   1  0.7335000E-04  0.1002190E+04  0.7818608E-02  0.9306146E-01
       21   -1    0    0  503  502  0.00000000000E+00  0.00000000000E+00  0.56877674727E+03  0.56877674727E+03  0.00000000000E+00 0. -1.
       21   -1    0    0  502  503 -0.00000000000E+00 -0.00000000000E+00 -0.44146682006E+03  0.44146682006E+03  0.00000000000E+00 0.  1.
       39    2    1    2    0    0  0.00000000000E+00  0.00000000000E+00  0.12730992721E+03  0.10102435673E+04  0.10021897264E+04 0.  0.
       24    2    3    3    0    0  0.94348513109E+01 -0.77421412627E+02 -0.42877212237E+03  0.44305602748E+03  0.79812398874E+02 0.  0.
      -24    2    3    3    0    0 -0.94348513109E+01  0.77421412627E+02  0.55608204958E+03  0.56718753985E+03  0.79946031410E+02 0.  0.
      -13    1    4    4    0    0 -0.21034301841E+02 -0.57073236115E+02 -0.36029260745E+03  0.36539096748E+03  0.00000000000E+00 0.  1.
       14    1    4    4    0    0  0.30469153152E+02 -0.20348176511E+02 -0.68479514925E+02  0.77665060005E+02  0.00000000000E+00 0. -1.
        1    1    5    5  501    0 -0.35115063050E+02  0.16278179051E+02  0.30692572184E+03  0.30935650227E+03  0.00000000000E+00 0. -1.
       -2    1    5    5    0  501  0.25680211739E+02  0.61143233576E+02  0.24915632774E+03  0.25783103758E+03  0.00000000000E+00 0.  1.
</event>
<event>
 9   1  0.7335000E-04  0.9891391E+03  0.7818608E-02  0.9320538E-01
       21   -1    0    0  503  502  0.00000000000E+00  0.00000000000E+00  0.32180887717E+03  0.32180887717E+03  0.00000000000E+00 0.  1.
       21   -1    0    0  502  503 -0.00000000000E+00 -0.00000000000E+00 -0.76007553117E+03  0.76007553117E+03  0.00000000000E+00 0. -1.
       39    2    1    2    0    0 -0.56843418861E-13  0.14210854715E-13 -0.43826665400E+03  0.10818844083E+04  0.98913912723E+03 0.  0.
       24    2    3    3    0    0 -0.17384552258E+03  0.68730806913E+02 -0.71219951353E+03  0.74078787253E+03  0.81193198423E+02 0.  0.
      -24    2    3    3    0    0  0.17384552258E+03 -0.68730806913E+02  0.27393285954E+03  0.34109653582E+03  0.79758671455E+02 0.  0.
      -13    1    4    4    0    0 -0.74407967150E+01 -0.15341565159E+02 -0.72195680638E+02  0.74181839961E+02  0.00000000000E+00 0.  1.
       14    1    4    4    0    0 -0.16640472586E+03  0.84072372071E+02 -0.64000383290E+03  0.66660603257E+03  0.00000000000E+00 0. -1.
        3    1    5    5  501    0  0.37410856043E+02 -0.54397000884E+02  0.91761420908E+02  0.11304319627E+03  0.00000000000E+00 0. -1.
       -4    1    5    5    0  501  0.13643466653E+03 -0.14333806029E+02  0.18217143863E+03  0.22805333955E+03  0.14200000000E+01 0.  1.
</event>
<event>
 9   1  0.7335000E-04  0.1005055E+04  0.7818608E-02  0.9303018E-01
       21   -1    0    0  503  502  0.00000000000E+00  0.00000000000E+00  0.58064270999E+03  0.58064270999E+03  0.00000000000E+00 0. -1.
       21   -1    0    0  502  503 -0.00000000000E+00 -0.00000000000E+00 -0.43492119456E+03  0.43492119456E+03  0.00000000000E+00 0.  1.
       39    2    1    2    0    0  0.00000000000E+00  0.00000000000E+00  0.14572151543E+03  0.10155639046E+04  0.10050548663E+04 0.  0.
       24    2    3    3    0    0  0.19365826810E+03 -0.15576045102E+03 -0.35737777590E+03  0.44862661858E+03  0.10854549870E+03 0.  0.
      -24    2    3    3    0    0 -0.19365826810E+03  0.15576045102E+03  0.50309929133E+03  0.56693728597E+03  0.80895898448E+02 0.  0.
      -13    1    4    4    0    0  0.17193407624E+03 -0.17013398548E+03 -0.29817739997E+03  0.38394877450E+03  0.00000000000E+00 0.  1.
       14    1    4    4    0    0  0.21724191858E+02  0.14373534458E+02 -0.59200375931E+02  0.64677844082E+02  0.00000000000E+00 0. -1.
        1    1    5    5  501    0 -0.16292587125E+03  0.13240143797E+03  0.47458132513E+03  0.51894355615E+03  0.00000000000E+00 0. -1.
       -2    1    5    5    0  501 -0.30732396856E+02  0.23359013045E+02  0.28517966195E+02  0.47993729828E+02  0.00000000000E+00 0.  1.
</event>
<event>
 9   1  0.7335000E-04  0.9959844E+03  0.7818608E-02  0.9312960E-01
       21   -1    0    0  503  502  0.00000000000E+00  0.00000000000E+00  0.11178800781E+03  0.11178800781E+03  0.00000000000E+00 0.  1.
       21   -1    0    0  502  503 -0.00000000000E+00 -0.00000000000E+00 -0.22184509232E+04  0.22184509232E+04  0.00000000000E+00 0. -1.
       39    2    1    2    0    0  0.00000000000E+00  0.00000000000E+00 -0.21066629154E+04  0.23302389310E+04  0.99598435555E+03 0.  0.
       24    2    3    3    0    0  0.44485214131E+03  0.10501997095E+03 -0.14758853520E+04  0.15471046861E+04  0.79829288596E+02 0.  0.
      -24    2    3    3    0    0 -0.44485214131E+03 -0.10501997095E+03 -0.63077756333E+03  0.78313424493E+03  0.80599561169E+02 0.  0.
      -13    1    4    4    0    0  0.16540488752E+03  0.63460296426E+00 -0.50068219410E+03  0.52729672768E+03  0.00000000000E+00 0.  1.
       14    1    4    4    0    0  0.27944725379E+03  0.10438536799E+03 -0.97520315794E+03  0.10198079584E+04  0.00000000000E+00 0. -1.
        3    1    5    5  501    0 -0.16043266041E+02  0.61641845080E+01 -0.82134370285E+01  0.19048467228E+02  0.00000000000E+00 0. -1.
       -4    1    5    5    0  501 -0.42880887527E+03 -0.11118415546E+03 -0.62256412630E+03  0.76408577771E+03  0.14200000000E+01 0.  1.
</event>
<event>
 9   1  0.7335000E-04  0.9973816E+03  0.7818608E-02  0.9311421E-01
        2   -1    0    0  501    0  0.00000000000E+00  0.00000000000E+00  0.32391241096E+03  0.32391241096E+03  0.00000000000E+00 0. -1.
       -2   -1    0    0    0  501 -0.00000000000E+00 -0.00000000000E+00 -0.76777705443E+03  0.76777705443E+03  0.00000000000E+00 0.  1.
       39    2    1    2    0    0  0.00000000000E+00 -0.14210854715E-13 -0.44386464347E+03  0.10916894654E+04  0.99738160557E+03 0.  0.
       24    2    3    3    0    0 -0.47725325006E+03 -0.11757823703E+03 -0.24059818533E+03  0.55359932568E+03  0.83602751714E+02 0.  0.
      -24    2    3    3    0    0  0.47725325006E+03  0.11757823703E+03 -0.20326645814E+03  0.53809013972E+03  0.81415225487E+02 0.  0.
      -13    1    4    4    0    0 -0.18424667625E+03 -0.14963741887E+02 -0.12084010802E+03  0.22084628814E+03  0.00000000000E+00 0.  1.
       14    1    4    4    0    0 -0.29300657381E+03 -0.10261449514E+03 -0.11975807731E+03  0.33275303754E+03  0.00000000000E+00 0. -1.
        1    1    5    5  502    0  0.41663824825E+03  0.12862647140E+03 -0.18638049250E+03  0.47420447808E+03  0.00000000000E+00 0. -1.
       -2    1    5    5    0  502  0.60615001807E+02 -0.11048234366E+02 -0.16885965635E+02  0.63885661632E+02  0.00000000000E+00 0.  1.
</event>
<event>
 9   1  0.7335000E-04  0.1010153E+04  0.7818608E-02  0.9297479E-01
       21   -1    0    0  503  502  0.00000000000E+00  0.00000000000E+00  0.25057160128E+03  0.25057160128E+03  0.00000000000E+00 0. -1.
       21   -1    0    0  502  503 -0.00000000000E+00 -0.00000000000E+00 -0.10180813405E+04  0.10180813405E+04  0.00000000000E+00 0.  1.
       39    2    1    2    0    0 -0.56843418861E-13  0.00000000000E+00 -0.76750973922E+03  0.12686529418E+04  0.10101530017E+04 0.  0.
       24    2    3    3    0    0  0.22051188449E+03 -0.26276157972E+03  0.70962587922E+02  0.35939859534E+03  0.80389815728E+02 0.  0.
      -24    2    3    3    0    0 -0.22051188449E+03  0.26276157972E+03 -0.83847232715E+03  0.90925434643E+03  0.77707683930E+02 0.  0.
      -13    1    4    4    0    0  0.25070661100E+02 -0.72664912745E+01  0.21758327532E+02  0.33981829857E+02  0.00000000000E+00 0.  1.
       14    1    4    4    0    0  0.19544122339E+03 -0.25549508844E+03  0.49204260389E+02  0.32541676549E+03  0.00000000000E+00 0. -1.
        1    1    5    5  501    0 -0.75216459572E+02  0.12464298313E+03 -0.27453712210E+03  0.31074751880E+03  0.00000000000E+00 0. -1.
       -2    1    5    5    0  501 -0.14529542492E+03  0.13811859659E+03 -0.56393520505E+03  0.59850682763E+03  0.00000000000E+00 0.  1.
</event>
<event>
 9   1  0.7335000E-04  0.9835827E+03  0.7818608E-02  0.9326737E-01
        1   -1    0    0  501    0  0.00000000000E+00  0.00000000000E+00  0.15058217553E+03  0.15058217553E+03  0.00000000000E+00 0. -1.
       -1   -1    0    0    0  501 -0.00000000000E+00 -0.00000000000E+00 -0.16061578547E+04  0.16061578547E+04  0.00000000000E+00 0.  1.
       39    2    1    2    0    0  0.56843418861E-13  0.00000000000E+00 -0.14555756791E+04  0.17567400302E+04  0.98358272454E+03 0.  0.
       24    2    3    3    0    0 -0.35315286622E+03 -0.29989958748E+03 -0.98572455191E+03  0.10923982963E+04  0.83811908385E+02 0.  0.
      -24    2    3    3    0    0  0.35315286622E+03  0.29989958748E+03 -0.46985112723E+03  0.66434173392E+03  0.77026931566E+02 0.  0.
      -13    1    4    4    0    0 -0.33698067578E+03 -0.29517817273E+03 -0.97335664045E+03  0.10714986136E+04  0.00000000000E+00 0.  1.
       14    1    4    4    0    0 -0.16172190444E+02 -0.47214147431E+01 -0.12367911462E+02  0.20899682650E+02  0.00000000000E+00 0. -1.
        3    1    5    5  502    0  0.18959583610E+03  0.21022480282E+03 -0.27870920501E+03  0.39726549025E+03  0.00000000000E+00 0. -1.
       -4    1    5    5    0  502  0.16355703012E+03  0.89674784659E+02 -0.19114192221E+03  0.26707624367E+03  0.14200000000E+01 0.  1.
</event>
<event>
 9   1  0.7335000E-04  0.9976430E+03  0.7818608E-02  0.9311134E-01
       21   -1    0    0  503  502  0.00000000000E+00  0.00000000000E+00  0.57490467267E+03  0.57490467267E+03  0.00000000000E+00 0.  1.
       21   -1    0    0  502  503 -0.00000000000E+00 -0.00000000000E+00 -0.43280723482E+03  0.43280723482E+03  0.00000000000E+00 0. -1.
       39    2    1    2    0    0  0.00000000000E+00  0.00000000000E+00  0.14209743784E+03  0.10077119075E+04  0.99764302567E+03 0.  0.
       24    2    3    3    0    0 -0.39806545700E+03 -0.62059348913E+02 -0.21466327881E+03  0.46352501981E+03  0.80421700314E+02 0.  0.
      -24    2    3    3    0    0  0.39806545700E+03  0.62059348913E+02  0.35676071665E+03  0.54418688768E+03  0.80954857412E+02 0.  0.
      -13    1    4    4    0    0 -0.63044167451E+02 -0.16402229033E+02 -0.42489518588E+01  0.65281343113E+02  0.00000000000E+00 0.  1.
       14    1    4    4    0    0 -0.33502128954E+03 -0.45657119880E+02 -0.21041432695E+03  0.39824367670E+03  0.00000000000E+00 0. -1.
        1    1    5    5  501    0  0.18241280157E+03  0.51824916099E+02  0.12325362756E+03  0.22616743535E+03  0.00000000000E+00 0. -1.
       -2    1    5    5    0  501  0.21565265542E+03  0.10234432814E+02  0.23350708909E+03  0.31801945233E+03  0.00000000000E+00 0.  1.
</event>
<event>
 9   1  0.7335000E-04  0.9934503E+03  0.7818608E-02  0.9315758E-01
       21   -1    0    0  503  502  0.00000000000E+00  0.00000000000E+00  0.17095447484E+04  0.17095447484E+04  0.00000000000E+00 0.  1.
       21   -1    0    0  502  503 -0.00000000000E+00 -0.00000000000E+00 -0.14432840976E+03  0.14432840976E+03  0.00000000000E+00 0. -1.
       39    2    1    2    0    0  0.56843418861E-13 -0.56843418861E-13  0.15652163387E+04  0.18538731582E+04  0.99345030064E+03 0.  0.
       24    2    3    3    0    0  0.22940467930E+03  0.42371208347E+03  0.61229748378E+03  0.78316392238E+03  0.79240672132E+02 0.  0.
      -24    2    3    3    0    0 -0.22940467930E+03 -0.42371208347E+03  0.95291885490E+03  0.10707092358E+04  0.78774914022E+02 0.  0.
      -13    1    4    4    0    0  0.22364407144E+03  0.37671421493E+03  0.57505079678E+03  0.72292025099E+03  0.00000000000E+00 0.  1.
       14    1    4    4    0    0  0.57606078599E+01  0.46997868539E+02  0.37246686998E+02  0.60243671390E+02  0.00000000000E+00 0. -1.
        3    1    5    5  501    0 -0.73808854807E+02 -0.15262695094E+03  0.25783353545E+03  0.30857878281E+03  0.00000000000E+00 0. -1.
       -4    1    5    5    0  501 -0.15559582449E+03 -0.27108513253E+03  0.69508531945E+03  0.76213045300E+03  0.14200000000E+01 0.  1.
</event>
<event>
 9   1  0.7335000E-04  0.9977347E+03  0.7818608E-02  0.9311033E-01
       -2   -1    0    0    0  501 -0.00000000000E+00  0.00000000000E+00  0.90147625282E+03  0.90147625282E+03  0.00000000000E+00 0.  1.
        2   -1    0    0  501    0  0.00000000000E+00 -0.00000000000E+00 -0.27606786120E+03  0.27606786120E+03  0.00000000000E+00 0. -1.
       39    2    1    2    0    0  0.00000000000E+00  0.00000000000E+00  0.62540839161E+03  0.11775441140E+04  0.99773467624E+03 0.  0.
       24    2    3    3    0    0  0.12387354315E+03  0.35371478576E+03  0.69072345219E+03  0.78997749759E+03  0.80664458916E+02 0.  0.
      -24    2    3    3    0    0 -0.12387354315E+03 -0.35371478576E+03 -0.65315060572E+02  0.38756661644E+03  0.74047421829E+02 0.  0.
      -13    1    4    4    0    0  0.66890547865E+02  0.19622080504E+03  0.29785097774E+03  0.36289413699E+03  0.00000000000E+00 0.  1.
       14    1    4    4    0    0  0.56982995281E+02  0.15749398072E+03  0.39287247445E+03  0.42708336059E+03  0.00000000000E+00 0. -1.
        3    1    5    5  502    0 -0.15754555765E+02 -0.12714866390E+03  0.16802974187E+00  0.12812110284E+03  0.00000000000E+00 0. -1.
       -4    1    5    5    0  502 -0.10811898738E+03 -0.22656612186E+03 -0.65483090314E+02  0.25944551360E+03  0.14200000000E+01 0.  1.
</event>
<event>
 9   1  0.7335000E-04  0.1010197E+04  0.7818608E-02  0.9297431E-01
       21   -1    0    0  503  502  0.00000000000E+00  0.00000000000E+00  0.13432303539E+04  0.13432303539E+04  0.00000000000E+00 0. -1.
       21   -1    0    0  502  503 -0.00000000000E+00 -0.00000000000E+00 -0.18993341394E+03  0.18993341394E+03  0.00000000000E+00 0.  1.
       39    2    1    2    0    0  0.00000000000E+00  0.00000000000E+00  0.11532969400E+04  0.15331637679E+04  0.10101966676E+04 0.  0.
       24    2    3    3    0    0  0.28792087459E+03  0.26644749171E+03  0.11055204995E+03  0.41623218606E+03  0.84467633494E+02 0.  0.
      -24    2    3    3    0    0 -0.28792087459E+03 -0.26644749171E+03  0.10427448900E+04  0.11169315818E+04  0.79539655932E+02 0.  0.
      -13    1    4    4    0    0  0.27320047797E+03  0.21995630502E+03  0.83810707480E+02  0.36061546274E+03  0.00000000000E+00 0.  1.
       14    1    4    4    0    0  0.14720396622E+02  0.46491186689E+02  0.26741342470E+02  0.55616723326E+02  0.00000000000E+00 0. -1.
        3    1    5    5  501    0 -0.70389944675E+02 -0.75351211612E+02  0.37904967956E+03  0.39282465423E+03  0.00000000000E+00 0. -1.
       -4    1    5    5    0  501 -0.21753092991E+03 -0.19109628009E+03  0.66369521049E+03  0.72410692757E+03  0.14200000000E+01 0.  1.
</event>
<event>
 9   1  0.7335000E-04  0.9568130E+03  0.7818608E-02  0.9357222E-01
       21   -1    0    0  503  502  0.00000000000E+00  0.00000000000E+00  0.81627200878E+03  0.81627200878E+03  0.00000000000E+00 0. -1.
       21   -1    0    0  502  503 -0.00000000000E+00 -0.00000000000E+00 -0.28038789918E+03  0.28038789918E+03  0.00000000000E+00 0.  1.
       39    2    1    2    0    0  0.56843418861E-13 -0.56843418861E-13  0.53588410960E+03  0.10966599080E+04  0.95681303023E+03 0.  0.
       24    2    3    3    0    0 -0.28731770489E+03  0.37030182974E+03  0.21319240363E+03  0.52138204852E+03  0.81934918642E+02 0.  0.
      -24    2    3    3    0    0  0.28731770489E+03 -0.37030182974E+03  0.32269170596E+03  0.57527785945E+03  0.84497158637E+02 0.  0.
      -13    1    4    4    0    0 -0.17748758220E+03  0.28901350811E+03  0.15249790545E+03  0.37186860700E+03  0.00000000000E+00 0.  1.
       14    1    4    4    0    0 -0.10983012269E+03  0.81288321634E+02  0.60694498182E+02  0.14951344152E+03  0.00000000000E+00 0. -1.
        1    1    5    5  501    0  0.83278092491E+02 -0.11185895948E+03  0.14473481529E+03  0.20098714950E+03  0.00000000000E+00 0. -1.
       -2    1    5    5    0  501  0.20403961240E+03 -0.25844287026E+03  0.17795689067E+03  0.37429070995E+03  0.00000000000E+00 0.  1.
</event>
<event>
 9   1  0.7335000E-04  0.1002251E+04  0.7818608E-02  0.9306079E-01
       21   -1    0    0  503  502  0.00000000000E+00  0.00000000000E+00  0.79999948876E+03  0.79999948876E+03  0.00000000000E+00 0. -1.
       21   -1    0    0  502  503 -0.00000000000E+00 -0.00000000000E+00 -0.31390862685E+03  0.31390862685E+03  0.00000000000E+00 0.  1.
       39    2    1    2    0    0  0.56843418861E-13  0.35527136788E-14  0.48609086191E+03  0.11139081156E+04  0.10022509486E+04 0.  0.
       24    2    3    3    0    0 -0.33852200851E+03 -0.23169377195E+02 -0.15698746985E+03  0.38238765389E+03  0.80257596982E+02 0.  0.
      -24    2    3    3    0    0  0.33852200851E+03  0.23169377195E+02  0.64307833176E+03  0.73152046171E+03  0.80240107395E+02 0.  0.
      -13    1    4    4    0    0 -0.21212695832E+03  0.87287108292E+01 -0.13098501682E+03  0.24946164329E+03  0.00000000000E+00 0.  1.
       14    1    4    4    0    0 -0.12639505019E+03 -0.31898088024E+02 -0.26002453027E+02  0.13292601060E+03  0.00000000000E+00 0. -1.
        3    1    5    5  501    0  0.33941717973E+03  0.14385307130E+02  0.62732924966E+03  0.71340938208E+03  0.00000000000E+00 0. -1.
       -4    1    5    5    0  501 -0.89517122041E+00  0.87840700655E+01  0.15749082099E+02  0.18111079631E+02  0.14200000000E+01 0.  1.
</event>
<event>
 9   1  0.7335000E-04  0.9963233E+03  0.7818608E-02  0.9312587E-01
       21   -1    0    0  503  502  0.00000000000E+00  0.00000000000E+00  0.24286684072E+03  0.24286684072E+03  0.00000000000E+00 0.  1.
       21   -1    0    0  502  503 -0.00000000000E+00 -0.00000000000E+00 -0.10218152582E+04  0.10218152582E+04  0.00000000000E+00 0. -1.
       39    2    1    2    0    0 -0.71054273576E-14  0.00000000000E+00 -0.77894841752E+03  0.12646820990E+04  0.99632332818E+03 0.  0.
       24    2    3    3    0    0  0.51964449885E+02  0.12941881412E+03 -0.98815167083E+03  0.10011296967E+04  0.79796061855E+02 0.  0.
      -24    2    3    3    0    0 -0.51964449885E+02 -0.12941881412E+03  0.20920325331E+03  0.26355240229E+03  0.79021098818E+02 0.  0.
      -13    1    4    4    0    0 -0.30410305788E+01  0.75493007285E+01 -0.65052944884E+01  0.10419148950E+02  0.00000000000E+00 0.  1.
       14    1    4    4    0    0  0.55005480464E+02  0.12186951339E+03 -0.98164637634E+03  0.99071054772E+03  0.00000000000E+00 0. -1.
        1    1    5    5  501    0  0.10026273044E+01 -0.27469086718E+01  0.62698422919E+02  0.62766575543E+02  0.00000000000E+00 0. -1.
       -2    1    5    5    0  501 -0.52967077190E+02 -0.12667190545E+03  0.14650483039E+03  0.20078582675E+03  0.00000000000E+00 0.  1.
</event>
<event>
 9   1  0.7335000E-04  0.9993600E+03  0.7818608E-02  0.9309247E-01
       21   -1    0    0  503  502  0.00000000000E+00  0.00000000000E+00  0.44089480576E+03  0.44089480576E+03  0.00000000000E+00 0. -1.
       21   -1    0    0  502  503 -0.00000000000E+00 -0.00000000000E+00 -0.56630312887E+03  0.56630312887E+03  0.00000000000E+00 0.  1.
       39    2    1    2    0    0  0.28421709430E-13 -0.56843418861E-13 -0.12540832312E+03  0.10071979346E+04  0.99936001122E+03 0.  0.
       24    2    3    3    0    0  0.23083530110E+03  0.42804643292E+03  0.19468687821E+02  0.49356004118E+03  0.81937778078E+02 0.  0.
      -24    2    3    3    0    0 -0.23083530110E+03 -0.42804643292E+03 -0.14487701094E+03  0.51363789346E+03  0.79535226985E+02 0.  0.
      -13    1    4    4    0    0  0.38956807464E+02  0.38020319422E+02  0.22443243342E+02  0.58880189439E+02  0.00000000000E+00 0.  1.
       14    1    4    4    0    0  0.19187849363E+03  0.39002611349E+03 -0.29745555205E+01  0.43467985174E+03  0.00000000000E+00 0. -1.
        1    1    5    5  501    0 -0.31578509998E+01 -0.82125172956E-01 -0.99687775923E+01  0.10457308170E+02  0.00000000000E+00 0. -1.
       -2    1    5    5    0  501 -0.22767745010E+03 -0.42796430774E+03 -0.13490823335E+03  0.50318058529E+03  0.00000000000E+00 0.  1.
</event>
<event>
 9   1  0.7335000E-04  0.1001711E+04  0.7818608E-02  0.9306670E-01
       21   -1    0    0  503  502  0.00000000000E+00  0.00000000000E+00  0.73214780893E+03  0.73214780893E+03  0.00000000000E+00 0.  1.
       21   -1    0    0  502  503 -0.00000000000E+00 -0.00000000000E+00 -0.34263056799E+03  0.34263056799E+03  0.00000000000E+00 0. -1.
       39    2    1    2    0    0  0.00000000000E+00  0.28421709430E-13  0.38951724094E+03  0.10747783769E+04  0.10017109755E+04 0.  0.
       24    2    3    3    0    0 -0.42766229886E+03 -0.24280401882E+03  0.14238671095E+03  0.51835573170E+03  0.81054646453E+02 0.  0.
      -24    2    3    3    0    0  0.42766229886E+03  0.24280401882E+03  0.24713053000E+03  0.55642264522E+03  0.81754680863E+02 0.  0.
      -13    1    4    4    0    0 -0.39818214967E+03 -0.19850448746E+03  0.13253065056E+03  0.46423854773E+03  0.00000000000E+00 0.  1.
       14    1    4    4    0    0 -0.29480149184E+02 -0.44299531355E+02  0.98560603890E+01  0.54117183968E+02  0.00000000000E+00 0. -1.
        3    1    5    5  501    0  0.35102918906E+03  0.18982044250E+03  0.16364390704E+03  0.43131498963E+03  0.00000000000E+00 0. -1.
       -4    1    5    5    0  501  0.76633109795E+02  0.52983576314E+02  0.83486622958E+02  0.12510765560E+03  0.14200000000E+01 0.  1.
</event>
<event>
 9   1  0.7335000E-04  0.1003175E+04  0.7818608E-02  0.9305069E-01
        2   -1    0    0  501    0  0.00000000000E+00  0.00000000000E+00  0.12177722492E+04  0.12177722492E+04  0.00000000000E+00 0. -1.
       -2   -1    0    0    0  501 -0.00000000000E+00 -0.00000000000E+00 -0.20659853396E+03  0.20659853396E+03  0.00000000000E+00 0.  1.
       39    2    1    2    0    0 -0.35527136788E-14 -0.28421709430E-13  0.10111737152E+04  0.14243707832E+04  0.10031748828E+04 0.  0.
       24    2    3    3    0    0  0.21954126097E+02  0.25165509960E+03  0.11109343222E+04  0.11423348966E+04  0.83316715511E+02 0.  0.
      -24    2    3    3    0    0 -0.21954126097E+02 -0.25165509960E+03 -0.99760606909E+02  0.28203588655E+03  0.76024928831E+02 0.  0.
      -13    1    4    4    0    0  0.51887572820E+00  0.92797956410E+02  0.25138935729E+03  0.26797077995E+03  0.00000000000E+00 0.  1.
       14    1    4    4    0    0  0.21435250368E+02  0.15885714319E+03  0.85954496487E+03  0.87436411667E+03  0.00000000000E+00 0. -1.
        3    1    5    5  502    0  0.35846326620E+01 -0.14051536284E+03 -0.91442896633E+02  0.16768786518E+03  0.00000000000E+00 0. -1.
       -4    1    5    5    0  502 -0.25538758759E+02 -0.11113973676E+03 -0.83177102760E+01  0.11434802137E+03  0.14200000000E+01 0.  1.
</event>
<event>
 9   1  0.7335000E-04  0.9910994E+03  0.7818608E-02  0.9318361E-01
       21   -1    0    0  503  502  0.00000000000E+00  0.00000000000E+00  0.26103523768E+03  0.26103523768E+03  0.00000000000E+00 0.  1.
       21   -1    0    0  502  503 -0.00000000000E+00 -0.00000000000E+00 -0.94075237972E+03  0.94075237972E+03  0.00000000000E+00 0. -1.
       39    2    1    2    0    0  0.00000000000E+00 -0.35527136788E-14 -0.67971714204E+03  0.12017876174E+04  0.99109943203E+03 0.  0.
       24    2    3    3    0    0  0.14293545202E+02 -0.28041333560E+02 -0.93196534626E+03  0.93601981301E+03  0.81136070165E+02 0.  0.
      -24    2    3    3    0    0 -0.14293545202E+02  0.28041333560E+02  0.25224820422E+03  0.26576780440E+03  0.77541908021E+02 0.  0.
      -13    1    4    4    0    0  0.26123231272E+02  0.22238619841E+02 -0.44583843194E+03  0.44715644558E+03  0.00000000000E+00 0.  1.
       14    1    4    4    0    0 -0.11829686070E+02 -0.50279953401E+02 -0.48612691432E+03  0.48886336743E+03  0.00000000000E+00 0. -1.
        1    1    5    5  501    0 -0.27012317910E+02 -0.19721430779E+01  0.27248953630E+02  0.38419528122E+02  0.00000000000E+00 0. -1.
       -2    1    5    5    0  501  0.12718772708E+02  0.30013476638E+02  0.22499925059E+03  0.22734827628E+03  0.00000000000E+00 0.  1.
</event>
<event>
 9   1  0.7335000E-04  0.1029085E+04  0.7818608E-02  0.9277208E-01
       21   -1    0    0  503  502  0.00000000000E+00  0.00000000000E+00  0.24557861316E+03  0.24557861316E+03  0.00000000000E+00 0. -1.
       21   -1    0    0  502  503 -0.00000000000E+00 -0.00000000000E+00 -0.10780817972E+04  0.10780817972E+04  0.00000000000E+00 0.  1.
       39    2    1    2    0    0  0.56843418861E-13  0.28421709430E-13 -0.83250318408E+03  0.13236604104E+04  0.10290847052E+04 0.  0.
       24    2    3    3    0    0  0.46636206411E+03  0.19151722066E+03 -0.33341487140E+03  0.60971625363E+03  0.80100017553E+02 0.  0.
      -24    2    3    3    0    0 -0.46636206411E+03 -0.19151722066E+03 -0.49908831267E+03  0.71394415677E+03  0.80341113351E+02 0.  0.
      -13    1    4    4    0    0  0.25438630638E+03  0.14627931123E+03 -0.20179924640E+03  0.35613616162E+03  0.00000000000E+00 0.  1.
       14    1    4    4    0    0  0.21197575773E+03  0.45237909429E+02 -0.13161562500E+03  0.25358009200E+03  0.00000000000E+00 0. -1.
        3    1    5    5  501    0 -0.14907634558E+03 -0.60348978936E+02 -0.10900435044E+03  0.19428768485E+03  0.00000000000E+00 0. -1.
       -4    1    5    5    0  501 -0.31728571853E+03 -0.13116824172E+03 -0.39008396223E+03  0.51965647192E+03  0.14200000000E+01 0.  1.
</event>
<event>
 9   1  0.7335000E-04  0.1003823E+04  0.7818608E-02  0.9304362E-01
       21   -1    0    0  503  502  0.00000000000E+00  0.00000000000E+00  0.51400390160E+03  0.51400390160E+03  0.00000000000E+00 0. -1.
       21   -1    0    0  502  503 -0.00000000000E+00 -0.00000000000E+00 -0.49010319720E+03  0.49010319720E+03  0.00000000000E+00 0.  1.
       39    2    1    2    0    0  0.00000000000E+00  0.00000000000E+00  0.23900704403E+02  0.10041070988E+04  0.10038226049E+04 0.  0.
       24    2    3    3    0    0 -0.36936047875E+03 -0.52002454038E+02  0.33798436388E+03  0.50983864847E+03  0.81059229977E+02 0.  0.
      -24    2    3    3    0    0  0.36936047875E+03  0.52002454038E+02 -0.31408365947E+03  0.49426845033E+03  0.80754797736E+02 0.  0.
      -13    1    4    4    0    0 -0.47584365627E+01  0.10202204757E+02  0.15286375567E+02  0.18984229728E+02  0.00000000000E+00 0.  1.
       14    1    4    4    0    0 -0.36460204218E+03 -0.62204658794E+02  0.32269798831E+03  0.49085441874E+03  0.00000000000E+00 0. -1.
        1    1    5    5  501    0  0.25250024086E+03  0.39819315025E+02 -0.16417190400E+03  0.30379987417E+03  0.00000000000E+00 0. -1.
       -2    1    5    5    0  501  0.11686023789E+03  0.12183139012E+02 -0.14991175547E+03  0.19046857616E+03  0.00000000000E+00 0.  1.
</event>
<event>
 9   1  0.7335000E-04  0.1004092E+04  0.7818608E-02  0.9304068E-01
       21   -1    0    0  503  502  0.00000000000E+00  0.00000000000E+00  0.47279799777E+03  0.47279799777E+03  0.00000000000E+00 0. -1.
       21   -1    0    0  502  503 -0.00000000000E+00 -0.00000000000E+00 -0.53310330049E+03  0.53310330049E+03  0.00000000000E+00 0.  1.
       39    2    1    2    0    0  0.28421709430E-13 -0.56843418861E-13 -0.60305302716E+02  0.10059012983E+04  0.10040919740E+04 0.  0.
       24    2    3    3    0    0 -0.23222379096E+03  0.31368745198E+03 -0.33592326494E+03  0.52112428409E+03  0.79989830175E+02 0.  0.
      -24    2    3    3    0    0  0.23222379096E+03 -0.31368745198E+03  0.27561796222E+03  0.48477701417E+03  0.81949897800E+02 0.  0.
      -13    1    4    4    0    0 -0.17935965110E+03  0.27991122749E+03 -0.25639467493E+03  0.41983140551E+03  0.00000000000E+00 0.  1.
       14    1    4    4    0    0 -0.52864139855E+02  0.33776224484E+02 -0.79528590013E+02  0.10129287859E+03  0.00000000000E+00 0. -1.
        3    1    5    5  501    0  0.22529055144E+03 -0.30792378445E+03  0.28129788099E+03  0.47402677925E+03  0.00000000000E+00 0. -1.
       -4    1    5    5    0  501  0.69332395165E+01 -0.57636675283E+01 -0.56799187652E+01  0.10750234916E+02  0.14200000000E+01 0.  1.
</event>
<event>
 9   1  0.7335000E-04  0.1065091E+04  0.7818608E-02  0.9239901E-01
       21   -1    0    0  503  502  0.00000000000E+00  0.00000000000E+00  0.43427155003E+03  0.43427155003E+03  0.00000000000E+00 0. -1.
       21   -1    0    0  502  503 -0.00000000000E+00 -0.00000000000E+00 -0.65305794460E+03  0.65305794460E+03  0.00000000000E+00 0.  1.
       39    2    1    2    0    0  0.00000000000E+00  0.00000000000E+00 -0.21878639457E+03  0.10873294946E+04  0.10650905799E+04 0.  0.
       24    2    3    3    0    0 -0.26390299716E+03  0.27257885089E+03 -0.48150609119E+03  0.61905615639E+03  0.86246084267E+02 0.  0.
      -24    2    3    3    0    0  0.26390299716E+03 -0.27257885089E+03  0.26271969663E+03  0.46827333823E+03  0.79462308301E+02 0.  0.
      -13    1    4    4    0    0 -0.23181576560E+03  0.24823069857E+03 -0.46427417666E+03  0.57524563449E+03  0.00000000000E+00 0.  1.
       14    1    4    4    0    0 -0.32087231561E+02  0.24348152325E+02 -0.17231914536E+02  0.43810521904E+02  0.00000000000E+00 0. -1.
        3    1    5    5  501    0  0.20450156332E+03 -0.24100836290E+03  0.24131233734E+03  0.39766514122E+03  0.00000000000E+00 0. -1.
       -4    1    5    5    0  501  0.59401433835E+02 -0.31570487989E+02  0.21407359291E+02  0.70608197012E+02  0.14200000000E+01 0.  1.
</event>
<event>
 9   1  0.7335000E-04  0.1004740E+04  0.7818608E-02  0.9303361E-01
       21   -1    0    0  503  502  0.00000000000E+00  0.00000000000E+00  0.25107359207E+03  0.25107359207E+03  0.00000000000E+00 0.  1.
       21   -1    0    0  502  503 -0.00000000000E+00 -0.00000000000E+00 -0.10051867011E+04  0.10051867011E+04  0.00000000000E+00 0. -1.
       39    2    1    2    0    0  0.00000000000E+00  0.00000000000E+00 -0.75411310902E+03  0.12562602932E+04  0.10047404356E+04 0.  0.
       24    2    3    3    0    0  0.16845176970E+03  0.24889878250E+03  0.11633596012E+03  0.33195803374E+03  0.79595715322E+02 0.  0.
      -24    2    3    3    0    0 -0.16845176970E+03 -0.24889878250E+03 -0.87044906914E+03  0.92430225943E+03  0.79539186414E+02 0.  0.
      -13    1    4    4    0    0  0.11081090148E+03  0.14181520161E+03  0.10837748472E+03  0.21008637864E+03  0.00000000000E+00 0.  1.
       14    1    4    4    0    0  0.57640868228E+02  0.10708358089E+03  0.79584754017E+01  0.12187165510E+03  0.00000000000E+00 0. -1.
        1    1    5    5  501    0 -0.95313603481E+02 -0.19331775657E+03 -0.54304338528E+03  0.58425384579E+03  0.00000000000E+00 0. -1.
       -2    1    5    5    0  501 -0.73138166223E+02 -0.55581025931E+02 -0.32740568385E+03  0.34004841364E+03  0.00000000000E+00 0.  1.
</event>
<event>
 9   1  0.7335000E-04  0.9666506E+03  0.7818608E-02  0.9345898E-01
       21   -1    0    0  503  502  0.00000000000E+00  0.00000000000E+00  0.86832261228E+03  0.86832261228E+03  0.00000000000E+00 0. -1.
       21   -1    0    0  502  503 -0.00000000000E+00 -0.00000000000E+00 -0.26902827453E+03  0.26902827453E+03  0.00000000000E+00 0.  1.
       39    2    1    2    0    0 -0.28421709430E-13  0.00000000000E+00  0.59929433774E+03  0.11373508868E+04  0.96665057620E+03 0.  0.
       24    2    3    3    0    0  0.25429918468E+03 -0.13213739843E+03 -0.14804621284E+03  0.33299189137E+03  0.82689486546E+02 0.  0.
      -24    2    3    3    0    0 -0.25429918468E+03  0.13213739843E+03  0.74734055059E+03  0.80435899544E+03  0.79668862204E+02 0.  0.
      -13    1    4    4    0    0  0.12938623550E+03 -0.21214035719E+02 -0.69452875142E+02  0.14837295951E+03  0.00000000000E+00 0.  1.
       14    1    4    4    0    0  0.12491294918E+03 -0.11092336272E+03 -0.78593337702E+02  0.18461893185E+03  0.00000000000E+00 0. -1.
        3    1    5    5  501    0 -0.22735149429E+03  0.10162035027E+03  0.56374738697E+03  0.61630066839E+03  0.00000000000E+00 0. -1.
       -4    1    5    5    0  501 -0.26947690384E+02  0.30517048166E+02  0.18359316361E+03  0.18805832705E+03  0.14200000000E+01 0.  1.
</event>
<event>
 9   1  0.7335000E-04  0.1000910E+04  0.7818608E-02  0.9307547E-01
       21   -1    0    0  503  502  0.00000000000E+00  0.00000000000E+00  0.52763761187E+03  0.52763761187E+03  0.00000000000E+00 0.  1.
       21   -1    0    0  502  503 -0.00000000000E+00 -0.00000000000E+00 -0.47467308915E+03  0.47467308915E+03  0.00000000000E+00 0. -1.
       39    2    1    2    0    0  0.28421709430E-13  0.00000000000E+00  0.52964522721E+02  0.10023107010E+04  0.10009103360E+04 0.  0.
       24    2    3    3    0    0  0.22201892402E+03 -0.31125946741E+03  0.33979324831E+03  0.51768678403E+03  0.79782805672E+02 0.  0.
      -24    2    3    3    0    0 -0.22201892402E+03  0.31125946741E+03 -0.28682872559E+03  0.48462391700E+03  0.80092224484E+02 0.  0.
      -13    1    4    4    0    0  0.22216557356E+03 -0.31177170730E+03  0.34325636624E+03  0.51418291737E+03  0.00000000000E+00 0.  1.
       14    1    4    4    0    0 -0.14664953551E+00  0.51223988987E+00 -0.34631179279E+01  0.35038666604E+01  0.00000000000E+00 0. -1.
        1    1    5    5  501    0 -0.15513464877E+03  0.22925222691E+03 -0.24875545265E+03  0.37215939867E+03  0.00000000000E+00 0. -1.
       -2    1    5    5    0  501 -0.66884275255E+02  0.82007240498E+02 -0.38073272941E+02  0.11246451833E+03  0.00000000000E+00 0.  1.
</event>
<event>
 9   1  0.7335000E-04  0.1000306E+04  0.7818608E-02  0.9308209E-01
       21   -1    0    0  503  502  0.00000000000E+00  0.00000000000E+00  0.14278255220E+03  0.14278255220E+03  0.00000000000E+00 0. -1.
       21   -1    0    0  502  503 -0.00000000000E+00 -0.00000000000E+00 -0.17519868652E+04  0.17519868652E+04  0.00000000000E+00 0.  1.
       39    2    1    2    0    0 -0.56843418861E-13  0.00000000000E+00 -0.16092043130E+04  0.18947694174E+04  0.10003062652E+04 0.  0.
       24    2    3    3    0    0  0.27123399720E+03 -0.19714510920E+03 -0.11903360903E+03  0.36519825545E+03  0.82259895349E+02 0.  0.
      -24    2    3    3    0    0 -0.27123399720E+03  0.19714510920E+03 -0.14901707040E+04  0.15295711619E+04  0.80902021969E+02 0.  0.
      -13    1    4    4    0    0  0.15560950415E+02 -0.33906734134E+02 -0.33218554795E+02  0.49952799522E+02  0.00000000000E+00 0.  1.
       14    1    4    4    0    0  0.25567304678E+03 -0.16323837507E+03 -0.85815054233E+02  0.31524545592E+03  0.00000000000E+00 0. -1.
        3    1    5    5  501    0 -0.39836866822E+02  0.12327409237E+01 -0.12783607995E+03  0.13390503705E+03  0.00000000000E+00 0. -1.
       -4    1    5    5    0  501 -0.23139713038E+03  0.19591236828E+03 -0.13623346240E+04  0.13956661249E+04  0.14200000000E+01 0.  1.
</event>
<event>
 9   1  0.7335000E-04  0.1005180E+04  0.7818608E-02  0.9302881E-01
       -1   -1    0    0    0  501 -0.00000000000E+00  0.00000000000E+00  0.21654392286E+03  0.21654392286E+03  0.00000000000E+00 0.  1.
        1   -1    0    0  501    0  0.00000000000E+00 -0.00000000000E+00 -0.11664928001E+04  0.11664928001E+04  0.00000000000E+00 0. -1.
       39    2    1    2    0    0  0.00000000000E+00 -0.56843418861E-13 -0.94994887723E+03  0.13830367229E+04  0.10051804354E+04 0.  0.
       24    2    3    3    0    0  0.21955877217E+02 -0.43067080478E+03 -0.81268445198E+03  0.92346925981E+03  0.79875232001E+02 0.  0.
      -24    2    3    3    0    0 -0.21955877217E+02  0.43067080478E+03 -0.13726442524E+03  0.45956746313E+03  0.80008300128E+02 0.  0.
      -13    1    4    4    0    0  0.53771564009E+01 -0.16501353276E+03 -0.39583359276E+03  0.42888531447E+03  0.00000000000E+00 0.  1.
       14    1    4    4    0    0  0.16578720816E+02 -0.26565727202E+03 -0.41685085922E+03  0.49458394535E+03  0.00000000000E+00 0. -1.
        1    1    5    5  502    0 -0.15288941167E+02  0.14216137286E+03 -0.84842523567E+02  0.16625841771E+03  0.00000000000E+00 0. -1.
       -2    1    5    5    0  502 -0.66669360505E+01  0.28850943192E+03 -0.52421901675E+02  0.29330904541E+03  0.00000000000E+00 0.  1.
</event>
<event>
 9   1  0.7335000E-04  0.9938308E+03  0.7818608E-02  0.9315337E-01
       21   -1    0    0  503  502  0.00000000000E+00  0.00000000000E+00  0.39113024283E+03  0.39113024283E+03  0.00000000000E+00 0.  1.
       21   -1    0    0  502  503 -0.00000000000E+00 -0.00000000000E+00 -0.63131116710E+03  0.63131116710E+03  0.00000000000E+00 0. -1.
       39    2    1    2    0    0 -0.28421709430E-13 -0.14210854715E-13 -0.24018092427E+03  0.10224414099E+04  0.99383075035E+03 0.  0.
       24    2    3    3    0    0  0.19928369515E+03 -0.10320572313E+03 -0.56819327087E+03  0.61568703169E+03  0.76560534842E+02 0.  0.
      -24    2    3    3    0    0 -0.19928369515E+03  0.10320572313E+03  0.32801234660E+03  0.40675437823E+03  0.86554100122E+02 0.  0.
      -13    1    4    4    0    0  0.72074755041E+02  0.60128297835E+00 -0.15005468376E+03  0.16646783465E+03  0.00000000000E+00 0.  1.
       14    1    4    4    0    0  0.12720894011E+03 -0.10380700611E+03 -0.41813858711E+03  0.44921919704E+03  0.00000000000E+00 0. -1.
        3    1    5    5  501    0 -0.86222227266E+02 -0.10972672467E+01  0.13025709271E+03  0.15621263288E+03  0.00000000000E+00 0. -1.
       -4    1    5    5    0  501 -0.11306146789E+03  0.10430299038E+03  0.19775525389E+03  0.25054174535E+03  0.14200000000E+01 0.  1.
</event>
<event>
 8   1  0.7335000E-04  0.2272831E+04  0.7818608E-02  0.8488711E-01
       21   -1    0    0  503  502  0.00000000000E+00  0.00000000000E+00  0.12955717695E+04  0.12955717695E+04  0.00000000000E+00 0. -1.
       21   -1    0    0  502  503 -0.00000000000E+00 -0.00000000000E+00 -0.99681101206E+03  0.99681101206E+03  0.00000000000E+00 0.  1.
       24    2    1    2    0    0 -0.27694344004E+03 -0.80252188794E+03 -0.60825577006E+03  0.10474543423E+04  0.80289898280E+02 0.  0.
      -24    2    1    2    0    0  0.27694344004E+03  0.80252188794E+03  0.90701652748E+03  0.12449284393E+04  0.80179723980E+02 0.  0.
      -13    1    3    3    0    0 -0.22589955291E+03 -0.70556943460E+03 -0.55468196514E+03  0.92548955558E+03  0.00000000000E+00 0.  1.
       14    1    3    3    0    0 -0.51043887136E+02 -0.96952453340E+02 -0.53573804923E+02  0.12196478671E+03  0.00000000000E+00 0. -1.
        3    1    4    4  501    0  0.23972013650E+03  0.74629264997E+03  0.81421965165E+03  0.11302088764E+04  0.00000000000E+00 0. -1.
       -4    1    4    4    0  501  0.37223303544E+02  0.56229237966E+02  0.92796875823E+02  0.11471956281E+03  0.14200000000E+01 0.  1.
</event>
<event>
 9   1  0.7335000E-04  0.9966741E+03  0.7818608E-02  0.9312200E-01
        2   -1    0    0  501    0  0.00000000000E+00  0.00000000000E+00  0.10879278489E+04  0.10879278489E+04  0.00000000000E+00 0.  1.
       -2   -1    0    0    0  501 -0.00000000000E+00 -0.00000000000E+00 -0.22826866579E+03  0.22826866579E+03  0.00000000000E+00 0. -1.
       39    2    1    2    0    0  0.00000000000E+00  0.56843418861E-13  0.85965918311E+03  0.13161965147E+04  0.99667414642E+03 0.  0.
       24    2    3    3    0    0 -0.12550645906E+03  0.28950184941E+03 -0.68363580865E+02  0.33270275247E+03  0.80338970824E+02 0.  0.
      -24    2    3    3    0    0  0.12550645906E+03 -0.28950184941E+03  0.92802276397E+03  0.98349376221E+03  0.80439652991E+02 0.  0.
      -13    1    4    4    0    0  0.18768153265E+01  0.56669796364E+02 -0.31185848802E+02  0.64711246482E+02  0.00000000000E+00 0.  1.
       14    1    4    4    0    0 -0.12738327439E+03  0.23283205305E+03 -0.37177732063E+02  0.26799150599E+03  0.00000000000E+00 0. -1.
        1    1    5    5  502    0  0.33281857469E+02 -0.18438217284E+02  0.13952487714E+03  0.14461964332E+03  0.00000000000E+00 0. -1.
       -2    1    5    5    0  502  0.92224601591E+02 -0.27106363213E+03  0.78849788683E+03  0.83887411889E+03  0.00000000000E+00 0.  1.
</event>
<event>
 9   1  0.7335000E-04  0.1003097E+04  0.7818608E-02  0.9305155E-01
       21   -1    0    0  503  502  0.00000000000E+00  0.00000000000E+00  0.13212915522E+04  0.13212915522E+04  0.00000000000E+00 0. -1.
       21   -1    0    0  502  503 -0.00000000000E+00 -0.00000000000E+00 -0.19038252605E+03  0.19038252605E+03  0.00000000000E+00 0.  1.
       39    2    1    2    0    0  0.56843418861E-13 -0.28421709430E-13  0.11309090261E+04  0.15116740782E+04  0.10030968515E+04 0.  0.
       24    2    3    3    0    0 -0.42101372069E+03 -0.23864569224E+03  0.72501665539E+03  0.87495810449E+03  0.75486519236E+02 0.  0.
      -24    2    3    3    0    0  0.42101372069E+03  0.23864569224E+03  0.40589237075E+03  0.63671597374E+03  0.80338628039E+02 0.  0.
      -13    1    4    4    0    0 -0.45678716450E+01 -0.17632885677E+02  0.30875198566E+02  0.35847761369E+02  0.00000000000E+00 0.  1.
       14    1    4    4    0    0 -0.41644584904E+03 -0.22101280657E+03  0.69414145683E+03  0.83911034312E+03  0.00000000000E+00 0. -1.
        3    1    5    5  501    0  0.52558701038E+02  0.40580731072E+02  0.93242891584E+02  0.11447030017E+03  0.00000000000E+00 0. -1.
       -4    1    5    5    0  501  0.36845501965E+03  0.19806496117E+03  0.31264947916E+03  0.52224567358E+03  0.14200000000E+01 0.  1.
</event>
<event>
 9   1  0.7335000E-04  0.1002484E+04  0.7818608E-02  0.9305825E-01
       21   -1    0    0  503  502  0.00000000000E+00  0.00000000000E+00  0.45929063618E+03  0.45929063618E+03  0.00000000000E+00 0. -1.
       21   -1    0    0  502  503 -0.00000000000E+00 -0.00000000000E+00 -0.54702473342E+03  0.54702473342E+03  0.00000000000E+00 0.  1.
       39    2    1    2    0    0  0.00000000000E+00  0.00000000000E+00 -0.87734097238E+02  0.10063153696E+04  0.10024835915E+04 0.  0.
       24    2    3    3    0    0 -0.30831316440E+03 -0.37319422310E+03  0.58950500307E+02  0.49419133848E+03  0.80118549929E+02 0.  0.
      -24    2    3    3    0    0  0.30831316440E+03  0.37319422310E+03 -0.14668459755E+03  0.51212403113E+03  0.80148091707E+02 0.  0.
      -13    1    4    4    0    0 -0.97451118559E+02 -0.16636111535E+03 -0.97533926438E+00  0.19280480413E+03  0.00000000000E+00 0.  1.
       14    1    4    4    0    0 -0.21086204584E+03 -0.20683310775E+03  0.59925839571E+02  0.30138653435E+03  0.00000000000E+00 0. -1.
        3    1    5    5  501    0  0.26445011565E+03  0.27286847981E+03 -0.98900902731E+02  0.39264800967E+03  0.00000000000E+00 0. -1.
       -4    1    5    5    0  501  0.43863048754E+02  0.10032574329E+03 -0.47783694815E+02  0.11947602145E+03  0.14200000000E+01 0.  1.
</event>
<event>
 9   1  0.7335000E-04  0.9945047E+03  0.7818608E-02  0.9314593E-01
        2   -1    0    0  501    0  0.00000000000E+00  0.00000000000E+00  0.33094123556E+04  0.33094123556E+04  0.00000000000E+00 0. -1.
       -2   -1    0    0    0  501 -0.00000000000E+00 -0.00000000000E+00 -0.74714141675E+02  0.74714141675E+02  0.00000000000E+00 0.  1.
       39    2    1    2    0    0  0.00000000000E+00  0.00000000000E+00  0.32346982139E+04  0.33841264972E+04  0.99450470807E+03 0.  0.
       24    2    3    3    0    0 -0.43205668894E+03  0.19150493074E+03  0.20676679710E+04  0.21225310098E+04  0.80869823961E+02 0.  0.
      -24    2    3    3    0    0  0.43205668894E+03 -0.19150493074E+03  0.11670302429E+04  0.12615954874E+04  0.79476191939E+02 0.  0.
      -13    1    4    4    0    0 -0.19208321259E+03  0.44160632425E+02  0.91120857050E+03  0.93228063424E+03  0.00000000000E+00 0.  1.
       14    1    4    4    0    0 -0.23997347635E+03  0.14734429831E+03  0.11564594005E+04  0.11902503756E+04  0.00000000000E+00 0. -1.
        3    1    5    5  502    0  0.28435467528E+03 -0.14579892977E+03  0.86805407711E+03  0.92500421084E+03  0.00000000000E+00 0. -1.
       -4    1    5    5    0  502  0.14770201365E+03 -0.45706000970E+02  0.29897616577E+03  0.33659127657E+03  0.14200000000E+01 0.  1.
</event>
<event>
 9   1  0.7335000E-04  0.9984945E+03  0.7818608E-02  0.9310198E-01
       21   -1    0    0  503  502  0.00000000000E+00  0.00000000000E+00  0.76702975673E+03  0.76702975673E+03  0.00000000000E+00 0. -1.
       21   -1    0    0  502  503 -0.00000000000E+00 -0.00000000000E+00 -0.32495196944E+03  0.32495196944E+03  0.00000000000E+00 0.  1.
       39    2    1    2    0    0 -0.71054273576E-14 -0.28421709430E-13  0.44207778729E+03  0.10919817262E+04  0.99849452691E+03 0.  0.
       24    2    3    3    0    0 -0.28354170240E+02 -0.19467403434E+03  0.71439926942E+03  0.74551229305E+03  0.81977584240E+02 0.  0.
      -24    2    3    3    0    0  0.28354170240E+02  0.19467403434E+03 -0.27232148213E+03  0.34646943312E+03  0.84735705811E+02 0.  0.
      -13    1    4    4    0    0 -0.10550474102E+01 -0.32541582098E+02  0.26478830467E+03  0.26678252188E+03  0.00000000000E+00 0.  1.
       14    1    4    4    0    0 -0.27299122829E+02 -0.16213245224E+03  0.44961096475E+03  0.47872977117E+03  0.00000000000E+00 0. -1.
        1    1    5    5  501    0  0.38949280155E+02  0.30802122556E+02 -0.55330977098E+02  0.74346043642E+02  0.00000000000E+00 0. -1.
       -2    1    5    5    0  501 -0.10595109916E+02  0.16387191178E+03 -0.21699050503E+03  0.27212338948E+03  0.00000000000E+00 0.  1.
</event>
<event>
 9   1  0.7335000E-04  0.1011034E+04  0.7818608E-02  0.9296525E-01
       21   -1    0    0  503  502  0.00000000000E+00  0.00000000000E+00  0.28108375886E+03  0.28108375886E+03  0.00000000000E+00 0. -1.
       21   -1    0    0  502  503 -0.00000000000E+00 -0.00000000000E+00 -0.90915091982E+03  0.90915091982E+03  0.00000000000E+00 0.  1.
       39    2    1    2    0    0  0.00000000000E+00  0.28421709430E-13 -0.62806716096E+03  0.11902346787E+04  0.10110342386E+04 0.  0.
       24    2    3    3    0    0 -0.76952316224E+02 -0.15745733680E+03  0.23577640443E+03  0.30509025762E+03  0.82310877317E+02 0.  0.
      -24    2    3    3    0    0  0.76952316224E+02  0.15745733680E+03 -0.86384356538E+03  0.88514442106E+03  0.80873164904E+02 0.  0.
      -13    1    4    4    0    0 -0.28198016733E+02 -0.13744403921E+03  0.16023897911E+03  0.21298479403E+03  0.00000000000E+00 0.  1.
       14    1    4    4    0    0 -0.48754299491E+02 -0.20013297592E+02  0.75537425318E+02  0.92105463590E+02  0.00000000000E+00 0. -1.
        1    1    5    5  501    0  0.31592926971E+01  0.80806325414E+02 -0.27022921247E+03  0.28206997471E+03  0.00000000000E+00 0. -1.
       -2    1    5    5    0  501  0.73793023527E+02  0.76651011388E+02 -0.59361435291E+03  0.60307444636E+03  0.00000000000E+00 0.  1.
</event>
<event>
 9   1  0.7335000E-04  0.8752406E+03  0.7818608E-02  0.9457072E-01
       -1   -1    0    0    0  501 -0.00000000000E+00  0.00000000000E+00  0.38634237172E+03  0.38634237172E+03  0.00000000000E+00 0.  1.
        1   -1    0    0  501    0  0.00000000000E+00 -0.00000000000E+00 -0.49570416999E+03  0.49570416999E+03  0.00000000000E+00 0. -1.
       39    2    1    2    0    0  0.00000000000E+00  0.00000000000E+00 -0.10936179827E+03  0.88204654171E+03  0.87524059482E+03 0.  0.
       24    2    3    3    0    0 -0.38640080585E+02 -0.17355563166E+03  0.34173322646E+03  0.39091647732E+03  0.66479177672E+02 0.  0.
      -24    2    3    3    0    0  0.38640080585E+02  0.17355563166E+03 -0.45109502473E+03  0.49113006439E+03  0.78149892560E+02 0.  0.
      -13    1    4    4    0    0 -0.11595237473E+02 -0.28858755261E+02  0.12576122715E+03  0.12954984964E+03  0.00000000000E+00 0.  1.
       14    1    4    4    0    0 -0.27044843112E+02 -0.14469687640E+03  0.21597199931E+03  0.26136662768E+03  0.00000000000E+00 0. -1.
        1    1    5    5  502    0  0.51770612543E+02  0.12854620258E+03 -0.39149658595E+03  0.41529977045E+03  0.00000000000E+00 0. -1.
       -2    1    5    5    0  502 -0.13130531957E+02  0.45009429074E+02 -0.59598438774E+02  0.75830293942E+02  0.00000000000E+00 0.  1.
</event>
<event>
 9   1  0.7335000E-04  0.9858791E+03  0.7818608E-02  0.9324169E-01
       21   -1    0    0  503  502  0.00000000000E+00  0.00000000000E+00  0.27849232580E+03  0.27849232580E+03  0.00000000000E+00 0. -1.
       21   -1    0    0  502  503 -0.00000000000E+00 -0.00000000000E+00 -0.87251732051E+03  0.87251732051E+03  0.00000000000E+00 0.  1.
       39    2    1    2    0    0  0.00000000000E+00  0.00000000000E+00 -0.59402499471E+03  0.11510096463E+04  0.98587905524E+03 0.  0.
       24    2    3    3    0    0  0.23313550132E+03 -0.24955527609E+03 -0.70171644416E+03  0.78437071470E+03  0.78749300199E+02 0.  0.
      -24    2    3    3    0    0 -0.23313550132E+03  0.24955527609E+03  0.10769144945E+03  0.36663893160E+03  0.78718867374E+02 0.  0.
      -13    1    4    4    0    0  0.21803660937E+03 -0.24071274964E+03 -0.61073899807E+03  0.69172589559E+03  0.00000000000E+00 0.  1.
       14    1    4    4    0    0  0.15098891958E+02 -0.88425264475E+01 -0.90977446085E+02  0.92644819113E+02  0.00000000000E+00 0. -1.
        1    1    5    5  501    0 -0.15853696445E+03  0.12032398290E+03  0.81852379557E+02  0.21520139869E+03  0.00000000000E+00 0. -1.
       -2    1    5    5    0  501 -0.74598536878E+02  0.12923129319E+03  0.25839069892E+02  0.15143753292E+03  0.00000000000E+00 0.  1.
</event>
<event>
 9   1  0.7335000E-04  0.9950459E+03  0.7818608E-02  0.9313995E-01
       21   -1    0    0  503  502  0.00000000000E+00  0.00000000000E+00  0.10992185683E+04  0.10992185683E+04  0.00000000000E+00 0.  1.
       21   -1    0    0  502  503 -0.00000000000E+00 -0.00000000000E+00 -0.22518641450E+03  0.22518641450E+03  0.00000000000E+00 0. -1.
       39    2    1    2    0    0  0.56843418861E-13  0.14210854715E-13  0.87403215379E+03  0.13244049828E+04  0.99504590476E+03 0.  0.
       24    2    3    3    0    0  0.46245462139E+03  0.71326649880E+02  0.24288592441E+03  0.53428839036E+03  0.86710691174E+02 0.  0.
      -24    2    3    3    0    0 -0.46245462139E+03 -0.71326649880E+02  0.63114622937E+03  0.79011659243E+03  0.83587672251E+02 0.  0.
      -13    1    4    4    0    0  0.37326706334E+02  0.80713937475E+01 -0.43642910579E+01  0.38437968718E+02  0.00000000000E+00 0.  1.
       14    1    4    4    0    0  0.42512791506E+03  0.63255256132E+02  0.24725021547E+03  0.49585042164E+03  0.00000000000E+00 0. -1.
        3    1    5    5  501    0 -0.79103868942E+02 -0.24033897002E+02  0.16643502834E+03  0.18583774898E+03  0.00000000000E+00 0. -1.
       -4    1    5    5    0  501 -0.38335075245E+03 -0.47292752878E+02  0.46471120103E+03  0.60427884345E+03  0.14200000000E+01 0.  1.
</event>
<event>
 9   1  0.7335000E-04  0.1004645E+04  0.7818608E-02  0.9303464E-01
       21   -1    0    0  503  502  0.00000000000E+00  0.00000000000E+00  0.49028010230E+03  0.49028010230E+03  0.00000000000E+00 0. -1.
       21   -1    0    0  502  503 -0.00000000000E+00 -0.00000000000E+00 -0.51466110771E+03  0.51466110771E+03  0.00000000000E+00 0.  1.
       39    2    1    2    0    0  0.00000000000E+00  0.28421709430E-13 -0.24381005408E+02  0.10049412100E+04  0.10046454112E+04 0.  0.
       24    2    3    3    0    0  0.15090700511E+03  0.20670163836E+03 -0.43663256920E+03  0.51247744329E+03  0.80539666679E+02 0.  0.
      -24    2    3    3    0    0 -0.15090700511E+03 -0.20670163836E+03  0.41225156379E+03  0.49246376672E+03  0.84087562635E+02 0.  0.
      -13    1    4    4    0    0  0.94831766619E+02  0.10897280328E+03 -0.31574901457E+03  0.34722554056E+03  0.00000000000E+00 0.  1.
       14    1    4    4    0    0  0.56075238489E+02  0.97728835078E+02 -0.12088355463E+03  0.16525190273E+03  0.00000000000E+00 0. -1.
        1    1    5    5  501    0 -0.11920988464E+03 -0.20323060854E+03  0.37995253686E+03  0.44707673515E+03  0.00000000000E+00 0. -1.
       -2    1    5    5    0  501 -0.31697120469E+02 -0.34710298189E+01  0.32299026929E+02  0.45387031569E+02  0.00000000000E+00 0.  1.
</event>
<event>
 9   1  0.7335000E-04  0.9945781E+03  0.7818608E-02  0.9314512E-01
        2   -1    0    0  501    0  0.00000000000E+00  0.00000000000E+00  0.26910589318E+04  0.26910589318E+04  0.00000000000E+00 0.  1.
       -2   -1    0    0    0  501 -0.00000000000E+00 -0.00000000000E+00 -0.91895566435E+02  0.91895566435E+02  0.00000000000E+00 0. -1.
       39    2    1    2    0    0  0.00000000000E+00 -0.71054273576E-14  0.25991633653E+04  0.27829544982E+04  0.99457807103E+03 0.  0.
       24    2    3    3    0    0  0.27466242087E+03  0.49104805573E+02  0.24302163276E+04  0.24474037208E+04  0.77348863585E+02 0.  0.
      -24    2    3    3    0    0 -0.27466242087E+03 -0.49104805573E+02  0.16894703779E+03  0.33555077737E+03  0.78743223523E+02 0.  0.
      -13    1    4    4    0    0  0.27090274427E+03  0.58543260526E+02  0.22684337607E+04  0.22853024607E+04  0.00000000000E+00 0.  1.
       14    1    4    4    0    0  0.37596765974E+01 -0.94384549538E+01  0.16178256689E+03  0.16210126017E+03  0.00000000000E+00 0. -1.
        3    1    5    5  502    0 -0.26289797012E+03 -0.27749227875E+02  0.16243393848E+03  0.31027430881E+03  0.00000000000E+00 0. -1.
       -4    1    5    5    0  502 -0.11764450750E+02 -0.21355577698E+02  0.65130993095E+01  0.25276468560E+02  0.14200000000E+01 0.  1.
</event>
<event>
 9   1  0.7335000E-04  0.1002897E+04  0.7818608E-02  0.9305373E-01
       21   -1    0    0  503  502  0.00000000000E+00  0.00000000000E+00  0.59137217081E+03  0.59137217081E+03  0.00000000000E+00 0.  1.
       21   -1    0    0  502  503 -0.00000000000E+00 -0.00000000000E+00 -0.42519898529E+03  0.42519898529E+03  0.00000000000E+00 0. -1.
       39    2    1    2    0    0  0.00000000000E+00  0.56843418861E-13  0.16617318552E+03  0.10165711561E+04  0.10028974962E+04 0.  0.
       24    2    3    3    0    0 -0.40284950753E+03 -0.23543711515E+03 -0.84386400372E+02  0.48092096600E+03  0.80284183149E+02 0.  0.
      -24    2    3    3    0    0  0.40284950753E+03  0.23543711515E+03  0.25055958589E+03  0.53565019010E+03  0.80141494643E+02 0.  0.
      -13    1    4    4    0    0 -0.15752859740E+03 -0.49557434205E+02 -0.18635504769E+02  0.16618808718E+03  0.00000000000E+00 0.  1.
       14    1    4    4    0    0 -0.24532091013E+03 -0.18587968095E+03 -0.65750895603E+02  0.31473287882E+03  0.00000000000E+00 0. -1.
        1    1    5    5  501    0  0.57793396406E+02  0.61267372118E+02  0.67679713788E+02  0.10804772655E+03  0.00000000000E+00 0. -1.
       -2    1    5    5    0  501  0.34505611112E+03  0.17416974304E+03  0.18287987210E+03  0.42760246355E+03  0.00000000000E+00 0.  1.
</event>
<event>
 8   1  0.7335000E-04  0.6289327E+03  0.7818608E-02  0.9847134E-01
       21   -1    0    0  503  502  0.00000000000E+00  0.00000000000E+00  0.22012058728E+03  0.22012058728E+03  0.00000000000E+00 0. -1.
       21   -1    0    0  502  503 -0.00000000000E+00 -0.00000000000E+00 -0.44924966290E+03  0.44924966290E+03  0.00000000000E+00 0.  1.
       24    2    1    2    0    0  0.23342520282E+03 -0.16883244609E+03 -0.22292035543E+03  0.37038239515E+03  0.67066486460E+02 0.  0.
      -24    2    1    2    0    0 -0.23342520282E+03  0.16883244609E+03 -0.62087201847E+01  0.29898785503E+03  0.79771355014E+02 0.  0.
      -13    1    3    3    0    0  0.72591080957E+02 -0.71700601409E+02 -0.11486760376E+03  0.15363921267E+03  0.00000000000E+00 0.  1.
       14    1    3    3    0    0  0.16083412187E+03 -0.97131844686E+02 -0.10805275168E+03  0.21674318248E+03  0.00000000000E+00 0. -1.
        3    1    4    4  501    0 -0.16653551172E+03  0.10633069514E+03  0.31291397789E+02  0.20004860651E+03  0.00000000000E+00 0. -1.
       -4    1    4    4    0  501 -0.66889691100E+02  0.62501750958E+02 -0.37500117974E+02  0.98939248513E+02  0.14200000000E+01 0.  1.
</event>
<event>
 9   1  0.7335000E-04  0.1028478E+04  0.7818608E-02  0.9277850E-01
       21   -1    0    0  503  502  0.00000000000E+00  0.00000000000E+00  0.29082536151E+04  0.29082536151E+04  0.00000000000E+00 0. -1.
       21   -1    0    0  502  503 -0.00000000000E+00 -0.00000000000E+00 -0.90928081570E+02  0.90928081570E+02  0.00000000000E+00 0.  1.
       39    2    1    2    0    0  0.28421709430E-13 -0.28421709430E-13  0.28173255335E+04  0.29991816967E+04  0.10284783361E+04 0.  0.
       24    2    3    3    0    0  0.19327015486E+03 -0.20529000879E+03  0.26396307439E+04  0.26558401259E+04  0.79617650011E+02 0.  0.
      -24    2    3    3    0    0 -0.19327015486E+03  0.20529000879E+03  0.17769478967E+03  0.34334157072E+03  0.82526695294E+02 0.  0.
      -13    1    4    4    0    0  0.14103789330E+03 -0.93454427167E+02  0.14610526157E+04  0.14708161554E+04  0.00000000000E+00 0.  1.
       14    1    4    4    0    0  0.52232261564E+02 -0.11183558163E+03  0.11785781282E+04  0.11850239705E+04  0.00000000000E+00 0. -1.
        3    1    5    5  501    0 -0.10106114860E+03  0.75189695080E+02  0.11937231081E+03  0.17354133396E+03  0.00000000000E+00 0. -1.
       -4    1    5    5    0  501 -0.92209006260E+02  0.13010031371E+03  0.58322478857E+02  0.16980023676E+03  0.14200000000E+01 0.  1.
</event>
<event>
 9   1  0.7335000E-04  0.9981056E+03  0.7818608E-02  0.9310625E-01
       21   -1    0    0  503  502  0.00000000000E+00  0.00000000000E+00  0.88942964685E+03  0.88942964685E+03  0.00000000000E+00 0.  1.
       21   -1    0    0  502  503 -0.00000000000E+00 -0.00000000000E+00 -0.28001507025E+03  0.28001507025E+03  0.00000000000E+00 0. -1.
       39    2    1    2    0    0  0.28421709430E-13  0.28421709430E-13  0.60941457661E+03  0.11694447171E+04  0.99810561574E+03 0.  0.
       24    2    3    3    0    0 -0.24893380045E+03  0.18722799165E+03  0.75179894865E+03  0.81791585962E+03  0.82233426079E+02 0.  0.
      -24    2    3    3    0    0  0.24893380045E+03 -0.18722799165E+03 -0.14238437204E+03  0.35152885748E+03  0.79226702437E+02 0.  0.
      -13    1    4    4    0    0 -0.12546974563E+03  0.14429214660E+03  0.46146253592E+03  0.49951031291E+03  0.00000000000E+00 0.  1.
       14    1    4    4    0    0 -0.12346405483E+03  0.42935845043E+02  0.29033641272E+03  0.31840554671E+03  0.00000000000E+00 0. -1.
        3    1    5    5  501    0  0.15410695447E+03 -0.66746029193E+02 -0.69401664984E+02  0.18171564856E+03  0.00000000000E+00 0. -1.
       -4    1    5    5    0  501  0.94826845979E+02 -0.12048196245E+03 -0.72982707054E+02  0.16981320892E+03  0.14200000000E+01 0.  1.
</event>
<event>
 9   1  0.7335000E-04  0.1006260E+04  0.7818608E-02  0.9301706E-01
       21   -1    0    0  503  502  0.00000000000E+00  0.00000000000E+00  0.52417461364E+03  0.52417461364E+03  0.00000000000E+00 0. -1.
       21   -1    0    0  502  503 -0.00000000000E+00 -0.00000000000E+00 -0.48293020370E+03  0.48293020370E+03  0.00000000000E+00 0.  1.
       39    2    1    2    0    0  0.00000000000E+00 -0.14210854715E-13  0.41244409948E+02  0.10071048173E+04  0.10062599126E+04 0.  0.
       24    2    3    3    0    0  0.31818176901E+03 -0.70284480234E+02  0.39585734876E+03  0.51846704001E+03  0.76977170130E+02 0.  0.
      -24    2    3    3    0    0 -0.31818176901E+03  0.70284480234E+02 -0.35461293881E+03  0.48863777733E+03  0.82686121960E+02 0.  0.
      -13    1    4    4    0    0  0.89252134798E+02 -0.37920676095E+02  0.73085460285E+02  0.12143066230E+03  0.00000000000E+00 0.  1.
       14    1    4    4    0    0  0.22892963422E+03 -0.32363804139E+02  0.32277188847E+03  0.39703637771E+03  0.00000000000E+00 0. -1.
        1    1    5    5  501    0 -0.10517875003E+03 -0.11772114332E+02 -0.87853231816E+02  0.13754760076E+03  0.00000000000E+00 0. -1.
       -2    1    5    5    0  501 -0.21300301899E+03  0.82056594565E+02 -0.26675970699E+03  0.35109017657E+03  0.00000000000E+00 0.  1.
</event>
<event>
 9   1  0.7335000E-04  0.1047527E+04  0.7818608E-02  0.9257901E-01
        1   -1    0    0  501    0  0.00000000000E+00  0.00000000000E+00  0.15792125417E+04  0.15792125417E+04  0.00000000000E+00 0.  1.
       -1   -1    0    0    0  501 -0.00000000000E+00 -0.00000000000E+00 -0.17371192255E+03  0.17371192255E+03  0.00000000000E+00 0. -1.
       39    2    1    2    0    0 -0.11368683772E-12  0.00000000000E+00  0.14055006192E+04  0.17529244643E+04  0.10475266999E+04 0.  0.
       24    2    3    3    0    0 -0.46650031461E+03 -0.22047876943E+03  0.76981049101E+03  0.93033464642E+03  0.81736962052E+02 0.  0.
      -24    2    3    3    0    0  0.46650031461E+03  0.22047876943E+03  0.63569012815E+03  0.82258981784E+03  0.79489861477E+02 0.  0.
      -13    1    4    4    0    0 -0.29161656251E+03 -0.16735927423E+03  0.44650284040E+03  0.55894018704E+03  0.00000000000E+00 0.  1.
       14    1    4    4    0    0 -0.17488375210E+03 -0.53119495200E+02  0.32330765061E+03  0.37139445938E+03  0.00000000000E+00 0. -1.
        3    1    5    5  502    0  0.37731875030E+03  0.20874675709E+03  0.50707419325E+03  0.66563419788E+03  0.00000000000E+00 0. -1.
       -4    1    5    5    0  502  0.89181564304E+02  0.11732012343E+02  0.12861593490E+03  0.15695561996E+03  0.14200000000E+01 0.  1.
</event>
<event>
 9   1  0.7335000E-04  0.9958292E+03  0.7818608E-02  0.9313131E-01
       21   -1    0    0  503  502  0.00000000000E+00  0.00000000000E+00  0.28774892573E+03  0.28774892573E+03  0.00000000000E+00 0.  1.
       21   -1    0    0  502  503 -0.00000000000E+00 -0.00000000000E+00 -0.86158078597E+03  0.86158078597E+03  0.00000000000E+00 0. -1.
       39    2    1    2    0    0  0.28421709430E-13 -0.71054273576E-14 -0.57383186024E+03  0.11493297117E+04  0.99582919337E+03 0.  0.
       24    2    3    3    0    0  0.14253127889E+03 -0.29164155071E+02 -0.82837927276E+03  0.84484203806E+03  0.79875755607E+02 0.  0.
      -24    2    3    3    0    0 -0.14253127889E+03  0.29164155071E+02  0.25454741252E+03  0.30448767363E+03  0.82174477601E+02 0.  0.
      -13    1    4    4    0    0  0.55779308283E+02  0.24841171511E+02 -0.23944391432E+03  0.24710686583E+03  0.00000000000E+00 0.  1.
       14    1    4    4    0    0  0.86751970611E+02 -0.54005326582E+02 -0.58893535844E+03  0.59773517223E+03  0.00000000000E+00 0. -1.
        3    1    5    5  501    0 -0.37328206402E+01 -0.17361826694E+02  0.12882172814E+02  0.21938946020E+02  0.00000000000E+00 0. -1.
       -4    1    5    5    0  501 -0.13879845825E+03  0.46525981764E+02  0.24166523971E+03  0.28254872761E+03  0.14200000000E+01 0.  1.
</event>
<event>
 9   1  0.7335000E-04  0.1029174E+04  0.7818608E-02  0.9277113E-01
       21   -1    0    0  503  502  0.00000000000E+00  0.00000000000E+00  0.69755555757E+03  0.69755555757E+03  0.00000000000E+00 0.  1.
       21   -1    0    0  502  503 -0.00000000000E+00 -0.00000000000E+00 -0.37961130254E+03  0.37961130254E+03  0.00000000000E+00 0. -1.
       39    2    1    2    0    0  0.35527136788E-14 -0.28421709430E-13  0.31794425503E+03  0.10771668601E+04  0.10291743755E+04 0.  0.
       24    2    3    3    0    0 -0.31765702915E+02  0.17672711601E+03 -0.33870571296E+03  0.39169740921E+03  0.80397555786E+02 0.  0.
      -24    2    3    3    0    0  0.31765702915E+02 -0.17672711601E+03  0.65664996799E+03  0.68546945090E+03  0.80234993839E+02 0.  0.
      -13    1    4    4    0    0 -0.54470825538E+02  0.89448914086E+02 -0.15522112660E+03  0.18724790308E+03  0.00000000000E+00 0.  1.
       14    1    4    4    0    0  0.22705122623E+02  0.87278201924E+02 -0.18348458636E+03  0.20444950613E+03  0.00000000000E+00 0. -1.
        3    1    5    5  501    0 -0.24498940489E+02 -0.82968157094E+02  0.25955828585E+03  0.27359535253E+03  0.00000000000E+00 0. -1.
       -4    1    5    5    0  501  0.56264643404E+02 -0.93758958916E+02  0.39709168215E+03  0.41187409837E+03  0.14200000000E+01 0.  1.
</event>
<event>
 9   1  0.7335000E-04  0.9985389E+03  0.7818608E-02  0.9310149E-01
       21   -1    0    0  503  502  0.00000000000E+00  0.00000000000E+00  0.51330105131E+03  0.51330105131E+03  0.00000000000E+00 0. -1.
       21   -1    0    0  502  503 -0.00000000000E+00 -0.00000000000E+00 -0.48562145227E+03  0.48562145227E+03  0.00000000000E+00 0.  1.
       39    2    1    2    0    0  0.00000000000E+00 -0.28421709430E-13  0.27679599038E+02  0.99892250358E+03  0.99853893663E+03 0.  0.
       24    2    3    3    0    0 -0.35459456263E+03  0.20097582185E+03 -0.26238562955E+03  0.49151880325E+03  0.81338370658E+02 0.  0.
      -24    2    3    3    0    0  0.35459456263E+03 -0.20097582185E+03  0.29006522859E+03  0.50740370033E+03  0.84806211186E+02 0.  0.
      -13    1    4    4    0    0 -0.27953754883E+03  0.19395995555E+03 -0.21401281970E+03  0.40194924127E+03  0.00000000000E+00 0.  1.
       14    1    4    4    0    0 -0.75057013802E+02  0.70158662992E+01 -0.48372809853E+02  0.89569561984E+02  0.00000000000E+00 0. -1.
        1    1    5    5  501    0  0.22516498506E+03 -0.87071858093E+02  0.19625630398E+03  0.31112267006E+03  0.00000000000E+00 0. -1.
       -2    1    5    5    0  501  0.12942957757E+03 -0.11390396376E+03  0.93808924606E+02  0.19628103027E+03  0.00000000000E+00 0.  1.
</event>
<event>
 9   1  0.7335000E-04  0.9935613E+03  0.7818608E-02  0.9315635E-01
        2   -1    0    0  501    0  0.00000000000E+00  0.00000000000E+00  0.20929982628E+04  0.20929982628E+04  0.00000000000E+00 0.  1.
       -2   -1    0    0    0  501 -0.00000000000E+00 -0.00000000000E+00 -0.11791267006E+03  0.11791267006E+03  0.00000000000E+00 0. -1.
       39    2    1    2    0    0 -0.56843418861E-13  0.00000000000E+00  0.19750855927E+04  0.22109109329E+04  0.99356129876E+03 0.  0.
       24    2    3    3    0    0  0.48493455419E+03 -0.69756857110E+02  0.10133899023E+04  0.11284385506E+04  0.79918254101E+02 0.  0.
      -24    2    3    3    0    0 -0.48493455419E+03  0.69756857110E+02  0.96169569040E+03  0.10824723823E+04  0.82827027500E+02 0.  0.
      -13    1    4    4    0    0  0.13527727006E+03 -0.55330481615E+02  0.28116751661E+03  0.31688574342E+03  0.00000000000E+00 0.  1.
       14    1    4    4    0    0  0.34965728413E+03 -0.14426375495E+02  0.73222238573E+03  0.81155280716E+03  0.00000000000E+00 0. -1.
        1    1    5    5  502    0 -0.22484067298E+03  0.50626455993E+02  0.53279404840E+03  0.58050483571E+03  0.00000000000E+00 0. -1.
       -2    1    5    5    0  502 -0.26009388121E+03  0.19130401116E+02  0.42890164200E+03  0.50196754656E+03  0.00000000000E+00 0.  1.
</event>
<event>
 9   1  0.7335000E-04  0.1038605E+04  0.7818608E-02  0.9267188E-01
       21   -1    0    0  503  502  0.00000000000E+00  0.00000000000E+00  0.42770951007E+03  0.42770951007E+03  0.00000000000E+00 0. -1.
       21   -1    0    0  502  503 -0.00000000000E+00 -0.00000000000E+00 -0.63051008431E+03  0.63051008431E+03  0.00000000000E+00 0.  1.
       39    2    1    2    0    0 -0.56843418861E-13  0.56843418861E-13 -0.20280057424E+03  0.10582195944E+04  0.10386051401E+04 0.  0.
       24    2    3    3    0    0 -0.31616294780E+03  0.30915022315E+03  0.16337089559E+03  0.47817662593E+03  0.80187068909E+02 0.  0.
      -24    2    3    3    0    0  0.31616294780E+03 -0.30915022315E+03 -0.36617146982E+03  0.58004296846E+03  0.82676658756E+02 0.  0.
      -13    1    4    4    0    0 -0.10495742741E+02  0.42480423588E+02  0.15374028634E+02  0.46380036226E+02  0.00000000000E+00 0.  1.
       14    1    4    4    0    0 -0.30566720506E+03  0.26666979957E+03  0.14799686695E+03  0.43179658970E+03  0.00000000000E+00 0. -1.
        3    1    5    5  501    0  0.19126008956E+03 -0.19866870766E+03 -0.17616776587E+03  0.32723807693E+03  0.00000000000E+00 0. -1.
       -4    1    5    5    0  501  0.12490285824E+03 -0.11048151549E+03 -0.19000370395E+03  0.25280489152E+03  0.14200000000E+01 0.  1.
</event>
<event>
 9   1  0.7335000E-04  0.1002504E+04  0.7818608E-02  0.9305803E-01
       21   -1    0    0  503  502  0.00000000000E+00  0.00000000000E+00  0.19108088883E+03  0.19108088883E+03  0.00000000000E+00 0.  1.
       21   -1    0    0  502  503 -0.00000000000E+00 -0.00000000000E+00 -0.13149062495E+04  0.13149062495E+04  0.00000000000E+00 0. -1.
       39    2    1    2    0    0  0.00000000000E+00  0.56843418861E-13 -0.11238253607E+04  0.15059871384E+04  0.10025037753E+04 0.  0.
       24    2    3    3    0    0 -0.10255995444E+03  0.48334552173E+03 -0.60960733251E+03  0.78864175843E+03  0.78697431071E+02 0.  0.
      -24    2    3    3    0    0  0.10255995444E+03 -0.48334552173E+03 -0.51421802820E+03  0.71734537994E+03  0.77606545903E+02 0.  0.
      -13    1    4    4    0    0 -0.67450560302E+02  0.35325371590E+03 -0.38600207465E+03  0.52757498758E+03  0.00000000000E+00 0.  1.
       14    1    4    4    0    0 -0.35109394142E+02  0.13009180583E+03 -0.22360525786E+03  0.26106677086E+03  0.00000000000E+00 0. -1.
        3    1    5    5  501    0  0.10954333678E+03 -0.37994435571E+03 -0.42605134217E+03  0.58127205527E+03  0.00000000000E+00 0. -1.
       -4    1    5    5    0  501 -0.69833823343E+01 -0.10340116602E+03 -0.88166686033E+02  0.13607332468E+03  0.14200000000E+01 0.  1.
</event>
<event>
 8   1  0.7335000E-04  0.8208704E+03  0.7818608E-02  0.9530290E-01
       21   -1    0    0  503  502  0.00000000000E+00  0.00000000000E+00  0.13383771503E+03  0.13383771503E+03  0.00000000000E+00 0.  1.
       21   -1    0    0  502  503 -0.00000000000E+00 -0.00000000000E+00 -0.12586666680E+04  0.12586666680E+04  0.00000000000E+00 0. -1.
       24    2    1    2    0    0  0.28950381271E+03  0.11653749119E+03 -0.13845714728E+03  0.35514302177E+03  0.97789262454E+02 0.  0.
      -24    2    1    2    0    0 -0.28950381271E+03 -0.11653749119E+03 -0.98637180567E+03  0.10373613612E+04  0.76130219787E+02 0.  0.
      -13    1    3    3    0    0  0.12620541883E+03  0.78225775092E+02 -0.20055727720E+02  0.14983094422E+03  0.00000000000E+00 0.  1.
       14    1    3    3    0    0  0.16329839387E+03  0.38311716102E+02 -0.11840141956E+03  0.20531207755E+03  0.00000000000E+00 0. -1.
        3    1    4    4  501    0 -0.26535492015E+03 -0.81986135003E+02 -0.88529514464E+03  0.92783751439E+03  0.00000000000E+00 0. -1.
       -4    1    4    4    0  501 -0.24148892559E+02 -0.34551356191E+02 -0.10107666102E+03  0.10952384685E+03  0.14200000000E+01 0.  1.
</event>
<event>
 9   1  0.7335000E-04  0.9829551E+03  0.7818608E-02  0.9327439E-01
       21   -1    0    0  503  502  0.00000000000E+00  0.00000000000E+00  0.12108227799E+03  0.12108227799E+03  0.00000000000E+00 0. -1.
       21   -1    0    0  502  503 -0.00000000000E+00 -0.00000000000E+00 -0.19949261679E+04  0.19949261679E+04  0.00000000000E+00 0.  1.
       39    2    1    2    0    0  0.00000000000E+00 -0.28421709430E-13 -0.18738438899E+04  0.21160084459E+04  0.98295514614E+03 0.  0.
       24    2    3    3    0    0  0.17063949836E+03 -0.21679581952E+03 -0.17952296308E+04  0.18180545069E+04  0.79715097365E+02 0.  0.
      -24    2    3    3    0    0 -0.17063949836E+03  0.21679581952E+03 -0.78614259070E+02  0.29795393902E+03  0.80486534826E+02 0.  0.
      -13    1    4    4    0    0  0.17325740721E+03 -0.19786939603E+03 -0.17362696156E+04  0.17560759109E+04  0.00000000000E+00 0.  1.
       14    1    4    4    0    0 -0.26179088565E+01 -0.18926423483E+02 -0.58960015279E+02  0.61978595937E+02  0.00000000000E+00 0. -1.
        3    1    5    5  501    0 -0.76344674224E+02  0.15935225106E+03 -0.42010315390E+02  0.18162190341E+03  0.00000000000E+00 0. -1.
       -4    1    5    5    0  501 -0.94294824131E+02  0.57443568457E+02 -0.36603943680E+02  0.11633203560E+03  0.14200000000E+01 0.  1.
</event>
<event>
 9   1  0.7335000E-04  0.1001510E+04  0.7818608E-02  0.9306890E-01
       21   -1    0    0  503  502  0.00000000000E+00  0.00000000000E+00  0.18824383061E+03  0.18824383061E+03  0.00000000000E+00 0. -1.
       21   -1    0    0  502  503 -0.00000000000E+00 -0.00000000000E+00 -0.13320791046E+04  0.13320791046E+04  0.00000000000E+00 0.  1.
       39    2    1    2    0    0  0.00000000000E+00  0.00000000000E+00 -0.11438352740E+04  0.15203229352E+04  0.10015102063E+04 0.  0.
       24    2    3    3    0    0 -0.17429126974E+03 -0.28769768357E+03 -0.23203306702E+02  0.34764672261E+03  0.84690297323E+02 0.  0.
      -24    2    3    3    0    0  0.17429126974E+03  0.28769768357E+03 -0.11206319673E+04  0.11726762126E+04  0.78778738763E+02 0.  0.
      -13    1    4    4    0    0 -0.12662023767E+03 -0.14605658393E+03 -0.39556202117E+02  0.19730662285E+03  0.00000000000E+00 0.  1.
       14    1    4    4    0    0 -0.47671032071E+02 -0.14164109964E+03  0.16352895415E+02  0.15034009975E+03  0.00000000000E+00 0. -1.
        1    1    5    5  501    0  0.41955866642E+02  0.54598043321E+02 -0.13920777489E+03  0.15530629630E+03  0.00000000000E+00 0. -1.
       -2    1    5    5    0  501  0.13233540310E+03  0.23309964024E+03 -0.98142419237E+03  0.10173699163E+04  0.00000000000E+00 0.  1.
</event>
<event>
 9   1  0.7335000E-04  0.1001146E+04  0.7818608E-02  0.9307289E-01
       21   -1    0    0  503  502  0.00000000000E+00  0.00000000000E+00  0.71220665885E+03  0.71220665885E+03  0.00000000000E+00 0.  1.
       21   -1    0    0  502  503 -0.00000000000E+00 -0.00000000000E+00 -0.35182680670E+03  0.35182680670E+03  0.00000000000E+00 0. -1.
       39    2    1    2    0    0  0.00000000000E+00  0.00000000000E+00  0.36037985215E+03  0.10640334656E+04  0.10011461322E+04 0.  0.
       24    2    3    3    0    0 -0.15713411655E+03 -0.27733114045E+03 -0.22067109518E+03  0.39653042041E+03  0.83288354602E+02 0.  0.
      -24    2    3    3    0    0  0.15713411655E+03  0.27733114045E+03  0.58105094733E+03  0.66750304514E+03  0.79601632099E+02 0.  0.
      -13    1    4    4    0    0 -0.54904285604E+02 -0.36485040875E+02 -0.28107988584E+02  0.71663783096E+02  0.00000000000E+00 0.  1.
       14    1    4    4    0    0 -0.10222983095E+03 -0.24084609958E+03 -0.19256310659E+03  0.32486663731E+03  0.00000000000E+00 0. -1.
        3    1    5    5  501    0  0.11355299517E+03  0.19579907308E+03  0.33175029189E+03  0.40160903364E+03  0.00000000000E+00 0. -1.
       -4    1    5    5    0  501  0.43581121380E+02  0.81532067375E+02  0.24930065544E+03  0.26589401151E+03  0.14200000000E+01 0.  1.
</event>
<event>
 9   1  0.7335000E-04  0.1007191E+04  0.7818608E-02  0.9300693E-01
       21   -1    0    0  503  502  0.00000000000E+00  0.00000000000E+00  0.52185422098E+03  0.52185422098E+03  0.00000000000E+00 0.  1.
       21   -1    0    0  502  503 -0.00000000000E+00 -0.00000000000E+00 -0.48597534501E+03  0.48597534501E+03  0.00000000000E+00 0. -1.
       39    2    1    2    0    0  0.00000000000E+00  0.00000000000E+00  0.35878875962E+02  0.10078295660E+04  0.10071907170E+04 0.  0.
       24    2    3    3    0    0 -0.31175961756E+03  0.20394462811E+03  0.34740252079E+03  0.51517949095E+03  0.77031980146E+02 0.  0.
      -24    2    3    3    0    0  0.31175961756E+03 -0.20394462811E+03 -0.31152364483E+03  0.49265007504E+03  0.82883319599E+02 0.  0.
      -13    1    4    4    0    0 -0.30405288675E+03  0.19091172527E+03  0.34803699058E+03  0.50002519097E+03  0.00000000000E+00 0.  1.
       14    1    4    4    0    0 -0.77067308106E+01  0.13032902836E+02 -0.63446978589E+00  0.15154299985E+02  0.00000000000E+00 0. -1.
        1    1    5    5  501    0  0.29529846449E+03 -0.19928769324E+03 -0.31458768109E+03  0.47527063543E+03  0.00000000000E+00 0. -1.
       -2    1    5    5    0  501  0.16461153076E+02 -0.46569348673E+01  0.30640362591E+01  0.17379439610E+02  0.00000000000E+00 0.  1.
</event>
<event>
 9   1  0.7335000E-04  0.1022882E+04  0.7818608E-02  0.9283799E-01
       21   -1    0    0  503  502  0.00000000000E+00  0.00000000000E+00  0.17438899024E+04  0.17438899024E+04  0.00000000000E+00 0. -1.
       21   -1    0    0  502  503 -0.00000000000E+00 -0.00000000000E+00 -0.14999327772E+03  0.14999327772E+03  0.00000000000E+00 0.  1.
       39    2    1    2    0    0 -0.28421709430E-13  0.14210854715E-13  0.15938966246E+04  0.18938831801E+04  0.10228817379E+04 0.  0.
       24    2    3    3    0    0 -0.20270238535E+03  0.70454590419E+02 -0.47717584771E+02  0.23635846748E+03  0.86811582834E+02 0.  0.
      -24    2    3    3    0    0  0.20270238535E+03 -0.70454590419E+02  0.16416142094E+04  0.16575247126E+04  0.80242470235E+02 0.  0.
      -13    1    4    4    0    0 -0.13186827495E+03  0.22933722986E+02 -0.65827895750E+02  0.14915934247E+03  0.00000000000E+00 0.  1.
       14    1    4    4    0    0 -0.70834110405E+02  0.47520867433E+02  0.18110310979E+02  0.87199125008E+02  0.00000000000E+00 0. -1.
        3    1    5    5  501    0  0.14624805461E+03 -0.55777803956E+02  0.14105272230E+04  0.14191852253E+04  0.00000000000E+00 0. -1.
       -4    1    5    5    0  501  0.56454330746E+02 -0.14676786463E+02  0.23108698638E+03  0.23833948727E+03  0.14200000000E+01 0.  1.
</event>
<event>
 9   1  0.7335000E-04  0.9982435E+03  0.7818608E-02  0.9310473E-01
       21   -1    0    0  503  502  0.00000000000E+00  0.00000000000E+00  0.18838407488E+03  0.18838407488E+03  0.00000000000E+00 0. -1.
       21   -1    0    0  502  503 -0.00000000000E+00 -0.00000000000E+00 -0.13224182603E+04  0.13224182603E+04  0.00000000000E+00 0.  1.
       39    2    1    2    0    0  0.00000000000E+00  0.00000000000E+00 -0.11340341854E+04  0.15108023351E+04  0.99824353854E+03 0.  0.
       24    2    3    3    0    0 -0.18498569065E+03 -0.36789252203E+03 -0.15684037897E+03  0.44734142947E+03  0.77141665336E+02 0.  0.
      -24    2    3    3    0    0  0.18498569065E+03  0.36789252203E+03 -0.97719380641E+03  0.10634609057E+04  0.80478252205E+02 0.  0.
      -13    1    4    4    0    0 -0.10864180268E+03 -0.16096152467E+03 -0.10501047776E+03  0.22076877984E+03  0.00000000000E+00 0.  1.
       14    1    4    4    0    0 -0.76343887968E+02 -0.20693099736E+03 -0.51829901215E+02  0.22657264963E+03  0.00000000000E+00 0. -1.
        1    1    5    5  501    0  0.11931625550E+03  0.24380775674E+03 -0.54178320413E+03  0.60597659307E+03  0.00000000000E+00 0. -1.
       -2    1    5    5    0  501  0.65669435151E+02  0.12408476529E+03 -0.43541060228E+03  0.45748431259E+03  0.00000000000E+00 0.  1.
</event>
<event>
 9   1  0.7335000E-04  0.1003977E+04  0.7818608E-02  0.9304193E-01
       21   -1    0    0  503  502  0.00000000000E+00  0.00000000000E+00  0.23820255737E+03  0.23820255737E+03  0.00000000000E+00 0.  1.
       21   -1    0    0  502  503 -0.00000000000E+00 -0.00000000000E+00 -0.10578921725E+04  0.10578921725E+04  0.00000000000E+00 0. -1.
       39    2    1    2    0    0  0.56843418861E-13  0.28421709430E-13 -0.81968961512E+03  0.12960947299E+04  0.10039773322E+04 0.  0.
       24    2    3    3    0    0  0.40094034591E+03  0.18664708354E+03 -0.69772974432E+03  0.83017802860E+03  0.82331453822E+02 0.  0.
      -24    2    3    3    0    0 -0.40094034591E+03 -0.18664708354E+03 -0.12195987080E+03  0.46591670126E+03  0.81325688759E+02 0.  0.
      -13    1    4    4    0    0  0.22900584873E+03  0.86394835951E+02 -0.45143713656E+03  0.51352043260E+03  0.00000000000E+00 0.  1.
       14    1    4    4    0    0  0.17193449718E+03  0.10025224759E+03 -0.24629260776E+03  0.31665759600E+03  0.00000000000E+00 0. -1.
        3    1    5    5  501    0 -0.47971135361E+02 -0.54267445295E+02 -0.13865451651E+02  0.73745753750E+02  0.00000000000E+00 0. -1.
       -4    1    5    5    0  501 -0.35296921055E+03 -0.13237963825E+03 -0.10809441915E+03  0.39217094751E+03  0.14200000000E+01 0.  1.
</event>
<event>
 9   1  0.7335000E-04  0.9950568E+03  0.7818608E-02  0.9313983E-01
       21   -1    0    0  503  502  0.00000000000E+00  0.00000000000E+00  0.64333377566E+03  0.64333377566E+03  0.00000000000E+00 0. -1.
       21   -1    0    0  502  503 -0.00000000000E+00 -0.00000000000E+00 -0.38476840900E+03  0.38476840900E+03  0.00000000000E+00 0.  1.
       39    2    1    2    0    0  0.00000000000E+00 -0.56843418861E-13  0.25856536666E+03  0.10281021847E+04  0.99505680907E+03 0.  0.
       24    2    3    3    0    0 -0.25739282139E+03 -0.29047302075E+03 -0.18132390739E+03  0.43593521917E+03  0.80842536037E+02 0.  0.
      -24    2    3    3    0    0  0.25739282139E+03  0.29047302075E+03  0.43988927404E+03  0.59216696549E+03  0.80830076806E+02 0.  0.
      -13    1    4    4    0    0 -0.20372054573E+03 -0.19326074102E+03 -0.15890725482E+03  0.32265041517E+03  0.00000000000E+00 0.  1.
       14    1    4    4    0    0 -0.53672275656E+02 -0.97212279729E+02 -0.22416652562E+02  0.11328480400E+03  0.00000000000E+00 0. -1.
        3    1    5    5  501    0  0.12032869569E+03  0.17343943664E+03  0.28405287283E+03  0.35390149441E+03  0.00000000000E+00 0. -1.
       -4    1    5    5    0  501  0.13706412570E+03  0.11703358411E+03  0.15583640122E+03  0.23826547108E+03  0.14200000000E+01 0.  1.
</event>
<event>
 9   1  0.7335000E-04  0.1003246E+04  0.7818608E-02  0.9304992E-01
       21   -1    0    0  503  502  0.00000000000E+00  0.00000000000E+00  0.54290442254E+03  0.54290442254E+03  0.00000000000E+00 0.  1.
       21   -1    0    0  502  503 -0.00000000000E+00 -0.00000000000E+00 -0.46348063797E+03  0.46348063797E+03  0.00000000000E+00 0. -1.
       39    2    1    2    0    0  0.00000000000E+00  0.00000000000E+00  0.79423784572E+02  0.10063850605E+04  0.10032461076E+04 0.  0.
       24    2    3    3    0    0 -0.23802508765E+03  0.41977482709E+03 -0.73903416542E+02  0.49479563914E+03  0.80586361889E+02 0.  0.
      -24    2    3    3    0    0  0.23802508765E+03 -0.41977482709E+03  0.15332720111E+03  0.51158942137E+03  0.73127680454E+02 0.  0.
      -13    1    4    4    0    0 -0.17007480750E+03  0.24736695641E+03 -0.15895046217E+02  0.30061354555E+03  0.00000000000E+00 0.  1.
       14    1    4    4    0    0 -0.67950280156E+02  0.17240787068E+03 -0.58008370325E+02  0.19418209359E+03  0.00000000000E+00 0. -1.
        1    1    5    5  501    0  0.46167394337E+02 -0.54265516461E+02  0.47198818344E-01  0.71247293312E+02  0.00000000000E+00 0. -1.
       -2    1    5    5    0  501  0.19185769332E+03 -0.36550931063E+03  0.15328000230E+03  0.44034212806E+03  0.00000000000E+00 0.  1.
</event>
<event>
 9   1  0.7335000E-04  0.9979643E+03  0.7818608E-02  0.9310780E-01
       21   -1    0    0  503  502  0.00000000000E+00  0.00000000000E+00  0.25491903571E+03  0.25491903571E+03  0.00000000000E+00 0.  1.
       21   -1    0    0  502  503 -0.00000000000E+00 -0.00000000000E+00 -0.97671467906E+03  0.97671467906E+03  0.00000000000E+00 0. -1.
       39    2    1    2    0    0  0.56843418861E-13  0.00000000000E+00 -0.72179564335E+03  0.12316337148E+04  0.99796425617E+03 0.  0.
       24    2    3    3    0    0 -0.34780106706E+03  0.33243992696E+03 -0.22939749713E+03  0.53916504298E+03  0.81202491307E+02 0.  0.
      -24    2    3    3    0    0  0.34780106706E+03 -0.33243992696E+03 -0.49239814622E+03  0.69246867179E+03  0.74666188601E+02 0.  0.
      -13    1    4    4    0    0 -0.66778895201E+02  0.66744806097E+02 -0.11090954268E+02  0.95064710864E+02  0.00000000000E+00 0.  1.
       14    1    4    4    0    0 -0.28102217186E+03  0.26569512086E+03 -0.21830654286E+03  0.44410033212E+03  0.00000000000E+00 0. -1.
        1    1    5    5  501    0  0.31795368967E+03 -0.28422778087E+03 -0.45949827016E+03  0.62691198782E+03  0.00000000000E+00 0. -1.
       -2    1    5    5    0  501  0.29847377395E+02 -0.48212146095E+02 -0.32899876057E+02  0.65556683969E+02  0.00000000000E+00 0.  1.
</event>
<event>
 9   1  0.7335000E-04  0.9441577E+03  0.7818608E-02  0.9372005E-01
       21   -1    0    0  503  502  0.00000000000E+00  0.00000000000E+00  0.44856367147E+03  0.44856367147E+03  0.00000000000E+00 0.  1.
       21   -1    0    0  502  503 -0.00000000000E+00 -0.00000000000E+00 -0.49682678540E+03  0.49682678540E+03  0.00000000000E+00 0. -1.
       39    2    1    2    0    0 -0.14210854715E-13  0.00000000000E+00 -0.48263113932E+02  0.94539045687E+03  0.94415771340E+03 0.  0.
       24    2    3    3    0    0 -0.60385766503E+02  0.28203187960E+03  0.34263022394E+03  0.45279818564E+03  0.66650616286E+02 0.  0.
      -24    2    3    3    0    0  0.60385766503E+02 -0.28203187960E+03 -0.39089333787E+03  0.49259227123E+03  0.81615698119E+02 0.  0.
      -13    1    4    4    0    0 -0.60729744725E+02  0.17528596564E+03  0.18159532862E+03  0.25959609978E+03  0.00000000000E+00 0.  1.
       14    1    4    4    0    0  0.34397822205E+00  0.10674591396E+03  0.16103489532E+03  0.19320208585E+03  0.00000000000E+00 0. -1.
        1    1    5    5  501    0  0.16665530798E+02 -0.96393684447E+02 -0.20057858677E+03  0.22316194073E+03  0.00000000000E+00 0. -1.
       -2    1    5    5    0  501  0.43720235704E+02 -0.18563819515E+03 -0.19031475110E+03  0.26943033050E+03  0.00000000000E+00 0.  1.
</event>
<event>
 9   1  0.7335000E-04  0.9979424E+03  0.7818608E-02  0.9310804E-01
       21   -1    0    0  503  502  0.00000000000E+00  0.00000000000E+00  0.37744081199E+03  0.37744081199E+03  0.00000000000E+00 0. -1.
       21   -1    0    0  502  503 -0.00000000000E+00 -0.00000000000E+00 -0.65963263375E+03  0.65963263375E+03  0.00000000000E+00 0.  1.
       39    2    1    2    0    0  0.00000000000E+00  0.00000000000E+00 -0.28219182176E+03  0.10370734457E+04  0.99794243702E+03 0.  0.
       24    2    3    3    0    0 -0.26648344647E+03  0.10376470219E+03 -0.55794105574E+03  0.63223641453E+03  0.81511480854E+02 0.  0.
      -24    2    3    3    0    0  0.26648344647E+03 -0.10376470219E+03  0.27574923398E+03  0.40483703122E+03  0.77941267255E+02 0.  0.
      -13    1    4    4    0    0 -0.14862338614E+03  0.38497413783E+02 -0.21858028033E+03  0.26711102696E+03  0.00000000000E+00 0.  1.
       14    1    4    4    0    0 -0.11786006033E+03  0.65267288404E+02 -0.33936077541E+03  0.36512538757E+03  0.00000000000E+00 0. -1.
        3    1    5    5  501    0  0.19522850120E+03 -0.11059944267E+03  0.21815837386E+03  0.31295284067E+03  0.00000000000E+00 0. -1.
       -4    1    5    5    0  501  0.71254945272E+02  0.68347404792E+01  0.57590860123E+02  0.91884190549E+02  0.14200000000E+01 0.  1.
</event>
<event>
 9   1  0.7335000E-04  0.9992417E+03  0.7818608E-02  0.9309377E-01
       21   -1    0    0  503  502  0.00000000000E+00  0.00000000000E+00  0.13117133016E+04  0.13117133016E+04  0.00000000000E+00 0.  1.
       21   -1    0    0  502  503 -0.00000000000E+00 -0.00000000000E+00 -0.19030149936E+03  0.19030149936E+03  0.00000000000E+00 0. -1.
       39    2    1    2    0    0  0.00000000000E+00  0.00000000000E+00  0.11214118022E+04  0.15020148009E+04  0.99924172854E+03 0.  0.
       24    2    3    3    0    0 -0.14869167268E+03  0.42443230221E+03  0.86498013602E+03  0.97818140339E+03  0.79976431254E+02 0.  0.
      -24    2    3    3    0    0  0.14869167268E+03 -0.42443230221E+03  0.25643166618E+03  0.52383339752E+03  0.79951461835E+02 0.  0.
      -13    1    4    4    0    0 -0.10885954726E+03  0.33269383376E+03  0.73568467349E+03  0.81471929329E+03  0.00000000000E+00 0.  1.
       14    1    4    4    0    0 -0.39832125425E+02  0.91738468450E+02  0.12929546253E+03  0.16346211011E+03  0.00000000000E+00 0. -1.
        1    1    5    5  501    0  0.96361862251E+02 -0.20066776797E+03  0.90082673645E+02  0.24014172834E+03  0.00000000000E+00 0. -1.
       -2    1    5    5    0  501  0.52329810432E+02 -0.22376453424E+03  0.16634899254E+03  0.28369166918E+03  0.00000000000E+00 0.  1.
</event>
<event>
 9   1  0.7335000E-04  0.9935902E+03  0.7818608E-02  0.9315603E-01
       21   -1    0    0  503  502  0.00000000000E+00  0.00000000000E+00  0.74759805679E+03  0.74759805679E+03  0.00000000000E+00 0. -1.
       21   -1    0    0  502  503 -0.00000000000E+00 -0.00000000000E+00 -0.33013109912E+03  0.33013109912E+03  0.00000000000E+00 0.  1.
       39    2    1    2    0    0  0.00000000000E+00  0.00000000000E+00  0.41746695767E+03  0.10777291559E+04  0.99359019357E+03 0.  0.
       24    2    3    3    0    0 -0.28363473132E+03  0.17469709464E+03 -0.18176122455E+03  0.38788067347E+03  0.80290338245E+02 0.  0.
      -24    2    3    3    0    0  0.28363473132E+03 -0.17469709464E+03  0.59922818221E+03  0.68984848244E+03  0.76477308283E+02 0.  0.
      -13    1    4    4    0    0 -0.26735745863E+03  0.15941989930E+03 -0.14168803969E+03  0.34200908697E+03  0.00000000000E+00 0.  1.
       14    1    4    4    0    0 -0.16277272690E+02  0.15277195333E+02 -0.40073184851E+02  0.45871586495E+02  0.00000000000E+00 0. -1.
        3    1    5    5  501    0  0.25892348814E+03 -0.15928445434E+03  0.58024531989E+03  0.65505537274E+03  0.00000000000E+00 0. -1.
       -4    1    5    5    0  501  0.24711243183E+02 -0.15412640295E+02  0.18982862321E+02  0.34793109697E+02  0.14200000000E+01 0.  1.
</event>
<event>
 9   1  0.7335000E-04  0.1011565E+04  0.7818608E-02  0.9295951E-01
       21   -1    0    0  503  502  0.00000000000E+00  0.00000000000E+00  0.54674204677E+03  0.54674204677E+03  0.00000000000E+00 0.  1.
       21   -1    0    0  502  503 -0.00000000000E+00 -0.00000000000E+00 -0.46789140176E+03  0.46789140176E+03  0.00000000000E+00 0. -1.
       39    2    1    2    0    0  0.00000000000E+00 -0.28421709430E-13  0.78850645004E+02  0.10146334485E+04  0.10115649315E+04 0.  0.
       24    2    3    3    0    0 -0.17169136825E+03  0.17880300528E+03  0.47412500003E+03  0.54157873083E+03  0.84050969050E+02 0.  0.
      -24    2    3    3    0    0  0.17169136825E+03 -0.17880300528E+03 -0.39527435503E+03  0.47305471770E+03  0.78041716824E+02 0.  0.
      -13    1    4    4    0    0 -0.61998205624E+02  0.31886069031E+02  0.75251882230E+02  0.10258335478E+03  0.00000000000E+00 0.  1.
       14    1    4    4    0    0 -0.10969316263E+03  0.14691693625E+03  0.39887311780E+03  0.43899537605E+03  0.00000000000E+00 0. -1.
        1    1    5    5  501    0  0.17414176523E+03 -0.15364429119E+03 -0.33430039837E+03  0.40704874274E+03  0.00000000000E+00 0. -1.
       -2    1    5    5    0  501 -0.24503969812E+01 -0.25158714089E+02 -0.60973956662E+02  0.66005974964E+02  0.00000000000E+00 0.  1.
</event>
<event>
 9   1  0.7335000E-04  0.1007882E+04  0.7818608E-02  0.9299942E-01
       21   -1    0    0  503  502  0.00000000000E+00  0.00000000000E+00  0.74635873184E+02  0.74635873184E+02  0.00000000000E+00 0. -1.
       21   -1    0    0  502  503 -0.00000000000E+00 -0.00000000000E+00 -0.34026050361E+04  0.34026050361E+04  0.00000000000E+00 0.  1.
       39    2    1    2    0    0  0.00000000000E+00  0.56843418861E-13 -0.33279691630E+04  0.34772409093E+04  0.10078817351E+04 0.  0.
       24    2    3    3    0    0 -0.25187822548E+03  0.38939072478E+03 -0.22847022842E+04  0.23326665946E+04  0.80007107538E+02 0.  0.
      -24    2    3    3    0    0  0.25187822548E+03 -0.38939072478E+03 -0.10432668788E+04  0.11445743147E+04  0.81097500199E+02 0.  0.
      -13    1    4    4    0    0 -0.25083617581E+03  0.35710958802E+03 -0.21730416053E+04  0.22164286281E+04  0.00000000000E+00 0.  1.
       14    1    4    4    0    0 -0.10420496632E+01  0.32281136758E+02 -0.11166067889E+03  0.11623796655E+03  0.00000000000E+00 0. -1.
        3    1    5    5  501    0  0.25147740430E+03 -0.35305687958E+03 -0.94104366276E+03  0.10360758757E+04  0.00000000000E+00 0. -1.
       -4    1    5    5    0  501  0.40082117082E+00 -0.36333845198E+02 -0.10222321600E+03  0.10849843895E+03  0.14200000000E+01 0.  1.
</event>
<event>
 9   1  0.7335000E-04  0.9978958E+03  0.7818608E-02  0.9310856E-01
       21   -1    0    0  503  502  0.00000000000E+00  0.00000000000E+00  0.99625697813E+03  0.99625697813E+03  0.00000000000E+00 0. -1.
       21   -1    0    0  502  503 -0.00000000000E+00 -0.00000000000E+00 -0.24988435151E+03  0.24988435151E+03  0.00000000000E+00 0.  1.
       39    2    1    2    0    0  0.00000000000E+00  0.71054273576E-14  0.74637262662E+03  0.12461413296E+04  0.99789584409E+03 0.  0.
       24    2    3    3    0    0 -0.22304856840E+03  0.26822132122E+02 -0.17404358636E+03  0.29543697152E+03  0.80757312663E+02 0.  0.
      -24    2    3    3    0    0  0.22304856840E+03 -0.26822132122E+02  0.92041621298E+03  0.95070435812E+03  0.78757099927E+02 0.  0.
      -13    1    4    4    0    0 -0.15613437460E+03  0.50451447307E+02 -0.14424104136E+03  0.21846914995E+03  0.00000000000E+00 0.  1.
       14    1    4    4    0    0 -0.66914193808E+02 -0.23629315184E+02 -0.29802544999E+02  0.76967821572E+02  0.00000000000E+00 0. -1.
        3    1    5    5  501    0  0.81795929241E+02 -0.48580204995E+02  0.36738988792E+03  0.37950749677E+03  0.00000000000E+00 0. -1.
       -4    1    5    5    0  501  0.14125263916E+03  0.21758072872E+02  0.55302632506E+03  0.57119686135E+03  0.14200000000E+01 0.  1.
</event>
<event>
 9   1  0.7335000E-04  0.1001510E+04  0.7818608E-02  0.9306890E-01
        1   -1    0    0  501    0  0.00000000000E+00  0.00000000000E+00  0.51842273900E+03  0.51842273900E+03  0.00000000000E+00 0. -1.
       -1   -1    0    0    0  501 -0.00000000000E+00 -0.00000000000E+00 -0.48368961062E+03  0.48368961062E+03  0.00000000000E+00 0.  1.
       39    2    1    2    0    0  0.00000000000E+00  0.00000000000E+00  0.34733128373E+02  0.10021123496E+04  0.10015102451E+04 0.  0.
       24    2    3    3    0    0 -0.17844490784E+03  0.36092544427E+03 -0.26926673680E+03  0.49122825571E+03  0.81797690714E+02 0.  0.
      -24    2    3    3    0    0  0.17844490784E+03 -0.36092544427E+03  0.30399986517E+03  0.51088409391E+03  0.80479052710E+02 0.  0.
      -13    1    4    4    0    0 -0.18518143230E+03  0.32852092135E+03 -0.23971122983E+03  0.44685527001E+03  0.00000000000E+00 0.  1.
       14    1    4    4    0    0  0.67365244569E+01  0.32404522927E+02 -0.29555506970E+02  0.44372985702E+02  0.00000000000E+00 0. -1.
        3    1    5    5  502    0  0.17392763463E+03 -0.28497045445E+03  0.25833271322E+03  0.42213122689E+03  0.00000000000E+00 0. -1.
       -4    1    5    5    0  502  0.45172732139E+01 -0.75954989825E+02  0.45667151951E+02  0.88752867018E+02  0.14200000000E+01 0.  1.
</event>
<event>
 9   1  0.7335000E-04  0.1028339E+04  0.7818608E-02  0.9277997E-01
       21   -1    0    0  503  502  0.00000000000E+00  0.00000000000E+00  0.41256033087E+03  0.41256033087E+03  0.00000000000E+00 0.  1.
       21   -1    0    0  502  503 -0.00000000000E+00 -0.00000000000E+00 -0.64080452552E+03  0.64080452552E+03  0.00000000000E+00 0. -1.
       39    2    1    2    0    0  0.11368683772E-12  0.00000000000E+00 -0.22824419465E+03  0.10533648564E+04  0.10283394908E+04 0.  0.
       24    2    3    3    0    0  0.37643037834E+03  0.18588115971E+01  0.23570364483E+03  0.45069544365E+03  0.76595625290E+02 0.  0.
      -24    2    3    3    0    0 -0.37643037834E+03 -0.18588115971E+01 -0.46394783948E+03  0.60266941275E+03  0.79117244531E+02 0.  0.
      -13    1    4    4    0    0  0.28266963571E+03  0.34177261924E+02  0.18180043025E+03  0.33781889323E+03  0.00000000000E+00 0.  1.
       14    1    4    4    0    0  0.93760742638E+02 -0.32318450327E+02  0.53903214586E+02  0.11287655042E+03  0.00000000000E+00 0. -1.
        3    1    5    5  501    0 -0.37204519977E+03 -0.11648967942E+02 -0.43957917447E+03  0.57600623239E+03  0.00000000000E+00 0. -1.
       -4    1    5    5    0  501 -0.43851785771E+01  0.97901563452E+01 -0.24368665010E+02  0.26663180358E+02  0.14200000000E+01 0.  1.
</event>
<event>
 9   1  0.7335000E-04  0.9967459E+03  0.7818608E-02  0.9312121E-01
       21   -1    0    0  503  502  0.00000000000E+00  0.00000000000E+00  0.45144579762E+03  0.45144579762E+03  0.00000000000E+00 0. -1.
       21   -1    0    0  502  503 -0.00000000000E+00 -0.00000000000E+00 -0.55017816664E+03  0.55017816664E+03  0.00000000000E+00 0.  1.
       39    2    1    2    0    0  0.00000000000E+00  0.00000000000E+00 -0.98732369020E+02  0.10016239643E+04  0.99674594812E+03 0.  0.
       24    2    3    3    0    0  0.26296846779E+03 -0.88809069891E+02 -0.45649308952E+03  0.54193355066E+03  0.90920661083E+02 0.  0.
      -24    2    3    3    0    0 -0.26296846779E+03  0.88809069891E+02  0.35776072050E+03  0.45969041360E+03  0.79265864553E+02 0.  0.
      -13    1    4    4    0    0  0.26188458770E+03 -0.70012190153E+02 -0.40732786070E+03  0.48928644999E+03  0.00000000000E+00 0.  1.
       14    1    4    4    0    0  0.10838800819E+01 -0.18796879738E+02 -0.49165228820E+02  0.52647100669E+02  0.00000000000E+00 0. -1.
        3    1    5    5  501    0 -0.18833241975E+03  0.52214272242E+02  0.19056698486E+03  0.27296740881E+03  0.00000000000E+00 0. -1.
       -4    1    5    5    0  501 -0.74636048031E+02  0.36594797649E+02  0.16719373564E+03  0.18672300479E+03  0.14200000000E+01 0.  1.
</event>
<event>
 9   1  0.7335000E-04  0.9910084E+03  0.7818608E-02  0.9318462E-01
       21   -1    0    0  503  502  0.00000000000E+00  0.00000000000E+00  0.91198764844E+03  0.91198764844E+03  0.00000000000E+00 0. -1.
       21   -1    0    0  502  503 -0.00000000000E+00 -0.00000000000E+00 -0.26921901737E+03  0.26921901737E+03  0.00000000000E+00 0.  1.
       39    2    1    2    0    0  0.00000000000E+00  0.00000000000E+00  0.64276863107E+03  0.11812066658E+04  0.99100841281E+03 0.  0.
       24    2    3    3    0    0 -0.10283436878E+03  0.17831237415E+03 -0.20720410285E+03  0.30304688223E+03  0.80831073303E+02 0.  0.
      -24    2    3    3    0    0  0.10283436878E+03 -0.17831237415E+03  0.84997273392E+03  0.87815978358E+03  0.79628807027E+02 0.  0.
      -13    1    4    4    0    0 -0.83180900190E+02  0.14859251655E+03 -0.20616661975E+03  0.26740133364E+03  0.00000000000E+00 0.  1.
       14    1    4    4    0    0 -0.19653468588E+02  0.29719857597E+02 -0.10374831043E+01  0.35645548591E+02  0.00000000000E+00 0. -1.
        1    1    5    5  501    0  0.10406412103E+03 -0.17609525758E+03  0.85113675340E+03  0.87537000978E+03  0.00000000000E+00 0. -1.
       -2    1    5    5    0  501 -0.12297522556E+01 -0.22171165674E+01 -0.11640194828E+01  0.27897737973E+01  0.00000000000E+00 0.  1.
</event>
<event>
 9   1  0.7335000E-04  0.9973935E+03  0.7818608E-02  0.9311408E-01
       21   -1    0    0  503  502  0.00000000000E+00  0.00000000000E+00  0.84934883431E+03  0.84934883431E+03  0.00000000000E+00 0. -1.
       21   -1    0    0  502  503 -0.00000000000E+00 -0.00000000000E+00 -0.29281071977E+03  0.29281071977E+03  0.00000000000E+00 0.  1.
       39    2    1    2    0    0  0.28421709430E-13  0.00000000000E+00  0.55653811455E+03  0.11421595541E+04  0.99739349007E+03 0.  0.
       24    2    3    3    0    0  0.20036863717E+03 -0.39048636617E+03  0.52954794455E+03  0.69520444183E+03  0.10129658158E+03 0.  0.
      -24    2    3    3    0    0 -0.20036863717E+03  0.39048636617E+03  0.26990169997E+02  0.44695511225E+03  0.80082520995E+02 0.  0.
      -13    1    4    4    0    0  0.66505665696E+02 -0.57072265376E+02  0.71785690765E+02  0.11328474056E+03  0.00000000000E+00 0.  1.
       14    1    4    4    0    0  0.13386297147E+03 -0.33341410079E+03  0.45776225379E+03  0.58191970127E+03  0.00000000000E+00 0. -1.
        3    1    5    5  501    0 -0.55506017517E+02  0.15551902598E+03 -0.22055967942E+02  0.16659397092E+03  0.00000000000E+00 0. -1.
       -4    1    5    5    0  501 -0.14486261965E+03  0.23496734018E+03  0.49046137939E+02  0.28036114133E+03  0.14200000000E+01 0.  1.
</event>
<event>
 9   1  0.7335000E-04  0.1031938E+04  0.7818608E-02  0.9274193E-01
       -1   -1    0    0    0  501 -0.00000000000E+00  0.00000000000E+00  0.45367320448E+03  0.45367320448E+03  0.00000000000E+00 0.  1.
        1   -1    0    0  501    0  0.00000000000E+00 -0.00000000000E+00 -0.58681861653E+03  0.58681861653E+03  0.00000000000E+00 0. -1.
       39    2    1    2    0    0 -0.56843418861E-13  0.00000000000E+00 -0.13314541205E+03  0.10404918210E+04  0.10319377543E+04 0.  0.
       24    2    3    3    0    0 -0.28470316518E+03 -0.23272796026E+03 -0.42232969334E+03  0.56582168677E+03  0.81077836576E+02 0.  0.
      -24    2    3    3    0    0  0.28470316518E+03  0.23272796026E+03  0.28918428129E+03  0.47467013424E+03  0.80411392472E+02 0.  0.
      -13    1    4    4    0    0 -0.16117515079E+03 -0.10736667768E+03 -0.16706073716E+03  0.25576223843E+03  0.00000000000E+00 0.  1.
       14    1    4    4    0    0 -0.12352801440E+03 -0.12536128258E+03 -0.25526895618E+03  0.31005944833E+03  0.00000000000E+00 0. -1.
        3    1    5    5  502    0  0.82441479815E+02  0.54747420382E+02  0.12396265152E+03  0.15862098413E+03  0.00000000000E+00 0. -1.
       -4    1    5    5    0  502  0.20226168537E+03  0.17798053988E+03  0.16522162977E+03  0.31604915011E+03  0.14200000000E+01 0.  1.
</event>
<event>
 9   1  0.7335000E-04  0.1004044E+04  0.7818608E-02  0.9304121E-01
       21   -1    0    0  503  502  0.00000000000E+00  0.00000000000E+00  0.74415157885E+03  0.74415157885E+03  0.00000000000E+00 0.  1.
       21   -1    0    0  502  503 -0.00000000000E+00 -0.00000000000E+00 -0.33867569540E+03  0.33867569540E+03  0.00000000000E+00 0. -1.
       39    2    1    2    0    0  0.00000000000E+00  0.00000000000E+00  0.40547588344E+03  0.10828272743E+04  0.10040439302E+04 0.  0.
       24    2    3    3    0    0  0.27653320087E+03  0.33115626342E+03  0.46339740779E+03  0.64016633489E+03  0.94555257913E+02 0.  0.
      -24    2    3    3    0    0 -0.27653320087E+03 -0.33115626342E+03 -0.57921524346E+02  0.44266093936E+03  0.80366176170E+02 0.  0.
      -13    1    4    4    0    0  0.23228384385E+03  0.27748529909E+03  0.43285586834E+03  0.56419684338E+03  0.00000000000E+00 0.  1.
       14    1    4    4    0    0  0.44249357016E+02  0.53670964331E+02  0.30541539451E+02  0.75969491512E+02  0.00000000000E+00 0. -1.
        3    1    5    5  501    0 -0.28017264976E+03 -0.32184590930E+03 -0.63038876999E+02  0.43134139961E+03  0.00000000000E+00 0. -1.
       -4    1    5    5    0  501  0.36394488896E+01 -0.93103541197E+01  0.51173526529E+01  0.11319539753E+02  0.14200000000E+01 0.  1.
</event>
<event>
 8   1  0.7335000E-04  0.7652695E+03  0.7818608E-02  0.9611695E-01
       21   -1    0    0  503  502  0.00000000000E+00  0.00000000000E+00  0.12218202203E+04  0.12218202203E+04  0.00000000000E+00 0. -1.
       21   -1    0    0  502  503 -0.00000000000E+00 -0.00000000000E+00 -0.11982889308E+03  0.11982889308E+03  0.00000000000E+00 0.  1.
       24    2    1    2    0    0  0.28574869379E+03  0.37577133635E+01  0.12685931668E+03  0.32240080021E+03  0.78629214257E+02 0.  0.
      -24    2    1    2    0    0 -0.28574869379E+03 -0.37577133635E+01  0.97513201056E+03  0.10192483132E+04  0.79487417207E+02 0.  0.
      -13    1    3    3    0    0  0.24829605744E+03 -0.16036804059E-01  0.77067268476E+02  0.25998133831E+03  0.00000000000E+00 0.  1.
       14    1    3    3    0    0  0.37452636346E+02  0.37737501675E+01  0.49792048200E+02  0.62419461897E+02  0.00000000000E+00 0. -1.
        3    1    4    4  501    0 -0.24553480449E+03 -0.34160576985E+01  0.91118745841E+03  0.94369571051E+03  0.00000000000E+00 0. -1.
       -4    1    4    4    0  501 -0.40213889304E+02 -0.34165566501E+00  0.63944552153E+02  0.75552602679E+02  0.14200000000E+01 0.  1.
</event>
<event>
 9   1  0.7335000E-04  0.1046760E+04  0.7818608E-02  0.9258695E-01
       21   -1    0    0  503  502  0.00000000000E+00  0.00000000000E+00  0.53229536237E+03  0.53229536237E+03  0.00000000000E+00 0. -1.
       21   -1    0    0  502  503 -0.00000000000E+00 -0.00000000000E+00 -0.51461414060E+03  0.51461414060E+03  0.00000000000E+00 0.  1.
       39    2    1    2    0    0  0.00000000000E+00  0.00000000000E+00  0.17681221776E+02  0.10469095030E+04  0.10467601835E+04 0.  0.
       24    2    3    3    0    0 -0.35879220383E+03  0.21044710572E+03  0.31664951768E+03  0.52891830015E+03  0.80422766395E+02 0.  0.
      -24    2    3    3    0    0  0.35879220383E+03 -0.21044710572E+03 -0.29896829590E+03  0.51799120282E+03  0.76896127371E+02 0.  0.
      -13    1    4    4    0    0 -0.42820519672E+02  0.44469892863E+02  0.78415584176E+02  0.99800661911E+02  0.00000000000E+00 0.  1.
       14    1    4    4    0    0 -0.31597168416E+03  0.16597721286E+03  0.23823393350E+03  0.42911763824E+03  0.00000000000E+00 0. -1.
        1    1    5    5  501    0  0.69349291634E+02 -0.38938131956E+02 -0.22847640955E+02  0.82749725484E+02  0.00000000000E+00 0. -1.
       -2    1    5    5    0  501  0.28944291220E+03 -0.17150897376E+03 -0.27612065495E+03  0.43524147733E+03  0.00000000000E+00 0.  1.
</event>
<event>
 9   1  0.7335000E-04  0.1006512E+04  0.7818608E-02  0.9301431E-01
       21   -1    0    0  503  502  0.00000000000E+00  0.00000000000E+00  0.30301268425E+03  0.30301268425E+03  0.00000000000E+00 0.  1.
       21   -1    0    0  502  503 -0.00000000000E+00 -0.00000000000E+00 -0.83582821918E+03  0.83582821918E+03  0.00000000000E+00 0. -1.
       39    2    1    2    0    0 -0.28421709430E-13  0.00000000000E+00 -0.53281553493E+03  0.11388409034E+04  0.10065119021E+04 0.  0.
       24    2    3    3    0    0  0.13119091685E+03 -0.38525907082E+03  0.54121636146E+02  0.41827806549E+03  0.79948610131E+02 0.  0.
      -24    2    3    3    0    0 -0.13119091685E+03  0.38525907082E+03 -0.58693717107E+03  0.72056283793E+03  0.95288783749E+02 0.  0.
      -13    1    4    4    0    0  0.12148286404E+03 -0.37325853375E+03  0.66960762484E+02  0.39820065668E+03  0.00000000000E+00 0.  1.
       14    1    4    4    0    0  0.97080528144E+01 -0.12000537071E+02 -0.12839126338E+02  0.20077408811E+02  0.00000000000E+00 0. -1.
        3    1    5    5  501    0 -0.80308908384E+02  0.30070623345E+03 -0.50042407308E+03  0.58931995768E+03  0.00000000000E+00 0. -1.
       -4    1    5    5    0  501 -0.50882008467E+02  0.84552837365E+02 -0.86513097996E+02  0.13124288025E+03  0.14200000000E+01 0.  1.
</event>
<event>
 9   1  0.7335000E-04  0.1001097E+04  0.7818608E-02  0.9307343E-01
       21   -1    0    0  503  502  0.00000000000E+00  0.00000000000E+00  0.40857848943E+03  0.40857848943E+03  0.00000000000E+00 0.  1.
       21   -1    0    0  502  503 -0.00000000000E+00 -0.00000000000E+00 -0.61322064447E+03  0.61322064447E+03  0.00000000000E+00 0. -1.
       39    2    1    2    0    0  0.00000000000E+00  0.00000000000E+00 -0.20464215504E+03  0.10217991339E+04  0.10010969276E+04 0.  0.
       24    2    3    3    0    0  0.13581341001E+03 -0.45880624088E+03  0.24385563935E+02  0.48549387501E+03  0.78493298653E+02 0.  0.
      -24    2    3    3    0    0 -0.13581341001E+03  0.45880624088E+03 -0.22902771898E+03  0.53630525889E+03  0.78874492938E+02 0.  0.
      -13    1    4    4    0    0  0.43945854953E+02 -0.24176759120E+03  0.41431564912E+02  0.24919747369E+03  0.00000000000E+00 0.  1.
       14    1    4    4    0    0  0.91867555058E+02 -0.21703864969E+03 -0.17046000977E+02  0.23629640133E+03  0.00000000000E+00 0. -1.
        3    1    5    5  501    0 -0.13085283773E+03  0.31951283998E+03 -0.17141892796E+03  0.38548069850E+03  0.00000000000E+00 0. -1.
       -4    1    5    5    0  501 -0.49605722795E+01  0.13929340090E+03 -0.57608791021E+02  0.15082456039E+03  0.14200000000E+01 0.  1.
</event>
<event>
 9   1  0.7335000E-04  0.1015971E+04  0.7818608E-02  0.9291199E-01
       21   -1    0    0  503  502  0.00000000000E+00  0.00000000000E+00  0.42271908748E+03  0.42271908748E+03  0.00000000000E+00 0. -1.
       21   -1    0    0  502  503 -0.00000000000E+00 -0.00000000000E+00 -0.61045145968E+03  0.61045145968E+03  0.00000000000E+00 0.  1.
       39    2    1    2    0    0  0.28421709430E-13  0.00000000000E+00 -0.18773237221E+03  0.10331705472E+04  0.10159714248E+04 0.  0.
       24    2    3    3    0    0  0.18256176703E+03 -0.81756024505E+02 -0.56194052610E+03  0.60128426196E+03  0.75846967523E+02 0.  0.
      -24    2    3    3    0    0 -0.18256176703E+03  0.81756024505E+02  0.37420815390E+03  0.43188628519E+03  0.80505742478E+02 0.  0.
      -13    1    4    4    0    0  0.17223832748E+03 -0.49084700886E+02 -0.48681878529E+03  0.51871753299E+03  0.00000000000E+00 0.  1.
       14    1    4    4    0    0  0.10323439546E+02 -0.32671323619E+02 -0.75121740814E+02  0.82566728978E+02  0.00000000000E+00 0. -1.
        3    1    5    5  501    0 -0.16486182759E+03  0.94661624673E+02  0.30611551632E+03  0.36034282942E+03  0.00000000000E+00 0. -1.
       -4    1    5    5    0  501 -0.17699939438E+02 -0.12905600168E+02  0.68092637582E+02  0.71543455779E+02  0.14200000000E+01 0.  1.
</event>
<event>
 9   1  0.7335000E-04  0.9987505E+03  0.7818608E-02  0.9309916E-01
        2   -1    0    0  501    0  0.00000000000E+00  0.00000000000E+00  0.30831792216E+04  0.30831792216E+04  0.00000000000E+00 0. -1.
       -2   -1    0    0    0  501 -0.00000000000E+00 -0.00000000000E+00 -0.80882627789E+02  0.80882627789E+02  0.00000000000E+00 0.  1.
       39    2    1    2    0    0  0.17763568394E-14 -0.11368683772E-12  0.30022965938E+04  0.31640618494E+04  0.99875049414E+03 0.  0.
       24    2    3    3    0    0  0.15086917569E+02 -0.45319675104E+03  0.89242968766E+03  0.10045299009E+04  0.83872905213E+02 0.  0.
      -24    2    3    3    0    0 -0.15086917569E+02  0.45319675104E+03  0.21098669061E+04  0.21595319484E+04  0.80155875964E+02 0.  0.
      -13    1    4    4    0    0 -0.17239819845E+02 -0.15910256159E+03  0.24411999551E+03  0.29189965518E+03  0.00000000000E+00 0.  1.
       14    1    4    4    0    0  0.32326737414E+02 -0.29409418946E+03  0.64830969215E+03  0.71263024575E+03  0.00000000000E+00 0. -1.
        3    1    5    5  502    0 -0.12067989194E+02  0.45396377780E+03  0.20559678754E+04  0.21055243177E+04  0.00000000000E+00 0. -1.
       -4    1    5    5    0  502 -0.30189283755E+01 -0.76702676017E+00  0.53899030730E+02  0.54007630686E+02  0.14200000000E+01 0.  1.
</event>
<event>
 9   1  0.7335000E-04  0.1001496E+04  0.7818608E-02  0.9306906E-01
       21   -1    0    0  503  502  0.00000000000E+00  0.00000000000E+00  0.49971657108E+03  0.49971657108E+03  0.00000000000E+00 0.  1.
       21   -1    0    0  502  503 -0.00000000000E+00 -0.00000000000E+00 -0.50178133357E+03  0.50178133357E+03  0.00000000000E+00 0. -1.
       39    2    1    2    0    0  0.00000000000E+00 -0.56843418861E-13 -0.20647624882E+01  0.10014979047E+04  0.10014957762E+04 0.  0.
       24    2    3    3    0    0  0.28773258345E+03 -0.27000315564E+03 -0.29827136285E+03  0.50085517639E+03  0.78729652505E+02 0.  0.
      -24    2    3    3    0    0 -0.28773258345E+03  0.27000315564E+03  0.29620660036E+03  0.50064272827E+03  0.84929662882E+02 0.  0.
      -13    1    4    4    0    0  0.21530116516E+03 -0.15746174892E+03 -0.17594971260E+03  0.31954200890E+03  0.00000000000E+00 0.  1.
       14    1    4    4    0    0  0.72431418289E+02 -0.11254140672E+03 -0.12232165025E+03  0.18131316748E+03  0.00000000000E+00 0. -1.
        3    1    5    5  501    0 -0.11519333990E+03  0.14897462778E+03  0.10258372382E+03  0.21444431835E+03  0.00000000000E+00 0. -1.
       -4    1    5    5    0  501 -0.17253924355E+03  0.12102852786E+03  0.19362287655E+03  0.28619840992E+03  0.14200000000E+01 0.  1.
</event>
<event>
 9   1  0.7335000E-04  0.1005889E+04  0.7818608E-02  0.9302109E-01
       21   -1    0    0  503  502  0.00000000000E+00  0.00000000000E+00  0.14391353486E+03  0.14391353486E+03  0.00000000000E+00 0.  1.
       21   -1    0    0  502  503 -0.00000000000E+00 -0.00000000000E+00 -0.17576759859E+04  0.17576759859E+04  0.00000000000E+00 0. -1.
       39    2    1    2    0    0 -0.11368683772E-12  0.00000000000E+00 -0.16137624511E+04  0.19015895208E+04  0.10058893861E+04 0.  0.
       24    2    3    3    0    0 -0.37981713515E+03  0.30709264393E+03 -0.63726227351E+03  0.80676049645E+03  0.78691456154E+02 0.  0.
      -24    2    3    3    0    0  0.37981713515E+03 -0.30709264393E+03 -0.97650017757E+03  0.10948290244E+04  0.80814897640E+02 0.  0.
      -13    1    4    4    0    0 -0.33924339600E+03  0.28474005549E+03 -0.60708205867E+03  0.75147295819E+03  0.00000000000E+00 0.  1.
       14    1    4    4    0    0 -0.40573739150E+02  0.22352588439E+02 -0.30180214847E+02  0.55287538258E+02  0.00000000000E+00 0. -1.
        3    1    5    5  501    0  0.29503064879E+03 -0.19294249106E+03 -0.67679149764E+03  0.76309673034E+03  0.00000000000E+00 0. -1.
       -4    1    5    5    0  501  0.84786486362E+02 -0.11415015287E+03 -0.29970867994E+03  0.33173229402E+03  0.14200000000E+01 0.  1.
</event>
<event>
 9   1  0.7335000E-04  0.1000526E+04  0.7818608E-02  0.9307968E-01
       21   -1    0    0  503  502  0.00000000000E+00  0.00000000000E+00  0.53170163162E+03  0.53170163162E+03  0.00000000000E+00 0. -1.
       21   -1    0    0  502  503 -0.00000000000E+00 -0.00000000000E+00 -0.47068356982E+03  0.47068356982E+03  0.00000000000E+00 0.  1.
       39    2    1    2    0    0  0.28421709430E-13  0.00000000000E+00  0.61018061792E+02  0.10023852014E+04  0.10005263056E+04 0.  0.
       24    2    3    3    0    0  0.15486985135E+03  0.27636080302E+03  0.40947048923E+03  0.52414544213E+03  0.81868178496E+02 0.  0.
      -24    2    3    3    0    0 -0.15486985135E+03 -0.27636080302E+03 -0.34845242744E+03  0.47823975932E+03  0.83271897429E+02 0.  0.
      -13    1    4    4    0    0 -0.91084076837E+01  0.26841559318E+02  0.29668442517E+02  0.41032290681E+02  0.00000000000E+00 0.  1.
       14    1    4    4    0    0  0.16397825904E+03  0.24951924370E+03  0.37980204671E+03  0.48311315145E+03  0.00000000000E+00 0. -1.
        3    1    5    5  501    0 -0.35597213600E+02 -0.13984061929E+03 -0.18067900918E+03  0.23123032841E+03  0.00000000000E+00 0. -1.
       -4    1    5    5    0  501 -0.11927263775E+03 -0.13652018373E+03 -0.16777341826E+03  0.24700943090E+03  0.14200000000E+01 0.  1.
</event>
<event>
 9   1  0.7335000E-04  0.9950287E+03  0.7818608E-02  0.9314014E-01
       21   -1    0    0  503  502  0.00000000000E+00  0.00000000000E+00  0.11168848938E+04  0.11168848938E+04  0.00000000000E+00 0. -1.
       21   -1    0    0  502  503 -0.00000000000E+00 -0.00000000000E+00 -0.22161687561E+03  0.22161687561E+03  0.00000000000E+00 0.  1.
       39    2    1    2    0    0 -0.56843418861E-13  0.00000000000E+00  0.89526801823E+03  0.13385017694E+04  0.99502872438E+03 0.  0.
       24    2    3    3    0    0  0.32175654220E+03  0.24100301405E+03  0.82677021431E+03  0.92285635591E+03  0.80654455284E+02 0.  0.
      -24    2    3    3    0    0 -0.32175654220E+03 -0.24100301405E+03  0.68497803919E+02  0.41564541353E+03  0.80370612918E+02 0.  0.
      -13    1    4    4    0    0  0.29178178564E+03  0.20304985905E+03  0.66549965662E+03  0.75449032376E+03  0.00000000000E+00 0.  1.
       14    1    4    4    0    0  0.29974756558E+02  0.37953154992E+02  0.16127055769E+03  0.16836603215E+03  0.00000000000E+00 0. -1.
        3    1    5    5  501    0 -0.71474648808E+02 -0.95770563767E+02  0.33878484960E+02  0.12421102225E+03  0.00000000000E+00 0. -1.
       -4    1    5    5    0  501 -0.25028189339E+03 -0.14523245028E+03  0.34619318960E+02  0.29143439128E+03  0.14200000000E+01 0.  1.
</event>
<event>
 9   1  0.7335000E-04  0.1001233E+04  0.7818608E-02  0.9307194E-01
       -2   -1    0    0    0  501 -0.00000000000E+00  0.00000000000E+00  0.10148152573E+03  0.10148152573E+03  0.00000000000E+00 0. -1.
        2   -1    0    0  501    0  0.00000000000E+00 -0.00000000000E+00 -0.24695789001E+04  0.24695789001E+04  0.00000000000E+00 0.  1.
       39    2    1    2    0    0  0.28421709430E-13  0.00000000000E+00 -0.23680973744E+04  0.25710604258E+04  0.10012325098E+04 0.  0.
       24    2    3    3    0    0  0.24113093153E+03 -0.35868622777E+03 -0.17965528707E+04  0.18495510380E+04  0.80230224286E+02 0.  0.
      -24    2    3    3    0    0 -0.24113093153E+03  0.35868622777E+03 -0.57154450369E+03  0.72150938783E+03  0.84337067091E+02 0.  0.
      -13    1    4    4    0    0  0.18767935179E+03 -0.21147126805E+03 -0.11842573026E+04  0.12175421944E+04  0.00000000000E+00 0.  1.
       14    1    4    4    0    0  0.53451579738E+02 -0.14721495973E+03 -0.61229556806E+03  0.63200884361E+03  0.00000000000E+00 0. -1.
        1    1    5    5  502    0 -0.17219251531E+03  0.24071435160E+03 -0.45018607487E+03  0.53875891027E+03  0.00000000000E+00 0. -1.
       -2    1    5    5    0  502 -0.68938416220E+02  0.11797187617E+03 -0.12135842882E+03  0.18275047755E+03  0.00000000000E+00 0.  1.
</event>
<event>
 9   1  0.7335000E-04  0.9888124E+03  0.7818608E-02  0.9320901E-01
       21   -1    0    0  503  502  0.00000000000E+00  0.00000000000E+00  0.79409678910E+03  0.79409678910E+03  0.00000000000E+00 0. -1.
       21   -1    0    0  502  503 -0.00000000000E+00 -0.00000000000E+00 -0.30781825432E+03  0.30781825432E+03  0.00000000000E+00 0.  1.
       39    2    1    2    0    0  0.00000000000E+00  0.28421709430E-13  0.48627853478E+03  0.11019150434E+04  0.98881239349E+03 0.  0.
       24    2    3    3    0    0 -0.41825816662E+03  0.21015563010E+03  0.39633609230E+03  0.61862882782E+03  0.80709638505E+02 0.  0.
      -24    2    3    3    0    0  0.41825816662E+03 -0.21015563010E+03  0.89942442479E+02  0.48328621559E+03  0.79816291652E+02 0.  0.
      -13    1    4    4    0    0 -0.14428713274E+03  0.10234270376E+03  0.11230690291E+03  0.20953674171E+03  0.00000000000E+00 0.  1.
       14    1    4    4    0    0 -0.27397103388E+03  0.10781292634E+03  0.28402918939E+03  0.40909208611E+03  0.00000000000E+00 0. -1.
        3    1    5    5  501    0  0.70845033659E+01 -0.19068674044E+02 -0.26653291116E+01  0.20516054616E+02  0.00000000000E+00 0. -1.
       -4    1    5    5    0  501  0.41117366326E+03 -0.19108695605E+03  0.92607771590E+02  0.46277016098E+03  0.14200000000E+01 0.  1.
</event>
<event>
 9   1  0.7335000E-04  0.9967877E+03  0.7818608E-02  0.9312075E-01
       21   -1    0    0  503  502  0.00000000000E+00  0.00000000000E+00  0.10857100247E+04  0.10857100247E+04  0.00000000000E+00 0. -1.
       21   -1    0    0  502  503 -0.00000000000E+00 -0.00000000000E+00 -0.22878707431E+03  0.22878707431E+03  0.00000000000E+00 0.  1.
       39    2    1    2    0    0  0.56843418861E-13  0.00000000000E+00  0.85692295035E+03  0.13144970990E+04  0.99678768068E+03 0.  0.
       24    2    3    3    0    0 -0.32528494478E+03 -0.19521536575E+03  0.16942663291E+02  0.38909752092E+03  0.84796772474E+02 0.  0.
      -24    2    3    3    0    0  0.32528494478E+03  0.19521536575E+03  0.83998028706E+03  0.92539957805E+03  0.82934685656E+02 0.  0.
      -13    1    4    4    0    0 -0.27007866865E+03 -0.17454381966E+03 -0.15245959600E+02  0.32193240210E+03  0.00000000000E+00 0.  1.
       14    1    4    4    0    0 -0.55206276128E+02 -0.20671546090E+02  0.32188622891E+02  0.67165118814E+02  0.00000000000E+00 0. -1.
        3    1    5    5  501    0  0.28974770458E+03  0.13934782300E+03  0.67655475792E+03  0.74906467581E+03  0.00000000000E+00 0. -1.
       -4    1    5    5    0  501  0.35537240200E+02  0.55867542743E+02  0.16342552915E+03  0.17633490224E+03  0.14200000000E+01 0.  1.
</event>
<event>
 9   1  0.7335000E-04  0.9949950E+03  0.7818608E-02  0.9314051E-01
       21   -1    0    0  503  502  0.00000000000E+00  0.00000000000E+00  0.36828180122E+03  0.36828180122E+03  0.00000000000E+00 0.  1.
       21   -1    0    0  502  503 -0.00000000000E+00 -0.00000000000E+00 -0.67204990644E+03  0.67204990644E+03  0.00000000000E+00 0. -1.
       39    2    1    2    0    0  0.56843418861E-13 -0.71054273576E-14 -0.30376810522E+03  0.10403317077E+04  0.99499497496E+03 0.  0.
       24    2    3    3    0    0  0.33034611741E+03 -0.46937102707E+02 -0.52875750876E+03  0.63012110252E+03  0.78335508364E+02 0.  0.
      -24    2    3    3    0    0 -0.33034611741E+03  0.46937102707E+02  0.22498940354E+03  0.41021060513E+03  0.79503836148E+02 0.  0.
      -13    1    4    4    0    0  0.97526589304E+02 -0.42960807799E+02 -0.20853504646E+03  0.23418781401E+03  0.00000000000E+00 0.  1.
       14    1    4    4    0    0  0.23281952811E+03 -0.39762949084E+01 -0.32022246230E+03  0.39593328851E+03  0.00000000000E+00 0. -1.
        1    1    5    5  501    0 -0.71526698575E+02  0.16416829387E+02  0.91824812178E+02  0.11754733952E+03  0.00000000000E+00 0. -1.
       -2    1    5    5    0  501 -0.25881941883E+03  0.30520273320E+02  0.13316459136E+03  0.29266326562E+03  0.00000000000E+00 0.  1.
</event>
<event>
 9   1  0.7335000E-04  0.9994242E+03  0.7818608E-02  0.9309177E-01
        2   -1    0    0  501    0  0.00000000000E+00  0.00000000000E+00  0.32020111641E+04  0.32020111641E+04  0.00000000000E+00 0.  1.
       -2   -1    0    0    0  501 -0.00000000000E+00 -0.00000000000E+00 -0.77986041831E+02  0.77986041831E+02  0.00000000000E+00 0. -1.
       39    2    1    2    0    0 -0.56843418861E-13  0.56843418861E-13  0.31240251222E+04  0.32799972059E+04  0.99942418739E+03 0.  0.
       24    2    3    3    0    0  0.37762256806E+03  0.17657628787E+03  0.69429243945E+03  0.81352132521E+03  0.77440078460E+02 0.  0.
      -24    2    3    3    0    0 -0.37762256806E+03 -0.17657628787E+03  0.24297326828E+04  0.24664758807E+04  0.78258359674E+02 0.  0.
      -13    1    4    4    0    0  0.10889058106E+03  0.16620524357E+02  0.15584701389E+03  0.19084468086E+03  0.00000000000E+00 0.  1.
       14    1    4    4    0    0  0.26873198700E+03  0.15995576351E+03  0.53844542556E+03  0.62267664435E+03  0.00000000000E+00 0. -1.
        1    1    5    5  502    0 -0.23735559630E+03 -0.11295111199E+03  0.17409422111E+04  0.17606747045E+04  0.00000000000E+00 0. -1.
       -2    1    5    5    0  502 -0.14026697176E+03 -0.63625175882E+02  0.68879047173E+03  0.70580117620E+03  0.00000000000E+00 0.  1.
</event>
<event>
 9   1  0.7335000E-04  0.9928076E+03  0.7818608E-02  0.9316469E-01
       21   -1    0    0  503  502  0.00000000000E+00  0.00000000000E+00  0.17653108941E+03  0.17653108941E+03  0.00000000000E+00 0. -1.
       21   -1    0    0  502  503 -0.00000000000E+00 -0.00000000000E+00 -0.13958828760E+04  0.13958828760E+04  0.00000000000E+00 0.  1.
       39    2    1    2    0    0 -0.56843418861E-13 -0.28421709430E-13 -0.12193517866E+04  0.15724139654E+04  0.99280758415E+03 0.  0.
       24    2    3    3    0    0 -0.37536579270E+03 -0.15528061091E+03 -0.17438174589E+03  0.44828802487E+03  0.74442014271E+02 0.  0.
      -24    2    3    3    0    0  0.37536579270E+03  0.15528061091E+03 -0.10449700407E+04  0.11241259405E+04  0.81763058697E+02 0.  0.
      -13    1    4    4    0    0 -0.42824837690E+02 -0.10598257173E+02 -0.45602130868E+02  0.63449539935E+02  0.00000000000E+00 0.  1.
       14    1    4    4    0    0 -0.33254095501E+03 -0.14468235374E+03 -0.12877961502E+03  0.38483848494E+03  0.00000000000E+00 0. -1.
        3    1    5    5  501    0  0.23655340292E+03  0.77168706030E+02 -0.53869503062E+03  0.59338424115E+03  0.00000000000E+00 0. -1.
       -4    1    5    5    0  501  0.13881238978E+03  0.78111904883E+02 -0.50627501005E+03  0.53074169936E+03  0.14200000000E+01 0.  1.
</event>
<event>
 9   1  0.7335000E-04  0.9985778E+03  0.7818608E-02  0.9310106E-01
       21   -1    0    0  503  502  0.00000000000E+00  0.00000000000E+00  0.55635899832E+03  0.55635899832E+03  0.00000000000E+00 0.  1.
       21   -1    0    0  502  503 -0.00000000000E+00 -0.00000000000E+00 -0.44807290745E+03  0.44807290745E+03  0.00000000000E+00 0. -1.
       39    2    1    2    0    0 -0.28421709430E-13 -0.28421709430E-13  0.10828609087E+03  0.10044319058E+04  0.99857777657E+03 0.  0.
       24    2    3    3    0    0  0.22054989594E+03  0.24669075841E+03 -0.31269698276E+03  0.46246117260E+03  0.81193264808E+02 0.  0.
      -24    2    3    3    0    0 -0.22054989594E+03 -0.24669075841E+03  0.42098307363E+03  0.54197073318E+03  0.83707469525E+02 0.  0.
      -13    1    4    4    0    0  0.35805006226E+02  0.75094155190E+01 -0.19808578365E+02  0.41602518783E+02  0.00000000000E+00 0.  1.
       14    1    4    4    0    0  0.18474488972E+03  0.23918134289E+03 -0.29288840439E+03  0.42085865381E+03  0.00000000000E+00 0. -1.
        1    1    5    5  501    0 -0.88665567657E+02 -0.10011881814E+03  0.10727516062E+03  0.17144480371E+03  0.00000000000E+00 0. -1.
       -2    1    5    5    0  501 -0.13188432829E+03 -0.14657194027E+03  0.31370791301E+03  0.37052592947E+03  0.00000000000E+00 0.  1.
</event>
<event>
 9   1  0.7335000E-04  0.1002923E+04  0.7818608E-02  0.9305344E-01
       21   -1    0    0  503  502  0.00000000000E+00  0.00000000000E+00  0.83599658608E+03  0.83599658608E+03  0.00000000000E+00 0. -1.
       21   -1    0    0  502  503 -0.00000000000E+00 -0.00000000000E+00 -0.30079521346E+03  0.30079521346E+03  0.00000000000E+00 0.  1.
       39    2    1    2    0    0  0.00000000000E+00  0.00000000000E+00  0.53520137262E+03  0.11367917995E+04  0.10029232704E+04 0.  0.
       24    2    3    3    0    0 -0.29099425470E+03  0.45900312227E+02  0.71863288231E+03  0.78085899653E+03  0.80765450490E+02 0.  0.
      -24    2    3    3    0    0  0.29099425470E+03 -0.45900312227E+02 -0.18343150968E+03  0.35593280301E+03  0.79098334898E+02 0.  0.
      -13    1    4    4    0    0 -0.15441606395E+03 -0.14699158545E+02  0.33555448838E+03  0.36967174728E+03  0.00000000000E+00 0.  1.
       14    1    4    4    0    0 -0.13657819075E+03  0.60599470771E+02  0.38307839393E+03  0.41118724925E+03  0.00000000000E+00 0. -1.
        3    1    5    5  501    0  0.20037039032E+02 -0.19826507626E+02 -0.92996210312E+00  0.28203513386E+02  0.00000000000E+00 0. -1.
       -4    1    5    5    0  501  0.27095721567E+03 -0.26073804601E+02 -0.18250154758E+03  0.32772928963E+03  0.14200000000E+01 0.  1.
</event>
<event>
 9   1  0.7335000E-04  0.1006328E+04  0.7818608E-02  0.9301632E-01
       21   -1    0    0  503  502  0.00000000000E+00  0.00000000000E+00  0.26043668269E+03  0.26043668269E+03  0.00000000000E+00 0. -1.
       21   -1    0    0  502  503 -0.00000000000E+00 -0.00000000000E+00 -0.97211303266E+03  0.97211303266E+03  0.00000000000E+00 0.  1.
       39    2    1    2    0    0  0.00000000000E+00  0.00000000000E+00 -0.71167634997E+03  0.12325497154E+04  0.10063277665E+04 0.  0.
       24    2    3    3    0    0  0.33330565885E+02  0.11615523034E+03 -0.94661268255E+03  0.95644980860E+03  0.64169318577E+02 0.  0.
      -24    2    3    3    0    0 -0.33330565885E+02 -0.11615523034E+03  0.23493633257E+03  0.27609990675E+03  0.80206695393E+02 0.  0.
      -13    1    4    4    0    0  0.22093255975E+02  0.12043585404E+03 -0.90085615988E+03  0.90913955347E+03  0.00000000000E+00 0.  1.
       14    1    4    4    0    0  0.11237309910E+02 -0.42806236903E+01 -0.45756522668E+02  0.47310255124E+02  0.00000000000E+00 0. -1.
        3    1    5    5  501    0 -0.18836214947E+02 -0.10428570926E+03  0.23446990681E+03  0.25730613935E+03  0.00000000000E+00 0. -1.
       -4    1    5    5    0  501 -0.14494350939E+02 -0.11869521088E+02  0.46642576235E+00  0.18793767398E+02  0.14200000000E+01 0.  1.
</event>
<event>
 9   1  0.7335000E-04  0.9953509E+03  0.7818608E-02  0.9313659E-01
       21   -1    0    0  503  502  0.00000000000E+00  0.00000000000E+00  0.17199599054E+03  0.17199599054E+03  0.00000000000E+00 0. -1.
       21   -1    0    0  502  503 -0.00000000000E+00 -0.00000000000E+00 -0.14400384651E+04  0.14400384651E+04  0.00000000000E+00 0.  1.
       39    2    1    2    0    0 -0.71054273576E-14  0.14210854715E-13 -0.12680424746E+04  0.16120344557E+04  0.99535087728E+03 0.  0.
       24    2    3    3    0    0  0.41484854943E+02 -0.92613970373E+02 -0.14068089120E+04  0.14127926741E+04  0.81077027234E+02 0.  0.
      -24    2    3    3    0    0 -0.41484854943E+02  0.92613970373E+02  0.13876643748E+03  0.19924178152E+03  0.10071158143E+03 0.  0.
      -13    1    4    4    0    0  0.44704542603E+02 -0.10510088767E+03 -0.11493093702E+04  0.11549704416E+04  0.00000000000E+00 0.  1.
       14    1    4    4    0    0 -0.32196876599E+01  0.12486917298E+02 -0.25749954190E+03  0.25782223250E+03  0.00000000000E+00 0. -1.
        3    1    5    5  501    0 -0.59841465051E+02  0.89357900411E+02  0.70816713655E+02  0.12876661927E+03  0.00000000000E+00 0. -1.
       -4    1    5    5    0  501  0.18356610108E+02  0.32560699626E+01  0.67949723829E+02  0.70475162254E+02  0.14200000000E+01 0.  1.
</event>
<event>
 9   1  0.7335000E-04  0.9737537E+03  0.7818608E-02  0.9337809E-01
       21   -1    0    0  503  502  0.00000000000E+00  0.00000000000E+00  0.92125179128E+03  0.92125179128E+03  0.00000000000E+00 0. -1.
       21   -1    0    0  502  503 -0.00000000000E+00 -0.00000000000E+00 -0.25731191057E+03  0.25731191057E+03  0.00000000000E+00 0.  1.
       39    2    1    2    0    0 -0.14210854715E-13  0.00000000000E+00  0.66393988071E+03  0.11785637018E+04  0.97375368247E+03 0.  0.
       24    2    3    3    0    0  0.75890088427E+02 -0.12046115967E+03 -0.22289200649E+03  0.27648710276E+03  0.80585823339E+02 0.  0.
      -24    2    3    3    0    0 -0.75890088427E+02  0.12046115967E+03  0.88683188720E+03  0.90207659909E+03  0.83673161485E+02 0.  0.
      -13    1    4    4    0    0  0.92008125754E+02 -0.10904680446E+03 -0.20547952224E+03  0.25015702034E+03  0.00000000000E+00 0.  1.
       14    1    4    4    0    0 -0.16118037327E+02 -0.11414355206E+02 -0.17412484255E+02  0.26330082415E+02  0.00000000000E+00 0. -1.
        1    1    5    5  501    0 -0.56545454213E+02  0.75629479693E+02  0.76528472285E+03  0.77108878452E+03  0.00000000000E+00 0. -1.
       -2    1    5    5    0  501 -0.19344634214E+02  0.44831679975E+02  0.12154716436E+03  0.13098781457E+03  0.00000000000E+00 0.  1.
</event>
<event>
 9   1  0.7335000E-04  0.1004594E+04  0.7818608E-02  0.9303521E-01
        1   -1    0    0  501    0  0.00000000000E+00  0.00000000000E+00  0.12626198792E+04  0.12626198792E+04  0.00000000000E+00 0. -1.
       -1   -1    0    0    0  501 -0.00000000000E+00 -0.00000000000E+00 -0.19982424966E+03  0.19982424966E+03  0.00000000000E+00 0.  1.
       39    2    1    2    0    0  0.56843418861E-13  0.00000000000E+00  0.10627956296E+04  0.14624441289E+04  0.10045935894E+04 0.  0.
       24    2    3    3    0    0  0.48384467672E+03 -0.10681667316E+03  0.50769208078E+03  0.71403697537E+03  0.81130021890E+02 0.  0.
      -24    2    3    3    0    0 -0.48384467672E+03  0.10681667316E+03  0.55510354880E+03  0.74840715353E+03  0.80360716184E+02 0.  0.
      -13    1    4    4    0    0  0.16080470360E+03 -0.17828513575E+01  0.19024424479E+03  0.24910681230E+03  0.00000000000E+00 0.  1.
       14    1    4    4    0    0  0.32303997312E+03 -0.10503382180E+03  0.31744783598E+03  0.46493016306E+03  0.00000000000E+00 0. -1.
        1    1    5    5  502    0  0.26381921644E+01  0.29372037240E+01  0.17279032196E+01  0.43096256391E+01  0.00000000000E+00 0. -1.
       -2    1    5    5    0  502 -0.48648286888E+03  0.10387946943E+03  0.55337564558E+03  0.74409752789E+03  0.00000000000E+00 0.  1.
</event>
<event>
 9   1  0.7335000E-04  0.9954462E+03  0.7818608E-02  0.9313554E-01
       21   -1    0    0  503  502  0.00000000000E+00  0.00000000000E+00  0.34553027111E+03  0.34553027111E+03  0.00000000000E+00 0.  1.
       21   -1    0    0  502  503 -0.00000000000E+00 -0.00000000000E+00 -0.71695098310E+03  0.71695098310E+03  0.00000000000E+00 0. -1.
       39    2    1    2    0    0 -0.56843418861E-13  0.00000000000E+00 -0.37142071199E+03  0.10624812542E+04  0.99544616643E+03 0.  0.
       24    2    3    3    0    0 -0.18501732638E+03 -0.39579766858E+03 -0.42747482501E+03  0.61712877581E+03  0.85005849210E+02 0.  0.
      -24    2    3    3    0    0  0.18501732638E+03  0.39579766858E+03  0.56054113019E+02  0.44535247840E+03  0.65647246058E+02 0.  0.
      -13    1    4    4    0    0 -0.33739833490E+02 -0.78055916367E+02 -0.40894290892E+02  0.94358070516E+02  0.00000000000E+00 0.  1.
       14    1    4    4    0    0 -0.15127749289E+03 -0.31774175222E+03 -0.38658053411E+03  0.52277070529E+03  0.00000000000E+00 0. -1.
        1    1    5    5  501    0  0.62119403302E+02  0.20359965241E+03  0.13557747496E+02  0.21329662736E+03  0.00000000000E+00 0. -1.
       -2    1    5    5    0  501  0.12289792308E+03  0.19219801618E+03  0.42496365523E+02  0.23205585104E+03  0.00000000000E+00 0.  1.
</event>
<event>
 9   1  0.7335000E-04  0.1027227E+04  0.7818608E-02  0.9279176E-01
       21   -1    0    0  503  502  0.00000000000E+00  0.00000000000E+00  0.18341957824E+03  0.18341957824E+03  0.00000000000E+00 0. -1.
       21   -1    0    0  502  503 -0.00000000000E+00 -0.00000000000E+00 -0.14382269331E+04  0.14382269331E+04  0.00000000000E+00 0.  1.
       39    2    1    2    0    0 -0.71054273576E-14  0.00000000000E+00 -0.12548073549E+04  0.16216465114E+04  0.10272272922E+04 0.  0.
       24    2    3    3    0    0  0.33691247788E+02  0.23506252166E+03 -0.13349898655E+04  0.13582659427E+04  0.79365867478E+02 0.  0.
      -24    2    3    3    0    0 -0.33691247788E+02 -0.23506252166E+03  0.80182510612E+02  0.26338056864E+03  0.80935774936E+02 0.  0.
      -13    1    4    4    0    0  0.50763754197E+02  0.22301780525E+03 -0.12493734012E+04  0.12701369201E+04  0.00000000000E+00 0.  1.
       14    1    4    4    0    0 -0.17072506409E+02  0.12044716402E+02 -0.85616464314E+02  0.88129022631E+02  0.00000000000E+00 0. -1.
        3    1    5    5  501    0 -0.52205428741E+02 -0.16493712342E+03  0.80556039448E+02  0.19083746216E+03  0.00000000000E+00 0. -1.
       -4    1    5    5    0  501  0.18514180953E+02 -0.70125398232E+02 -0.37352883637E+00  0.72543106477E+02  0.14200000000E+01 0.  1.
</event>
<event>
 9   1  0.7335000E-04  0.9881396E+03  0.7818608E-02  0.9321650E-01
       -2   -1    0    0    0  501 -0.00000000000E+00  0.00000000000E+00  0.26420100382E+03  0.26420100382E+03  0.00000000000E+00 0.  1.
        2   -1    0    0  501    0  0.00000000000E+00 -0.00000000000E+00 -0.92393665303E+03  0.92393665303E+03  0.00000000000E+00 0. -1.
       39    2    1    2    0    0  0.56843418861E-13  0.00000000000E+00 -0.65973564920E+03  0.11881376568E+04  0.98813964842E+03 0.  0.
       24    2    3    3    0    0  0.46757723909E+03 -0.66904134539E+02 -0.47562441207E+03  0.67492757990E+03  0.78765595390E+02 0.  0.
      -24    2    3    3    0    0 -0.46757723909E+03  0.66904134539E+02 -0.18411123713E+03  0.51321007694E+03  0.79893664964E+02 0.  0.
      -13    1    4    4    0    0  0.10521003438E+03 -0.28140159483E+01 -0.65752279821E+02  0.12409847832E+03  0.00000000000E+00 0.  1.
       14    1    4    4    0    0  0.36236720472E+03 -0.64090118591E+02 -0.40987213225E+03  0.55082910158E+03  0.00000000000E+00 0. -1.
        3    1    5    5  502    0 -0.23777268456E+03  0.25446059012E+02 -0.51318750909E+02  0.24457507158E+03  0.00000000000E+00 0. -1.
       -4    1    5    5    0  502 -0.22980455453E+03  0.41458075527E+02 -0.13279248622E+03  0.26863500537E+03  0.14200000000E+01 0.  1.
</event>
<event>
 9   1  0.7335000E-04  0.1002390E+04  0.7818608E-02  0.9305927E-01
       21   -1    0    0  503  502  0.00000000000E+00  0.00000000000E+00  0.42820170869E+03  0.42820170869E+03  0.00000000000E+00 0.  1.
       21   -1    0    0  502  503 -0.00000000000E+00 -0.00000000000E+00 -0.58663134961E+03  0.58663134961E+03  0.00000000000E+00 0. -1.
       39    2    1    2    0    0  0.00000000000E+00 -0.56843418861E-13 -0.15842964092E+03  0.10148330583E+04  0.10023902359E+04 0.  0.
       24    2    3    3    0    0 -0.15966991576E+03  0.22496205778E+03 -0.49286397730E+03  0.57031708497E+03  0.79020679826E+02 0.  0.
      -24    2    3    3    0    0  0.15966991576E+03 -0.22496205778E+03  0.33443433639E+03  0.44451597333E+03  0.98212604833E+02 0.  0.
      -13    1    4    4    0    0  0.37158648158E+01  0.28602486910E+02 -0.29820558566E+02  0.41487053667E+02  0.00000000000E+00 0.  1.
       14    1    4    4    0    0 -0.16338578058E+03  0.19635957087E+03 -0.46304341874E+03  0.52883003130E+03  0.00000000000E+00 0. -1.
        3    1    5    5  501    0  0.26528824108E+02 -0.43947023529E+02  0.13365293269E+03  0.14317201473E+03  0.00000000000E+00 0. -1.
       -4    1    5    5    0  501  0.13314109166E+03 -0.18101503426E+03  0.20078140370E+03  0.30134395860E+03  0.14200000000E+01 0.  1.
</event>
<event>
 9   1  0.7335000E-04  0.9974112E+03  0.7818608E-02  0.9311389E-01
       21   -1    0    0  503  502  0.00000000000E+00  0.00000000000E+00  0.21812825309E+03  0.21812825309E+03  0.00000000000E+00 0.  1.
       21   -1    0    0  502  503 -0.00000000000E+00 -0.00000000000E+00 -0.11401882603E+04  0.11401882603E+04  0.00000000000E+00 0. -1.
       39    2    1    2    0    0 -0.28421709430E-13  0.00000000000E+00 -0.92206000720E+03  0.13583165134E+04  0.99741119588E+03 0.  0.
       24    2    3    3    0    0 -0.22060019214E+03  0.32234794086E+03 -0.52935000129E+02  0.40207684737E+03  0.79316058937E+02 0.  0.
      -24    2    3    3    0    0  0.22060019214E+03 -0.32234794086E+03 -0.86912500707E+03  0.95623966602E+03  0.80270674597E+02 0.  0.
      -13    1    4    4    0    0 -0.20928845498E+03  0.25916633187E+03 -0.56109103529E+02  0.33781219111E+03  0.00000000000E+00 0.  1.
       14    1    4    4    0    0 -0.11311737156E+02  0.63181608988E+02  0.31741033999E+01  0.64264656260E+02  0.00000000000E+00 0. -1.
        3    1    5    5  501    0  0.13701138807E+03 -0.24670058211E+03 -0.67727785720E+03  0.73371560807E+03  0.00000000000E+00 0. -1.
       -4    1    5    5    0  501  0.83588804062E+02 -0.75647358753E+02 -0.19184714987E+03  0.22252405794E+03  0.14200000000E+01 0.  1.
</event>
<event>
 9   1  0.7335000E-04  0.9963971E+03  0.7818608E-02  0.9312505E-01
       21   -1    0    0  503  502  0.00000000000E+00  0.00000000000E+00  0.12694955515E+03  0.12694955515E+03  0.00000000000E+00 0.  1.
       21   -1    0    0  502  503 -0.00000000000E+00 -0.00000000000E+00 -0.19551215515E+04  0.19551215515E+04  0.00000000000E+00 0. -1.
       39    2    1    2    0    0  0.00000000000E+00  0.00000000000E+00 -0.18281719963E+04  0.20820711066E+04  0.99639713210E+03 0.  0.
       24    2    3    3    0    0  0.28609847847E+03 -0.37800443896E+03 -0.64131478965E+03  0.80149664394E+03  0.79828037465E+02 0.  0.
      -24    2    3    3    0    0 -0.28609847847E+03  0.37800443896E+03 -0.11868572067E+04  0.12805744627E+04  0.80630206250E+02 0.  0.
      -13    1    4    4    0    0  0.18281093525E+03 -0.24211468923E+03 -0.34397783786E+03  0.45865031748E+03  0.00000000000E+00 0.  1.
       14    1    4    4    0    0  0.10328754322E+03 -0.13588974973E+03 -0.29733695178E+03  0.34284632646E+03  0.00000000000E+00 0. -1.
        1    1    5    5  501    0 -0.26798021108E+03  0.33754944527E+03 -0.11227857393E+04  0.12026640586E+04  0.00000000000E+00 0. -1.
       -2    1    5    5    0  501 -0.18118267399E+02  0.40454993693E+02 -0.64071467392E+02  0.77910404068E+02  0.00000000000E+00 0.  1.
</event>
<event>
 9   1  0.7335000E-04  0.1000279E+04  0.7818608E-02  0.9308238E-01
       21   -1    0    0  503  502  0.00000000000E+00  0.00000000000E+00  0.48651635974E+03  0.48651635974E+03  0.00000000000E+00 0. -1.
       21   -1    0    0  502  503 -0.00000000000E+00 -0.00000000000E+00 -0.51414462062E+03  0.51414462062E+03  0.00000000000E+00 0.  1.
       39    2    1    2    0    0  0.00000000000E+00  0.00000000000E+00 -0.27628260874E+02  0.10006609804E+04  0.10002794993E+04 0.  0.
       24    2    3    3    0    0  0.10281505157E+03  0.22937583874E+03 -0.43791585473E+03  0.51108455117E+03  0.79075358943E+02 0.  0.
      -24    2    3    3    0    0 -0.10281505157E+03 -0.22937583874E+03  0.41028759386E+03  0.48957642919E+03  0.90360168917E+02 0.  0.
      -13    1    4    4    0    0  0.10083613773E+03  0.23246689627E+03 -0.43931614676E+03  0.50715624944E+03  0.00000000000E+00 0.  1.
       14    1    4    4    0    0  0.19789138427E+01 -0.30910575386E+01  0.14002920335E+01  0.39283017301E+01  0.00000000000E+00 0. -1.
        1    1    5    5  501    0 -0.10723178669E+03 -0.23588923676E+03  0.39547726489E+03  0.47280509213E+03  0.00000000000E+00 0. -1.
       -2    1    5    5    0  501  0.44167351232E+01  0.65133980246E+01  0.14810328965E+02  0.16771337068E+02  0.00000000000E+00 0.  1.
</event>
<event>
 9   1  0.7335000E-04  0.1001394E+04  0.7818608E-02  0.9307017E-01
       21   -1    0    0  503  502  0.00000000000E+00  0.00000000000E+00  0.71687154010E+03  0.71687154010E+03  0.00000000000E+00 0. -1.
       21   -1    0    0  502  503 -0.00000000000E+00 -0.00000000000E+00 -0.34971029833E+03  0.34971029833E+03  0.00000000000E+00 0.  1.
       39    2    1    2    0    0 -0.28421709430E-13  0.28421709430E-13  0.36716124176E+03  0.10665818384E+04  0.10013937490E+04 0.  0.
       24    2    3    3    0    0  0.19651183168E+03 -0.12977523567E+03 -0.27930301077E+03  0.37387163415E+03  0.79443786495E+02 0.  0.
      -24    2    3    3    0    0 -0.19651183168E+03  0.12977523567E+03  0.64646425254E+03  0.69271020428E+03  0.80454244866E+02 0.  0.
      -13    1    4    4    0    0  0.20071314096E+03 -0.12301816580E+03 -0.28008317684E+03  0.36587678256E+03  0.00000000000E+00 0.  1.
       14    1    4    4    0    0 -0.42013092750E+01 -0.67570698753E+01  0.78016606373E+00  0.79948515940E+01  0.00000000000E+00 0. -1.
        1    1    5    5  501    0 -0.16333037769E+03  0.11144392123E+03  0.60517530358E+03  0.63665823479E+03  0.00000000000E+00 0. -1.
       -2    1    5    5    0  501 -0.33181453986E+02  0.18331314444E+02  0.41288948954E+02  0.56051969489E+02  0.00000000000E+00 0.  1.
</event>
<event>
 9   1  0.7335000E-04  0.9996871E+03  0.7818608E-02  0.9308888E-01
       21   -1    0    0  503  502  0.00000000000E+00  0.00000000000E+00  0.39177835165E+03  0.39177835165E+03  0.00000000000E+00 0. -1.
       21   -1    0    0  502  503 -0.00000000000E+00 -0.00000000000E+00 -0.63771661124E+03  0.63771661124E+03  0.00000000000E+00 0.  1.
       39    2    1    2    0    0 -0.56843418861E-13  0.28421709430E-13 -0.24593825959E+03  0.10294949629E+04  0.99968707659E+03 0.  0.
       24    2    3    3    0    0  0.33209460625E+03 -0.12887882296E+03  0.22863747696E+03  0.43084474896E+03  0.80346271434E+02 0.  0.
      -24    2    3    3    0    0 -0.33209460625E+03  0.12887882296E+03 -0.47457573655E+03  0.59865021393E+03  0.79141458245E+02 0.  0.
      -13    1    4    4    0    0 -0.46329301206E+01 -0.29226294858E-01  0.30995716964E+01  0.55742479654E+01  0.00000000000E+00 0.  1.
       14    1    4    4    0    0  0.33672753637E+03 -0.12884959667E+03  0.22553790526E+03  0.42527050100E+03  0.00000000000E+00 0. -1.
        1    1    5    5  501    0 -0.71734482111E+02  0.63892866984E+02 -0.13921720303E+03  0.16914361943E+03  0.00000000000E+00 0. -1.
       -2    1    5    5    0  501 -0.26036012413E+03  0.64985955976E+02 -0.33535853352E+03  0.42950659450E+03  0.00000000000E+00 0.  1.
</event>
<event>
 9   1  0.7335000E-04  0.9927469E+03  0.7818608E-02  0.9316536E-01
       21   -1    0    0  503  502  0.00000000000E+00  0.00000000000E+00  0.93161696701E+03  0.93161696701E+03  0.00000000000E+00 0. -1.
       21   -1    0    0  502  503 -0.00000000000E+00 -0.00000000000E+00 -0.26447202183E+03  0.26447202183E+03  0.00000000000E+00 0.  1.
       39    2    1    2    0    0 -0.28421709430E-13  0.56843418861E-13  0.66714494518E+03  0.11960889888E+04  0.99274694225E+03 0.  0.
       24    2    3    3    0    0  0.20564508260E+03 -0.23129706941E+03 -0.12441074356E+03  0.34304542333E+03  0.80086796908E+02 0.  0.
      -24    2    3    3    0    0 -0.20564508260E+03  0.23129706941E+03  0.79155568873E+03  0.85304356551E+03  0.73038907284E+02 0.  0.
      -13    1    4    4    0    0  0.19359666296E+03 -0.17265405223E+03 -0.94101232368E+02  0.27594226134E+03  0.00000000000E+00 0.  1.
       14    1    4    4    0    0  0.12048419635E+02 -0.58643017185E+02 -0.30309511187E+02  0.67103161988E+02  0.00000000000E+00 0. -1.
        1    1    5    5  501    0 -0.95381857309E+02  0.16015049532E+03  0.48467119836E+03  0.51928031965E+03  0.00000000000E+00 0. -1.
       -2    1    5    5    0  501 -0.11026322529E+03  0.71146574089E+02  0.30688449037E+03  0.33376324586E+03  0.00000000000E+00 0.  1.
</event>
<event>
 9   1  0.7335000E-04  0.1002341E+04  0.7818608E-02  0.9305981E-01
       -2   -1    0    0    0  501 -0.00000000000E+00  0.00000000000E+00  0.13680454589E+03  0.13680454589E+03  0.00000000000E+00 0.  1.
        2   -1    0    0  501    0  0.00000000000E+00 -0.00000000000E+00 -0.18359905504E+04  0.18359905504E+04  0.00000000000E+00 0. -1.
       39    2    1    2    0    0  0.56843418861E-13  0.56843418861E-13 -0.16991860045E+04  0.19727950963E+04  0.10023409669E+04 0.  0.
       24    2    3    3    0    0 -0.30957651266E+03 -0.20135551462E+03 -0.14971736691E+04  0.15442451644E+04  0.82355764373E+02 0.  0.
      -24    2    3    3    0    0  0.30957651266E+03  0.20135551462E+03 -0.20201233540E+03  0.42854993186E+03  0.80401492432E+02 0.  0.
      -13    1    4    4    0    0 -0.11464577591E+03 -0.87917047039E+02 -0.43409538567E+03  0.45750613652E+03  0.00000000000E+00 0.  1.
       14    1    4    4    0    0 -0.19493073675E+03 -0.11343846758E+03 -0.10630782834E+04  0.10867390279E+04  0.00000000000E+00 0. -1.
        3    1    5    5  502    0  0.22927768133E+02  0.37547142925E+02 -0.45098959476E+02  0.63003068490E+02  0.00000000000E+00 0. -1.
       -4    1    5    5    0  502  0.28664874452E+03  0.16380837170E+03 -0.15691337592E+03  0.36554686337E+03  0.14200000000E+01 0.  1.
</event>
<event>
 9   1  0.7335000E-04  0.8824342E+03  0.7818608E-02  0.9447810E-01
        1   -1    0    0  501    0  0.00000000000E+00  0.00000000000E+00  0.41282258397E+03  0.41282258397E+03  0.00000000000E+00 0. -1.
       -1   -1    0    0    0  501 -0.00000000000E+00 -0.00000000000E+00 -0.47156464987E+03  0.47156464987E+03  0.00000000000E+00 0.  1.
       39    2    1    2    0    0 -0.28421709430E-13  0.00000000000E+00 -0.58742065894E+02  0.88438723384E+03  0.88243421798E+03 0.  0.
       24    2    3    3    0    0 -0.16622163629E+03 -0.15678449195E+03 -0.39877169496E+03  0.46700912825E+03  0.82871297087E+02 0.  0.
      -24    2    3    3    0    0  0.16622163629E+03  0.15678449195E+03  0.34002962906E+03  0.41737810559E+03  0.79833107780E+02 0.  0.
      -13    1    4    4    0    0 -0.26555443817E+02 -0.57518935570E+02 -0.59452685611E+02  0.86880615627E+02  0.00000000000E+00 0.  1.
       14    1    4    4    0    0 -0.13966619248E+03 -0.99265556378E+02 -0.33931900935E+03  0.38012851262E+03  0.00000000000E+00 0. -1.
        3    1    5    5  502    0  0.91508455842E+02  0.79802147582E+02  0.24759789802E+03  0.27576602284E+03  0.00000000000E+00 0. -1.
       -4    1    5    5    0  502  0.74713180453E+02  0.76982344365E+02  0.92431731045E+02  0.14161208275E+03  0.14200000000E+01 0.  1.
</event>
<event>
 9   1  0.7335000E-04  0.1002084E+04  0.7818608E-02  0.9306262E-01
       21   -1    0    0  503  502  0.00000000000E+00  0.00000000000E+00  0.14952675320E+03  0.14952675320E+03  0.00000000000E+00 0. -1.
       21   -1    0    0  502  503 -0.00000000000E+00 -0.00000000000E+00 -0.16789168433E+04  0.16789168433E+04  0.00000000000E+00 0.  1.
       39    2    1    2    0    0  0.00000000000E+00  0.56843418861E-13 -0.15293900901E+04  0.18284435965E+04  0.10020837979E+04 0.  0.
       24    2    3    3    0    0  0.36375147906E+03  0.26357301622E+03 -0.11350309880E+04  0.12236225916E+04  0.84681931797E+02 0.  0.
      -24    2    3    3    0    0 -0.36375147906E+03 -0.26357301622E+03 -0.39435910212E+03  0.60482100492E+03  0.92214278569E+02 0.  0.
      -13    1    4    4    0    0  0.25002185600E+03  0.22250159934E+03 -0.87594112283E+03  0.93770503937E+03  0.00000000000E+00 0.  1.
       14    1    4    4    0    0  0.11372962306E+03  0.41071416880E+02 -0.25908986517E+03  0.28591755224E+03  0.00000000000E+00 0. -1.
        1    1    5    5  501    0 -0.21596653705E+03 -0.14771591267E+03 -0.16902736897E+03  0.31149925753E+03  0.00000000000E+00 0. -1.
       -2    1    5    5    0  501 -0.14778494201E+03 -0.11585710355E+03 -0.22533173315E+03  0.29332174739E+03  0.00000000000E+00 0.  1.
</event>
<event>
 9   1  0.7335000E-04  0.9971542E+03  0.7818608E-02  0.9311671E-01
       21   -1    0    0  503  502  0.00000000000E+00  0.00000000000E+00  0.88232874137E+03  0.88232874137E+03  0.00000000000E+00 0. -1.
       21   -1    0    0  502  503 -0.00000000000E+00 -0.00000000000E+00 -0.28173075845E+03  0.28173075845E+03  0.00000000000E+00 0.  1.
       39    2    1    2    0    0  0.00000000000E+00  0.28421709430E-13  0.60059798292E+03  0.11640594998E+04  0.99715424184E+03 0.  0.
       24    2    3    3    0    0  0.14341969428E+03 -0.19509425481E+03 -0.19958364540E+03  0.32404757502E+03  0.80884005823E+02 0.  0.
      -24    2    3    3    0    0 -0.14341969428E+03  0.19509425481E+03  0.80018162832E+03  0.84001192480E+03  0.81843866811E+02 0.  0.
      -13    1    4    4    0    0  0.13258290670E+03 -0.15837192174E+03 -0.12834421700E+03  0.24317099084E+03  0.00000000000E+00 0.  1.
       14    1    4    4    0    0  0.10836787580E+02 -0.36722333065E+02 -0.71239428398E+02  0.80876584184E+02  0.00000000000E+00 0. -1.
        1    1    5    5  501    0 -0.73892994244E+02  0.46547063835E+02  0.35483091515E+03  0.36542000780E+03  0.00000000000E+00 0. -1.
       -2    1    5    5    0  501 -0.69526700041E+02  0.14854719097E+03  0.44535071317E+03  0.47459191700E+03  0.00000000000E+00 0.  1.
</event>
<event>
 9   1  0.7335000E-04  0.9936578E+03  0.7818608E-02  0.9315528E-01
       21   -1    0    0  503  502  0.00000000000E+00  0.00000000000E+00  0.46682457149E+03  0.46682457149E+03  0.00000000000E+00 0.  1.
       21   -1    0    0  502  503 -0.00000000000E+00 -0.00000000000E+00 -0.52876166583E+03  0.52876166583E+03  0.00000000000E+00 0. -1.
       39    2    1    2    0    0  0.00000000000E+00  0.56843418861E-13 -0.61937094342E+02  0.99558623732E+03  0.99365776416E+03 0.  0.
       24    2    3    3    0    0 -0.27770222028E+03 -0.33911482514E+03  0.18859611718E+03  0.48441556640E+03  0.83501842940E+02 0.  0.
      -24    2    3    3    0    0  0.27770222028E+03  0.33911482514E+03 -0.25053321152E+03  0.51117067092E+03  0.80069825502E+02 0.  0.
      -13    1    4    4    0    0 -0.27673723783E+03 -0.31633233028E+03  0.19065851546E+03  0.46151956784E+03  0.00000000000E+00 0.  1.
       14    1    4    4    0    0 -0.96498245648E+00 -0.22782494864E+02 -0.20623982879E+01  0.22895998560E+02  0.00000000000E+00 0. -1.
        1    1    5    5  501    0  0.26619700708E+03  0.29011007783E+03 -0.20814803872E+03  0.44536536671E+03  0.00000000000E+00 0. -1.
       -2    1    5    5    0  501  0.11505213200E+02  0.49004747308E+02 -0.42385172794E+02  0.65805304211E+02  0.00000000000E+00 0.  1.
</event>
<event>
 9   1  0.7335000E-04  0.9796971E+03  0.7818608E-02  0.9331097E-01
       21   -1    0    0  503  502  0.00000000000E+00  0.00000000000E+00  0.63251666209E+03  0.63251666209E+03  0.00000000000E+00 0. -1.
       21   -1    0    0  502  503 -0.00000000000E+00 -0.00000000000E+00 -0.37936010171E+03  0.37936010171E+03  0.00000000000E+00 0.  1.
       39    2    1    2    0    0  0.00000000000E+00  0.00000000000E+00  0.25315656039E+03  0.10118767638E+04  0.97969706597E+03 0.  0.
       24    2    3    3    0    0  0.28359229066E+03  0.57012706827E+02  0.52610431341E+03  0.60580808546E+03  0.80886659963E+02 0.  0.
      -24    2    3    3    0    0 -0.28359229066E+03 -0.57012706827E+02 -0.27294775303E+03  0.40606867834E+03  0.81952788790E+02 0.  0.
      -13    1    4    4    0    0  0.30956601983E+02  0.61004222334E+01  0.18621947053E+02  0.36637457197E+02  0.00000000000E+00 0.  1.
       14    1    4    4    0    0  0.25263568867E+03  0.50912284593E+02  0.50748236636E+03  0.56917062826E+03  0.00000000000E+00 0. -1.
        3    1    5    5  501    0 -0.57615955163E+02  0.22159164746E+01 -0.18294183208E+02  0.60491203612E+02  0.00000000000E+00 0. -1.
       -4    1    5    5    0  501 -0.22597633549E+03 -0.59228623301E+02 -0.25465356982E+03  0.34557747473E+03  0.14200000000E+01 0.  1.
</event>
<event>
 9   1  0.7335000E-04  0.9808496E+03  0.7818608E-02  0.9329802E-01
        1   -1    0    0  501    0  0.00000000000E+00  0.00000000000E+00  0.75128638865E+03  0.75128638865E+03  0.00000000000E+00 0.  1.
       -1   -1    0    0    0  501 -0.00000000000E+00 -0.00000000000E+00 -0.32013956263E+03  0.32013956263E+03  0.00000000000E+00 0. -1.
       39    2    1    2    0    0 -0.71054273576E-14  0.00000000000E+00  0.43114682602E+03  0.10714259513E+04  0.98084962327E+03 0.  0.
       24    2    3    3    0    0  0.53527447486E+02  0.40239299521E+03  0.50292459168E+03  0.65126906732E+03  0.80205628837E+02 0.  0.
      -24    2    3    3    0    0 -0.53527447486E+02 -0.40239299521E+03 -0.71777765662E+02  0.42015688396E+03  0.81206214441E+02 0.  0.
      -13    1    4    4    0    0  0.52404858693E+02  0.35395568752E+03  0.47709273625E+03  0.59636262200E+03  0.00000000000E+00 0.  1.
       14    1    4    4    0    0  0.11225887933E+01  0.48437307688E+02  0.25831855434E+02  0.54906445312E+02  0.00000000000E+00 0. -1.
        1    1    5    5  502    0 -0.17332469254E+02 -0.28878534245E+03 -0.19487218240E+02  0.28996058384E+03  0.00000000000E+00 0. -1.
       -2    1    5    5    0  502 -0.36194978232E+02 -0.11360765276E+03 -0.52290547423E+02  0.13019630012E+03  0.00000000000E+00 0.  1.
</event>
<event>
 9   1  0.7335000E-04  0.1008963E+04  0.7818608E-02  0.9298769E-01
       21   -1    0    0  503  502  0.00000000000E+00  0.00000000000E+00  0.66169096875E+03  0.66169096875E+03  0.00000000000E+00 0. -1.
       21   -1    0    0  502  503 -0.00000000000E+00 -0.00000000000E+00 -0.38462297719E+03  0.38462297719E+03  0.00000000000E+00 0.  1.
       39    2    1    2    0    0  0.71054273576E-14 -0.28421709430E-13  0.27706799157E+03  0.10463139459E+04  0.10089629337E+04 0.  0.
       24    2    3    3    0    0 -0.53501242825E+02  0.17273973559E+03 -0.34290926676E+03  0.39582109727E+03  0.79913556941E+02 0.  0.
      -24    2    3    3    0    0  0.53501242825E+02 -0.17273973559E+03  0.61997725832E+03  0.65049284866E+03  0.77895738570E+02 0.  0.
      -13    1    4    4    0    0 -0.50749776979E+02  0.18139008847E+03 -0.33109408334E+03  0.38092150908E+03  0.00000000000E+00 0.  1.
       14    1    4    4    0    0 -0.27514658459E+01 -0.86503528748E+01 -0.11815183421E+02  0.14899588197E+02  0.00000000000E+00 0. -1.
        3    1    5    5  501    0  0.14582133583E+01 -0.88499319669E+02  0.39314889245E+03  0.40298921525E+03  0.00000000000E+00 0. -1.
       -4    1    5    5    0  501  0.52043029466E+02 -0.84240415923E+02  0.22682836587E+03  0.24750363342E+03  0.14200000000E+01 0.  1.
</event>
<event>
 9   1  0.7335000E-04  0.1012482E+04  0.7818608E-02  0.9294960E-01
        1   -1    0    0  501    0  0.00000000000E+00  0.00000000000E+00  0.56290014142E+03  0.56290014142E+03  0.00000000000E+00 0. -1.
       -1   -1    0    0    0  501 -0.00000000000E+00 -0.00000000000E+00 -0.45528505710E+03  0.45528505710E+03  0.00000000000E+00 0.  1.
       39    2    1    2    0    0 -0.56843418861E-13  0.00000000000E+00  0.10761508432E+03  0.10181851985E+04  0.10124821441E+04 0.  0.
       24    2    3    3    0    0 -0.38366106166E+03 -0.82605364736E+02  0.36395015964E+03  0.54125787421E+03  0.80504106595E+02 0.  0.
      -24    2    3    3    0    0  0.38366106166E+03  0.82605364736E+02 -0.25633507532E+03  0.47692732431E+03  0.87934892476E+02 0.  0.
      -13    1    4    4    0    0 -0.15968765855E+02 -0.19214804885E+01  0.45259748167E+02  0.48032680274E+02  0.00000000000E+00 0.  1.
       14    1    4    4    0    0 -0.36769229580E+03 -0.80683884248E+02  0.31869041147E+03  0.49322519394E+03  0.00000000000E+00 0. -1.
        1    1    5    5  502    0  0.15570608612E+03  0.27987656222E+02 -0.15524992289E+03  0.22165340672E+03  0.00000000000E+00 0. -1.
       -2    1    5    5    0  502  0.22795497554E+03  0.54617708514E+02 -0.10108515244E+03  0.25527391759E+03  0.00000000000E+00 0.  1.
</event>
<event>
 9   1  0.7335000E-04  0.1003222E+04  0.7818608E-02  0.9305018E-01
       21   -1    0    0  503  502  0.00000000000E+00  0.00000000000E+00  0.22105821235E+03  0.22105821235E+03  0.00000000000E+00 0.  1.
       21   -1    0    0  502  503 -0.00000000000E+00 -0.00000000000E+00 -0.11382228538E+04  0.11382228538E+04  0.00000000000E+00 0. -1.
       39    2    1    2    0    0  0.00000000000E+00 -0.56843418861E-13 -0.91716464150E+03  0.13592810662E+04  0.10032218286E+04 0.  0.
       24    2    3    3    0    0  0.16278153709E+03  0.31641992137E+03  0.83918326472E+01  0.36458611961E+03  0.78950746063E+02 0.  0.
      -24    2    3    3    0    0 -0.16278153709E+03 -0.31641992137E+03 -0.92555647415E+03  0.99469494659E+03  0.78382743451E+02 0.  0.
      -13    1    4    4    0    0  0.94306709075E+02  0.15531558424E+03  0.41613126467E+02  0.18640906195E+03  0.00000000000E+00 0.  1.
       14    1    4    4    0    0  0.68474828018E+02  0.16110433713E+03 -0.33221293820E+02  0.17817705766E+03  0.00000000000E+00 0. -1.
        3    1    5    5  501    0 -0.49769478989E+02 -0.12607464459E+03 -0.45326296460E+03  0.47309526750E+03  0.00000000000E+00 0. -1.
       -4    1    5    5    0  501 -0.11301205810E+03 -0.19034527677E+03 -0.47229350955E+03  0.52159967909E+03  0.14200000000E+01 0.  1.
</event>
<event>
 9   1  0.7335000E-04  0.1009528E+04  0.7818608E-02  0.9298156E-01
       21   -1    0    0  503  502  0.00000000000E+00  0.00000000000E+00  0.99654563524E+03  0.99654563524E+03  0.00000000000E+00 0.  1.
       21   -1    0    0  502  503 -0.00000000000E+00 -0.00000000000E+00 -0.25566966676E+03  0.25566966676E+03  0.00000000000E+00 0. -1.
       39    2    1    2    0    0  0.28421709430E-13  0.56843418861E-13  0.74087596848E+03  0.12522153020E+04  0.10095275934E+04 0.  0.
       24    2    3    3    0    0 -0.17482430119E+03 -0.34858241116E+03  0.74922303379E+03  0.84845872061E+03  0.80460005968E+02 0.  0.
      -24    2    3    3    0    0  0.17482430119E+03  0.34858241116E+03 -0.83470653075E+01  0.40375658139E+03  0.10429031527E+03 0.  0.
      -13    1    4    4    0    0 -0.15545621300E+03 -0.30565263152E+03  0.58998499713E+03  0.68240197989E+03  0.00000000000E+00 0.  1.
       14    1    4    4    0    0 -0.19368088193E+02 -0.42929779636E+02  0.15923803666E+03  0.16605674072E+03  0.00000000000E+00 0. -1.
        1    1    5    5  501    0  0.10181955776E+03  0.25200982665E+03 -0.48733294994E+02  0.27613603371E+03  0.00000000000E+00 0. -1.
       -2    1    5    5    0  501  0.73004743435E+02  0.96572584506E+02  0.40386229687E+02  0.12762054768E+03  0.00000000000E+00 0.  1.
</event>
<event>
 9   1  0.7335000E-04  0.1004391E+04  0.7818608E-02  0.9303742E-01
        1   -1    0    0  501    0  0.00000000000E+00  0.00000000000E+00  0.60560717738E+03  0.60560717738E+03  0.00000000000E+00 0.  1.
       -1   -1    0    0    0  501 -0.00000000000E+00 -0.00000000000E+00 -0.41644215663E+03  0.41644215663E+03  0.00000000000E+00 0. -1.
       39    2    1    2    0    0  0.11368683772E-12  0.28421709430E-13  0.18916502076E+03  0.10220493340E+04  0.10043910773E+04 0.  0.
       24    2    3    3    0    0 -0.47667766196E+03 -0.13330748228E+03  0.10608402127E+03  0.51355361289E+03  0.86550652782E+02 0.  0.
      -24    2    3    3    0    0  0.47667766196E+03  0.13330748228E+03  0.83080999487E+02  0.50849572112E+03  0.81688234625E+02 0.  0.
      -13    1    4    4    0    0 -0.33278829040E+03 -0.13340867153E+03  0.79130649999E+02  0.36716151710E+03  0.00000000000E+00 0.  1.
       14    1    4    4    0    0 -0.14388937156E+03  0.10118925027E+00  0.26953371270E+02  0.14639209579E+03  0.00000000000E+00 0. -1.
        3    1    5    5  502    0  0.41639910347E+03  0.12679433391E+03  0.97715127026E+02  0.44610902539E+03  0.00000000000E+00 0. -1.
       -4    1    5    5    0  502  0.60278558492E+02  0.65131483693E+01 -0.14634127539E+02  0.62386695732E+02  0.14200000000E+01 0.  1.
</event>
<event>
 9   1  0.7335000E-04  0.9797325E+03  0.7818608E-02  0.9331057E-01
       21   -1    0    0  503  502  0.00000000000E+00  0.00000000000E+00  0.17831504342E+03  0.17831504342E+03  0.00000000000E+00 0.  1.
       21   -1    0    0  502  503 -0.00000000000E+00 -0.00000000000E+00 -0.13457581619E+04  0.13457581619E+04  0.00000000000E+00 0. -1.
       39    2    1    2    0    0  0.14210854715E-13  0.00000000000E+00 -0.11674431185E+04  0.15240732053E+04  0.97973246362E+03 0.  0.
       24    2    3    3    0    0  0.10487101438E+03  0.15998646892E+03 -0.12736601596E+04  0.12904940908E+04  0.81062916052E+02 0.  0.
      -24    2    3    3    0    0 -0.10487101438E+03 -0.15998646892E+03  0.10621704111E+03  0.23357911453E+03  0.81752938951E+02 0.  0.
      -13    1    4    4    0    0  0.99739276241E+02  0.80971134152E+02 -0.76736179454E+03  0.77804136877E+03  0.00000000000E+00 0.  1.
       14    1    4    4    0    0  0.51317381423E+01  0.79015334763E+02 -0.50629836504E+03  0.51245272202E+03  0.00000000000E+00 0. -1.
        1    1    5    5  501    0  0.12762836964E+02 -0.29797991938E+02  0.19877680679E+02  0.38025419394E+02  0.00000000000E+00 0. -1.
       -2    1    5    5    0  501 -0.11763385135E+03 -0.13018847698E+03  0.86339360429E+02  0.19555369513E+03  0.00000000000E+00 0.  1.
</event>
<event>
 8   1  0.7335000E-04  0.1345381E+04  0.7818608E-02  0.8994332E-01
       21   -1    0    0  503  502  0.00000000000E+00  0.00000000000E+00  0.79458612778E+03  0.79458612778E+03  0.00000000000E+00 0. -1.
       21   -1    0    0  502  503 -0.00000000000E+00 -0.00000000000E+00 -0.56949451486E+03  0.56949451486E+03  0.00000000000E+00 0.  1.
       24    2    1    2    0    0  0.15547016506E+03 -0.42559408321E+03 -0.38477280225E+03  0.60014315235E+03  0.82585701408E+02 0.  0.
      -24    2    1    2    0    0 -0.15547016506E+03  0.42559408321E+03  0.60986441517E+03  0.76393749028E+03  0.79778369776E+02 0.  0.
      -13    1    3    3    0    0  0.80543388788E+02 -0.28457877382E+03 -0.29123878263E+03  0.41508113002E+03  0.00000000000E+00 0.  1.
       14    1    3    3    0    0  0.74926776273E+02 -0.14101530940E+03 -0.93534019613E+02  0.18506202234E+03  0.00000000000E+00 0. -1.
        3    1    4    4  501    0 -0.10779669773E+03  0.37159693185E+03  0.53245877197E+03  0.65819203250E+03  0.00000000000E+00 0. -1.
       -4    1    4    4    0  501 -0.47673467332E+02  0.53997151366E+02  0.77405643200E+02  0.10574545779E+03  0.14200000000E+01 0.  1.
</event>
<event>
 9   1  0.7335000E-04  0.9963679E+03  0.7818608E-02  0.9312537E-01
       21   -1    0    0  503  502  0.00000000000E+00  0.00000000000E+00  0.38146883471E+03  0.38146883471E+03  0.00000000000E+00 0. -1.
       21   -1    0    0  502  503 -0.00000000000E+00 -0.00000000000E+00 -0.65060949652E+03  0.65060949652E+03  0.00000000000E+00 0.  1.
       39    2    1    2    0    0  0.00000000000E+00  0.56843418861E-13 -0.26914066181E+03  0.10320783312E+04  0.99636789689E+03 0.  0.
       24    2    3    3    0    0 -0.25966257104E+02  0.46871540200E+03  0.16199197888E+02  0.47651981987E+03  0.80251792091E+02 0.  0.
      -24    2    3    3    0    0  0.25966257104E+02 -0.46871540200E+03 -0.28533985969E+03  0.55555851136E+03  0.82813340895E+02 0.  0.
      -13    1    4    4    0    0 -0.49215714252E+02  0.26535477535E+03 -0.10595462552E+02  0.27008814702E+03  0.00000000000E+00 0.  1.
       14    1    4    4    0    0  0.23249457147E+02  0.20336062665E+03  0.26794660440E+02  0.20643167285E+03  0.00000000000E+00 0. -1.
        3    1    5    5  501    0  0.43293890120E+01 -0.10379554644E+02 -0.26383904893E+02  0.28680815910E+02  0.00000000000E+00 0. -1.
       -4    1    5    5    0  501  0.21636868092E+02 -0.45833584736E+03 -0.25895595480E+03  0.52687769545E+03  0.14200000000E+01 0.  1.
</event>
<event>
 9   1  0.7335000E-04  0.1004308E+04  0.7818608E-02  0.9303832E-01
       21   -1    0    0  503  502  0.00000000000E+00  0.00000000000E+00  0.11389798995E+04  0.11389798995E+04  0.00000000000E+00 0.  1.
       21   -1    0    0  502  503 -0.00000000000E+00 -0.00000000000E+00 -0.22138999892E+03  0.22138999892E+03  0.00000000000E+00 0. -1.
       39    2    1    2    0    0  0.00000000000E+00  0.00000000000E+00  0.91758990062E+03  0.13603698985E+04  0.10043082370E+04 0.  0.
       24    2    3    3    0    0  0.17597627450E+03 -0.44933135589E+03  0.61481058506E+03  0.78542931235E+03  0.77722793516E+02 0.  0.
      -24    2    3    3    0    0 -0.17597627450E+03  0.44933135589E+03  0.30277931556E+03  0.57494058611E+03  0.77556734426E+02 0.  0.
      -13    1    4    4    0    0  0.16816143537E+03 -0.35709437249E+03  0.52105321991E+03  0.65367508534E+03  0.00000000000E+00 0.  1.
       14    1    4    4    0    0  0.78148391226E+01 -0.92236983399E+02  0.93757365151E+02  0.13175422702E+03  0.00000000000E+00 0. -1.
        1    1    5    5  501    0 -0.12358390852E+03  0.33994148003E+03  0.18667979025E+03  0.40704119740E+03  0.00000000000E+00 0. -1.
       -2    1    5    5    0  501 -0.52392365976E+02  0.10938987585E+03  0.11609952531E+03  0.16789938871E+03  0.00000000000E+00 0.  1.
</event>
<event>
 9   1  0.7335000E-04  0.9678109E+03  0.7818608E-02  0.9344571E-01
        1   -1    0    0  501    0  0.00000000000E+00  0.00000000000E+00  0.16656523422E+04  0.16656523422E+04  0.00000000000E+00 0. -1.
       -1   -1    0    0    0  501 -0.00000000000E+00 -0.00000000000E+00 -0.14058426308E+03  0.14058426308E+03  0.00000000000E+00 0.  1.
       39    2    1    2    0    0  0.35527136788E-14  0.00000000000E+00  0.15250680791E+04  0.18062366053E+04  0.96781094657E+03 0.  0.
       24    2    3    3    0    0  0.12277279292E+02  0.43064890784E+03  0.37972665051E+03  0.57997861898E+03  0.81078085585E+02 0.  0.
      -24    2    3    3    0    0 -0.12277279292E+02 -0.43064890784E+03  0.11453414286E+04  0.12262579863E+04  0.79324948520E+02 0.  0.
      -13    1    4    4    0    0  0.41578959829E+02  0.32159963263E+03  0.26242268973E+03  0.41715800566E+03  0.00000000000E+00 0.  1.
       14    1    4    4    0    0 -0.29301680538E+02  0.10904927521E+03  0.11730396078E+03  0.16282061332E+03  0.00000000000E+00 0. -1.
        3    1    5    5  502    0 -0.41193274336E+02 -0.28988612514E+03  0.71829079226E+03  0.77567552085E+03  0.00000000000E+00 0. -1.
       -4    1    5    5    0  502  0.28915995044E+02 -0.14076278270E+03  0.42705063633E+03  0.45058246543E+03  0.14200000000E+01 0.  1.
</event>
<event>
 9   1  0.7335000E-04  0.9757655E+03  0.7818608E-02  0.9335532E-01
       21   -1    0    0  503  502  0.00000000000E+00  0.00000000000E+00  0.14059134684E+04  0.14059134684E+04  0.00000000000E+00 0. -1.
       21   -1    0    0  502  503 -0.00000000000E+00 -0.00000000000E+00 -0.16930598545E+03  0.16930598545E+03  0.00000000000E+00 0.  1.
       39    2    1    2    0    0  0.00000000000E+00 -0.71054273576E-14  0.12366074830E+04  0.15752194539E+04  0.97576547434E+03 0.  0.
       24    2    3    3    0    0  0.22273789194E+03 -0.56441666969E+02  0.13005941627E+04  0.13232517899E+04  0.81561592689E+02 0.  0.
      -24    2    3    3    0    0 -0.22273789194E+03  0.56441666969E+02 -0.63986679690E+02  0.25196766391E+03  0.81213165219E+02 0.  0.
      -13    1    4    4    0    0  0.17534689444E+03 -0.47672851500E+02  0.80171335827E+03  0.82204838239E+03  0.00000000000E+00 0.  1.
       14    1    4    4    0    0  0.47390997501E+02 -0.87688154683E+01  0.49888080438E+03  0.50120340756E+03  0.00000000000E+00 0. -1.
        3    1    5    5  501    0  0.15231209218E+00 -0.78403448201E+01  0.57606503230E+01  0.97303287723E+01  0.00000000000E+00 0. -1.
       -4    1    5    5    0  501 -0.22289020403E+03  0.64282011789E+02 -0.69747330013E+02  0.24223733514E+03  0.14200000000E+01 0.  1.
</event>
<event>
 9   1  0.7335000E-04  0.9958927E+03  0.7818608E-02  0.9313061E-01
       21   -1    0    0  503  502  0.00000000000E+00  0.00000000000E+00  0.78616104447E+03  0.78616104447E+03  0.00000000000E+00 0.  1.
       21   -1    0    0  502  503 -0.00000000000E+00 -0.00000000000E+00 -0.31539409427E+03  0.31539409427E+03  0.00000000000E+00 0. -1.
       39    2    1    2    0    0  0.00000000000E+00  0.00000000000E+00  0.47076695019E+03  0.11015551387E+04  0.99589266605E+03 0.  0.
       24    2    3    3    0    0  0.90246414590E+02  0.94992031209E+02  0.75933463752E+03  0.77482373876E+03  0.81208577560E+02 0.  0.
      -24    2    3    3    0    0 -0.90246414590E+02 -0.94992031209E+02 -0.28856768732E+03  0.32673139998E+03  0.79461916847E+02 0.  0.
      -13    1    4    4    0    0  0.10348340599E+03  0.91840518357E+02  0.64439567459E+03  0.65908215085E+03  0.00000000000E+00 0.  1.
       14    1    4    4    0    0 -0.13236991401E+02  0.31515128526E+01  0.11493896292E+03  0.11574158791E+03  0.00000000000E+00 0. -1.
        3    1    5    5  501    0 -0.86042932235E+02 -0.62724397271E+02 -0.26757073683E+03  0.28797888015E+03  0.00000000000E+00 0. -1.
       -4    1    5    5    0  501 -0.42034823546E+01 -0.32267633939E+02 -0.20996950488E+02  0.38752519837E+02  0.14200000000E+01 0.  1.
</event>
<event>
 9   1  0.7335000E-04  0.1007650E+04  0.7818608E-02  0.9300194E-01
       21   -1    0    0  503  502  0.00000000000E+00  0.00000000000E+00  0.11404452244E+03  0.11404452244E+03  0.00000000000E+00 0.  1.
       21   -1    0    0  502  503 -0.00000000000E+00 -0.00000000000E+00 -0.22257956226E+04  0.22257956226E+04  0.00000000000E+00 0. -1.
       39    2    1    2    0    0  0.00000000000E+00  0.00000000000E+00 -0.21117511001E+04  0.23398401450E+04  0.10076503338E+04 0.  0.
       24    2    3    3    0    0  0.49420715263E+03 -0.13476723290E+01 -0.92844604701E+03  0.10549891471E+04  0.82143243164E+02 0.  0.
      -24    2    3    3    0    0 -0.49420715263E+03  0.13476723290E+01 -0.11833050531E+04  0.12848509979E+04  0.79929419346E+02 0.  0.
      -13    1    4    4    0    0  0.37316651538E+03  0.16920699826E+02 -0.75909689325E+03  0.84603052642E+03  0.00000000000E+00 0.  1.
       14    1    4    4    0    0  0.12104063725E+03 -0.18268372155E+02 -0.16934915376E+03  0.20895862070E+03  0.00000000000E+00 0. -1.
        1    1    5    5  501    0 -0.41486693065E+03  0.23119579758E+02 -0.93218093785E+03  0.10205931540E+04  0.00000000000E+00 0. -1.
       -2    1    5    5    0  501 -0.79340221980E+02 -0.21771907429E+02 -0.25112411528E+03  0.26425784388E+03  0.00000000000E+00 0.  1.
</event>
<event>
 9   1  0.7335000E-04  0.9859745E+03  0.7818608E-02  0.9324063E-01
       21   -1    0    0  503  502  0.00000000000E+00  0.00000000000E+00  0.75781269443E+03  0.75781269443E+03  0.00000000000E+00 0. -1.
       21   -1    0    0  502  503 -0.00000000000E+00 -0.00000000000E+00 -0.32070777814E+03  0.32070777814E+03  0.00000000000E+00 0.  1.
       39    2    1    2    0    0  0.71054273576E-14  0.00000000000E+00  0.43710491629E+03  0.10785204726E+04  0.98597449354E+03 0.  0.
       24    2    3    3    0    0  0.39866143225E+02  0.14034236363E+03 -0.28917683015E+03  0.33332446347E+03  0.78718933221E+02 0.  0.
      -24    2    3    3    0    0 -0.39866143225E+02 -0.14034236363E+03  0.72628174644E+03  0.74519600910E+03  0.80911237534E+02 0.  0.
      -13    1    4    4    0    0  0.18378835035E+02  0.14277248460E+03 -0.24559890291E+03  0.28467628115E+03  0.00000000000E+00 0.  1.
       14    1    4    4    0    0  0.21487308190E+02 -0.24301209668E+01 -0.43577927237E+02  0.48648182324E+02  0.00000000000E+00 0. -1.
        1    1    5    5  501    0 -0.54755234563E+02 -0.12011057046E+03  0.67841915955E+03  0.69114198317E+03  0.00000000000E+00 0. -1.
       -2    1    5    5    0  501  0.14889091337E+02 -0.20231793174E+02  0.47862586888E+02  0.54054025932E+02  0.00000000000E+00 0.  1.
</event>
<event>
 9   1  0.7335000E-04  0.1011026E+04  0.7818608E-02  0.9296534E-01
       21   -1    0    0  503  502  0.00000000000E+00  0.00000000000E+00  0.24396554610E+03  0.24396554610E+03  0.00000000000E+00 0. -1.
       21   -1    0    0  502  503 -0.00000000000E+00 -0.00000000000E+00 -0.10474561130E+04  0.10474561130E+04  0.00000000000E+00 0.  1.
       39    2    1    2    0    0  0.00000000000E+00  0.00000000000E+00 -0.80349056693E+03  0.12914216591E+04  0.10110256231E+04 0.  0.
       24    2    3    3    0    0 -0.21744271598E+03 -0.13721893890E+03 -0.94814053975E+03  0.98589749611E+03  0.83144559615E+02 0.  0.
      -24    2    3    3    0    0  0.21744271598E+03  0.13721893890E+03  0.14464997283E+03  0.30552416302E+03  0.79441976465E+02 0.  0.
      -13    1    4    4    0    0 -0.17236372759E+03 -0.73750151748E+02 -0.57748965456E+03  0.60715948531E+03  0.00000000000E+00 0.  1.
       14    1    4    4    0    0 -0.45078988387E+02 -0.63468787154E+02 -0.37065088519E+03  0.37873801080E+03  0.00000000000E+00 0. -1.
        1    1    5    5  501    0  0.19861780496E+03  0.90131997002E+02  0.11171695102E+03  0.24505812877E+03  0.00000000000E+00 0. -1.
       -2    1    5    5    0  501  0.18824911013E+02  0.47086941899E+02  0.32933021806E+02  0.60466034245E+02  0.00000000000E+00 0.  1.
</event>
<event>
 9   1  0.7335000E-04  0.1006530E+04  0.7818608E-02  0.9301412E-01
       21   -1    0    0  503  502  0.00000000000E+00  0.00000000000E+00  0.52868096339E+03  0.52868096339E+03  0.00000000000E+00 0.  1.
       21   -1    0    0  502  503 -0.00000000000E+00 -0.00000000000E+00 -0.47907066101E+03  0.47907066101E+03  0.00000000000E+00 0. -1.
       39    2    1    2    0    0  0.00000000000E+00  0.00000000000E+00  0.49610302376E+02  0.10077516244E+04  0.10065297583E+04 0.  0.
       24    2    3    3    0    0 -0.20352203120E+02 -0.32273590927E+03  0.40217514843E+03  0.52214333835E+03  0.79474124517E+02 0.  0.
      -24    2    3    3    0    0  0.20352203120E+02  0.32273590927E+03 -0.35256484606E+03  0.48560828604E+03  0.83311208703E+02 0.  0.
      -13    1    4    4    0    0  0.20116734703E+02 -0.20238367807E+03  0.21489878091E+03  0.29588058774E+03  0.00000000000E+00 0.  1.
       14    1    4    4    0    0 -0.40468937823E+02 -0.12035223120E+03  0.18727636753E+03  0.22626275062E+03  0.00000000000E+00 0. -1.
        3    1    5    5  501    0  0.19988949423E+02  0.60472251059E+02 -0.31543491867E+02  0.71073505094E+02  0.00000000000E+00 0. -1.
       -4    1    5    5    0  501  0.36325369685E+00  0.26226365821E+03 -0.32102135419E+03  0.41453478095E+03  0.14200000000E+01 0.  1.
</event>
<event>
 9   1  0.7335000E-04  0.1010738E+04  0.7818608E-02  0.9296846E-01
       21   -1    0    0  503  502  0.00000000000E+00  0.00000000000E+00  0.23750823239E+03  0.23750823239E+03  0.00000000000E+00 0. -1.
       21   -1    0    0  502  503 -0.00000000000E+00 -0.00000000000E+00 -0.10753214855E+04  0.10753214855E+04  0.00000000000E+00 0.  1.
       39    2    1    2    0    0  0.00000000000E+00  0.28421709430E-13 -0.83781325316E+03  0.13128297179E+04  0.10107377608E+04 0.  0.
       24    2    3    3    0    0 -0.45347291280E+03  0.17386635909E+03 -0.56768648297E+03  0.75114346771E+03  0.77983156343E+02 0.  0.
      -24    2    3    3    0    0  0.45347291280E+03 -0.17386635909E+03 -0.27012677019E+03  0.56168625023E+03  0.81582953208E+02 0.  0.
      -13    1    4    4    0    0 -0.21356057391E+03  0.59522257858E+02 -0.20863896472E+03  0.30443593006E+03  0.00000000000E+00 0.  1.
       14    1    4    4    0    0 -0.23991233889E+03  0.11434410124E+03 -0.35904751824E+03  0.44670753765E+03  0.00000000000E+00 0. -1.
        1    1    5    5  501    0  0.31905080102E+03 -0.15948163838E+03 -0.20797828844E+03  0.41289559828E+03  0.00000000000E+00 0. -1.
       -2    1    5    5    0  501  0.13442211177E+03 -0.14384720716E+02 -0.62148481752E+02  0.14879065195E+03  0.00000000000E+00 0.  1.
</event>
<event>
 9   1  0.7335000E-04  0.9979300E+03  0.7818608E-02  0.9310818E-01
       21   -1    0    0  503  502  0.00000000000E+00  0.00000000000E+00  0.69625548607E+03  0.69625548607E+03  0.00000000000E+00 0.  1.
       21   -1    0    0  502  503 -0.00000000000E+00 -0.00000000000E+00 -0.35757861054E+03  0.35757861054E+03  0.00000000000E+00 0. -1.
       39    2    1    2    0    0 -0.28421709430E-13 -0.35527136788E-14  0.33867687553E+03  0.10538340966E+04  0.99792999612E+03 0.  0.
       24    2    3    3    0    0  0.13459381259E+03  0.23834606772E+02  0.66888497540E+03  0.68748702700E+03  0.80917977657E+02 0.  0.
      -24    2    3    3    0    0 -0.13459381259E+03 -0.23834606772E+02 -0.33020809987E+03  0.36634706961E+03  0.80555591522E+02 0.  0.
      -13    1    4    4    0    0  0.14111705855E+03  0.34663465061E+02  0.63219184352E+03  0.64867719787E+03  0.00000000000E+00 0.  1.
       14    1    4    4    0    0 -0.65232459643E+01 -0.10828858289E+02  0.36693131886E+02  0.38809829133E+02  0.00000000000E+00 0. -1.
        1    1    5    5  501    0 -0.54843367986E+02 -0.13460724147E+02 -0.23513628455E+03  0.24182236956E+03  0.00000000000E+00 0. -1.
       -2    1    5    5    0  501 -0.79750444599E+02 -0.10373882626E+02 -0.95071815315E+02  0.12452470005E+03  0.00000000000E+00 0.  1.
</event>
<event>
 9   1  0.7335000E-04  0.1002573E+04  0.7818608E-02  0.9305727E-01
       21   -1    0    0  503  502  0.00000000000E+00  0.00000000000E+00  0.13918410001E+04  0.13918410001E+04  0.00000000000E+00 0.  1.
       21   -1    0    0  502  503 -0.00000000000E+00 -0.00000000000E+00 -0.18054366367E+03  0.18054366367E+03  0.00000000000E+00 0. -1.
       39    2    1    2    0    0  0.14210854715E-13 -0.14210854715E-13  0.12112973364E+04  0.15723846638E+04  0.10025728371E+04 0.  0.
       24    2    3    3    0    0 -0.11031588676E+03 -0.12722233065E+03  0.13354597108E+04  0.13486134625E+04  0.83369753166E+02 0.  0.
      -24    2    3    3    0    0  0.11031588676E+03  0.12722233065E+03 -0.12416237435E+03  0.22377120130E+03  0.79386012884E+02 0.  0.
      -13    1    4    4    0    0 -0.10647422631E+03 -0.13523296681E+03  0.13161671687E+04  0.13273736219E+04  0.00000000000E+00 0.  1.
       14    1    4    4    0    0 -0.38416604552E+01  0.80106361690E+01  0.19292542068E+02  0.21239840544E+02  0.00000000000E+00 0. -1.
        1    1    5    5  501    0  0.98049647749E+02  0.11934727853E+03 -0.73502461367E+02  0.17105589187E+03  0.00000000000E+00 0. -1.
       -2    1    5    5    0  501  0.12266239013E+02  0.78750521152E+01 -0.50659912981E+02  0.52715309433E+02  0.00000000000E+00 0.  1.
</event>
<event>
 9   1  0.7335000E-04  0.1049026E+04  0.7818608E-02  0.9256350E-01
       21   -1    0    0  503  502  0.00000000000E+00  0.00000000000E+00  0.55056568256E+03  0.55056568256E+03  0.00000000000E+00 0.  1.
       21   -1    0    0  502  503 -0.00000000000E+00 -0.00000000000E+00 -0.49969333118E+03  0.49969333118E+03  0.00000000000E+00 0. -1.
       39    2    1    2    0    0  0.56843418861E-13 -0.56843418861E-13  0.50872351384E+02  0.10502590137E+04  0.10490262150E+04 0.  0.
       24    2    3    3    0    0 -0.43330705560E+03  0.27853634351E+03  0.80506791617E+02  0.52801292769E+03  0.83539267539E+02 0.  0.
      -24    2    3    3    0    0  0.43330705560E+03 -0.27853634351E+03 -0.29634440233E+02  0.52224608604E+03  0.80779175839E+02 0.  0.
      -13    1    4    4    0    0 -0.33813936821E+03  0.18411630397E+03  0.83301089874E+02  0.39392399939E+03  0.00000000000E+00 0.  1.
       14    1    4    4    0    0 -0.95167687396E+02  0.94420039539E+02 -0.27942982569E+01  0.13408892830E+03  0.00000000000E+00 0. -1.
        3    1    5    5  501    0  0.43628388900E+03 -0.27400197452E+03 -0.31950072072E+02  0.51617973705E+03  0.00000000000E+00 0. -1.
       -4    1    5    5    0  501 -0.29768333975E+01 -0.45343689954E+01  0.23156318386E+01  0.60663489906E+01  0.14200000000E+01 0. -1.
</event>
<event>
 9   1  0.7335000E-04  0.1000872E+04  0.7818608E-02  0.9307589E-01
       21   -1    0    0  503  502  0.00000000000E+00  0.00000000000E+00  0.19475854063E+03  0.19475854063E+03  0.00000000000E+00 0.  1.
       21   -1    0    0  502  503 -0.00000000000E+00 -0.00000000000E+00 -0.12858802579E+04  0.12858802579E+04  0.00000000000E+00 0. -1.
       39    2    1    2    0    0  0.28421709430E-13  0.00000000000E+00 -0.10911217173E+04  0.14806387985E+04  0.10008719447E+04 0.  0.
       24    2    3    3    0    0  0.23289938054E+03  0.13695028639E+03  0.66589819052E+02  0.28923708010E+03  0.78907427452E+02 0.  0.
      -24    2    3    3    0    0 -0.23289938054E+03 -0.13695028639E+03 -0.11577115363E+04  0.11914017184E+04  0.78387185878E+02 0.  0.
      -13    1    4    4    0    0  0.17411864638E+03  0.13625908149E+03  0.64910399302E+02  0.23042829740E+03  0.00000000000E+00 0.  1.
       14    1    4    4    0    0  0.58780734158E+02  0.69120490612E+00  0.16794197498E+01  0.58808782703E+02  0.00000000000E+00 0. -1.
        1    1    5    5  501    0 -0.69089875464E+02 -0.61113739702E+02 -0.26421905310E+03  0.27985712085E+03  0.00000000000E+00 0. -1.
       -2    1    5    5    0  501 -0.16380950508E+03 -0.75836546693E+02 -0.89349248321E+03  0.91154459754E+03  0.00000000000E+00 0.  1.
</event>
<event>
 9   1  0.7335000E-04  0.9826528E+03  0.7818608E-02  0.9327778E-01
       21   -1    0    0  503  502  0.00000000000E+00  0.00000000000E+00  0.31327619456E+04  0.31327619456E+04  0.00000000000E+00 0. -1.
       21   -1    0    0  502  503 -0.00000000000E+00 -0.00000000000E+00 -0.77057125049E+02  0.77057125049E+02  0.00000000000E+00 0.  1.
       39    2    1    2    0    0  0.00000000000E+00 -0.14210854715E-13  0.30557048206E+04  0.32098190707E+04  0.98265279523E+03 0.  0.
       24    2    3    3    0    0 -0.47188786840E+03 -0.11057196018E+03  0.14808438996E+04  0.15601205287E+04  0.78569016188E+02 0.  0.
      -24    2    3    3    0    0  0.47188786840E+03  0.11057196018E+03  0.15748609210E+04  0.16496985420E+04  0.80087703858E+02 0.  0.
      -13    1    4    4    0    0 -0.40266810019E+03 -0.69033023675E+02  0.12816878958E+04  0.13452252672E+04  0.00000000000E+00 0.  1.
       14    1    4    4    0    0 -0.69219768219E+02 -0.41538936508E+02  0.19915600376E+03  0.21489526145E+03  0.00000000000E+00 0. -1.
        3    1    5    5  501    0  0.99459122826E+02  0.41717469562E+02  0.26291581556E+03  0.28417809636E+03  0.00000000000E+00 0. -1.
       -4    1    5    5    0  501  0.37242874558E+03  0.68854490622E+02  0.13119451054E+04  0.13655204456E+04  0.14200000000E+01 0.  1.
</event>
<event>
 9   1  0.7335000E-04  0.1001732E+04  0.7818608E-02  0.9306647E-01
       21   -1    0    0  503  502  0.00000000000E+00  0.00000000000E+00  0.92097061117E+03  0.92097061117E+03  0.00000000000E+00 0.  1.
       21   -1    0    0  502  503 -0.00000000000E+00 -0.00000000000E+00 -0.27239387647E+03  0.27239387647E+03  0.00000000000E+00 0. -1.
       39    2    1    2    0    0  0.00000000000E+00  0.00000000000E+00  0.64857673470E+03  0.11933644876E+04  0.10017320099E+04 0.  0.
       24    2    3    3    0    0  0.25616303794E+03  0.83302192690E+02  0.81829020315E+03  0.86520736648E+03  0.80163415141E+02 0.  0.
      -24    2    3    3    0    0 -0.25616303794E+03 -0.83302192690E+02 -0.16971346845E+03  0.32815712116E+03  0.79534127786E+02 0.  0.
      -13    1    4    4    0    0  0.21484005029E+03  0.86587066743E+02  0.75342531091E+03  0.78822792799E+03  0.00000000000E+00 0.  1.
       14    1    4    4    0    0  0.41322987648E+02 -0.32848740531E+01  0.64864892241E+02  0.76979438496E+02  0.00000000000E+00 0. -1.
        3    1    5    5  501    0 -0.13321119903E+03 -0.72024873151E+02 -0.59692714259E+02  0.16277599956E+03  0.00000000000E+00 0. -1.
       -4    1    5    5    0  501 -0.12295183891E+03 -0.11277319539E+02 -0.11002075419E+03  0.16538112160E+03  0.14200000000E+01 0.  1.
</event>
<event>
 9   1  0.7335000E-04  0.1001967E+04  0.7818608E-02  0.9306390E-01
       21   -1    0    0  503  502  0.00000000000E+00  0.00000000000E+00  0.63585483784E+03  0.63585483784E+03  0.00000000000E+00 0.  1.
       21   -1    0    0  502  503 -0.00000000000E+00 -0.00000000000E+00 -0.39471949421E+03  0.39471949421E+03  0.00000000000E+00 0. -1.
       39    2    1    2    0    0  0.00000000000E+00 -0.17763568394E-14  0.24113534363E+03  0.10305743320E+04  0.10019666661E+04 0.  0.
       24    2    3    3    0    0 -0.45654803297E+03 -0.14969330217E+02  0.31665889146E+03  0.56147546705E+03  0.79508863073E+02 0.  0.
      -24    2    3    3    0    0  0.45654803297E+03  0.14969330217E+02 -0.75523547829E+02  0.46909886500E+03  0.75430442184E+02 0.  0.
      -13    1    4    4    0    0 -0.39308418262E+03  0.40541786346E+00  0.29885827850E+03  0.49379308380E+03  0.00000000000E+00 0.  1.
       14    1    4    4    0    0 -0.63463850355E+02 -0.15374748081E+02  0.17800612958E+02  0.67682383248E+02  0.00000000000E+00 0. -1.
        1    1    5    5  501    0  0.25110597752E+03  0.20253031354E+02 -0.77521472267E+02  0.26357916437E+03  0.00000000000E+00 0. -1.
       -2    1    5    5    0  501  0.20544205545E+03 -0.52837011363E+01  0.19979244379E+01  0.20551970063E+03  0.00000000000E+00 0.  1.
</event>
<event>
 9   1  0.7335000E-04  0.9982396E+03  0.7818608E-02  0.9310478E-01
       21   -1    0    0  503  502  0.00000000000E+00  0.00000000000E+00  0.10404976848E+03  0.10404976848E+03  0.00000000000E+00 0. -1.
       21   -1    0    0  502  503 -0.00000000000E+00 -0.00000000000E+00 -0.23942441611E+04  0.23942441611E+04  0.00000000000E+00 0.  1.
       39    2    1    2    0    0  0.00000000000E+00  0.00000000000E+00 -0.22901943926E+04  0.24982939296E+04  0.99823955172E+03 0.  0.
       24    2    3    3    0    0 -0.34768182025E+03  0.33500568036E+03 -0.13894284876E+04  0.14731403146E+04  0.80742865439E+02 0.  0.
      -24    2    3    3    0    0  0.34768182025E+03 -0.33500568036E+03 -0.90076590503E+03  0.10251536150E+04  0.80307313984E+02 0.  0.
      -13    1    4    4    0    0 -0.23309294894E+03  0.17616541826E+03 -0.88722063559E+03  0.93409155528E+03  0.00000000000E+00 0.  1.
       14    1    4    4    0    0 -0.11458887131E+03  0.15884026210E+03 -0.50220785203E+03  0.53904875933E+03  0.00000000000E+00 0. -1.
        1    1    5    5  501    0  0.17391593561E+03 -0.21581111282E+03 -0.55191546141E+03  0.61760170468E+03  0.00000000000E+00 0. -1.
       -2    1    5    5    0  501  0.17376588463E+03 -0.11919456753E+03 -0.34885044362E+03  0.40755191032E+03  0.00000000000E+00 0.  1.
</event>
<event>
 9   1  0.7335000E-04  0.9978947E+03  0.7818608E-02  0.9310857E-01
       21   -1    0    0  503  502  0.00000000000E+00  0.00000000000E+00  0.41461236315E+03  0.41461236315E+03  0.00000000000E+00 0. -1.
       21   -1    0    0  502  503 -0.00000000000E+00 -0.00000000000E+00 -0.60043667446E+03  0.60043667446E+03  0.00000000000E+00 0.  1.
       39    2    1    2    0    0  0.00000000000E+00  0.00000000000E+00 -0.18582431131E+03  0.10150490376E+04  0.99789472095E+03 0.  0.
       24    2    3    3    0    0  0.61168351691E+02  0.26608922485E+03  0.32369633090E+03  0.43101750285E+03  0.80322663647E+02 0.  0.
      -24    2    3    3    0    0 -0.61168351691E+02 -0.26608922485E+03 -0.50952064221E+03  0.58403153477E+03  0.83285688678E+02 0.  0.
      -13    1    4    4    0    0  0.67930870301E+02  0.12896356803E+03  0.18906214710E+03  0.23872725123E+03  0.00000000000E+00 0.  1.
       14    1    4    4    0    0 -0.67625186093E+01  0.13712565683E+03  0.13463418380E+03  0.19229025161E+03  0.00000000000E+00 0. -1.
        1    1    5    5  501    0 -0.62663344975E+01 -0.89564010622E+02 -0.98086799527E+02  0.13297367855E+03  0.00000000000E+00 0. -1.
       -2    1    5    5    0  501 -0.54902017194E+02 -0.17652521423E+03 -0.41143384268E+03  0.45105785621E+03  0.00000000000E+00 0.  1.
</event>
<event>
 9   1  0.7335000E-04  0.1003648E+04  0.7818608E-02  0.9304553E-01
       21   -1    0    0  503  502  0.00000000000E+00  0.00000000000E+00  0.19238025369E+03  0.19238025369E+03  0.00000000000E+00 0. -1.
       21   -1    0    0  502  503 -0.00000000000E+00 -0.00000000000E+00 -0.13090078125E+04  0.13090078125E+04  0.00000000000E+00 0.  1.
       39    2    1    2    0    0  0.35527136788E-14 -0.14210854715E-13 -0.11166275588E+04  0.15013880662E+04  0.10036478567E+04 0.  0.
       24    2    3    3    0    0 -0.44169022581E+01 -0.80195731570E+02 -0.12898384394E+04  0.12946279129E+04  0.76989405418E+02 0.  0.
      -24    2    3    3    0    0  0.44169022581E+01  0.80195731570E+02  0.17321088060E+03  0.20676015334E+03  0.79352929769E+02 0.  0.
      -13    1    4    4    0    0 -0.36350957537E+02 -0.48902178937E+02 -0.93505817306E+03  0.93704140902E+03  0.00000000000E+00 0.  1.
       14    1    4    4    0    0  0.31934055279E+02 -0.31293552633E+02 -0.35478026638E+03  0.35758650385E+03  0.00000000000E+00 0. -1.
        3    1    5    5  501    0  0.24609391554E+02  0.83434929724E+02  0.16072996562E+03  0.18275976444E+03  0.00000000000E+00 0. -1.
       -4    1    5    5    0  501 -0.20192489295E+02 -0.32391981540E+01  0.12480914989E+02  0.24000388905E+02  0.14200000000E+01 0.  1.
</event>
<event>
 8   1  0.7335000E-04  0.1235972E+04  0.7818608E-02  0.9081940E-01
       21   -1    0    0  503  502  0.00000000000E+00  0.00000000000E+00  0.97593113637E+03  0.97593113637E+03  0.00000000000E+00 0.  1.
       21   -1    0    0  502  503 -0.00000000000E+00 -0.00000000000E+00 -0.39132529980E+03  0.39132529980E+03  0.00000000000E+00 0. -1.
       24    2    1    2    0    0 -0.23729916596E+03  0.38899201627E+03  0.74599354348E+03  0.87778175852E+03  0.79804547366E+02 0.  0.
      -24    2    1    2    0    0  0.23729916596E+03 -0.38899201627E+03 -0.16138770691E+03  0.48947467765E+03  0.76901139367E+02 0.  0.
      -13    1    3    3    0    0 -0.15046221890E+03  0.18974717316E+03  0.34232985353E+03  0.41932397696E+03  0.00000000000E+00 0.  1.
       14    1    3    3    0    0 -0.86836947058E+02  0.19924484311E+03  0.40366368996E+03  0.45845778155E+03  0.00000000000E+00 0. -1.
        3    1    4    4  501    0  0.13805624080E+03 -0.28364484651E+03 -0.89744510398E+02  0.32797561147E+03  0.00000000000E+00 0. -1.
       -4    1    4    4    0  501  0.99242925158E+02 -0.10534716976E+03 -0.71643196509E+02  0.16149906618E+03  0.14200000000E+01 0.  1.
</event>
<event>
 9   1  0.7335000E-04  0.9988845E+03  0.7818608E-02  0.9309769E-01
       21   -1    0    0  503  502  0.00000000000E+00  0.00000000000E+00  0.34134087107E+03  0.34134087107E+03  0.00000000000E+00 0.  1.
       21   -1    0    0  502  503 -0.00000000000E+00 -0.00000000000E+00 -0.73077256524E+03  0.73077256524E+03  0.00000000000E+00 0. -1.
       39    2    1    2    0    0  0.00000000000E+00  0.00000000000E+00 -0.38943169417E+03  0.10721134363E+04  0.99888446574E+03 0.  0.
       24    2    3    3    0    0  0.26655792588E+03 -0.84375272585E+02 -0.63034257898E+03  0.69413635586E+03  0.79505969456E+02 0.  0.
      -24    2    3    3    0    0 -0.26655792588E+03  0.84375272585E+02  0.24091088481E+03  0.37797708045E+03  0.81586178076E+02 0.  0.
      -13    1    4    4    0    0  0.31670016633E+02  0.15563683322E+02 -0.83419208244E+02  0.90575838368E+02  0.00000000000E+00 0.  1.
       14    1    4    4    0    0  0.23488790925E+03 -0.99938955907E+02 -0.54692337074E+03  0.60356051749E+03  0.00000000000E+00 0. -1.
        1    1    5    5  501    0 -0.80494796367E+02  0.62728845772E+02  0.10594472227E+03  0.14710066115E+03  0.00000000000E+00 0. -1.
       -2    1    5    5    0  501 -0.18606312951E+03  0.21646426813E+02  0.13496616254E+03  0.23087641930E+03  0.00000000000E+00 0.  1.
</event>
<event>
 9   1  0.7335000E-04  0.9994065E+03  0.7818608E-02  0.9309196E-01
       21   -1    0    0  503  502  0.00000000000E+00  0.00000000000E+00  0.15547135288E+04  0.15547135288E+04  0.00000000000E+00 0.  1.
       21   -1    0    0  502  503 -0.00000000000E+00 -0.00000000000E+00 -0.16061052825E+03  0.16061052825E+03  0.00000000000E+00 0. -1.
       39    2    1    2    0    0  0.00000000000E+00  0.00000000000E+00  0.13941030006E+04  0.17153240571E+04  0.99940654618E+03 0.  0.
       24    2    3    3    0    0  0.10324322196E+03  0.45317410863E+03  0.98227845148E+03  0.10892144469E+04  0.74102763453E+02 0.  0.
      -24    2    3    3    0    0 -0.10324322196E+03 -0.45317410863E+03  0.41182454911E+03  0.62610961016E+03  0.79924020551E+02 0.  0.
      -13    1    4    4    0    0  0.11080448632E+03  0.37923406347E+03  0.85389702176E+03  0.94086993408E+03  0.00000000000E+00 0.  1.
       14    1    4    4    0    0 -0.75612643549E+01  0.73940045156E+02  0.12838142972E+03  0.14834451285E+03  0.00000000000E+00 0. -1.
        3    1    5    5  501    0 -0.92847063685E+02 -0.29060907714E+03  0.23058122679E+03  0.38241589284E+03  0.00000000000E+00 0. -1.
       -4    1    5    5    0  501 -0.10396158277E+02 -0.16256503149E+03  0.18124332232E+03  0.24369371731E+03  0.14200000000E+01 0.  1.
</event>
<event>
 9   1  0.7335000E-04  0.1000278E+04  0.7818608E-02  0.9308239E-01
       21   -1    0    0  503  502  0.00000000000E+00  0.00000000000E+00  0.87730012039E+03  0.87730012039E+03  0.00000000000E+00 0. -1.
       21   -1    0    0  502  503 -0.00000000000E+00 -0.00000000000E+00 -0.28512392902E+03  0.28512392902E+03  0.00000000000E+00 0.  1.
       39    2    1    2    0    0  0.56843418861E-13  0.00000000000E+00  0.59217619137E+03  0.11624240494E+04  0.10002784757E+04 0.  0.
       24    2    3    3    0    0  0.32964421393E+03  0.31151155804E+02  0.72153817629E+03  0.79795768926E+03  0.80519759713E+02 0.  0.
      -24    2    3    3    0    0 -0.32964421393E+03 -0.31151155804E+02 -0.12936198492E+03  0.36446636015E+03  0.80408346890E+02 0.  0.
      -13    1    4    4    0    0  0.31689737026E+02 -0.19657619709E+02  0.10242047735E+03  0.10899823681E+03  0.00000000000E+00 0.  1.
       14    1    4    4    0    0  0.29795447691E+03  0.50808775514E+02  0.61911769894E+03  0.68895945245E+03  0.00000000000E+00 0. -1.
        3    1    5    5  501    0 -0.46821903941E+02  0.14336773702E+02  0.26748662621E+01  0.49040683910E+02  0.00000000000E+00 0. -1.
       -4    1    5    5    0  501 -0.28282230999E+03 -0.45487929506E+02 -0.13203685119E+03  0.31542567624E+03  0.14200000000E+01 0.  1.
</event>
<event>
 9   1  0.7335000E-04  0.9950990E+03  0.7818608E-02  0.9313937E-01
       21   -1    0    0  503  502  0.00000000000E+00  0.00000000000E+00  0.12453068841E+03  0.12453068841E+03  0.00000000000E+00 0. -1.
       21   -1    0    0  502  503 -0.00000000000E+00 -0.00000000000E+00 -0.19879075345E+04  0.19879075345E+04  0.00000000000E+00 0.  1.
       39    2    1    2    0    0 -0.56843418861E-13  0.00000000000E+00 -0.18633768461E+04  0.21124382229E+04  0.99509897753E+03 0.  0.
       24    2    3    3    0    0 -0.25840190541E+03  0.40761064942E+03 -0.11289395173E+04  0.12298393728E+04  0.71291394375E+02 0.  0.
      -24    2    3    3    0    0  0.25840190541E+03 -0.40761064942E+03 -0.73443732879E+03  0.88259885012E+03  0.81636720120E+02 0.  0.
      -13    1    4    4    0    0 -0.16980877303E+03  0.31332655519E+03 -0.87637568236E+03  0.94606706222E+03  0.00000000000E+00 0.  1.
       14    1    4    4    0    0 -0.88593132375E+02  0.94284094226E+02 -0.25256383497E+03  0.28377231060E+03  0.00000000000E+00 0. -1.
        1    1    5    5  501    0  0.16006218880E+03 -0.18249594064E+03 -0.33586551765E+03  0.41440356970E+03  0.00000000000E+00 0. -1.
       -2    1    5    5    0  501  0.98339716607E+02 -0.22511470878E+03 -0.39857181113E+03  0.46819528041E+03  0.00000000000E+00 0.  1.
</event>
<event>
 9   1  0.7335000E-04  0.9992275E+03  0.7818608E-02  0.9309392E-01
       21   -1    0    0  503  502  0.00000000000E+00  0.00000000000E+00  0.10005867449E+04  0.10005867449E+04  0.00000000000E+00 0. -1.
       21   -1    0    0  502  503 -0.00000000000E+00 -0.00000000000E+00 -0.24946752745E+03  0.24946752745E+03  0.00000000000E+00 0.  1.
       39    2    1    2    0    0  0.00000000000E+00 -0.28421709430E-13  0.75111921741E+03  0.12500542723E+04  0.99922750410E+03 0.  0.
       24    2    3    3    0    0 -0.14585060484E+03 -0.23498667505E+03 -0.13552018775E+03  0.31776541965E+03  0.78217672257E+02 0.  0.
      -24    2    3    3    0    0  0.14585060484E+03  0.23498667505E+03  0.88663940516E+03  0.93228885265E+03  0.80882220685E+02 0.  0.
      -13    1    4    4    0    0 -0.12923526886E+03 -0.21832319024E+03 -0.14520294670E+03  0.29231945855E+03  0.00000000000E+00 0.  1.
       14    1    4    4    0    0 -0.16615335976E+02 -0.16663484809E+02  0.96827589470E+01  0.25445961102E+02  0.00000000000E+00 0. -1.
        3    1    5    5  501    0  0.15293647172E+03  0.20028779728E+03  0.75410107739E+03  0.79509320274E+03  0.00000000000E+00 0. -1.
       -4    1    5    5    0  501 -0.70858668862E+01  0.34698877774E+02  0.13253832777E+03  0.13719564991E+03  0.14200000000E+01 0.  1.
</event>
<event>
 9   1  0.7335000E-04  0.1005383E+04  0.7818608E-02  0.9302661E-01
       21   -1    0    0  503  502  0.00000000000E+00  0.00000000000E+00  0.71521670484E+03  0.71521670484E+03  0.00000000000E+00 0. -1.
       21   -1    0    0  502  503 -0.00000000000E+00 -0.00000000000E+00 -0.35331760163E+03  0.35331760163E+03  0.00000000000E+00 0.  1.
       39    2    1    2    0    0  0.00000000000E+00 -0.56843418861E-13  0.36189910320E+03  0.10685343065E+04  0.10053828143E+04 0.  0.
       24    2    3    3    0    0 -0.30501145689E+03  0.32601908151E+03  0.41162061565E+03  0.61216077393E+03  0.77387670649E+02 0.  0.
      -24    2    3    3    0    0  0.30501145689E+03 -0.32601908151E+03 -0.49721512449E+02  0.45637353254E+03  0.80524170641E+02 0.  0.
      -13    1    4    4    0    0 -0.27691308546E+03  0.31810749949E+03  0.36832284937E+03  0.55994192511E+03  0.00000000000E+00 0.  1.
       14    1    4    4    0    0 -0.28098371428E+02  0.79115820204E+01  0.43297766279E+02  0.52218848816E+02  0.00000000000E+00 0. -1.
        1    1    5    5  501    0  0.23511229776E+03 -0.19682607218E+03 -0.28255550554E+02  0.30792315824E+03  0.00000000000E+00 0. -1.
       -2    1    5    5    0  501  0.69899159132E+02 -0.12919300933E+03 -0.21465961894E+02  0.14845037429E+03  0.00000000000E+00 0.  1.
</event>
<event>
 9   1  0.7335000E-04  0.9991564E+03  0.7818608E-02  0.9309471E-01
       21   -1    0    0  503  502  0.00000000000E+00  0.00000000000E+00  0.37022998825E+03  0.37022998825E+03  0.00000000000E+00 0. -1.
       21   -1    0    0  502  503 -0.00000000000E+00 -0.00000000000E+00 -0.67411707323E+03  0.67411707323E+03  0.00000000000E+00 0.  1.
       39    2    1    2    0    0  0.00000000000E+00  0.00000000000E+00 -0.30388708498E+03  0.10443470615E+04  0.99915635633E+03 0.  0.
       24    2    3    3    0    0 -0.13617146218E+03  0.11726753528E+03 -0.63221268683E+03  0.66169341444E+03  0.76491511847E+02 0.  0.
      -24    2    3    3    0    0  0.13617146218E+03 -0.11726753528E+03  0.32832560185E+03  0.38265364703E+03  0.79572424967E+02 0.  0.
      -13    1    4    4    0    0 -0.13221228219E+03  0.10682102728E+03 -0.62649601939E+03  0.64914411477E+03  0.00000000000E+00 0.  1.
       14    1    4    4    0    0 -0.39591799915E+01  0.10446508000E+02 -0.57166674384E+01  0.12549299670E+02  0.00000000000E+00 0. -1.
        1    1    5    5  501    0  0.12328499884E+03 -0.61059473355E+02  0.21046334366E+03  0.25144038906E+03  0.00000000000E+00 0. -1.
       -2    1    5    5    0  501  0.12886463342E+02 -0.56208061929E+02  0.11786225819E+03  0.13121325797E+03  0.00000000000E+00 0.  1.
</event>
<event>
 9   1  0.7335000E-04  0.1002015E+04  0.7818608E-02  0.9306338E-01
       21   -1    0    0  503  502  0.00000000000E+00  0.00000000000E+00  0.78984457145E+03  0.78984457145E+03  0.00000000000E+00 0. -1.
       21   -1    0    0  502  503 -0.00000000000E+00 -0.00000000000E+00 -0.31779472587E+03  0.31779472587E+03  0.00000000000E+00 0.  1.
       39    2    1    2    0    0  0.00000000000E+00  0.00000000000E+00  0.47204984558E+03  0.11076392973E+04  0.10020148483E+04 0.  0.
       24    2    3    3    0    0 -0.29595216443E+03 -0.38180612493E+03  0.35230615744E+03  0.60335651141E+03  0.80968207504E+02 0.  0.
      -24    2    3    3    0    0  0.29595216443E+03  0.38180612493E+03  0.11974368814E+03  0.50428278590E+03  0.81234085465E+02 0.  0.
      -13    1    4    4    0    0 -0.11911187774E+02 -0.51805254129E+02  0.25561093127E+02  0.58983304683E+02  0.00000000000E+00 0.  1.
       14    1    4    4    0    0 -0.28404097666E+03 -0.33000087080E+03  0.32674506431E+03  0.54437320673E+03  0.00000000000E+00 0. -1.
        3    1    5    5  501    0  0.70505278024E+02  0.55719990559E+02  0.46340942579E+02  0.10110981424E+03  0.00000000000E+00 0. -1.
       -4    1    5    5    0  501  0.22544688641E+03  0.32608613437E+03  0.73402745558E+02  0.40317297166E+03  0.14200000000E+01 0.  1.
</event>
<event>
 9   1  0.7335000E-04  0.1004256E+04  0.7818608E-02  0.9303889E-01
       21   -1    0    0  503  502  0.00000000000E+00  0.00000000000E+00  0.59215520806E+03  0.59215520806E+03  0.00000000000E+00 0.  1.
       21   -1    0    0  502  503 -0.00000000000E+00 -0.00000000000E+00 -0.42578769341E+03  0.42578769341E+03  0.00000000000E+00 0. -1.
       39    2    1    2    0    0  0.28421709430E-13  0.00000000000E+00  0.16636751465E+03  0.10179429015E+04  0.10042557447E+04 0.  0.
       24    2    3    3    0    0  0.22298111683E+03 -0.16777107681E+03 -0.33228441593E+03  0.44100297720E+03  0.78759000448E+02 0.  0.
      -24    2    3    3    0    0 -0.22298111683E+03  0.16777107681E+03  0.49865193058E+03  0.57693992426E+03  0.79612911365E+02 0.  0.
      -13    1    4    4    0    0  0.23175023908E+02 -0.53375710936E+02 -0.86246754040E+02  0.10404110165E+03  0.00000000000E+00 0.  1.
       14    1    4    4    0    0  0.19980609292E+03 -0.11439536588E+03 -0.24603766189E+03  0.33696187555E+03  0.00000000000E+00 0. -1.
        1    1    5    5  501    0 -0.14216025921E+03  0.57957451598E+02  0.25069489593E+03  0.29396689667E+03  0.00000000000E+00 0. -1.
       -2    1    5    5    0  501 -0.80820857622E+02  0.10981362521E+03  0.24795703465E+03  0.28297302759E+03  0.00000000000E+00 0.  1.
</event>
<event>
 9   1  0.7335000E-04  0.1036190E+04  0.7818608E-02  0.9269719E-01
       21   -1    0    0  503  502  0.00000000000E+00  0.00000000000E+00  0.25340011071E+03  0.25340011071E+03  0.00000000000E+00 0. -1.
       21   -1    0    0  502  503 -0.00000000000E+00 -0.00000000000E+00 -0.10592834607E+04  0.10592834607E+04  0.00000000000E+00 0.  1.
       39    2    1    2    0    0  0.00000000000E+00  0.00000000000E+00 -0.80588334995E+03  0.13126835714E+04  0.10361902262E+04 0.  0.
       24    2    3    3    0    0 -0.11166783834E+03 -0.13838481659E+03  0.20544005820E+03  0.28279903514E+03  0.78419469374E+02 0.  0.
      -24    2    3    3    0    0  0.11166783834E+03  0.13838481659E+03 -0.10113234081E+04  0.10298845362E+04  0.79164755566E+02 0.  0.
      -13    1    4    4    0    0 -0.33662891548E+02 -0.50112673089E+02  0.20937115853E+02  0.63897050728E+02  0.00000000000E+00 0.  1.
       14    1    4    4    0    0 -0.78004946797E+02 -0.88272143505E+02  0.18450294234E+03  0.21890198441E+03  0.00000000000E+00 0. -1.
        1    1    5    5  501    0  0.24792141769E+02  0.18229859361E+02 -0.38592431979E+03  0.38714927182E+03  0.00000000000E+00 0. -1.
       -2    1    5    5    0  501  0.86875696575E+02  0.12015495723E+03 -0.62539908836E+03  0.64273526442E+03  0.00000000000E+00 0.  1.
</event>
<event>
 9   1  0.7335000E-04  0.9913316E+03  0.7818608E-02  0.9318104E-01
       21   -1    0    0  503  502  0.00000000000E+00  0.00000000000E+00  0.91844963006E+03  0.91844963006E+03  0.00000000000E+00 0.  1.
       21   -1    0    0  502  503 -0.00000000000E+00 -0.00000000000E+00 -0.26749924918E+03  0.26749924918E+03  0.00000000000E+00 0. -1.
       39    2    1    2    0    0  0.00000000000E+00 -0.56843418861E-13  0.65095038088E+03  0.11859488792E+04  0.99133160235E+03 0.  0.
       24    2    3    3    0    0 -0.30312255356E+03  0.27255604223E+03  0.19936924025E+01  0.41546605273E+03  0.80237070791E+02 0.  0.
      -24    2    3    3    0    0  0.30312255356E+03 -0.27255604223E+03  0.64895668847E+03  0.77048282651E+03  0.79554533513E+02 0.  0.
      -13    1    4    4    0    0 -0.93007807505E+02  0.10473477937E+03 -0.34055283327E+02  0.14415126982E+03  0.00000000000E+00 0.  1.
       14    1    4    4    0    0 -0.21011474605E+03  0.16782126286E+03  0.36048975729E+02  0.27131478292E+03  0.00000000000E+00 0. -1.
        3    1    5    5  501    0  0.14825380719E+03 -0.99540535422E+02  0.22663595609E+03  0.28853312830E+03  0.00000000000E+00 0. -1.
       -4    1    5    5    0  501  0.15486874637E+03 -0.17301550681E+03  0.42232073239E+03  0.48194969821E+03  0.14200000000E+01 0.  1.
</event>
<event>
 9   1  0.7335000E-04  0.1005507E+04  0.7818608E-02  0.9302525E-01
       21   -1    0    0  503  502  0.00000000000E+00  0.00000000000E+00  0.41723293287E+03  0.41723293287E+03  0.00000000000E+00 0.  1.
       21   -1    0    0  502  503 -0.00000000000E+00 -0.00000000000E+00 -0.60580315998E+03  0.60580315998E+03  0.00000000000E+00 0. -1.
       39    2    1    2    0    0  0.00000000000E+00  0.00000000000E+00 -0.18857022711E+03  0.10230360928E+04  0.10055068954E+04 0.  0.
       24    2    3    3    0    0  0.41743232970E+03 -0.26067821637E+03 -0.15901735170E+03  0.52342343439E+03  0.80515161057E+02 0.  0.
      -24    2    3    3    0    0 -0.41743232970E+03  0.26067821637E+03 -0.29552875410E+02  0.49961265845E+03  0.80848955898E+02 0.  0.
      -13    1    4    4    0    0  0.24628412856E+03 -0.19457375982E+03 -0.81720931333E+02  0.32433490501E+03  0.00000000000E+00 0.  1.
       14    1    4    4    0    0  0.17114820114E+03 -0.66104456551E+02 -0.77296420367E+02  0.19908852938E+03  0.00000000000E+00 0. -1.
        3    1    5    5  501    0 -0.14266551876E+03  0.71393105611E+02 -0.44493385262E+02  0.16562031006E+03  0.00000000000E+00 0. -1.
       -4    1    5    5    0  501 -0.27476681094E+03  0.18928511076E+03  0.14940509852E+02  0.33399234839E+03  0.14200000000E+01 0.  1.
</event>
<event>
 9   1  0.7335000E-04  0.9899241E+03  0.7818608E-02  0.9319665E-01
       21   -1    0    0  503  502  0.00000000000E+00  0.00000000000E+00  0.80998069991E+03  0.80998069991E+03  0.00000000000E+00 0.  1.
       21   -1    0    0  502  503 -0.00000000000E+00 -0.00000000000E+00 -0.30246080505E+03  0.30246080505E+03  0.00000000000E+00 0. -1.
       39    2    1    2    0    0 -0.14210854715E-13  0.00000000000E+00  0.50751989485E+03  0.11124415050E+04  0.98992406693E+03 0.  0.
       24    2    3    3    0    0 -0.64682332284E+02 -0.47464834037E+03  0.35999790254E+03  0.60493931225E+03  0.82935098349E+02 0.  0.
      -24    2    3    3    0    0  0.64682332284E+02  0.47464834037E+03  0.14752199231E+03  0.50750219272E+03  0.79504001589E+02 0.  0.
      -13    1    4    4    0    0 -0.63996896352E+02 -0.45928915744E+03  0.32372888589E+03  0.56554621778E+03  0.00000000000E+00 0.  1.
       14    1    4    4    0    0 -0.68543593177E+00 -0.15359182934E+02  0.36269016655E+02  0.39393094470E+02  0.00000000000E+00 0. -1.
        1    1    5    5  501    0  0.82082368722E+02  0.34480997720E+03  0.10221218799E+03  0.36888855635E+03  0.00000000000E+00 0. -1.
       -2    1    5    5    0  501 -0.17400036439E+02  0.12983836318E+03  0.45309804320E+02  0.13861363637E+03  0.00000000000E+00 0.  1.
</event>
<event>
 9   1  0.7335000E-04  0.1017432E+04  0.7818608E-02  0.9289629E-01
       21   -1    0    0  503  502  0.00000000000E+00  0.00000000000E+00  0.31150480760E+03  0.31150480760E+03  0.00000000000E+00 0. -1.
       21   -1    0    0  502  503 -0.00000000000E+00 -0.00000000000E+00 -0.83078047428E+03  0.83078047428E+03  0.00000000000E+00 0.  1.
       39    2    1    2    0    0  0.00000000000E+00  0.00000000000E+00 -0.51927566668E+03  0.11422852819E+04  0.10174322814E+04 0.  0.
       24    2    3    3    0    0 -0.40110975153E+03 -0.91791012835E+02  0.64492375929E+02  0.42416965297E+03  0.80287017205E+02 0.  0.
      -24    2    3    3    0    0  0.40110975153E+03  0.91791012835E+02 -0.58376804261E+03  0.71811562892E+03  0.74768349669E+02 0.  0.
      -13    1    4    4    0    0 -0.37167138430E+03 -0.10417282776E+03  0.50430968187E+02  0.38927481103E+03  0.00000000000E+00 0.  1.
       14    1    4    4    0    0 -0.29438367237E+02  0.12381814920E+02  0.14061407742E+02  0.34894841940E+02  0.00000000000E+00 0. -1.
        3    1    5    5  501    0  0.27680593974E+03  0.28508145502E+02 -0.37286218839E+03  0.46525310764E+03  0.00000000000E+00 0. -1.
       -4    1    5    5    0  501  0.12430381179E+03  0.63282867333E+02 -0.21090585422E+03  0.25286252128E+03  0.14200000000E+01 0.  1.
</event>
<event>
 9   1  0.7335000E-04  0.9974722E+03  0.7818608E-02  0.9311322E-01
       21   -1    0    0  503  502  0.00000000000E+00  0.00000000000E+00  0.28253626430E+04  0.28253626430E+04  0.00000000000E+00 0. -1.
       21   -1    0    0  502  503 -0.00000000000E+00 -0.00000000000E+00 -0.88037435019E+02  0.88037435019E+02  0.00000000000E+00 0.  1.
       39    2    1    2    0    0  0.00000000000E+00  0.56843418861E-13  0.27373252080E+04  0.29134000780E+04  0.99747216520E+03 0.  0.
       24    2    3    3    0    0 -0.24839698388E+03  0.41974887440E+03  0.11858957535E+04  0.12848263135E+04  0.80868649858E+02 0.  0.
      -24    2    3    3    0    0  0.24839698388E+03 -0.41974887440E+03  0.15514294545E+04  0.16285737645E+04  0.86191502351E+02 0.  0.
      -13    1    4    4    0    0 -0.92478511931E+02  0.22053187686E+03  0.51478120164E+03  0.56761454301E+03  0.00000000000E+00 0.  1.
       14    1    4    4    0    0 -0.15591847195E+03  0.19921699755E+03  0.67111455185E+03  0.71721177047E+03  0.00000000000E+00 0. -1.
        3    1    5    5  501    0  0.12245196988E+03 -0.13146920185E+03  0.61559426480E+03  0.64127602077E+03  0.00000000000E+00 0. -1.
       -4    1    5    5    0  501  0.12594501401E+03 -0.28827967255E+03  0.93583518969E+03  0.98729774376E+03  0.14200000000E+01 0.  1.
</event>
<event>
 9   1  0.7335000E-04  0.1004615E+04  0.7818608E-02  0.9303498E-01
        2   -1    0    0  501    0  0.00000000000E+00  0.00000000000E+00  0.12917008547E+04  0.12917008547E+04  0.00000000000E+00 0. -1.
       -2   -1    0    0    0  501 -0.00000000000E+00 -0.00000000000E+00 -0.19533371926E+03  0.19533371926E+03  0.00000000000E+00 0.  1.
       39    2    1    2    0    0  0.00000000000E+00  0.56843418861E-13  0.10963671354E+04  0.14870345739E+04  0.10046148160E+04 0.  0.
       24    2    3    3    0    0 -0.39874080591E+03 -0.28425571625E+03  0.43267544688E+03  0.65851711166E+03  0.81493567234E+02 0.  0.
      -24    2    3    3    0    0  0.39874080591E+03  0.28425571625E+03  0.66369168851E+03  0.82851746226E+03  0.78479203299E+02 0.  0.
      -13    1    4    4    0    0 -0.36851773440E+03 -0.26698726470E+03  0.42543683177E+03  0.62296389776E+03  0.00000000000E+00 0.  1.
       14    1    4    4    0    0 -0.30223071504E+02 -0.17268451549E+02  0.72386151066E+01  0.35553213901E+02  0.00000000000E+00 0. -1.
        3    1    5    5  502    0  0.33988839479E+03  0.21647163950E+03  0.57643329758E+03  0.70332029558E+03  0.00000000000E+00 0. -1.
       -4    1    5    5    0  502  0.58852411115E+02  0.67784076753E+02  0.87258390933E+02  0.12519716668E+03  0.14200000000E+01 0.  1.
</event>
<event>
 9   1  0.7335000E-04  0.1069523E+04  0.7818608E-02  0.9235416E-01
       21   -1    0    0  503  502  0.00000000000E+00  0.00000000000E+00  0.25495227709E+03  0.25495227709E+03  0.00000000000E+00 0.  1.
       21   -1    0    0  502  503 -0.00000000000E+00 -0.00000000000E+00 -0.11216613692E+04  0.11216613692E+04  0.00000000000E+00 0. -1.
       39    2    1    2    0    0  0.00000000000E+00  0.00000000000E+00 -0.86670909207E+03  0.13766136462E+04  0.10695234830E+04 0.  0.
       24    2    3    3    0    0 -0.48299041922E+03  0.45588526808E+02 -0.70422695164E+03  0.85903394482E+03  0.81520918274E+02 0.  0.
      -24    2    3    3    0    0  0.48299041922E+03 -0.45588526808E+02 -0.16248214043E+03  0.51757970142E+03  0.78295865337E+02 0.  0.
      -13    1    4    4    0    0 -0.43437943112E+02  0.24754717834E+02 -0.51045923206E+02  0.71451642617E+02  0.00000000000E+00 0.  1.
       14    1    4    4    0    0 -0.43955247611E+03  0.20833808975E+02 -0.65318102843E+03  0.78758230221E+03  0.00000000000E+00 0. -1.
        3    1    5    5  501    0  0.26702602915E+03  0.13936176402E+01 -0.11889433736E+03  0.29230242194E+03  0.00000000000E+00 0. -1.
       -4    1    5    5    0  501  0.21596439007E+03 -0.46982144449E+02 -0.43587803073E+02  0.22527727948E+03  0.14200000000E+01 0.  1.
</event>
<event>
 9   1  0.7335000E-04  0.9957963E+03  0.7818608E-02  0.9313167E-01
       -1   -1    0    0    0  501 -0.00000000000E+00  0.00000000000E+00  0.19032881596E+03  0.19032881596E+03  0.00000000000E+00 0.  1.
        1   -1    0    0  501    0  0.00000000000E+00 -0.00000000000E+00 -0.13024961437E+04  0.13024961437E+04  0.00000000000E+00 0. -1.
       39    2    1    2    0    0  0.00000000000E+00  0.00000000000E+00 -0.11121673277E+04  0.14928249596E+04  0.99579626193E+03 0.  0.
       24    2    3    3    0    0  0.48181871465E+03 -0.53773497326E+02 -0.67819288533E+03  0.83760294889E+03  0.81192656430E+02 0.  0.
      -24    2    3    3    0    0 -0.48181871465E+03  0.53773497326E+02 -0.43397444237E+03  0.65522201074E+03  0.77079205518E+02 0.  0.
      -13    1    4    4    0    0  0.14940500319E+03 -0.46634838276E+02 -0.25817089984E+03  0.30190872237E+03  0.00000000000E+00 0.  1.
       14    1    4    4    0    0  0.33241371147E+03 -0.71386590507E+01 -0.42002198549E+03  0.53569422651E+03  0.00000000000E+00 0. -1.
        1    1    5    5  502    0 -0.27079314014E+03  0.65415303316E+02 -0.22625182337E+03  0.35888434660E+03  0.00000000000E+00 0. -1.
       -2    1    5    5    0  502 -0.21102557452E+03 -0.11641805989E+02 -0.20772261900E+03  0.29633766414E+03  0.00000000000E+00 0.  1.
</event>
<event>
 8   1  0.7335000E-04  0.3859442E+04  0.7818608E-02  0.8033518E-01
       21   -1    0    0  503  502  0.00000000000E+00  0.00000000000E+00  0.13359149471E+04  0.13359149471E+04  0.00000000000E+00 0.  1.
       21   -1    0    0  502  503 -0.00000000000E+00 -0.00000000000E+00 -0.27874696560E+04  0.27874696560E+04  0.00000000000E+00 0. -1.
       24    2    1    2    0    0 -0.83483858349E+03  0.12110071457E+04  0.60656666004E+03  0.15929868899E+04  0.78678781620E+02 0.  0.
      -24    2    1    2    0    0  0.83483858349E+03 -0.12110071457E+04 -0.20581213689E+04  0.25303977132E+04  0.59625920236E+02 0.  0.
      -13    1    3    3    0    0 -0.68229303708E+03  0.93482242568E+03  0.48562274770E+03  0.12550881280E+04  0.00000000000E+00 0.  1.
       14    1    3    3    0    0 -0.15254554641E+03  0.27618472005E+03  0.12094391234E+03  0.33789876183E+03  0.00000000000E+00 0. -1.
        1    1    4    4  501    0  0.81879939558E+03 -0.11798273642E+04 -0.19941882930E+04  0.24574808255E+04  0.00000000000E+00 0. -1.
       -2    1    4    4    0  501  0.16039187910E+02 -0.31179781529E+02 -0.63933075936E+02  0.72916887781E+02  0.00000000000E+00 0.  1.
</event>
<event>
 9   1  0.7335000E-04  0.9980327E+03  0.7818608E-02  0.9310705E-01
       21   -1    0    0  503  502  0.00000000000E+00  0.00000000000E+00  0.55008240999E+03  0.55008240999E+03  0.00000000000E+00 0. -1.
       21   -1    0    0  502  503 -0.00000000000E+00 -0.00000000000E+00 -0.45269090633E+03  0.45269090633E+03  0.00000000000E+00 0.  1.
       39    2    1    2    0    0  0.28421709430E-13  0.00000000000E+00  0.97391503665E+02  0.10027733163E+04  0.99803267428E+03 0.  0.
       24    2    3    3    0    0  0.16793877435E+03 -0.94234755956E+01 -0.41634312410E+03  0.45620618139E+03  0.80562082440E+02 0.  0.
      -24    2    3    3    0    0 -0.16793877435E+03  0.94234755956E+01  0.51373462777E+03  0.54656713493E+03  0.80747330571E+02 0.  0.
      -13    1    4    4    0    0  0.14320363781E+03  0.23696854443E+02 -0.32620429268E+03  0.35704070266E+03  0.00000000000E+00 0.  1.
       14    1    4    4    0    0  0.24735136544E+02 -0.33120330038E+02 -0.90138831424E+02  0.99165478732E+02  0.00000000000E+00 0. -1.
        1    1    5    5  501    0 -0.11776164765E+03 -0.17167562304E+02  0.42390457356E+03  0.44029265079E+03  0.00000000000E+00 0. -1.
       -2    1    5    5    0  501 -0.50177126699E+02  0.26591037900E+02  0.89830054204E+02  0.10627448414E+03  0.00000000000E+00 0.  1.
</event>
<event>
 9   1  0.7335000E-04  0.9959442E+03  0.7818608E-02  0.9313004E-01
       21   -1    0    0  503  502  0.00000000000E+00  0.00000000000E+00  0.91107994857E+03  0.91107994857E+03  0.00000000000E+00 0. -1.
       21   -1    0    0  502  503 -0.00000000000E+00 -0.00000000000E+00 -0.27217832625E+03  0.27217832625E+03  0.00000000000E+00 0.  1.
       39    2    1    2    0    0  0.71054273576E-14 -0.56843418861E-13  0.63890162232E+03  0.11832582748E+04  0.99594420622E+03 0.  0.
       24    2    3    3    0    0 -0.48952309617E+02  0.21827378211E+03 -0.20053961267E+03  0.31045300972E+03  0.78263416865E+02 0.  0.
      -24    2    3    3    0    0  0.48952309617E+02 -0.21827378211E+03  0.83944123499E+03  0.87280526509E+03  0.84188307955E+02 0.  0.
      -13    1    4    4    0    0 -0.47486351930E+02  0.14782199148E+03 -0.90288123025E+02  0.17960579040E+03  0.00000000000E+00 0.  1.
       14    1    4    4    0    0 -0.14659576870E+01  0.70451790631E+02 -0.11025148965E+03  0.13084721932E+03  0.00000000000E+00 0. -1.
        3    1    5    5  501    0  0.38587991557E+02 -0.22059409581E+03  0.74987541923E+03  0.78260074914E+03  0.00000000000E+00 0. -1.
       -4    1    5    5    0  501  0.10364318060E+02  0.23203136929E+01  0.89565815766E+02  0.90204515953E+02  0.14200000000E+01 0.  1.
</event>
<event>
 9   1  0.7335000E-04  0.1000087E+04  0.7818608E-02  0.9308450E-01
       21   -1    0    0  503  502  0.00000000000E+00  0.00000000000E+00  0.72328787143E+03  0.72328787143E+03  0.00000000000E+00 0. -1.
       21   -1    0    0  502  503 -0.00000000000E+00 -0.00000000000E+00 -0.34570378614E+03  0.34570378614E+03  0.00000000000E+00 0.  1.
       39    2    1    2    0    0  0.00000000000E+00  0.00000000000E+00  0.37758408529E+03  0.10689916576E+04  0.10000867075E+04 0.  0.
       24    2    3    3    0    0  0.34752747452E+03 -0.16937519127E+03 -0.13928382626E+03  0.41880297193E+03  0.80824773881E+02 0.  0.
      -24    2    3    3    0    0 -0.34752747452E+03  0.16937519127E+03  0.51686791154E+03  0.65018868564E+03  0.78291685310E+02 0.  0.
      -13    1    4    4    0    0  0.31020045690E+03 -0.13195321407E+03 -0.96045623262E+02  0.35051495819E+03  0.00000000000E+00 0.  1.
       14    1    4    4    0    0  0.37327017614E+02 -0.37421977206E+02 -0.43238202993E+02  0.68288013736E+02  0.00000000000E+00 0. -1.
        1    1    5    5  501    0 -0.33905541022E+03  0.17645295185E+03  0.49234856312E+03  0.62329874300E+03  0.00000000000E+00 0. -1.
       -2    1    5    5    0  501 -0.84720642944E+01 -0.70777605763E+01  0.24519348420E+02  0.26889942639E+02  0.00000000000E+00 0.  1.
</event>
<event>
 9   1  0.7335000E-04  0.1001588E+04  0.7818608E-02  0.9306805E-01
       -2   -1    0    0    0  501 -0.00000000000E+00  0.00000000000E+00  0.31387619898E+03  0.31387619898E+03  0.00000000000E+00 0. -1.
        2   -1    0    0  501    0  0.00000000000E+00 -0.00000000000E+00 -0.79902426369E+03  0.79902426369E+03  0.00000000000E+00 0.  1.
       39    2    1    2    0    0  0.14210854715E-13  0.00000000000E+00 -0.48514806470E+03  0.11129004627E+04  0.10015881365E+04 0.  0.
       24    2    3    3    0    0  0.91425695517E+02 -0.48479828446E+03 -0.20131855025E+03  0.53897821450E+03  0.81119187733E+02 0.  0.
      -24    2    3    3    0    0 -0.91425695517E+02  0.48479828446E+03 -0.28382951445E+03  0.57392224816E+03  0.73753096533E+02 0.  0.
      -13    1    4    4    0    0  0.16597655903E+02 -0.95745376249E+02 -0.62469270899E+01  0.97373935694E+02  0.00000000000E+00 0.  1.
       14    1    4    4    0    0  0.74828039615E+02 -0.38905290821E+03 -0.19507162316E+03  0.44160427881E+03  0.00000000000E+00 0. -1.
        3    1    5    5  502    0 -0.65652301068E+02  0.23443668380E+03 -0.10479491510E+03  0.26505236762E+03  0.00000000000E+00 0. -1.
       -4    1    5    5    0  502 -0.25773394450E+02  0.25036160066E+03 -0.17903459935E+03  0.30886988055E+03  0.14200000000E+01 0.  1.
</event>
<event>
 9   1  0.7335000E-04  0.9983839E+03  0.7818608E-02  0.9310319E-01
       21   -1    0    0  503  502  0.00000000000E+00  0.00000000000E+00  0.94205596764E+03  0.94205596764E+03  0.00000000000E+00 0. -1.
       21   -1    0    0  502  503 -0.00000000000E+00 -0.00000000000E+00 -0.26451993322E+03  0.26451993322E+03  0.00000000000E+00 0.  1.
       39    2    1    2    0    0  0.28421709430E-13  0.00000000000E+00  0.67753603441E+03  0.12065759009E+04  0.99838385734E+03 0.  0.
       24    2    3    3    0    0  0.17984820990E+03 -0.45345835813E+03  0.42120099149E+03  0.64959934561E+03  0.81235296707E+02 0.  0.
      -24    2    3    3    0    0 -0.17984820990E+03  0.45345835813E+03  0.25633504293E+03  0.55697655524E+03  0.80903446770E+02 0.  0.
      -13    1    4    4    0    0  0.52091639431E+02 -0.19091948054E+03  0.21462268692E+03  0.29193609692E+03  0.00000000000E+00 0.  1.
       14    1    4    4    0    0  0.12775657047E+03 -0.26253887759E+03  0.20657830457E+03  0.35766324869E+03  0.00000000000E+00 0. -1.
        3    1    5    5  501    0 -0.16211044579E+03  0.36004732190E+03  0.17522722129E+03  0.43199357602E+03  0.00000000000E+00 0. -1.
       -4    1    5    5    0  501 -0.17737764106E+02  0.93411036234E+02  0.81107821640E+02  0.12498297923E+03  0.14200000000E+01 0.  1.
</event>
<event>
 9   1  0.7335000E-04  0.9940854E+03  0.7818608E-02  0.9315056E-01
       21   -1    0    0  503  502  0.00000000000E+00  0.00000000000E+00  0.36431412218E+03  0.36431412218E+03  0.00000000000E+00 0.  1.
       21   -1    0    0  502  503 -0.00000000000E+00 -0.00000000000E+00 -0.67812752998E+03  0.67812752998E+03  0.00000000000E+00 0. -1.
       39    2    1    2    0    0 -0.14210854715E-13  0.00000000000E+00 -0.31381340780E+03  0.10424416522E+04  0.99408538026E+03 0.  0.
       24    2    3    3    0    0  0.10683039536E+03 -0.10115395730E+03 -0.64537551364E+03  0.66697696054E+03  0.81877077607E+02 0.  0.
      -24    2    3    3    0    0 -0.10683039536E+03  0.10115395730E+03  0.33156210584E+03  0.37546469161E+03  0.96930120030E+02 0.  0.
      -13    1    4    4    0    0 -0.53354727659E+01 -0.38541221448E+02 -0.12129649762E+03  0.12738419586E+03  0.00000000000E+00 0.  1.
       14    1    4    4    0    0  0.11216586812E+03 -0.62612735853E+02 -0.52407901602E+03  0.53959276469E+03  0.00000000000E+00 0. -1.
        3    1    5    5  501    0  0.15415854806E+02 -0.54671594165E+00  0.16776049718E+02  0.22789982928E+02  0.00000000000E+00 0. -1.
       -4    1    5    5    0  501 -0.12224625016E+03  0.10170067324E+03  0.31478605612E+03  0.35267470869E+03  0.14200000000E+01 0.  1.
</event>
<event>
 9   1  0.7335000E-04  0.1002759E+04  0.7818608E-02  0.9305524E-01
       21   -1    0    0  503  502  0.00000000000E+00  0.00000000000E+00  0.23647927119E+03  0.23647927119E+03  0.00000000000E+00 0.  1.
       21   -1    0    0  502  503 -0.00000000000E+00 -0.00000000000E+00 -0.10630167496E+04  0.10630167496E+04  0.00000000000E+00 0. -1.
       39    2    1    2    0    0  0.00000000000E+00 -0.28421709430E-13 -0.82653747845E+03  0.12994960208E+04  0.10027590463E+04 0.  0.
       24    2    3    3    0    0 -0.35957344478E+03  0.15369298380E+03 -0.20087138170E+02  0.39962723850E+03  0.79898943477E+02 0.  0.
      -24    2    3    3    0    0  0.35957344478E+03 -0.15369298380E+03 -0.80645034028E+03  0.89986878234E+03  0.80542402698E+02 0.  0.
      -13    1    4    4    0    0 -0.12091431116E+03  0.89527987706E+02  0.93757527589E+01  0.15074294665E+03  0.00000000000E+00 0.  1.
       14    1    4    4    0    0 -0.23865913363E+03  0.64164996089E+02 -0.29462890928E+02  0.24888429185E+03  0.00000000000E+00 0. -1.
        3    1    5    5  501    0  0.27044518716E+03 -0.14345442703E+03 -0.57077562139E+03  0.64769173367E+03  0.00000000000E+00 0. -1.
       -4    1    5    5    0  501  0.89128257620E+02 -0.10238556762E+02 -0.23567471888E+03  0.25217704866E+03  0.14200000000E+01 0.  1.
</event>
<event>
 9   1  0.7335000E-04  0.1001818E+04  0.7818608E-02  0.9306553E-01
       21   -1    0    0  503  502  0.00000000000E+00  0.00000000000E+00  0.34243282918E+03  0.34243282918E+03  0.00000000000E+00 0.  1.
       21   -1    0    0  502  503 -0.00000000000E+00 -0.00000000000E+00 -0.73272713248E+03  0.73272713248E+03  0.00000000000E+00 0. -1.
       39    2    1    2    0    0  0.28421709430E-13  0.00000000000E+00 -0.39029430330E+03  0.10751599617E+04  0.10018179974E+04 0.  0.
       24    2    3    3    0    0  0.24685846453E+03 -0.65598450747E+02 -0.64958603281E+03  0.70247343486E+03  0.79149569884E+02 0.  0.
      -24    2    3    3    0    0 -0.24685846453E+03  0.65598450747E+02  0.25929172951E+03  0.37268652680E+03  0.80129819743E+02 0.  0.
      -13    1    4    4    0    0  0.15069768838E+02 -0.31522970025E+01 -0.77941065834E+01  0.17256390314E+02  0.00000000000E+00 0.  1.
       14    1    4    4    0    0  0.23178869569E+03 -0.62446153744E+02 -0.64179192623E+03  0.68521704455E+03  0.00000000000E+00 0. -1.
        3    1    5    5  501    0 -0.13619124810E+03  0.30330337545E+02  0.85472451822E+02  0.16362617594E+03  0.00000000000E+00 0. -1.
       -4    1    5    5    0  501 -0.11066721643E+03  0.35268113201E+02  0.17381927769E+03  0.20906035085E+03  0.14200000000E+01 0.  1.
</event>
<event>
 9   1  0.7335000E-04  0.1020078E+04  0.7818608E-02  0.9286794E-01
       21   -1    0    0  503  502  0.00000000000E+00  0.00000000000E+00  0.32738475052E+03  0.32738475052E+03  0.00000000000E+00 0.  1.
       21   -1    0    0  502  503 -0.00000000000E+00 -0.00000000000E+00 -0.79459975353E+03  0.79459975353E+03  0.00000000000E+00 0. -1.
       39    2    1    2    0    0  0.56843418861E-13  0.28421709430E-13 -0.46721500301E+03  0.11219845040E+04  0.10200781187E+04 0.  0.
       24    2    3    3    0    0  0.45912666792E+03  0.16452394092E+03 -0.95027588595E+02  0.50304030616E+03  0.78446686923E+02 0.  0.
      -24    2    3    3    0    0 -0.45912666792E+03 -0.16452394092E+03 -0.37218741441E+03  0.61894419789E+03  0.81871999628E+02 0.  0.
      -13    1    4    4    0    0  0.35916257885E+03  0.16143805027E+03 -0.81436817215E+02  0.40210938476E+03  0.00000000000E+00 0.  1.
       14    1    4    4    0    0  0.99964089077E+02  0.30858906510E+01 -0.13590771380E+02  0.10093092139E+03  0.00000000000E+00 0. -1.
        3    1    5    5  501    0 -0.16836106877E+03 -0.19134647681E+02 -0.12671781126E+03  0.21158683302E+03  0.00000000000E+00 0. -1.
       -4    1    5    5    0  501 -0.29076559916E+03 -0.14538929324E+03 -0.24546960315E+03  0.40735736487E+03  0.14200000000E+01 0.  1.
</event>
<event>
 9   1  0.7335000E-04  0.1000481E+04  0.7818608E-02  0.9308017E-01
       21   -1    0    0  503  502  0.00000000000E+00  0.00000000000E+00  0.41192686028E+03  0.41192686028E+03  0.00000000000E+00 0. -1.
       21   -1    0    0  502  503 -0.00000000000E+00 -0.00000000000E+00 -0.60748777007E+03  0.60748777007E+03  0.00000000000E+00 0.  1.
       39    2    1    2    0    0  0.71054273576E-14  0.56843418861E-13 -0.19556090979E+03  0.10194146303E+04  0.10004809439E+04 0.  0.
       24    2    3    3    0    0  0.32762551658E+02  0.28247330073E+03  0.31275461980E+03  0.43150708274E+03  0.86708476136E+02 0.  0.
      -24    2    3    3    0    0 -0.32762551658E+02 -0.28247330073E+03 -0.50831552959E+03  0.58790754760E+03  0.79912805517E+02 0.  0.
      -13    1    4    4    0    0 -0.26934883516E+02  0.71517372035E+02  0.61870520048E+02  0.98326922579E+02  0.00000000000E+00 0.  1.
       14    1    4    4    0    0  0.59697435174E+02  0.21095592869E+03  0.25088409975E+03  0.33318016016E+03  0.00000000000E+00 0. -1.
        1    1    5    5  501    0 -0.28178819456E+02 -0.38979821728E+02 -0.53133058902E+02  0.71670037786E+02  0.00000000000E+00 0. -1.
       -2    1    5    5    0  501 -0.45837322021E+01 -0.24349347900E+03 -0.45518247069E+03  0.51623750982E+03  0.00000000000E+00 0.  1.
</event>
<event>
 9   1  0.7335000E-04  0.1042683E+04  0.7818608E-02  0.9262931E-01
       21   -1    0    0  503  502  0.00000000000E+00  0.00000000000E+00  0.18365719590E+03  0.18365719590E+03  0.00000000000E+00 0.  1.
       21   -1    0    0  502  503 -0.00000000000E+00 -0.00000000000E+00 -0.14799155251E+04  0.14799155251E+04  0.00000000000E+00 0. -1.
       39    2    1    2    0    0  0.11368683772E-12 -0.71054273576E-14 -0.12962583292E+04  0.16635727210E+04  0.10426833374E+04 0.  0.
       24    2    3    3    0    0 -0.36775131221E+03  0.63096436637E+02 -0.80324919849E+02  0.38913674049E+03  0.75849338180E+02 0.  0.
      -24    2    3    3    0    0  0.36775131221E+03 -0.63096436637E+02 -0.12159334094E+04  0.12744359805E+04  0.80441435154E+02 0.  0.
      -13    1    4    4    0    0 -0.18359803060E+03  0.38007315435E+02 -0.21308343796E+01  0.18750288884E+03  0.00000000000E+00 0.  1.
       14    1    4    4    0    0 -0.18415328161E+03  0.25089121202E+02 -0.78194085470E+02  0.20163385165E+03  0.00000000000E+00 0. -1.
        3    1    5    5  501    0  0.28163027586E+03 -0.15998927680E+02 -0.85126131176E+03  0.89678168964E+03  0.00000000000E+00 0. -1.
       -4    1    5    5    0  501  0.86121036348E+02 -0.47097508958E+02 -0.36467209762E+03  0.37765429090E+03  0.14200000000E+01 0.  1.
</event>
<event>
 9   1  0.7335000E-04  0.9998516E+03  0.7818608E-02  0.9308708E-01
       21   -1    0    0  503  502  0.00000000000E+00  0.00000000000E+00  0.12749764898E+04  0.12749764898E+04  0.00000000000E+00 0.  1.
       21   -1    0    0  502  503 -0.00000000000E+00 -0.00000000000E+00 -0.19602384850E+03  0.19602384850E+03  0.00000000000E+00 0. -1.
       39    2    1    2    0    0  0.00000000000E+00  0.14210854715E-13  0.10789526413E+04  0.14710003383E+04  0.99985158554E+03 0.  0.
       24    2    3    3    0    0  0.74440305030E+02 -0.87760131164E+02  0.12458565167E+04  0.12537618613E+04  0.80728836780E+02 0.  0.
      -24    2    3    3    0    0 -0.74440305030E+02  0.87760131164E+02 -0.16690387537E+03  0.21723847700E+03  0.78054164788E+02 0.  0.
      -13    1    4    4    0    0  0.36412095449E+02 -0.94765761446E+02  0.94205576071E+03  0.94751013004E+03  0.00000000000E+00 0.  1.
       14    1    4    4    0    0  0.38028209581E+02  0.70056302813E+01  0.30380075595E+03  0.30625173126E+03  0.00000000000E+00 0. -1.
        1    1    5    5  501    0  0.64598377890E+01  0.38376882779E+02 -0.78552364161E+02  0.87664066478E+02  0.00000000000E+00 0. -1.
       -2    1    5    5    0  501 -0.80900142819E+02  0.49383248385E+02 -0.88351511206E+02  0.12957441052E+03  0.00000000000E+00 0.  1.
</event>
<event>
 9   1  0.7335000E-04  0.9930386E+03  0.7818608E-02  0.9316213E-01
       21   -1    0    0  503  502  0.00000000000E+00  0.00000000000E+00  0.66045663548E+03  0.66045663548E+03  0.00000000000E+00 0. -1.
       21   -1    0    0  502  503 -0.00000000000E+00 -0.00000000000E+00 -0.37327420233E+03  0.37327420233E+03  0.00000000000E+00 0.  1.
       39    2    1    2    0    0  0.28421709430E-13  0.28421709430E-13  0.28718243315E+03  0.10337308378E+04  0.99303861713E+03 0.  0.
       24    2    3    3    0    0  0.12533967710E+03  0.16313079338E+03 -0.31932848238E+03  0.38836617740E+03  0.80845022670E+02 0.  0.
      -24    2    3    3    0    0 -0.12533967710E+03 -0.16313079338E+03  0.60651091553E+03  0.64536466040E+03  0.79488136451E+02 0.  0.
      -13    1    4    4    0    0  0.50247405168E+02  0.12085687329E+03 -0.22729477362E+03  0.26228629332E+03  0.00000000000E+00 0.  1.
       14    1    4    4    0    0  0.75092271931E+02  0.42273920086E+02 -0.92033708755E+02  0.12607988408E+03  0.00000000000E+00 0. -1.
        1    1    5    5  501    0 -0.90052701509E+02 -0.12465205272E+03  0.53603586799E+03  0.55765766835E+03  0.00000000000E+00 0. -1.
       -2    1    5    5    0  501 -0.35286975590E+02 -0.38478740665E+02  0.70475047530E+02  0.87706992046E+02  0.00000000000E+00 0.  1.
</event>
<event>
 9   1  0.7335000E-04  0.9903934E+03  0.7818608E-02  0.9319144E-01
       21   -1    0    0  503  502  0.00000000000E+00  0.00000000000E+00  0.46723553454E+03  0.46723553454E+03  0.00000000000E+00 0. -1.
       21   -1    0    0  502  503 -0.00000000000E+00 -0.00000000000E+00 -0.52483114426E+03  0.52483114426E+03  0.00000000000E+00 0.  1.
       39    2    1    2    0    0  0.00000000000E+00  0.00000000000E+00 -0.57595609725E+02  0.99206667880E+03  0.99039337686E+03 0.  0.
       24    2    3    3    0    0 -0.39192380442E+03  0.18606830977E+03 -0.25386926264E+03  0.50910362892E+03  0.80692119156E+02 0.  0.
      -24    2    3    3    0    0  0.39192380442E+03 -0.18606830977E+03  0.19627365292E+03  0.48296304988E+03  0.80649093944E+02 0.  0.
      -13    1    4    4    0    0 -0.26400548959E+03  0.10106965654E+03 -0.20024605260E+03  0.34642813914E+03  0.00000000000E+00 0.  1.
       14    1    4    4    0    0 -0.12791831482E+03  0.84998653231E+02 -0.53623210043E+02  0.16267548978E+03  0.00000000000E+00 0. -1.
        3    1    5    5  501    0  0.31748836475E+03 -0.12597372756E+03  0.12525489544E+03  0.36380905791E+03  0.00000000000E+00 0. -1.
       -4    1    5    5    0  501  0.74435439671E+02 -0.60094582210E+02  0.71018757477E+02  0.11915399198E+03  0.14200000000E+01 0.  1.
</event>
<event>
 9   1  0.7335000E-04  0.1001382E+04  0.7818608E-02  0.9307031E-01
       21   -1    0    0  503  502  0.00000000000E+00  0.00000000000E+00  0.44099655255E+03  0.44099655255E+03  0.00000000000E+00 0. -1.
       21   -1    0    0  502  503 -0.00000000000E+00 -0.00000000000E+00 -0.56846529321E+03  0.56846529321E+03  0.00000000000E+00 0.  1.
       39    2    1    2    0    0  0.00000000000E+00  0.00000000000E+00 -0.12746874065E+03  0.10094618458E+04  0.10013815148E+04 0.  0.
       24    2    3    3    0    0  0.15555733877E+03  0.16671281457E+03  0.37840920723E+03  0.44871647253E+03  0.78496473953E+02 0.  0.
      -24    2    3    3    0    0 -0.15555733877E+03 -0.16671281457E+03 -0.50587794788E+03  0.56074537322E+03  0.80818483367E+02 0.  0.
      -13    1    4    4    0    0  0.34828319020E+02  0.92276614899E+02  0.13875721236E+03  0.17023968235E+03  0.00000000000E+00 0.  1.
       14    1    4    4    0    0  0.12072901975E+03  0.74436199674E+02  0.23965199487E+03  0.27847679019E+03  0.00000000000E+00 0. -1.
        3    1    5    5  501    0 -0.31386529139E+02 -0.32969312109E+02 -0.40756365372E+02  0.61099681429E+02  0.00000000000E+00 0. -1.
       -4    1    5    5    0  501 -0.12417080963E+03 -0.13374350246E+03 -0.46512158251E+03  0.49964569179E+03  0.14200000000E+01 0.  1.
</event>
<event>
 9   1  0.7335000E-04  0.9969169E+03  0.7818608E-02  0.9311933E-01
       21   -1    0    0  503  502  0.00000000000E+00  0.00000000000E+00  0.60463226954E+03  0.60463226954E+03  0.00000000000E+00 0.  1.
       21   -1    0    0  502  503 -0.00000000000E+00 -0.00000000000E+00 -0.41092884492E+03  0.41092884492E+03  0.00000000000E+00 0. -1.
       39    2    1    2    0    0  0.00000000000E+00  0.00000000000E+00  0.19370342462E+03  0.10155611145E+04  0.99691692758E+03 0.  0.
       24    2    3    3    0    0 -0.20060916034E+03  0.12932635252E+03 -0.34142509680E+03  0.42402586421E+03  0.79104336959E+02 0.  0.
      -24    2    3    3    0    0  0.20060916034E+03 -0.12932635252E+03  0.53512852142E+03  0.59153525025E+03  0.81130001763E+02 0.  0.
      -13    1    4    4    0    0 -0.14180652377E+03  0.13036256253E+03 -0.25958936784E+03  0.32324932759E+03  0.00000000000E+00 0.  1.
       14    1    4    4    0    0 -0.58802636565E+02 -0.10362100056E+01 -0.81835728954E+02  0.10077653661E+03  0.00000000000E+00 0. -1.
        3    1    5    5  501    0  0.37887862512E+02 -0.67738294210E+02  0.14848072231E+03  0.16754250662E+03  0.00000000000E+00 0. -1.
       -4    1    5    5    0  501  0.16272129783E+03 -0.61588058311E+02  0.38664779911E+03  0.42399274363E+03  0.14200000000E+01 0.  1.
</event>
<event>
 9   1  0.7335000E-04  0.1002415E+04  0.7818608E-02  0.9305900E-01
       21   -1    0    0  503  502  0.00000000000E+00  0.00000000000E+00  0.10821906011E+04  0.10821906011E+04  0.00000000000E+00 0. -1.
       21   -1    0    0  502  503 -0.00000000000E+00 -0.00000000000E+00 -0.23213004193E+03  0.23213004193E+03  0.00000000000E+00 0.  1.
       39    2    1    2    0    0  0.00000000000E+00  0.00000000000E+00  0.85006055916E+03  0.13143206430E+04  0.10024149831E+04 0.  0.
       24    2    3    3    0    0  0.32273690638E+03  0.64660076537E+02 -0.59460712571E+02  0.34391506999E+03  0.80012266509E+02 0.  0.
      -24    2    3    3    0    0 -0.32273690638E+03 -0.64660076537E+02  0.90952127174E+03  0.97040557303E+03  0.78217620756E+02 0.  0.
      -13    1    4    4    0    0  0.23364200233E+03  0.11155710133E+02 -0.52686887332E+02  0.23976852008E+03  0.00000000000E+00 0.  1.
       14    1    4    4    0    0  0.89094904045E+02  0.53504366403E+02 -0.67738252391E+01  0.10414654992E+03  0.00000000000E+00 0. -1.
        3    1    5    5  501    0 -0.28099618419E+03 -0.81105803216E+02  0.81154305860E+03  0.86263499976E+03  0.00000000000E+00 0. -1.
       -4    1    5    5    0  501 -0.41740722186E+02  0.16445726680E+02  0.97978213137E+02  0.10777057328E+03  0.14200000000E+01 0.  1.
</event>
<event>
 9   1  0.7335000E-04  0.1003671E+04  0.7818608E-02  0.9304528E-01
       21   -1    0    0  503  502  0.00000000000E+00  0.00000000000E+00  0.14774887462E+04  0.14774887462E+04  0.00000000000E+00 0. -1.
       21   -1    0    0  502  503 -0.00000000000E+00 -0.00000000000E+00 -0.17045066454E+03  0.17045066454E+03  0.00000000000E+00 0.  1.
       39    2    1    2    0    0  0.00000000000E+00  0.00000000000E+00  0.13070380817E+04  0.16479394108E+04  0.10036711387E+04 0.  0.
       24    2    3    3    0    0  0.23193519660E+03  0.41753749423E+03  0.43784880526E+03  0.65298773710E+03  0.80931539129E+02 0.  0.
      -24    2    3    3    0    0 -0.23193519660E+03 -0.41753749423E+03  0.86918927642E+03  0.99495167366E+03  0.79418764516E+02 0.  0.
      -13    1    4    4    0    0  0.17340323610E+03  0.23170573733E+03  0.25242809200E+03  0.38402626555E+03  0.00000000000E+00 0.  1.
       14    1    4    4    0    0  0.58531960501E+02  0.18583175690E+03  0.18542071326E+03  0.26896147155E+03  0.00000000000E+00 0. -1.
        1    1    5    5  501    0 -0.97058495333E+02 -0.25578523164E+03  0.49035763066E+03  0.56151317187E+03  0.00000000000E+00 0. -1.
       -2    1    5    5    0  501 -0.13487670127E+03 -0.16175226259E+03  0.37883164576E+03  0.43343850179E+03  0.00000000000E+00 0.  1.
</event>
<event>
 9   1  0.7335000E-04  0.1002357E+04  0.7818608E-02  0.9305964E-01
       21   -1    0    0  503  502  0.00000000000E+00  0.00000000000E+00  0.12116141339E+03  0.12116141339E+03  0.00000000000E+00 0. -1.
       21   -1    0    0  502  503 -0.00000000000E+00 -0.00000000000E+00 -0.20730998350E+04  0.20730998350E+04  0.00000000000E+00 0.  1.
       39    2    1    2    0    0  0.11368683772E-12 -0.35527136788E-14 -0.19519384216E+04  0.21942612484E+04  0.10023566354E+04 0.  0.
       24    2    3    3    0    0 -0.30978847279E+03  0.85354423549E+01 -0.18156724673E+04  0.18444008297E+04  0.95426204848E+02 0.  0.
      -24    2    3    3    0    0  0.30978847279E+03 -0.85354423549E+01 -0.13626595434E+03  0.34986041869E+03  0.88273159024E+02 0.  0.
      -13    1    4    4    0    0 -0.24330890044E+03  0.26143289938E+02 -0.15821392775E+04  0.16009520249E+04  0.00000000000E+00 0.  1.
       14    1    4    4    0    0 -0.66479572342E+02 -0.17607847583E+02 -0.23353318984E+03  0.24344880487E+03  0.00000000000E+00 0. -1.
        1    1    5    5  501    0  0.23445535533E+03  0.26916734440E+01 -0.59892644691E+02  0.24199935462E+03  0.00000000000E+00 0. -1.
       -2    1    5    5    0  501  0.75333117458E+02 -0.11227115799E+02 -0.76373309648E+02  0.10786106407E+03  0.00000000000E+00 0.  1.
</event>
<event>
 9   1  0.7335000E-04  0.9317892E+03  0.7818608E-02  0.9386693E-01
       -1   -1    0    0    0  501 -0.00000000000E+00  0.00000000000E+00  0.28675781945E+03  0.28675781945E+03  0.00000000000E+00 0. -1.
        1   -1    0    0  501    0  0.00000000000E+00 -0.00000000000E+00 -0.75693765965E+03  0.75693765965E+03  0.00000000000E+00 0.  1.
       39    2    1    2    0    0 -0.56843418861E-13  0.00000000000E+00 -0.47017984019E+03  0.10436954791E+04  0.93178923098E+03 0.  0.
       24    2    3    3    0    0 -0.38455128837E+03  0.32739432599E+02  0.42922005456E+02  0.39628065333E+03  0.79022109681E+02 0.  0.
      -24    2    3    3    0    0  0.38455128837E+03 -0.32739432599E+02 -0.51310184565E+03  0.64741482577E+03  0.83191879308E+02 0.  0.
      -13    1    4    4    0    0 -0.27328638957E+03 -0.61867268401E+01  0.51210934830E+02  0.27811200290E+03  0.00000000000E+00 0.  1.
       14    1    4    4    0    0 -0.11126489880E+03  0.38926159439E+02 -0.82889293746E+01  0.11816865043E+03  0.00000000000E+00 0. -1.
        1    1    5    5  502    0  0.30695012712E+03 -0.57026495033E+02 -0.42731580204E+03  0.52921564258E+03  0.00000000000E+00 0. -1.
       -2    1    5    5    0  502  0.77601161254E+02  0.24287062435E+02 -0.85786043606E+02  0.11819918319E+03  0.00000000000E+00 0.  1.
</event>
<event>
 9   1  0.7335000E-04  0.9992713E+03  0.7818608E-02  0.9309344E-01
       21   -1    0    0  503  502  0.00000000000E+00  0.00000000000E+00  0.46611946316E+03  0.46611946316E+03  0.00000000000E+00 0.  1.
       21   -1    0    0  502  503 -0.00000000000E+00 -0.00000000000E+00 -0.53556182960E+03  0.53556182960E+03  0.00000000000E+00 0. -1.
       39    2    1    2    0    0  0.17053025658E-12  0.00000000000E+00 -0.69442366436E+02  0.10016812928E+04  0.99927131952E+03 0.  0.
       24    2    3    3    0    0 -0.43832972087E+03  0.22362099508E+03 -0.69761829260E+02  0.50327012393E+03  0.79213705776E+02 0.  0.
      -24    2    3    3    0    0  0.43832972087E+03 -0.22362099508E+03  0.31946282358E+00  0.49841116883E+03  0.79210463403E+02 0.  0.
      -13    1    4    4    0    0 -0.11306385153E+03  0.41037243649E+02  0.13641052304E+02  0.12105192356E+03  0.00000000000E+00 0.  1.
       14    1    4    4    0    0 -0.32526586934E+03  0.18258375143E+03 -0.83402881564E+02  0.38221820037E+03  0.00000000000E+00 0. -1.
        3    1    5    5  501    0  0.16990542731E+03 -0.55597728898E+02 -0.25951811869E+02  0.18064456323E+03  0.00000000000E+00 0. -1.
       -4    1    5    5    0  501  0.26842429357E+03 -0.16802326618E+03  0.26271274692E+02  0.31776660559E+03  0.14200000000E+01 0.  1.
</event>
<event>
 9   1  0.7335000E-04  0.9847944E+03  0.7818608E-02  0.9325381E-01
       -2   -1    0    0    0  501 -0.00000000000E+00  0.00000000000E+00  0.50963150122E+03  0.50963150122E+03  0.00000000000E+00 0. -1.
        2   -1    0    0  501    0  0.00000000000E+00 -0.00000000000E+00 -0.47574568367E+03  0.47574568367E+03  0.00000000000E+00 0.  1.
       39    2    1    2    0    0  0.00000000000E+00  0.56843418861E-13  0.33885817547E+02  0.98537718489E+03  0.98479436831E+03 0.  0.
       24    2    3    3    0    0 -0.11676378973E+03  0.16770116982E+03  0.45753210676E+03  0.50798296361E+03  0.83388234511E+02 0.  0.
      -24    2    3    3    0    0  0.11676378973E+03 -0.16770116982E+03 -0.42364628921E+03  0.47739422128E+03  0.81679857969E+02 0.  0.
      -13    1    4    4    0    0 -0.29430154983E+00 -0.55560726608E+01  0.57232703853E+00  0.55932204545E+01  0.00000000000E+00 0.  1.
       14    1    4    4    0    0 -0.11646948818E+03  0.17325724248E+03  0.45695977972E+03  0.50238974315E+03  0.00000000000E+00 0. -1.
        3    1    5    5  502    0  0.35449307123E+02 -0.37065838666E+02 -0.43386590194E+02  0.67178314806E+02  0.00000000000E+00 0. -1.
       -4    1    5    5    0  502  0.81314482604E+02 -0.13063533115E+03 -0.38025969902E+03  0.41021590647E+03  0.14200000000E+01 0.  1.
</event>
<event>
 9   1  0.7335000E-04  0.9975313E+03  0.7818608E-02  0.9311257E-01
       21   -1    0    0  503  502  0.00000000000E+00  0.00000000000E+00  0.28427736630E+04  0.28427736630E+04  0.00000000000E+00 0.  1.
       21   -1    0    0  502  503 -0.00000000000E+00 -0.00000000000E+00 -0.87508607369E+02  0.87508607369E+02  0.00000000000E+00 0. -1.
       39    2    1    2    0    0  0.00000000000E+00  0.11368683772E-12  0.27552650556E+04  0.29302822704E+04  0.99753128134E+03 0.  0.
       24    2    3    3    0    0 -0.16768467734E+03  0.41814845101E+03  0.19596788999E+04  0.20123884244E+04  0.79996885850E+02 0.  0.
      -24    2    3    3    0    0  0.16768467734E+03 -0.41814845101E+03  0.79558615569E+03  0.91789384596E+03  0.81274246939E+02 0.  0.
      -13    1    4    4    0    0 -0.15543411078E+03  0.29506118337E+03  0.14647867041E+04  0.15022719306E+04  0.00000000000E+00 0.  1.
       14    1    4    4    0    0 -0.12250566559E+02  0.12308726765E+03  0.49489219579E+03  0.51011649384E+03  0.00000000000E+00 0. -1.
        1    1    5    5  501    0  0.14420487076E+03 -0.33603440343E+03  0.57582472894E+03  0.68212043181E+03  0.00000000000E+00 0. -1.
       -2    1    5    5    0  501  0.23479806572E+02 -0.82114047584E+02  0.21976142676E+03  0.23577341414E+03  0.00000000000E+00 0.  1.
</event>
<event>
 9   1  0.7335000E-04  0.1053599E+04  0.7818608E-02  0.9251636E-01
       21   -1    0    0  503  502  0.00000000000E+00  0.00000000000E+00  0.14776625014E+04  0.14776625014E+04  0.00000000000E+00 0.  1.
       21   -1    0    0  502  503 -0.00000000000E+00 -0.00000000000E+00 -0.18780861895E+03  0.18780861895E+03  0.00000000000E+00 0. -1.
       39    2    1    2    0    0  0.00000000000E+00  0.00000000000E+00  0.12898538824E+04  0.16654711203E+04  0.10535990768E+04 0.  0.
       24    2    3    3    0    0  0.84025466914E+01  0.42528953216E+03  0.17010427663E+03  0.46485928441E+03  0.78847323486E+02 0.  0.
      -24    2    3    3    0    0 -0.84025466914E+01 -0.42528953216E+03  0.11197496058E+04  0.12006118359E+04  0.81779043124E+02 0.  0.
      -13    1    4    4    0    0 -0.25739026156E+02  0.11597332185E+03  0.24543245794E+02  0.12130407974E+03  0.00000000000E+00 0.  1.
       14    1    4    4    0    0  0.34141572847E+02  0.30931621031E+03  0.14556103084E+03  0.34355520467E+03  0.00000000000E+00 0. -1.
        1    1    5    5  501    0 -0.96080111403E+01 -0.38199983486E+02  0.18002858502E+03  0.18428739523E+03  0.00000000000E+00 0. -1.
       -2    1    5    5    0  501  0.12054644489E+01 -0.38708954867E+03  0.93972102075E+03  0.10163244407E+04  0.00000000000E+00 0.  1.
</event>
<event>
 9   1  0.7335000E-04  0.1022097E+04  0.7818608E-02  0.9284636E-01
        2   -1    0    0  501    0  0.00000000000E+00  0.00000000000E+00  0.11992586130E+04  0.11992586130E+04  0.00000000000E+00 0. -1.
       -2   -1    0    0    0  501 -0.00000000000E+00 -0.00000000000E+00 -0.21777671287E+03  0.21777671287E+03  0.00000000000E+00 0.  1.
       39    2    1    2    0    0 -0.56843418861E-13  0.00000000000E+00  0.98148190009E+03  0.14170353258E+04  0.10220970573E+04 0.  0.
       24    2    3    3    0    0 -0.35974864547E+03 -0.32946632806E+03  0.30910554144E+03  0.58240447701E+03  0.75376321599E+02 0.  0.
      -24    2    3    3    0    0  0.35974864547E+03  0.32946632806E+03  0.67237635865E+03  0.83463084882E+03  0.80941564710E+02 0.  0.
      -13    1    4    4    0    0 -0.26940778580E+03 -0.28707405392E+03  0.25181403907E+03  0.46733540178E+03  0.00000000000E+00 0.  1.
       14    1    4    4    0    0 -0.90340859661E+02 -0.42392274141E+02  0.57291502372E+02  0.11506907523E+03  0.00000000000E+00 0. -1.
        3    1    5    5  502    0  0.34056536858E+03  0.32234169515E+03  0.66301624202E+03  0.81208341683E+03  0.00000000000E+00 0. -1.
       -4    1    5    5    0  502  0.19183276881E+02  0.71246329017E+01  0.93601166254E+01  0.22547431985E+02  0.14200000000E+01 0.  1.
</event>
<event>
 9   1  0.7335000E-04  0.9876742E+03  0.7818608E-02  0.9322168E-01
       -2   -1    0    0    0  501 -0.00000000000E+00  0.00000000000E+00  0.17609156701E+03  0.17609156701E+03  0.00000000000E+00 0. -1.
        2   -1    0    0  501    0  0.00000000000E+00 -0.00000000000E+00 -0.13849334258E+04  0.13849334258E+04  0.00000000000E+00 0.  1.
       39    2    1    2    0    0 -0.28421709430E-13  0.00000000000E+00 -0.12088418587E+04  0.15610249928E+04  0.98767423201E+03 0.  0.
       24    2    3    3    0    0 -0.14401182842E+03 -0.24080823281E+03  0.25323334010E+02  0.29273805884E+03  0.79537966593E+02 0.  0.
      -24    2    3    3    0    0  0.14401182842E+03  0.24080823281E+03 -0.12341651928E+04  0.12682869339E+04  0.81608896788E+02 0.  0.
      -13    1    4    4    0    0 -0.24190401693E+02 -0.95866836211E+02  0.33803350578E+02  0.10449063274E+03  0.00000000000E+00 0.  1.
       14    1    4    4    0    0 -0.11982142673E+03 -0.14494139660E+03 -0.84800165682E+01  0.18824742610E+03  0.00000000000E+00 0. -1.
        1    1    5    5  502    0  0.20376767265E+01  0.69310165483E+02 -0.27205882877E+03  0.28075622429E+03  0.00000000000E+00 0. -1.
       -2    1    5    5    0  502  0.14197415170E+03  0.17149806733E+03 -0.96210636398E+03  0.98753070963E+03  0.00000000000E+00 0.  1.
</event>
<event>
 9   1  0.7335000E-04  0.1002492E+04  0.7818608E-02  0.9305815E-01
       21   -1    0    0  503  502  0.00000000000E+00  0.00000000000E+00  0.26868459342E+03  0.26868459342E+03  0.00000000000E+00 0. -1.
       21   -1    0    0  502  503 -0.00000000000E+00 -0.00000000000E+00 -0.93510278778E+03  0.93510278778E+03  0.00000000000E+00 0.  1.
       39    2    1    2    0    0  0.28421709430E-13 -0.11368683772E-12 -0.66641819436E+03  0.12037873812E+04  0.10024923189E+04 0.  0.
       24    2    3    3    0    0  0.23666428849E+03 -0.42696693556E+03 -0.44043834394E+03  0.66234511056E+03  0.80027252650E+02 0.  0.
      -24    2    3    3    0    0 -0.23666428849E+03  0.42696693556E+03 -0.22597985042E+03  0.54144227064E+03  0.61498700202E+02 0.  0.
      -13    1    4    4    0    0  0.21030069804E+03 -0.41539038658E+03 -0.41998011582E+03  0.62702380700E+03  0.00000000000E+00 0.  1.
       14    1    4    4    0    0  0.26363590450E+02 -0.11576548980E+02 -0.20458228121E+02  0.35321303565E+02  0.00000000000E+00 0. -1.
        1    1    5    5  501    0 -0.16205478902E+03  0.26267658042E+03 -0.11368697942E+03  0.32891559683E+03  0.00000000000E+00 0. -1.
       -2    1    5    5    0  501 -0.74609499473E+02  0.16429035514E+03 -0.11229287100E+03  0.21252667381E+03  0.00000000000E+00 0.  1.
</event>
<event>
 9   1  0.7335000E-04  0.9936403E+03  0.7818608E-02  0.9315548E-01
       -2   -1    0    0    0  501 -0.00000000000E+00  0.00000000000E+00  0.87140168293E+02  0.87140168293E+02  0.00000000000E+00 0. -1.
        2   -1    0    0  501    0  0.00000000000E+00 -0.00000000000E+00 -0.28325657075E+04  0.28325657075E+04  0.00000000000E+00 0.  1.
       39    2    1    2    0    0 -0.56843418861E-13  0.00000000000E+00 -0.27454255392E+04  0.29197058758E+04  0.99364028190E+03 0.  0.
       24    2    3    3    0    0 -0.21323008188E+03  0.27410940413E+03 -0.23901072270E+04  0.24165145858E+04  0.79543406601E+02 0.  0.
      -24    2    3    3    0    0  0.21323008188E+03 -0.27410940413E+03 -0.35531831223E+03  0.50319129003E+03  0.79670183264E+02 0.  0.
      -13    1    4    4    0    0 -0.21561380137E+03  0.25701861065E+03 -0.23282345734E+04  0.23522806181E+04  0.00000000000E+00 0.  1.
       14    1    4    4    0    0  0.23837194953E+01  0.17090793478E+02 -0.61872653560E+02  0.64233967641E+02  0.00000000000E+00 0. -1.
        1    1    5    5  502    0  0.66697514671E+02 -0.11300632374E+03 -0.86220218458E+02  0.15701246364E+03  0.00000000000E+00 0. -1.
       -2    1    5    5    0  502  0.14653256721E+03 -0.16110308039E+03 -0.26909809377E+03  0.34617882638E+03  0.00000000000E+00 0.  1.
</event>
<event>
 9   1  0.7335000E-04  0.9971324E+03  0.7818608E-02  0.9311696E-01
        2   -1    0    0  501    0  0.00000000000E+00  0.00000000000E+00  0.14950143961E+04  0.14950143961E+04  0.00000000000E+00 0.  1.
       -2   -1    0    0    0  501 -0.00000000000E+00 -0.00000000000E+00 -0.16626478187E+03  0.16626478187E+03  0.00000000000E+00 0. -1.
       39    2    1    2    0    0 -0.35527136788E-14  0.56843418861E-13  0.13287496142E+04  0.16612791779E+04  0.99713237325E+03 0.  0.
       24    2    3    3    0    0  0.20102762006E+02 -0.42107329539E+03  0.24070278362E+03  0.49176980220E+03  0.78694772234E+02 0.  0.
      -24    2    3    3    0    0 -0.20102762006E+02  0.42107329539E+03  0.10880468306E+04  0.11695093757E+04  0.78736479875E+02 0.  0.
      -13    1    4    4    0    0 -0.19018392635E+02 -0.92221435465E+02  0.80515942617E+02  0.12389233000E+03  0.00000000000E+00 0.  1.
       14    1    4    4    0    0  0.39121154641E+02 -0.32885185993E+03  0.16018684100E+03  0.36787747220E+03  0.00000000000E+00 0. -1.
        1    1    5    5  502    0  0.26265690594E+02  0.13204009940E+03  0.29892876763E+03  0.32784582119E+03  0.00000000000E+00 0. -1.
       -2    1    5    5    0  502 -0.46368452601E+02  0.28903319599E+03  0.78911806294E+03  0.84166355454E+03  0.00000000000E+00 0.  1.
</event>
<event>
 9   1  0.7335000E-04  0.9989253E+03  0.7818608E-02  0.9309724E-01
       21   -1    0    0  503  502  0.00000000000E+00  0.00000000000E+00  0.10654293458E+04  0.10654293458E+04  0.00000000000E+00 0.  1.
       21   -1    0    0  502  503 -0.00000000000E+00 -0.00000000000E+00 -0.23414308771E+03  0.23414308771E+03  0.00000000000E+00 0. -1.
       39    2    1    2    0    0  0.00000000000E+00  0.00000000000E+00  0.83128625811E+03  0.12995724335E+04  0.99892525599E+03 0.  0.
       24    2    3    3    0    0 -0.49135028561E+03 -0.73808995212E+01  0.46793870633E+03  0.68345845342E+03  0.81665438315E+02 0.  0.
      -24    2    3    3    0    0  0.49135028561E+03  0.73808995212E+01  0.36334755177E+03  0.61611398011E+03  0.78073121184E+02 0.  0.
      -13    1    4    4    0    0 -0.14409586782E+03 -0.30537487630E+02  0.17347771488E+03  0.22757564640E+03  0.00000000000E+00 0.  1.
       14    1    4    4    0    0 -0.34725441779E+03  0.23156588109E+02  0.29446099145E+03  0.45588280702E+03  0.00000000000E+00 0. -1.
        3    1    5    5  501    0  0.65213289110E+02 -0.23871451268E+02  0.63673048244E+02  0.94217176432E+02  0.00000000000E+00 0. -1.
       -4    1    5    5    0  501  0.42613699650E+03  0.31252350789E+02  0.29967450353E+03  0.52189680367E+03  0.14200000000E+01 0.  1.
</event>
<event>
 9   1  0.7335000E-04  0.1001087E+04  0.7818608E-02  0.9307354E-01
       21   -1    0    0  503  502  0.00000000000E+00  0.00000000000E+00  0.45354348764E+03  0.45354348764E+03  0.00000000000E+00 0.  1.
       21   -1    0    0  502  503 -0.00000000000E+00 -0.00000000000E+00 -0.55241387684E+03  0.55241387684E+03  0.00000000000E+00 0. -1.
       39    2    1    2    0    0  0.14210854715E-13  0.00000000000E+00 -0.98870389199E+02  0.10059573645E+04  0.10010868420E+04 0.  0.
       24    2    3    3    0    0  0.58662898040E+02 -0.22332071243E+03  0.38873367052E+03  0.46047310399E+03  0.87224633539E+02 0.  0.
      -24    2    3    3    0    0 -0.58662898040E+02  0.22332071243E+03 -0.48760405972E+03  0.54548426049E+03  0.80510143316E+02 0.  0.
      -13    1    4    4    0    0  0.76609544369E+02 -0.14277103276E+03  0.28590107726E+03  0.32862138710E+03  0.00000000000E+00 0.  1.
       14    1    4    4    0    0 -0.17946646329E+02 -0.80549679670E+02  0.10283259326E+03  0.13185171689E+03  0.00000000000E+00 0. -1.
        1    1    5    5  501    0 -0.32121768953E+02  0.20028006489E+03 -0.45213778756E+03  0.49555271301E+03  0.00000000000E+00 0. -1.
       -2    1    5    5    0  501 -0.26541129087E+02  0.23040647546E+02 -0.35466272155E+02  0.49931547474E+02  0.00000000000E+00 0.  1.
</event>
<event>
 9   1  0.7335000E-04  0.1001583E+04  0.7818608E-02  0.9306810E-01
        1   -1    0    0  501    0  0.00000000000E+00  0.00000000000E+00  0.16176285489E+04  0.16176285489E+04  0.00000000000E+00 0. -1.
       -1   -1    0    0    0  501 -0.00000000000E+00 -0.00000000000E+00 -0.15503699979E+03  0.15503699979E+03  0.00000000000E+00 0.  1.
       39    2    1    2    0    0  0.00000000000E+00  0.00000000000E+00  0.14625915491E+04  0.17726655487E+04  0.10015833006E+04 0.  0.
       24    2    3    3    0    0 -0.19400731686E+03 -0.44361670823E+03  0.90682671974E+03  0.10312911367E+04  0.82414113999E+02 0.  0.
      -24    2    3    3    0    0  0.19400731686E+03  0.44361670823E+03  0.55576482934E+03  0.74137441196E+03  0.79541500862E+02 0.  0.
      -13    1    4    4    0    0 -0.19976299937E+03 -0.39960795799E+03  0.82319245186E+03  0.93660962456E+03  0.00000000000E+00 0.  1.
       14    1    4    4    0    0  0.57556825061E+01 -0.44008750241E+02  0.83634267880E+02  0.94681512148E+02  0.00000000000E+00 0. -1.
        3    1    5    5  502    0  0.19451008337E+03  0.44256137094E+03  0.53707987197E+03  0.72259914784E+03  0.00000000000E+00 0. -1.
       -4    1    5    5    0  502 -0.50276650675E+00  0.10553372918E+01  0.18684957369E+02  0.18775264121E+02  0.14200000000E+01 0.  1.
</event>
<event>
 9   1  0.7335000E-04  0.1005052E+04  0.7818608E-02  0.9303022E-01
       21   -1    0    0  503  502  0.00000000000E+00  0.00000000000E+00  0.39103687226E+03  0.39103687226E+03  0.00000000000E+00 0. -1.
       21   -1    0    0  502  503 -0.00000000000E+00 -0.00000000000E+00 -0.64580133431E+03  0.64580133431E+03  0.00000000000E+00 0.  1.
       39    2    1    2    0    0  0.00000000000E+00  0.00000000000E+00 -0.25476446205E+03  0.10368382066E+04  0.10050515089E+04 0.  0.
       24    2    3    3    0    0 -0.19090410305E+03  0.20905321560E+03 -0.54680115933E+03  0.62133802313E+03  0.83197401559E+02 0.  0.
      -24    2    3    3    0    0  0.19090410305E+03 -0.20905321560E+03  0.29203669728E+03  0.41550018344E+03  0.84896091575E+02 0.  0.
      -13    1    4    4    0    0 -0.18611305088E+03  0.15907169109E+03 -0.45726811121E+03  0.51868679966E+03  0.00000000000E+00 0.  1.
       14    1    4    4    0    0 -0.47910521670E+01  0.49981524509E+02 -0.89533048126E+02  0.10265122347E+03  0.00000000000E+00 0. -1.
        3    1    5    5  501    0  0.18625361193E+03 -0.15791245201E+03  0.24078402874E+03  0.34293395714E+03  0.00000000000E+00 0. -1.
       -4    1    5    5    0  501  0.46504911191E+01 -0.51140763583E+02  0.51252668538E+02  0.72566226302E+02  0.14200000000E+01 0.  1.
</event>
<event>
 9   1  0.7335000E-04  0.1001460E+04  0.7818608E-02  0.9306945E-01
       21   -1    0    0  503  502  0.00000000000E+00  0.00000000000E+00  0.13481681432E+04  0.13481681432E+04  0.00000000000E+00 0.  1.
       21   -1    0    0  502  503 -0.00000000000E+00 -0.00000000000E+00 -0.18597875079E+03  0.18597875079E+03  0.00000000000E+00 0. -1.
       39    2    1    2    0    0  0.00000000000E+00  0.00000000000E+00  0.11621893924E+04  0.15341468940E+04  0.10014601882E+04 0.  0.
       24    2    3    3    0    0 -0.45430644128E+02  0.39356517235E+03  0.10341963099E+04  0.11103502570E+04  0.79738306051E+02 0.  0.
      -24    2    3    3    0    0  0.45430644128E+02 -0.39356517235E+03  0.12799308253E+03  0.42379663702E+03  0.79144627513E+02 0.  0.
      -13    1    4    4    0    0 -0.28951476938E+02  0.38190126671E+03  0.96361222630E+03  0.10369355275E+04  0.00000000000E+00 0.  1.
       14    1    4    4    0    0 -0.16479167190E+02  0.11663905641E+02  0.70584083571E+02  0.73414729446E+02  0.00000000000E+00 0. -1.
        1    1    5    5  501    0 -0.23119588258E+01 -0.22042487621E+03  0.40929478083E+02  0.22420457931E+03  0.00000000000E+00 0. -1.
       -2    1    5    5    0  501  0.47742602954E+02 -0.17314029614E+03  0.87063604451E+02  0.19959205772E+03  0.00000000000E+00 0.  1.
</event>
<event>
 9   1  0.7335000E-04  0.9991729E+03  0.7818608E-02  0.9309452E-01
       21   -1    0    0  503  502  0.00000000000E+00  0.00000000000E+00  0.29435448913E+03  0.29435448913E+03  0.00000000000E+00 0.  1.
       21   -1    0    0  502  503 -0.00000000000E+00 -0.00000000000E+00 -0.84791173156E+03  0.84791173156E+03  0.00000000000E+00 0. -1.
       39    2    1    2    0    0  0.00000000000E+00  0.00000000000E+00 -0.55355724243E+03  0.11422662207E+04  0.99917290710E+03 0.  0.
       24    2    3    3    0    0  0.14000416176E+03 -0.62114524547E+02 -0.81226568376E+03  0.83064069413E+03  0.82030739645E+02 0.  0.
      -24    2    3    3    0    0 -0.14000416176E+03  0.62114524547E+02  0.25870844134E+03  0.31162552656E+03  0.81981898705E+02 0.  0.
      -13    1    4    4    0    0  0.87649985165E+02 -0.17314015564E+02 -0.27936993408E+03  0.29330846409E+03  0.00000000000E+00 0.  1.
       14    1    4    4    0    0  0.52354176593E+02 -0.44800508983E+02 -0.53289574968E+03  0.53733223004E+03  0.00000000000E+00 0. -1.
        1    1    5    5  501    0 -0.39686228971E+02  0.15974491465E+02  0.17269533687E+02  0.46134780169E+02  0.00000000000E+00 0. -1.
       -2    1    5    5    0  501 -0.10031793279E+03  0.46140033082E+02  0.24143890765E+03  0.26549074639E+03  0.00000000000E+00 0.  1.
</event>
<event>
 9   1  0.7335000E-04  0.8741421E+03  0.7818608E-02  0.9458495E-01
        1   -1    0    0  501    0  0.00000000000E+00  0.00000000000E+00  0.50156497682E+03  0.50156497682E+03  0.00000000000E+00 0. -1.
       -1   -1    0    0    0  501 -0.00000000000E+00 -0.00000000000E+00 -0.38087012813E+03  0.38087012813E+03  0.00000000000E+00 0.  1.
       39    2    1    2    0    0  0.00000000000E+00  0.00000000000E+00  0.12069484869E+03  0.88243510495E+03  0.87414213258E+03 0.  0.
       24    2    3    3    0    0  0.31333343673E+02 -0.31002415050E+03 -0.23714590044E+03  0.39960986651E+03  0.79706430091E+02 0.  0.
      -24    2    3    3    0    0 -0.31333343673E+02  0.31002415050E+03  0.35784074913E+03  0.48282523844E+03  0.89294214918E+02 0.  0.
      -13    1    4    4    0    0  0.49878098246E+02 -0.26615387002E+03 -0.17970788066E+03  0.32499327621E+03  0.00000000000E+00 0.  1.
       14    1    4    4    0    0 -0.18544754573E+02 -0.43870280483E+02 -0.57438019784E+02  0.74616590303E+02  0.00000000000E+00 0. -1.
        3    1    5    5  502    0  0.22544295177E+02  0.18827447518E+03  0.23187325109E+03  0.29953418472E+03  0.00000000000E+00 0. -1.
       -4    1    5    5    0  502 -0.53877638850E+02  0.12174967532E+03  0.12596749804E+03  0.18329105371E+03  0.14200000000E+01 0.  1.
</event>
<event>
 9   1  0.7335000E-04  0.1014317E+04  0.7818608E-02  0.9292980E-01
       21   -1    0    0  503  502  0.00000000000E+00  0.00000000000E+00  0.33863548129E+03  0.33863548129E+03  0.00000000000E+00 0.  1.
       21   -1    0    0  502  503 -0.00000000000E+00 -0.00000000000E+00 -0.75954813834E+03  0.75954813834E+03  0.00000000000E+00 0. -1.
       39    2    1    2    0    0  0.28421709430E-13  0.00000000000E+00 -0.42091265705E+03  0.10981836196E+04  0.10143174047E+04 0.  0.
       24    2    3    3    0    0 -0.24898236151E+03  0.26794162658E+03 -0.58249682839E+03  0.69276006434E+03  0.82637885137E+02 0.  0.
      -24    2    3    3    0    0  0.24898236151E+03 -0.26794162658E+03  0.16158417134E+03  0.40542355530E+03  0.66887092642E+02 0.  0.
      -13    1    4    4    0    0 -0.48492642280E+02  0.10843691552E+03 -0.18404159304E+03  0.21904659087E+03  0.00000000000E+00 0.  1.
       14    1    4    4    0    0 -0.20048971923E+03  0.15950471106E+03 -0.39845523535E+03  0.47371347347E+03  0.00000000000E+00 0. -1.
        3    1    5    5  501    0  0.45723044106E+02 -0.69453061556E+02  0.64345894612E+02  0.10514142226E+03  0.00000000000E+00 0. -1.
       -4    1    5    5    0  501  0.20325931741E+03 -0.19848856503E+03  0.97238276724E+02  0.30028213303E+03  0.14200000000E+01 0.  1.
</event>
<event>
 9   1  0.7335000E-04  0.9958380E+03  0.7818608E-02  0.9313121E-01
        3   -1    0    0  501    0  0.00000000000E+00  0.00000000000E+00  0.13710478772E+04  0.13710478772E+04  0.00000000000E+00 0.  1.
       -3   -1    0    0    0  501 -0.00000000000E+00 -0.00000000000E+00 -0.18082761979E+03  0.18082761979E+03  0.00000000000E+00 0. -1.
       39    2    1    2    0    0  0.00000000000E+00  0.00000000000E+00  0.11902202574E+04  0.15518754970E+04  0.99583798733E+03 0.  0.
       24    2    3    3    0    0 -0.27471921724E+03  0.34660774846E+03  0.92699405905E+03  0.10298638065E+04  0.75457900992E+02 0.  0.
      -24    2    3    3    0    0  0.27471921724E+03 -0.34660774846E+03  0.26322619836E+03  0.52201169048E+03  0.87181384981E+02 0.  0.
      -13    1    4    4    0    0 -0.18279405062E+03  0.25874582290E+03  0.72475081019E+03  0.79096574052E+03  0.00000000000E+00 0.  1.
       14    1    4    4    0    0 -0.91925166616E+02  0.87861925552E+02  0.20224324887E+03  0.23889806599E+03  0.00000000000E+00 0. -1.
        1    1    5    5  502    0  0.12332913348E+03 -0.21312855730E+03  0.17296963337E+03  0.30091917714E+03  0.00000000000E+00 0. -1.
       -2    1    5    5    0  502  0.15139008376E+03 -0.13347919116E+03  0.90256564987E+02  0.22109251335E+03  0.00000000000E+00 0.  1.
</event>
<event>
 9   1  0.7335000E-04  0.9859830E+03  0.7818608E-02  0.9324053E-01
        2   -1    0    0  501    0  0.00000000000E+00  0.00000000000E+00  0.16434332141E+04  0.16434332141E+04  0.00000000000E+00 0.  1.
       -2   -1    0    0    0  501 -0.00000000000E+00 -0.00000000000E+00 -0.14788590351E+03  0.14788590351E+03  0.00000000000E+00 0. -1.
       39    2    1    2    0    0  0.00000000000E+00  0.00000000000E+00  0.14955473106E+04  0.17913191176E+04  0.98598297292E+03 0.  0.
       24    2    3    3    0    0 -0.41613264443E+03 -0.25154143301E+03  0.72545929884E+03  0.87699987915E+03  0.79988270937E+02 0.  0.
      -24    2    3    3    0    0  0.41613264443E+03  0.25154143301E+03  0.77008801179E+03  0.91431923849E+03  0.80651433288E+02 0.  0.
      -13    1    4    4    0    0 -0.22091216902E+03 -0.91557138654E+02  0.32176967631E+03  0.40089976385E+03  0.00000000000E+00 0.  1.
       14    1    4    4    0    0 -0.19522047540E+03 -0.15998429435E+03  0.40368962253E+03  0.47610011530E+03  0.00000000000E+00 0. -1.
        1    1    5    5  502    0  0.30669492760E+03  0.17368658483E+03  0.48891028076E+03  0.60271226220E+03  0.00000000000E+00 0. -1.
       -2    1    5    5    0  502  0.10943771682E+03  0.77854848174E+02  0.28117773102E+03  0.31160697629E+03  0.00000000000E+00 0.  1.
</event>
<event>
 9   1  0.7335000E-04  0.1032148E+04  0.7818608E-02  0.9273972E-01
        2   -1    0    0  501    0  0.00000000000E+00  0.00000000000E+00  0.12311305151E+04  0.12311305151E+04  0.00000000000E+00 0.  1.
       -2   -1    0    0    0  501 -0.00000000000E+00 -0.00000000000E+00 -0.21633144470E+03  0.21633144470E+03  0.00000000000E+00 0. -1.
       39    2    1    2    0    0  0.35527136788E-14  0.56843418861E-13  0.10147990704E+04  0.14474619598E+04  0.10321477471E+04 0.  0.
       24    2    3    3    0    0 -0.17404046525E+02 -0.34953568612E+03  0.10270100159E+04  0.10881657049E+04  0.82927267933E+02 0.  0.
      -24    2    3    3    0    0  0.17404046525E+02  0.34953568612E+03 -0.12210945507E+02  0.35929625494E+03  0.80415141119E+02 0.  0.
      -13    1    4    4    0    0 -0.32861302817E+02 -0.14679091086E+03  0.34210730723E+03  0.37371760246E+03  0.00000000000E+00 0.  1.
       14    1    4    4    0    0  0.15457256293E+02 -0.20274477526E+03  0.68490270872E+03  0.71444810244E+03  0.00000000000E+00 0. -1.
        3    1    5    5  502    0  0.20874873689E+02  0.11623016392E+03 -0.39150736045E+02  0.12441057628E+03  0.00000000000E+00 0. -1.
       -4    1    5    5    0  502 -0.34708271643E+01  0.23330552219E+03  0.26939790537E+02  0.23488567867E+03  0.14200000000E+01 0.  1.
</event>
<event>
 9   1  0.7335000E-04  0.1004633E+04  0.7818608E-02  0.9303478E-01
       -1   -1    0    0    0  501 -0.00000000000E+00  0.00000000000E+00  0.49255282553E+03  0.49255282553E+03  0.00000000000E+00 0. -1.
        1   -1    0    0  501    0  0.00000000000E+00 -0.00000000000E+00 -0.51227339327E+03  0.51227339327E+03  0.00000000000E+00 0.  1.
       39    2    1    2    0    0 -0.56843418861E-13  0.00000000000E+00 -0.19720567737E+02  0.10048262188E+04  0.10046326837E+04 0.  0.
       24    2    3    3    0    0 -0.46309020387E+03  0.16365304474E+03  0.41337187918E+02  0.50396183808E+03  0.10504244455E+03 0.  0.
      -24    2    3    3    0    0  0.46309020387E+03 -0.16365304474E+03 -0.61057755655E+02  0.50086438073E+03  0.76825922600E+02 0.  0.
      -13    1    4    4    0    0 -0.20419606961E+03  0.18433094512E+02  0.70632865618E+01  0.20514800470E+03  0.00000000000E+00 0.  1.
       14    1    4    4    0    0 -0.25889413426E+03  0.14521995023E+03  0.34273901356E+02  0.29881383337E+03  0.00000000000E+00 0. -1.
        3    1    5    5  502    0  0.42795519807E+03 -0.16108893528E+03 -0.74174756376E+02  0.46324636114E+03  0.00000000000E+00 0. -1.
       -4    1    5    5    0  502  0.35135005796E+02 -0.25641094587E+01  0.13117000721E+02  0.37618019585E+02  0.14200000000E+01 0.  1.
</event>
<event>
 9   1  0.7335000E-04  0.9999113E+03  0.7818608E-02  0.9308642E-01
       21   -1    0    0  503  502  0.00000000000E+00  0.00000000000E+00  0.59819663995E+03  0.59819663995E+03  0.00000000000E+00 0.  1.
       21   -1    0    0  502  503 -0.00000000000E+00 -0.00000000000E+00 -0.41784861296E+03  0.41784861296E+03  0.00000000000E+00 0. -1.
       39    2    1    2    0    0 -0.28421709430E-13  0.00000000000E+00  0.18034802699E+03  0.10160452529E+04  0.99991126862E+03 0.  0.
       24    2    3    3    0    0  0.22785109182E+03 -0.25251255474E+03 -0.27325128828E+03  0.44362635275E+03  0.80370168366E+02 0.  0.
      -24    2    3    3    0    0 -0.22785109182E+03  0.25251255474E+03  0.45359931527E+03  0.57241890016E+03  0.78945222204E+02 0.  0.
      -13    1    4    4    0    0 -0.49951895880E+01 -0.24291376994E+01 -0.12893369964E+02  0.14038932224E+02  0.00000000000E+00 0.  1.
       14    1    4    4    0    0  0.23284628141E+03 -0.25008341704E+03 -0.26035791831E+03  0.42958742052E+03  0.00000000000E+00 0. -1.
        1    1    5    5  501    0 -0.60271693331E+01  0.25485539133E+02  0.12577594231E+02  0.29052286514E+02  0.00000000000E+00 0. -1.
       -2    1    5    5    0  501 -0.22182392249E+03  0.22702701560E+03  0.44102172104E+03  0.54336661365E+03  0.00000000000E+00 0.  1.
</event>
<event>
 9   1  0.7335000E-04  0.1108135E+04  0.7818608E-02  0.9197299E-01
       21   -1    0    0  503  502  0.00000000000E+00  0.00000000000E+00  0.10052225071E+04  0.10052225071E+04  0.00000000000E+00 0.  1.
       21   -1    0    0  502  503 -0.00000000000E+00 -0.00000000000E+00 -0.30539575963E+03  0.30539575963E+03  0.00000000000E+00 0. -1.
       39    2    1    2    0    0  0.00000000000E+00  0.00000000000E+00  0.69982674747E+03  0.13106182667E+04  0.11081348134E+04 0.  0.
       24    2    3    3    0    0 -0.28352377746E+03  0.30365178185E+02  0.90404802060E+03  0.95116967486E+03  0.78186638117E+02 0.  0.
      -24    2    3    3    0    0  0.28352377746E+03 -0.30365178185E+02 -0.20422127314E+03  0.35944859187E+03  0.78671375735E+02 0.  0.
      -13    1    4    4    0    0 -0.25810984039E+03  0.28939754383E+02  0.72088147212E+03  0.76624297447E+03  0.00000000000E+00 0.  1.
       14    1    4    4    0    0 -0.25413937076E+02  0.14254238015E+01  0.18316654849E+03  0.18492670039E+03  0.00000000000E+00 0. -1.
        3    1    5    5  501    0  0.20036072326E+03 -0.54772277681E+02 -0.15965251778E+03  0.26197967147E+03  0.00000000000E+00 0. -1.
       -4    1    5    5    0  501  0.83163054199E+02  0.24407099496E+02 -0.44568755358E+02  0.97468920399E+02  0.14200000000E+01 0.  1.
</event>
<event>
 9   1  0.7335000E-04  0.9873681E+03  0.7818608E-02  0.9322509E-01
       21   -1    0    0  503  502  0.00000000000E+00  0.00000000000E+00  0.55558337165E+03  0.55558337165E+03  0.00000000000E+00 0.  1.
       21   -1    0    0  502  503 -0.00000000000E+00 -0.00000000000E+00 -0.43868115385E+03  0.43868115385E+03  0.00000000000E+00 0. -1.
       39    2    1    2    0    0  0.00000000000E+00  0.00000000000E+00  0.11690221780E+03  0.99426452550E+03  0.98736812696E+03 0.  0.
       24    2    3    3    0    0 -0.18436985218E+03 -0.23882539930E+03  0.44378947817E+03  0.54220181336E+03  0.77484783910E+02 0.  0.
      -24    2    3    3    0    0  0.18436985218E+03  0.23882539930E+03 -0.32688726037E+03  0.45206271214E+03  0.80471118883E+02 0.  0.
      -13    1    4    4    0    0 -0.10511358942E+03 -0.18871699514E+03  0.33465136335E+03  0.39831458162E+03  0.00000000000E+00 0.  1.
       14    1    4    4    0    0 -0.79256262756E+02 -0.50108404165E+02  0.10913811481E+03  0.14388723174E+03  0.00000000000E+00 0. -1.
        1    1    5    5  501    0  0.14872191551E+03  0.16317000595E+03 -0.18818395967E+03  0.29009629724E+03  0.00000000000E+00 0. -1.
       -2    1    5    5    0  501  0.35647936667E+02  0.75655393350E+02 -0.13870330070E+03  0.16196641490E+03  0.00000000000E+00 0.  1.
</event>
<event>
 9   1  0.7335000E-04  0.9922027E+03  0.7818608E-02  0.9317138E-01
       21   -1    0    0  503  502  0.00000000000E+00  0.00000000000E+00  0.61490109160E+03  0.61490109160E+03  0.00000000000E+00 0.  1.
       21   -1    0    0  502  503 -0.00000000000E+00 -0.00000000000E+00 -0.40025388376E+03  0.40025388376E+03  0.00000000000E+00 0. -1.
       39    2    1    2    0    0  0.00000000000E+00  0.00000000000E+00  0.21464720784E+03  0.10151549754E+04  0.99220270115E+03 0.  0.
       24    2    3    3    0    0 -0.35749050583E+03  0.29882994077E+03  0.25988997195E+03  0.53968246923E+03  0.81336183867E+02 0.  0.
      -24    2    3    3    0    0  0.35749050583E+03 -0.29882994077E+03 -0.45242764113E+02  0.47547250613E+03  0.83237017740E+02 0.  0.
      -13    1    4    4    0    0 -0.28807272447E+03  0.26611227066E+03  0.24217286578E+03  0.46092226253E+03  0.00000000000E+00 0.  1.
       14    1    4    4    0    0 -0.69417781367E+02  0.32717670110E+02  0.17717106174E+02  0.78760206694E+02  0.00000000000E+00 0. -1.
        1    1    5    5  501    0  0.26044743767E+03 -0.21592123597E+03 -0.69946299109E+02  0.34546683298E+03  0.00000000000E+00 0. -1.
       -2    1    5    5    0  501  0.97043068166E+02 -0.82908704798E+02  0.24703534996E+02  0.13000567315E+03  0.00000000000E+00 0.  1.
</event>
<event>
 9   1  0.7335000E-04  0.1003120E+04  0.7818608E-02  0.9305129E-01
       21   -1    0    0  503  502  0.00000000000E+00  0.00000000000E+00  0.21735346661E+03  0.21735346661E+03  0.00000000000E+00 0.  1.
       21   -1    0    0  502  503 -0.00000000000E+00 -0.00000000000E+00 -0.11573891997E+04  0.11573891997E+04  0.00000000000E+00 0. -1.
       39    2    1    2    0    0  0.00000000000E+00 -0.35527136788E-14 -0.94003573306E+03  0.13747426663E+04  0.10031202416E+04 0.  0.
       24    2    3    3    0    0 -0.49309486999E+03 -0.30887124412E+02 -0.51576889764E+03  0.71863233602E+03  0.79487818795E+02 0.  0.
      -24    2    3    3    0    0  0.49309486999E+03  0.30887124412E+02 -0.42426683541E+03  0.65611033025E+03  0.79886498054E+02 0.  0.
      -13    1    4    4    0    0 -0.42557426276E+03 -0.60228582841E+01 -0.46617233343E+03  0.63124192859E+03  0.00000000000E+00 0.  1.
       14    1    4    4    0    0 -0.67520607226E+02 -0.24864266128E+02 -0.49596564212E+02  0.87390407436E+02  0.00000000000E+00 0. -1.
        1    1    5    5  501    0  0.25953417628E+03  0.51502027964E+02 -0.20026337760E+03  0.33183711057E+03  0.00000000000E+00 0. -1.
       -2    1    5    5    0  501  0.23356069371E+03 -0.20614903552E+02 -0.22400345781E+03  0.32427321968E+03  0.00000000000E+00 0.  1.
</event>
<event>
 9   1  0.7335000E-04  0.1005247E+04  0.7818608E-02  0.9302808E-01
       21   -1    0    0  503  502  0.00000000000E+00  0.00000000000E+00  0.13068319940E+03  0.13068319940E+03  0.00000000000E+00 0. -1.
       21   -1    0    0  502  503 -0.00000000000E+00 -0.00000000000E+00 -0.19331520125E+04  0.19331520125E+04  0.00000000000E+00 0.  1.
       39    2    1    2    0    0  0.28421709430E-13 -0.56843418861E-13 -0.18024688131E+04  0.20638352119E+04  0.10052472132E+04 0.  0.
       24    2    3    3    0    0 -0.14052479427E+03 -0.36902423692E+03 -0.15195266347E+04  0.15722547315E+04  0.84247503052E+02 0.  0.
      -24    2    3    3    0    0  0.14052479427E+03  0.36902423692E+03 -0.28294217836E+03  0.49158048041E+03  0.75292676860E+02 0.  0.
      -13    1    4    4    0    0 -0.96457135868E+02 -0.17809054738E+03 -0.89861947762E+03  0.92116078275E+03  0.00000000000E+00 0.  1.
       14    1    4    4    0    0 -0.44067658405E+02 -0.19093368953E+03 -0.62090715709E+03  0.65109394870E+03  0.00000000000E+00 0. -1.
        1    1    5    5  501    0  0.75269636744E+02  0.27497897649E+03 -0.17673859807E+03  0.33543328364E+03  0.00000000000E+00 0. -1.
       -2    1    5    5    0  501  0.65255157529E+02  0.94045260429E+02 -0.10620358029E+03  0.15614719677E+03  0.00000000000E+00 0.  1.
</event>
<event>
 9   1  0.7335000E-04  0.9867433E+03  0.7818608E-02  0.9323205E-01
       21   -1    0    0  503  502  0.00000000000E+00  0.00000000000E+00  0.91483381410E+03  0.91483381410E+03  0.00000000000E+00 0.  1.
       21   -1    0    0  502  503 -0.00000000000E+00 -0.00000000000E+00 -0.26607626711E+03  0.26607626711E+03  0.00000000000E+00 0. -1.
       39    2    1    2    0    0  0.00000000000E+00  0.00000000000E+00  0.64875754699E+03  0.11809100812E+04  0.98674326200E+03 0.  0.
       24    2    3    3    0    0  0.39821379413E+03 -0.12163388133E+03  0.62251803350E+03  0.75370478058E+03  0.84694552994E+02 0.  0.
      -24    2    3    3    0    0 -0.39821379413E+03  0.12163388133E+03  0.26239513491E+02  0.42720530063E+03  0.91906636818E+02 0.  0.
      -13    1    4    4    0    0  0.33635472411E+03 -0.11200300196E+03  0.57335793484E+03  0.67410569967E+03  0.00000000000E+00 0.  1.
       14    1    4    4    0    0  0.61859070022E+02 -0.96308793712E+01  0.49160098660E+02  0.79599080910E+02  0.00000000000E+00 0. -1.
        1    1    5    5  501    0 -0.37243290804E+03  0.99453725159E+02  0.20806661537E+01  0.38548883721E+03  0.00000000000E+00 0. -1.
       -2    1    5    5    0  501 -0.25780886087E+02  0.22180156174E+02  0.24158847337E+02  0.41716463416E+02  0.00000000000E+00 0.  1.
</event>
<event>
 9   1  0.7335000E-04  0.1000258E+04  0.7818608E-02  0.9308261E-01
       21   -1    0    0  503  502  0.00000000000E+00  0.00000000000E+00  0.32760481871E+03  0.32760481871E+03  0.00000000000E+00 0. -1.
       21   -1    0    0  502  503 -0.00000000000E+00 -0.00000000000E+00 -0.76350890990E+03  0.76350890990E+03  0.00000000000E+00 0.  1.
       39    2    1    2    0    0  0.00000000000E+00  0.56843418861E-13 -0.43590409120E+03  0.10911137286E+04  0.10002583626E+04 0.  0.
       24    2    3    3    0    0  0.32819308538E+03  0.32806885728E+03 -0.35949515099E+02  0.47243133500E+03  0.80988408129E+02 0.  0.
      -24    2    3    3    0    0 -0.32819308538E+03 -0.32806885728E+03 -0.39995457610E+03  0.61868239360E+03  0.86396555528E+02 0.  0.
      -13    1    4    4    0    0  0.91306289078E+02  0.10629667559E+03 -0.46847347098E+02  0.14775146563E+03  0.00000000000E+00 0.  1.
       14    1    4    4    0    0  0.23688679630E+03  0.22177218170E+03  0.10897831999E+02  0.32467986937E+03  0.00000000000E+00 0. -1.
        3    1    5    5  501    0 -0.70038122020E+02 -0.74769017884E+02 -0.44891831506E+02  0.11185267591E+03  0.00000000000E+00 0. -1.
       -4    1    5    5    0  501 -0.25815496336E+03 -0.25329983940E+03 -0.35506274459E+03  0.50682971770E+03  0.14200000000E+01 0.  1.
</event>
<event>
 9   1  0.7335000E-04  0.9976163E+03  0.7818608E-02  0.9311163E-01
       21   -1    0    0  503  502  0.00000000000E+00  0.00000000000E+00  0.23012461465E+03  0.23012461465E+03  0.00000000000E+00 0.  1.
       21   -1    0    0  502  503 -0.00000000000E+00 -0.00000000000E+00 -0.10811948635E+04  0.10811948635E+04  0.00000000000E+00 0. -1.
       39    2    1    2    0    0  0.28421709430E-13  0.14210854715E-13 -0.85107024888E+03  0.13113194782E+04  0.99761626155E+03 0.  0.
       24    2    3    3    0    0  0.14344063257E+03 -0.87135391019E+02 -0.10339275029E+04  0.10505996769E+04  0.81152994553E+02 0.  0.
      -24    2    3    3    0    0 -0.14344063257E+03  0.87135391019E+02  0.18285725398E+03  0.26071980126E+03  0.79813833374E+02 0.  0.
      -13    1    4    4    0    0  0.17718406045E+00 -0.39438993672E+01 -0.50203461021E+00  0.39796702326E+01  0.00000000000E+00 0.  1.
       14    1    4    4    0    0  0.14326344851E+03 -0.83191491652E+02 -0.10334254682E+04  0.10466200067E+04  0.00000000000E+00 0. -1.
        3    1    5    5  501    0 -0.13993455890E+03  0.71433135447E+02  0.12535764438E+03  0.20099480744E+03  0.00000000000E+00 0. -1.
       -4    1    5    5    0  501 -0.35060736684E+01  0.15702255573E+02  0.57499609600E+02  0.59724993820E+02  0.14200000000E+01 0.  1.
</event>
<event>
 9   1  0.7335000E-04  0.9969878E+03  0.7818608E-02  0.9311855E-01
       21   -1    0    0  503  502  0.00000000000E+00  0.00000000000E+00  0.92654269610E+03  0.92654269610E+03  0.00000000000E+00 0. -1.
       21   -1    0    0  502  503 -0.00000000000E+00 -0.00000000000E+00 -0.26819723455E+03  0.26819723455E+03  0.00000000000E+00 0.  1.
       39    2    1    2    0    0  0.14210854715E-13  0.00000000000E+00  0.65834546155E+03  0.11947399306E+04  0.99698784101E+03 0.  0.
       24    2    3    3    0    0  0.91247162425E+02 -0.47553203442E+03  0.43395839502E+03  0.65519406450E+03  0.80638781865E+02 0.  0.
      -24    2    3    3    0    0 -0.91247162425E+02  0.47553203442E+03  0.22438706653E+03  0.53954586614E+03  0.79394115825E+02 0.  0.
      -13    1    4    4    0    0  0.81071699191E+02 -0.27299335980E+03  0.21555628149E+03  0.35715893576E+03  0.00000000000E+00 0.  1.
       14    1    4    4    0    0  0.10175463233E+02 -0.20253867462E+03  0.21840211353E+03  0.29803512874E+03  0.00000000000E+00 0. -1.
        1    1    5    5  501    0  0.23241957212E+01  0.12422697875E+03  0.32354574351E+02  0.12839222179E+03  0.00000000000E+00 0. -1.
       -2    1    5    5    0  501 -0.93571358146E+02  0.35130505567E+03  0.19203249218E+03  0.41115364435E+03  0.00000000000E+00 0.  1.
</event>
<event>
 9   1  0.7335000E-04  0.9797532E+03  0.7818608E-02  0.9331034E-01
       -2   -1    0    0    0  501 -0.00000000000E+00  0.00000000000E+00  0.28747696966E+03  0.28747696966E+03  0.00000000000E+00 0.  1.
        2   -1    0    0  501    0  0.00000000000E+00 -0.00000000000E+00 -0.83477665404E+03  0.83477665404E+03  0.00000000000E+00 0. -1.
       39    2    1    2    0    0  0.00000000000E+00  0.00000000000E+00 -0.54729968438E+03  0.11222536237E+04  0.97975315839E+03 0.  0.
       24    2    3    3    0    0  0.33150074522E+03 -0.35317609591E+03 -0.27085037602E+03  0.55901518443E+03  0.67171060949E+02 0.  0.
      -24    2    3    3    0    0 -0.33150074522E+03  0.35317609591E+03 -0.27644930836E+03  0.56323843927E+03  0.78658887432E+02 0.  0.
      -13    1    4    4    0    0  0.22441856147E+02 -0.47218701221E+02 -0.14745062300E+02  0.54319973441E+02  0.00000000000E+00 0.  1.
       14    1    4    4    0    0  0.30905888907E+03 -0.30595739469E+03 -0.25610531372E+03  0.50469521099E+03  0.00000000000E+00 0. -1.
        3    1    5    5  502    0 -0.76958011169E+01  0.33933076907E+02 -0.30486076938E+02  0.46260998155E+02  0.00000000000E+00 0. -1.
       -4    1    5    5    0  502 -0.32380494410E+03  0.31924301900E+03 -0.24596323142E+03  0.51697744111E+03  0.14200000000E+01 0.  1.
</event>
<event>
 9   1  0.7335000E-04  0.9984734E+03  0.7818608E-02  0.9310221E-01
       21   -1    0    0  503  502  0.00000000000E+00  0.00000000000E+00  0.53145471206E+03  0.53145471206E+03  0.00000000000E+00 0.  1.
       21   -1    0    0  502  503 -0.00000000000E+00 -0.00000000000E+00 -0.46897182473E+03  0.46897182473E+03  0.00000000000E+00 0. -1.
       39    2    1    2    0    0  0.00000000000E+00 -0.71054273576E-14  0.62482887332E+02  0.10004265368E+04  0.99847340690E+03 0.  0.
       24    2    3    3    0    0  0.44276593355E+03 -0.42298000951E+02 -0.18108665800E+03  0.48687610720E+03  0.80157178461E+02 0.  0.
      -24    2    3    3    0    0 -0.44276593355E+03  0.42298000951E+02  0.24356954533E+03  0.51355042959E+03  0.81099491491E+02 0.  0.
      -13    1    4    4    0    0  0.47871371849E+01 -0.56680834471E+01 -0.15547343666E+02  0.17226832195E+02  0.00000000000E+00 0.  1.
       14    1    4    4    0    0  0.43797879636E+03 -0.36629917504E+02 -0.16553931433E+03  0.46964927500E+03  0.00000000000E+00 0. -1.
        3    1    5    5  501    0 -0.31911590660E+03 -0.54346380755E+01  0.16214849322E+03  0.35798970794E+03  0.00000000000E+00 0. -1.
       -4    1    5    5    0  501 -0.12365002695E+03  0.47732639027E+02  0.81421052112E+02  0.15556072165E+03  0.14200000000E+01 0.  1.
</event>
<event>
 9   1  0.7335000E-04  0.1002464E+04  0.7818608E-02  0.9305846E-01
       21   -1    0    0  503  502  0.00000000000E+00  0.00000000000E+00  0.14915850898E+04  0.14915850898E+04  0.00000000000E+00 0.  1.
       21   -1    0    0  502  503 -0.00000000000E+00 -0.00000000000E+00 -0.16843400874E+03  0.16843400874E+03  0.00000000000E+00 0. -1.
       39    2    1    2    0    0  0.00000000000E+00 -0.56843418861E-13  0.13231510810E+04  0.16600190985E+04  0.10024642758E+04 0.  0.
       24    2    3    3    0    0  0.28269439527E+03 -0.30138975214E+03  0.11122455742E+04  0.11891720922E+04  0.79297816665E+02 0.  0.
      -24    2    3    3    0    0 -0.28269439527E+03  0.30138975214E+03  0.21090550683E+03  0.47084700631E+03  0.80398176144E+02 0.  0.
      -13    1    4    4    0    0  0.17311427251E+03 -0.23686719645E+03  0.79301883386E+03  0.84554922444E+03  0.00000000000E+00 0.  1.
       14    1    4    4    0    0  0.10958012276E+03 -0.64522555692E+02  0.31922674033E+03  0.34362286774E+03  0.00000000000E+00 0. -1.
        1    1    5    5  501    0 -0.16169571096E+03  0.11642434148E+03  0.11350318023E+03  0.22931005681E+03  0.00000000000E+00 0. -1.
       -2    1    5    5    0  501 -0.12099868430E+03  0.18496541066E+03  0.97402326601E+02  0.24153694950E+03  0.00000000000E+00 0.  1.
</event>
<event>
 9   1  0.7335000E-04  0.9988792E+03  0.7818608E-02  0.9309775E-01
       21   -1    0    0  503  502  0.00000000000E+00  0.00000000000E+00  0.28919692513E+04  0.28919692513E+04  0.00000000000E+00 0. -1.
       21   -1    0    0  502  503 -0.00000000000E+00 -0.00000000000E+00 -0.86252615749E+02  0.86252615749E+02  0.00000000000E+00 0.  1.
       39    2    1    2    0    0  0.00000000000E+00  0.11368683772E-12  0.28057166356E+04  0.29782218671E+04  0.99887919709E+03 0.  0.
       24    2    3    3    0    0 -0.70071066383E+02 -0.45078966573E+03  0.19573001101E+04  0.20117203023E+04  0.88733175818E+02 0.  0.
      -24    2    3    3    0    0  0.70071066383E+02  0.45078966573E+03  0.84841652544E+03  0.96650156477E+03  0.78698138437E+02 0.  0.
      -13    1    4    4    0    0 -0.80928374944E+02 -0.31630473343E+03  0.12695416542E+04  0.13108524318E+04  0.00000000000E+00 0.  1.
       14    1    4    4    0    0  0.10857308561E+02 -0.13448493230E+03  0.68775845592E+03  0.70086787046E+03  0.00000000000E+00 0. -1.
        1    1    5    5  501    0 -0.85125138103E+01  0.17764457863E+03  0.29812245093E+03  0.34714126081E+03  0.00000000000E+00 0. -1.
       -2    1    5    5    0  501  0.78583580193E+02  0.27314508710E+03  0.55029407451E+03  0.61936030396E+03  0.00000000000E+00 0.  1.
</event>
<event>
 9   1  0.7335000E-04  0.9657823E+03  0.7818608E-02  0.9346891E-01
       21   -1    0    0  503  502  0.00000000000E+00  0.00000000000E+00  0.54470676139E+03  0.54470676139E+03  0.00000000000E+00 0. -1.
       21   -1    0    0  502  503 -0.00000000000E+00 -0.00000000000E+00 -0.42809065270E+03  0.42809065270E+03  0.00000000000E+00 0.  1.
       39    2    1    2    0    0  0.00000000000E+00 -0.56843418861E-13  0.11661610870E+03  0.97279741409E+03  0.96578232126E+03 0.  0.
       24    2    3    3    0    0  0.56273991471E+02 -0.33972963578E+03  0.38949118573E+03  0.52609044196E+03  0.80528143039E+02 0.  0.
      -24    2    3    3    0    0 -0.56273991471E+02  0.33972963578E+03 -0.27287507703E+03  0.44670697213E+03  0.80643187821E+02 0.  0.
      -13    1    4    4    0    0  0.49269549577E+02 -0.97072943159E+02  0.95381640841E+02  0.14473528325E+03  0.00000000000E+00 0.  1.
       14    1    4    4    0    0  0.70044418934E+01 -0.24265669262E+03  0.29410954489E+03  0.38135515871E+03  0.00000000000E+00 0. -1.
        1    1    5    5  501    0 -0.70711012236E+02  0.22767713620E+03 -0.16077425584E+03  0.28755049459E+03  0.00000000000E+00 0. -1.
       -2    1    5    5    0  501  0.14437020765E+02  0.11205249958E+03 -0.11210082119E+03  0.15915647754E+03  0.00000000000E+00 0.  1.
</event>
<event>
 9   1  0.7335000E-04  0.1000346E+04  0.7818608E-02  0.9308165E-01
       21   -1    0    0  503  502  0.00000000000E+00  0.00000000000E+00  0.25567111940E+03  0.25567111940E+03  0.00000000000E+00 0. -1.
       21   -1    0    0  502  503 -0.00000000000E+00 -0.00000000000E+00 -0.97849613401E+03  0.97849613401E+03  0.00000000000E+00 0.  1.
       39    2    1    2    0    0 -0.28421709430E-13  0.56843418861E-13 -0.72282501460E+03  0.12341672534E+04  0.10003463439E+04 0.  0.
       24    2    3    3    0    0  0.17060233145E+03 -0.39261801222E+03 -0.66383017352E+03  0.79460770255E+03  0.86468738105E+02 0.  0.
      -24    2    3    3    0    0 -0.17060233145E+03  0.39261801222E+03 -0.58994841082E+02  0.43955955086E+03  0.80486945909E+02 0.  0.
      -13    1    4    4    0    0  0.61353982232E+02 -0.23197830853E+03 -0.32418538579E+03  0.40332915977E+03  0.00000000000E+00 0.  1.
       14    1    4    4    0    0  0.10924834922E+03 -0.16063970368E+03 -0.33964478773E+03  0.39127854278E+03  0.00000000000E+00 0. -1.
        1    1    5    5  501    0 -0.16763665204E+03  0.39578387465E+03 -0.62016514129E+02  0.43427292175E+03  0.00000000000E+00 0. -1.
       -2    1    5    5    0  501 -0.29656794075E+01 -0.31658624336E+01  0.30216730473E+01  0.52866291057E+01  0.00000000000E+00 0.  1.
</event>
<event>
 9   1  0.7335000E-04  0.1010039E+04  0.7818608E-02  0.9297602E-01
        1   -1    0    0  501    0  0.00000000000E+00  0.00000000000E+00  0.18501484790E+04  0.18501484790E+04  0.00000000000E+00 0. -1.
       -1   -1    0    0    0  501 -0.00000000000E+00 -0.00000000000E+00 -0.13785089816E+03  0.13785089816E+03  0.00000000000E+00 0.  1.
       39    2    1    2    0    0  0.00000000000E+00  0.00000000000E+00  0.17122975808E+04  0.19879993771E+04  0.10100388697E+04 0.  0.
       24    2    3    3    0    0 -0.47411708112E+03 -0.65953502486E+02  0.57902499784E+03  0.75518719550E+03  0.76817192236E+02 0.  0.
      -24    2    3    3    0    0  0.47411708112E+03  0.65953502486E+02  0.11332725830E+04  0.12328121816E+04  0.79889027692E+02 0.  0.
      -13    1    4    4    0    0 -0.42642899810E+03 -0.77274701193E+02  0.54085816877E+03  0.69306610694E+03  0.00000000000E+00 0.  1.
       14    1    4    4    0    0 -0.47688083025E+02  0.11321198707E+02  0.38166829065E+02  0.62121088558E+02  0.00000000000E+00 0. -1.
        1    1    5    5  502    0  0.38710758257E+03  0.84759884838E+02  0.92299883337E+03  0.10044716845E+04  0.00000000000E+00 0. -1.
       -2    1    5    5    0  502  0.87009498554E+02 -0.18806382352E+02  0.21027374961E+03  0.22834049713E+03  0.00000000000E+00 0.  1.
</event>
<event>
 9   1  0.7335000E-04  0.9987718E+03  0.7818608E-02  0.9309893E-01
       21   -1    0    0  503  502  0.00000000000E+00  0.00000000000E+00  0.89643503299E+03  0.89643503299E+03  0.00000000000E+00 0.  1.
       21   -1    0    0  502  503 -0.00000000000E+00 -0.00000000000E+00 -0.27819783738E+03  0.27819783738E+03  0.00000000000E+00 0. -1.
       39    2    1    2    0    0  0.00000000000E+00  0.00000000000E+00  0.61823719561E+03  0.11746328704E+04  0.99877182085E+03 0.  0.
       24    2    3    3    0    0 -0.49140127094E+03 -0.57862703569E+01  0.35517481589E+03  0.61153282354E+03  0.79464170676E+02 0.  0.
      -24    2    3    3    0    0  0.49140127094E+03  0.57862703569E+01  0.26306237971E+03  0.56310004683E+03  0.79819528419E+02 0.  0.
      -13    1    4    4    0    0 -0.10680593523E+03  0.19976260049E+02  0.11052041351E+03  0.15498813041E+03  0.00000000000E+00 0.  1.
       14    1    4    4    0    0 -0.38459533571E+03 -0.25762530406E+02  0.24465440238E+03  0.45654469313E+03  0.00000000000E+00 0. -1.
        1    1    5    5  501    0  0.23416112114E+03 -0.37015222908E+02  0.12835572353E+03  0.26958625548E+03  0.00000000000E+00 0. -1.
       -2    1    5    5    0  501  0.25724014980E+03  0.42801493265E+02  0.13470665619E+03  0.29351379135E+03  0.00000000000E+00 0.  1.
</event>
<event>
 9   1  0.7335000E-04  0.1005088E+04  0.7818608E-02  0.9302982E-01
       21   -1    0    0  503  502  0.00000000000E+00  0.00000000000E+00  0.23971293270E+03  0.23971293270E+03  0.00000000000E+00 0.  1.
       21   -1    0    0  502  503 -0.00000000000E+00 -0.00000000000E+00 -0.10535539230E+04  0.10535539230E+04  0.00000000000E+00 0. -1.
       39    2    1    2    0    0  0.00000000000E+00 -0.14210854715E-13 -0.81384099031E+03  0.12932668557E+04  0.10050880571E+04 0.  0.
       24    2    3    3    0    0 -0.20320947458E+03  0.11517061635E+03  0.15678125608E+03  0.29188406248E+03  0.77830471171E+02 0.  0.
      -24    2    3    3    0    0  0.20320947458E+03 -0.11517061635E+03 -0.97062224639E+03  0.10013827932E+04  0.78112687627E+02 0.  0.
      -13    1    4    4    0    0 -0.15729864467E+03  0.69983088328E+02  0.75031669479E+02  0.18780374781E+03  0.00000000000E+00 0.  1.
       14    1    4    4    0    0 -0.45910829901E+02  0.45187528021E+02  0.81749586601E+02  0.10408031466E+03  0.00000000000E+00 0. -1.
        3    1    5    5  501    0  0.97383570136E+02 -0.22742772064E+02 -0.30103948658E+03  0.31721533048E+03  0.00000000000E+00 0. -1.
       -4    1    5    5    0  501  0.10582590444E+03 -0.92427844285E+02 -0.66958275982E+03  0.68416746275E+03  0.14200000000E+01 0.  1.
</event>
<event>
 9   1  0.7335000E-04  0.9952830E+03  0.7818608E-02  0.9313733E-01
       21   -1    0    0  503  502  0.00000000000E+00  0.00000000000E+00  0.16880798521E+03  0.16880798521E+03  0.00000000000E+00 0.  1.
       21   -1    0    0  502  503 -0.00000000000E+00 -0.00000000000E+00 -0.14670341046E+04  0.14670341046E+04  0.00000000000E+00 0. -1.
       39    2    1    2    0    0  0.00000000000E+00  0.71054273576E-14 -0.12982261194E+04  0.16358420898E+04  0.99528301790E+03 0.  0.
       24    2    3    3    0    0 -0.44567831696E+03  0.22797309889E+02 -0.30970770216E+03  0.54817925361E+03  0.73707216491E+02 0.  0.
      -24    2    3    3    0    0  0.44567831696E+03 -0.22797309889E+02 -0.98851841720E+03  0.10876628362E+04  0.81810173571E+02 0.  0.
      -13    1    4    4    0    0 -0.30391768633E+03  0.35739454715E+02 -0.17672339411E+03  0.35337575852E+03  0.00000000000E+00 0.  1.
       14    1    4    4    0    0 -0.14176063064E+03 -0.12942144825E+02 -0.13298430805E+03  0.19480349509E+03  0.00000000000E+00 0. -1.
        3    1    5    5  501    0  0.40430340918E+03 -0.43704641614E+02 -0.86835375380E+03  0.95885847971E+03  0.00000000000E+00 0. -1.
       -4    1    5    5    0  501  0.41374907784E+02  0.20907331724E+02 -0.12016466341E+03  0.12880435647E+03  0.14200000000E+01 0.  1.
</event>
<event>
 8   1  0.7335000E-04  0.7988636E+03  0.7818608E-02  0.9561663E-01
       21   -1    0    0  503  502  0.00000000000E+00  0.00000000000E+00  0.15725972200E+03  0.15725972200E+03  0.00000000000E+00 0.  1.
       21   -1    0    0  502  503 -0.00000000000E+00 -0.00000000000E+00 -0.10145366834E+04  0.10145366834E+04  0.00000000000E+00 0. -1.
       24    2    1    2    0    0 -0.16534086967E+03  0.19879522128E+03  0.18023711195E+01  0.27126431538E+03  0.81999616288E+02 0.  0.
      -24    2    1    2    0    0  0.16534086967E+03 -0.19879522128E+03 -0.85907933248E+03  0.90053208998E+03  0.77997451269E+02 0.  0.
      -13    1    3    3    0    0 -0.11262118692E+03  0.18451666606E+03  0.78356903772E+01  0.21631303669E+03  0.00000000000E+00 0.  1.
       14    1    3    3    0    0 -0.52719682755E+02  0.14278555215E+02 -0.60333192577E+01  0.54951278694E+02  0.00000000000E+00 0. -1.
        3    1    4    4  501    0  0.89714159453E+02 -0.10923481904E+03 -0.59571301941E+03  0.61225393228E+03  0.00000000000E+00 0. -1.
       -4    1    4    4    0  501  0.75626710218E+02 -0.89560402242E+02 -0.26336631307E+03  0.28827815770E+03  0.14200000000E+01 0.  1.
</event>
<event>
 9   1  0.7335000E-04  0.9965133E+03  0.7818608E-02  0.9312377E-01
       21   -1    0    0  503  502  0.00000000000E+00  0.00000000000E+00  0.72041214420E+03  0.72041214420E+03  0.00000000000E+00 0.  1.
       21   -1    0    0  502  503 -0.00000000000E+00 -0.00000000000E+00 -0.34460784201E+03  0.34460784201E+03  0.00000000000E+00 0. -1.
       39    2    1    2    0    0 -0.28421709430E-13  0.00000000000E+00  0.37580430219E+03  0.10650199862E+04  0.99651327009E+03 0.  0.
       24    2    3    3    0    0  0.99954010057E+02 -0.17715562791E+02 -0.32593813326E+03  0.35150626038E+03  0.83763590417E+02 0.  0.
      -24    2    3    3    0    0 -0.99954010057E+02  0.17715562791E+02  0.70174243546E+03  0.71351372582E+03  0.79716660290E+02 0.  0.
      -13    1    4    4    0    0 -0.50648907915E+01  0.78031987328E+01 -0.10642251886E+03  0.10682834619E+03  0.00000000000E+00 0.  1.
       14    1    4    4    0    0  0.10501890085E+03 -0.25518761524E+02 -0.21951561440E+03  0.24467791419E+03  0.00000000000E+00 0. -1.
        3    1    5    5  501    0 -0.30725770166E+02 -0.22612599581E+02  0.11125461425E+03  0.11761373986E+03  0.00000000000E+00 0. -1.
       -4    1    5    5    0  501 -0.69228239891E+02  0.40328162372E+02  0.59048782120E+03  0.59589998596E+03  0.14200000000E+01 0.  1.
</event>
<event>
 9   1  0.7335000E-04  0.9887917E+03  0.7818608E-02  0.9320924E-01
       21   -1    0    0  503  502  0.00000000000E+00  0.00000000000E+00  0.24758053018E+03  0.24758053018E+03  0.00000000000E+00 0. -1.
       21   -1    0    0  502  503 -0.00000000000E+00 -0.00000000000E+00 -0.98726369104E+03  0.98726369104E+03  0.00000000000E+00 0.  1.
       39    2    1    2    0    0  0.00000000000E+00 -0.56843418861E-13 -0.73968316086E+03  0.12348442212E+04  0.98879172338E+03 0.  0.
       24    2    3    3    0    0  0.90166963113E+02 -0.46059646664E+03 -0.20305939422E+03  0.51738272769E+03  0.78565787816E+02 0.  0.
      -24    2    3    3    0    0 -0.90166963113E+02  0.46059646664E+03 -0.53662376664E+03  0.71746149352E+03  0.80664375283E+02 0.  0.
      -13    1    4    4    0    0  0.12046496713E+02 -0.26635084582E+02 -0.34761657213E+02  0.45419363998E+02  0.00000000000E+00 0.  1.
       14    1    4    4    0    0  0.78120466400E+02 -0.43396138206E+03 -0.16829773700E+03  0.47196336370E+03  0.00000000000E+00 0. -1.
        3    1    5    5  501    0 -0.35633810592E+02  0.49431576387E+02 -0.80347074252E+02  0.10084097155E+03  0.00000000000E+00 0. -1.
       -4    1    5    5    0  501 -0.54533152521E+02  0.41116489026E+03 -0.45627669239E+03  0.61662052198E+03  0.14200000000E+01 0.  1.
</event>
<event>
 9   1  0.7335000E-04  0.1002443E+04  0.7818608E-02  0.9305870E-01
       21   -1    0    0  503  502  0.00000000000E+00  0.00000000000E+00  0.88450756194E+03  0.88450756194E+03  0.00000000000E+00 0. -1.
       21   -1    0    0  502  503 -0.00000000000E+00 -0.00000000000E+00 -0.28402555388E+03  0.28402555388E+03  0.00000000000E+00 0.  1.
       39    2    1    2    0    0  0.00000000000E+00 -0.28421709430E-13  0.60048200806E+03  0.11685331158E+04  0.10024425174E+04 0.  0.
       24    2    3    3    0    0  0.45755492027E+03  0.14026732471E+03  0.16117804305E+03  0.51391640595E+03  0.95395405032E+02 0.  0.
      -24    2    3    3    0    0 -0.45755492027E+03 -0.14026732471E+03  0.43930396501E+03  0.65461670986E+03  0.80645122066E+02 0.  0.
      -13    1    4    4    0    0  0.44910202782E+03  0.15145447954E+03  0.15591015737E+03  0.49893793996E+03  0.00000000000E+00 0.  1.
       14    1    4    4    0    0  0.84528924487E+01 -0.11187154825E+02  0.52678856765E+01  0.14978465987E+02  0.00000000000E+00 0. -1.
        3    1    5    5  501    0 -0.22332498491E+03 -0.29578976853E+02  0.22505893745E+03  0.31843443608E+03  0.00000000000E+00 0. -1.
       -4    1    5    5    0  501 -0.23422993536E+03 -0.11068834786E+03  0.21424502757E+03  0.33618227379E+03  0.14200000000E+01 0.  1.
</event>
<event>
 9   1  0.7335000E-04  0.9752541E+03  0.7818608E-02  0.9336110E-01
       21   -1    0    0  503  502  0.00000000000E+00  0.00000000000E+00  0.17582167088E+04  0.17582167088E+04  0.00000000000E+00 0. -1.
       21   -1    0    0  502  503 -0.00000000000E+00 -0.00000000000E+00 -0.13523938565E+03  0.13523938565E+03  0.00000000000E+00 0.  1.
       39    2    1    2    0    0  0.28421709430E-13  0.00000000000E+00  0.16229773231E+04  0.18934560944E+04  0.97525411568E+03 0.  0.
       24    2    3    3    0    0  0.23863736851E+03  0.19703017135E+02  0.16213662207E+04  0.16408864977E+04  0.79649696575E+02 0.  0.
      -24    2    3    3    0    0 -0.23863736851E+03 -0.19703017135E+02  0.16111023998E+01  0.25256959671E+03  0.80329340826E+02 0.  0.
      -13    1    4    4    0    0  0.27843101970E+02 -0.23190018704E+02  0.28976112274E+03  0.29201801922E+03  0.00000000000E+00 0.  1.
       14    1    4    4    0    0  0.21079426654E+03  0.42893035839E+02  0.13316050980E+04  0.13488684785E+04  0.00000000000E+00 0. -1.
        1    1    5    5  501    0 -0.12520454827E+03  0.24105051805E+02  0.21656997886E+02  0.12933003513E+03  0.00000000000E+00 0. -1.
       -2    1    5    5    0  501 -0.11343282024E+03 -0.43808068940E+02 -0.20045895486E+02  0.12323956158E+03  0.00000000000E+00 0.  1.
</event>
<event>
 9   1  0.7335000E-04  0.9935930E+03  0.7818608E-02  0.9315600E-01
       21   -1    0    0  503  502  0.00000000000E+00  0.00000000000E+00  0.27280701268E+03  0.27280701268E+03  0.00000000000E+00 0. -1.
       21   -1    0    0  502  503 -0.00000000000E+00 -0.00000000000E+00 -0.90469353444E+03  0.90469353444E+03  0.00000000000E+00 0.  1.
       39    2    1    2    0    0  0.14210854715E-13 -0.56843418861E-13 -0.63188652175E+03  0.11775005471E+04  0.99359295594E+03 0.  0.
       24    2    3    3    0    0 -0.91924311773E+02  0.48150296371E+03 -0.31729701252E+03  0.58941000640E+03  0.80197121729E+02 0.  0.
      -24    2    3    3    0    0  0.91924311773E+02 -0.48150296371E+03 -0.31458950924E+03  0.58809054072E+03  0.81171063899E+02 0.  0.
      -13    1    4    4    0    0 -0.73917644868E+02  0.26160703518E+03 -0.21306296506E+03  0.34539526077E+03  0.00000000000E+00 0.  1.
       14    1    4    4    0    0 -0.18006666905E+02  0.21989592853E+03 -0.10423404745E+03  0.24401474563E+03  0.00000000000E+00 0. -1.
        3    1    5    5  501    0  0.25671634932E+01 -0.17640290462E+02  0.40468240804E+01  0.18279687117E+02  0.00000000000E+00 0. -1.
       -4    1    5    5    0  501  0.89357148280E+02 -0.46386267325E+03 -0.31863633332E+03  0.56981085361E+03  0.14200000000E+01 0.  1.
</event>
<event>
 9   1  0.7335000E-04  0.1023750E+04  0.7818608E-02  0.9282873E-01
       21   -1    0    0  503  502  0.00000000000E+00  0.00000000000E+00  0.88105338183E+03  0.88105338183E+03  0.00000000000E+00 0. -1.
       21   -1    0    0  502  503 -0.00000000000E+00 -0.00000000000E+00 -0.29738931882E+03  0.29738931882E+03  0.00000000000E+00 0.  1.
       39    2    1    2    0    0  0.00000000000E+00  0.00000000000E+00  0.58366406301E+03  0.11784427006E+04  0.10237497059E+04 0.  0.
       24    2    3    3    0    0 -0.38030413429E+03  0.33037337549E+03  0.34067968918E+03  0.61336100957E+03  0.79820270863E+02 0.  0.
      -24    2    3    3    0    0  0.38030413429E+03 -0.33037337549E+03  0.24298437383E+03  0.56508169108E+03  0.80610854531E+02 0.  0.
      -13    1    4    4    0    0 -0.25540914098E+02  0.39936245026E+02  0.57297103760E+02  0.74365314892E+02  0.00000000000E+00 0.  1.
       14    1    4    4    0    0 -0.35476322020E+03  0.29043713047E+03  0.28338258542E+03  0.53899569467E+03  0.00000000000E+00 0. -1.
        3    1    5    5  501    0  0.11604648675E+03 -0.57586624015E+02  0.75990208524E+02  0.15019160477E+03  0.00000000000E+00 0. -1.
       -4    1    5    5    0  501  0.26425764755E+03 -0.27278675148E+03  0.16699416531E+03  0.41489008631E+03  0.14200000000E+01 0.  1.
</event>
<event>
 9   1  0.7335000E-04  0.1001526E+04  0.7818608E-02  0.9306873E-01
        1   -1    0    0  501    0  0.00000000000E+00  0.00000000000E+00  0.11635556170E+04  0.11635556170E+04  0.00000000000E+00 0. -1.
       -1   -1    0    0    0  501 -0.00000000000E+00 -0.00000000000E+00 -0.21551483072E+03  0.21551483072E+03  0.00000000000E+00 0.  1.
       39    2    1    2    0    0  0.35527136788E-14  0.56843418861E-13  0.94804078625E+03  0.13790704477E+04  0.10015258196E+04 0.  0.
       24    2    3    3    0    0  0.26040325667E+01 -0.49390244938E+03  0.45052800953E+03  0.67334093289E+03  0.80412151146E+02 0.  0.
      -24    2    3    3    0    0 -0.26040325667E+01  0.49390244938E+03  0.49751277671E+03  0.70572951480E+03  0.81171266947E+02 0.  0.
      -13    1    4    4    0    0 -0.23293801770E+02 -0.40871134007E+03  0.39197449938E+03  0.56677294296E+03  0.00000000000E+00 0.  1.
       14    1    4    4    0    0  0.25897834337E+02 -0.85191109307E+02  0.58553510150E+02  0.10656798994E+03  0.00000000000E+00 0. -1.
        1    1    5    5  502    0 -0.39686399342E+02  0.26516218942E+03  0.24830757500E+03  0.36543487627E+03  0.00000000000E+00 0. -1.
       -2    1    5    5    0  502  0.37082366775E+02  0.22874025995E+03  0.24920520172E+03  0.34029463853E+03  0.00000000000E+00 0.  1.
</event>
<event>
 9   1  0.7335000E-04  0.1000364E+04  0.7818608E-02  0.9308145E-01
       21   -1    0    0  503  502  0.00000000000E+00  0.00000000000E+00  0.28559359482E+03  0.28559359482E+03  0.00000000000E+00 0.  1.
       21   -1    0    0  502  503 -0.00000000000E+00 -0.00000000000E+00 -0.87600745757E+03  0.87600745757E+03  0.00000000000E+00 0. -1.
       39    2    1    2    0    0  0.00000000000E+00  0.00000000000E+00 -0.59041386275E+03  0.11616010524E+04  0.10003641715E+04 0.  0.
       24    2    3    3    0    0 -0.10092827813E+02 -0.25877404054E+03  0.19289077222E+03  0.33258385163E+03  0.79619715678E+02 0.  0.
      -24    2    3    3    0    0  0.10092827813E+02  0.25877404054E+03 -0.78330463496E+03  0.82901720076E+03  0.81470846139E+02 0.  0.
      -13    1    4    4    0    0 -0.17956414627E+02 -0.12597332727E+03  0.14062988190E+03  0.18965356758E+03  0.00000000000E+00 0.  1.
       14    1    4    4    0    0  0.78635868137E+01 -0.13280071327E+03  0.52260890315E+02  0.14293028405E+03  0.00000000000E+00 0. -1.
        3    1    5    5  501    0 -0.21789083977E+02  0.21226628022E+03 -0.65445916030E+03  0.68836656688E+03  0.00000000000E+00 0. -1.
       -4    1    5    5    0  501  0.31881911790E+02  0.46507760327E+02 -0.12884547466E+03  0.14065063388E+03  0.14200000000E+01 0.  1.
</event>
<event>
 9   1  0.7335000E-04  0.9772249E+03  0.7818608E-02  0.9333883E-01
       21   -1    0    0  503  502  0.00000000000E+00  0.00000000000E+00  0.42566494125E+03  0.42566494125E+03  0.00000000000E+00 0.  1.
       21   -1    0    0  502  503 -0.00000000000E+00 -0.00000000000E+00 -0.56086868318E+03  0.56086868318E+03  0.00000000000E+00 0. -1.
       39    2    1    2    0    0  0.00000000000E+00  0.00000000000E+00 -0.13520374193E+03  0.98653362444E+03  0.97722491797E+03 0.  0.
       24    2    3    3    0    0  0.37823621562E+03 -0.25180416613E+02  0.23266374450E+03  0.45228012308E+03  0.82025627369E+02 0.  0.
      -24    2    3    3    0    0 -0.37823621562E+03  0.25180416613E+02 -0.36786748643E+03  0.53425350135E+03  0.80022671464E+02 0.  0.
      -13    1    4    4    0    0  0.20860058359E+03  0.26953310824E+02  0.12272651411E+03  0.24352100876E+03  0.00000000000E+00 0.  1.
       14    1    4    4    0    0  0.16963563202E+03 -0.52133727436E+02  0.10993723039E+03  0.20875911433E+03  0.00000000000E+00 0. -1.
        3    1    5    5  501    0 -0.17180512972E+03  0.50077703958E+02 -0.18427093457E+03  0.25686680665E+03  0.00000000000E+00 0. -1.
       -4    1    5    5    0  501 -0.20643108589E+03 -0.24897287345E+02 -0.18359655186E+03  0.27738669470E+03  0.14200000000E+01 0.  1.
</event>
<event>
 9   1  0.7335000E-04  0.1010851E+04  0.7818608E-02  0.9296723E-01
       21   -1    0    0  503  502  0.00000000000E+00  0.00000000000E+00  0.34717788886E+03  0.34717788886E+03  0.00000000000E+00 0. -1.
       21   -1    0    0  502  503 -0.00000000000E+00 -0.00000000000E+00 -0.73580443714E+03  0.73580443714E+03  0.00000000000E+00 0.  1.
       39    2    1    2    0    0  0.00000000000E+00  0.56843418861E-13 -0.38862654828E+03  0.10829823260E+04  0.10108511881E+04 0.  0.
       24    2    3    3    0    0 -0.25590112803E+02  0.49688441203E+03 -0.13831205200E+03  0.52058089207E+03  0.65766774793E+02 0.  0.
      -24    2    3    3    0    0  0.25590112803E+02 -0.49688441203E+03 -0.25031449628E+03  0.56240143393E+03  0.78032384543E+02 0.  0.
      -13    1    4    4    0    0  0.14640374119E+02  0.23971237658E+03 -0.85884055719E+02  0.25505378858E+03  0.00000000000E+00 0.  1.
       14    1    4    4    0    0 -0.40230486922E+02  0.25717203545E+03 -0.52427996283E+02  0.26552710349E+03  0.00000000000E+00 0. -1.
        1    1    5    5  501    0  0.26312431838E+02 -0.42894130893E+03 -0.18407977600E+03  0.46751294582E+03  0.00000000000E+00 0. -1.
       -2    1    5    5    0  501 -0.72231903551E+00 -0.67943103100E+02 -0.66234720284E+02  0.94888488105E+02  0.00000000000E+00 0.  1.
</event>
<event>
 9   1  0.7335000E-04  0.1011539E+04  0.7818608E-02  0.9295979E-01
       21   -1    0    0  503  502  0.00000000000E+00  0.00000000000E+00  0.14805420409E+04  0.14805420409E+04  0.00000000000E+00 0.  1.
       21   -1    0    0  502  503 -0.00000000000E+00 -0.00000000000E+00 -0.17277647134E+03  0.17277647134E+03  0.00000000000E+00 0. -1.
       39    2    1    2    0    0  0.28421709430E-13  0.00000000000E+00  0.13077655696E+04  0.16533185123E+04  0.10115390838E+04 0.  0.
       24    2    3    3    0    0 -0.23590149918E+03 -0.29441046444E+03  0.11893117889E+04  0.12502723212E+04  0.79945649834E+02 0.  0.
      -24    2    3    3    0    0  0.23590149918E+03  0.29441046444E+03  0.11845378069E+03  0.40304619112E+03  0.78024964752E+02 0.  0.
      -13    1    4    4    0    0 -0.20584366265E+03 -0.24586126397E+03  0.10845581324E+04  0.11309667179E+04  0.00000000000E+00 0.  1.
       14    1    4    4    0    0 -0.30057836535E+02 -0.48549200471E+02  0.10475365654E+03  0.11930560323E+03  0.00000000000E+00 0. -1.
        3    1    5    5  501    0  0.18121434146E+03  0.24281198067E+03  0.62615089873E+02  0.30938155244E+03  0.00000000000E+00 0. -1.
       -4    1    5    5    0  501  0.54687157724E+02  0.51598483771E+02  0.55838690812E+02  0.93664638680E+02  0.14200000000E+01 0.  1.
</event>
<event>
 9   1  0.7335000E-04  0.9995465E+03  0.7818608E-02  0.9309042E-01
        2   -1    0    0  501    0  0.00000000000E+00  0.00000000000E+00  0.26828202616E+04  0.26828202616E+04  0.00000000000E+00 0. -1.
       -2   -1    0    0    0  501 -0.00000000000E+00 -0.00000000000E+00 -0.93101025177E+02  0.93101025177E+02  0.00000000000E+00 0.  1.
       39    2    1    2    0    0  0.00000000000E+00 -0.56843418861E-13  0.25897192364E+04  0.27759212868E+04  0.99954653063E+03 0.  0.
       24    2    3    3    0    0  0.71331575228E+02 -0.44978911012E+03  0.18140227445E+04  0.18728577041E+04  0.97565491199E+02 0.  0.
      -24    2    3    3    0    0 -0.71331575228E+02  0.44978911012E+03  0.77569649189E+03  0.90306358264E+03  0.80127083749E+02 0.  0.
      -13    1    4    4    0    0 -0.18168878583E+02 -0.12634289328E+03  0.59091168168E+03  0.60454052831E+03  0.00000000000E+00 0.  1.
       14    1    4    4    0    0  0.89500453812E+02 -0.32344621683E+03  0.12231110629E+04  0.12683171758E+04  0.00000000000E+00 0. -1.
        1    1    5    5  502    0  0.50759160674E+00  0.61838376511E+02  0.16284997663E+03  0.17419631841E+03  0.00000000000E+00 0. -1.
       -2    1    5    5    0  502 -0.71839166835E+02  0.38795073361E+03  0.61284651526E+03  0.72886726423E+03  0.00000000000E+00 0.  1.
</event>
<event>
 9   1  0.7335000E-04  0.9773689E+03  0.7818608E-02  0.9333720E-01
       21   -1    0    0  503  502  0.00000000000E+00  0.00000000000E+00  0.21998753070E+03  0.21998753070E+03  0.00000000000E+00 0.  1.
       21   -1    0    0  502  503 -0.00000000000E+00 -0.00000000000E+00 -0.10855729516E+04  0.10855729516E+04  0.00000000000E+00 0. -1.
       39    2    1    2    0    0  0.00000000000E+00  0.00000000000E+00 -0.86558542088E+03  0.13055604823E+04  0.97736894368E+03 0.  0.
       24    2    3    3    0    0  0.15867690450E+03 -0.11581108190E+03 -0.10206804647E+04  0.10426583556E+04  0.82202608215E+02 0.  0.
      -24    2    3    3    0    0 -0.15867690450E+03  0.11581108190E+03  0.15509504380E+03  0.26290212669E+03  0.80451779915E+02 0.  0.
      -13    1    4    4    0    0  0.27524189457E+02 -0.60051269206E+02 -0.23272566309E+03  0.24191934647E+03  0.00000000000E+00 0.  1.
       14    1    4    4    0    0  0.13115271504E+03 -0.55759812699E+02 -0.78795480160E+03  0.80073900913E+03  0.00000000000E+00 0. -1.
        3    1    5    5  501    0 -0.20050756378E+02  0.58526964723E+02  0.37966465025E+02  0.72587126252E+02  0.00000000000E+00 0. -1.
       -4    1    5    5    0  501 -0.13862614812E+03  0.57284117181E+02  0.11712857878E+03  0.19031500044E+03  0.14200000000E+01 0.  1.
</event>
<event>
 9   1  0.7335000E-04  0.9595054E+03  0.7818608E-02  0.9354109E-01
       21   -1    0    0  503  502  0.00000000000E+00  0.00000000000E+00  0.11624413080E+03  0.11624413080E+03  0.00000000000E+00 0. -1.
       21   -1    0    0  502  503 -0.00000000000E+00 -0.00000000000E+00 -0.19799936513E+04  0.19799936513E+04  0.00000000000E+00 0.  1.
       39    2    1    2    0    0  0.28421709430E-13  0.00000000000E+00 -0.18637495205E+04  0.20962377821E+04  0.95950537461E+03 0.  0.
       24    2    3    3    0    0 -0.22912936265E+03  0.33381840515E+03 -0.39796829222E+03  0.57334649946E+03  0.80077802070E+02 0.  0.
      -24    2    3    3    0    0  0.22912936265E+03 -0.33381840515E+03 -0.14657812282E+04  0.15228912826E+04  0.82147776007E+02 0.  0.
      -13    1    4    4    0    0 -0.12278008858E+03  0.12070144356E+03 -0.13700300376E+03  0.22003093343E+03  0.00000000000E+00 0.  1.
       14    1    4    4    0    0 -0.10634927406E+03  0.21311696159E+03 -0.26096528846E+03  0.35331556602E+03  0.00000000000E+00 0. -1.
        1    1    5    5  501    0  0.74639705060E+02 -0.17208611306E+03 -0.74185570361E+03  0.76520232675E+03  0.00000000000E+00 0. -1.
       -2    1    5    5    0  501  0.15448965759E+03 -0.16173229209E+03 -0.72392552463E+03  0.75768895585E+03  0.00000000000E+00 0.  1.
</event>
<event>
 9   1  0.7335000E-04  0.1000726E+04  0.7818608E-02  0.9307749E-01
       21   -1    0    0  503  502  0.00000000000E+00  0.00000000000E+00  0.12579969760E+03  0.12579969760E+03  0.00000000000E+00 0. -1.
       21   -1    0    0  502  503 -0.00000000000E+00 -0.00000000000E+00 -0.19901713647E+04  0.19901713647E+04  0.00000000000E+00 0.  1.
       39    2    1    2    0    0  0.00000000000E+00 -0.28421709430E-13 -0.18643716671E+04  0.21159710622E+04  0.10007256484E+04 0.  0.
       24    2    3    3    0    0  0.30255675050E+03 -0.11777103384E+03 -0.14389116061E+03  0.36332668505E+03  0.76752917101E+02 0.  0.
      -24    2    3    3    0    0 -0.30255675050E+03  0.11777103384E+03 -0.17204805064E+04  0.17526443772E+04  0.79363317847E+02 0.  0.
      -13    1    4    4    0    0  0.15645331083E+03 -0.61823174314E+02 -0.11617421554E+03  0.20444116931E+03  0.00000000000E+00 0.  1.
       14    1    4    4    0    0  0.14610343967E+03 -0.55947859525E+02 -0.27716945072E+02  0.15888551574E+03  0.00000000000E+00 0. -1.
        1    1    5    5  501    0 -0.66825326228E+02  0.63302428608E+02 -0.50432128281E+03  0.51265268748E+03  0.00000000000E+00 0. -1.
       -2    1    5    5    0  501 -0.23573142427E+03  0.54468605230E+02 -0.12161592236E+04  0.12399916897E+04  0.00000000000E+00 0.  1.
</event>
<event>
 9   1  0.7335000E-04  0.9934077E+03  0.7818608E-02  0.9315805E-01
       21   -1    0    0  503  502  0.00000000000E+00  0.00000000000E+00  0.66779949199E+03  0.66779949199E+03  0.00000000000E+00 0.  1.
       21   -1    0    0  502  503 -0.00000000000E+00 -0.00000000000E+00 -0.36944432009E+03  0.36944432009E+03  0.00000000000E+00 0. -1.
       39    2    1    2    0    0  0.28421709430E-13 -0.11368683772E-12  0.29835517190E+03  0.10372438121E+04  0.99340772953E+03 0.  0.
       24    2    3    3    0    0 -0.14284993726E+03  0.40116872393E+03 -0.10413778869E+03  0.44564710217E+03  0.80088769498E+02 0.  0.
      -24    2    3    3    0    0  0.14284993726E+03 -0.40116872393E+03  0.40249296059E+03  0.59159670991E+03  0.81508491655E+02 0.  0.
      -13    1    4    4    0    0 -0.14874363760E+03  0.34327963330E+03 -0.10030452747E+03  0.38733264075E+03  0.00000000000E+00 0.  1.
       14    1    4    4    0    0  0.58937003390E+01  0.57889090634E+02 -0.38332612209E+01  0.58314461411E+02  0.00000000000E+00 0. -1.
        3    1    5    5  501    0  0.14089221194E+03 -0.31801044598E+03  0.34876007752E+03  0.49255948962E+03  0.00000000000E+00 0. -1.
       -4    1    5    5    0  501  0.19577253214E+01 -0.83158277949E+02  0.53732883070E+02  0.99037220291E+02  0.14200000000E+01 0.  1.
</event>
<event>
 9   1  0.7335000E-04  0.9990565E+03  0.7818608E-02  0.9309580E-01
       -2   -1    0    0    0  501 -0.00000000000E+00  0.00000000000E+00  0.12500628800E+03  0.12500628800E+03  0.00000000000E+00 0. -1.
        2   -1    0    0  501    0  0.00000000000E+00 -0.00000000000E+00 -0.19961273142E+04  0.19961273142E+04  0.00000000000E+00 0.  1.
       39    2    1    2    0    0  0.00000000000E+00  0.56843418861E-13 -0.18711210262E+04  0.21211336022E+04  0.99905648673E+03 0.  0.
       24    2    3    3    0    0 -0.39852537230E+03  0.26772433785E+03 -0.69709265834E+03  0.85014853076E+03  0.79470476239E+02 0.  0.
      -24    2    3    3    0    0  0.39852537230E+03 -0.26772433785E+03 -0.11740283678E+04  0.12709850714E+04  0.81004011205E+02 0.  0.
      -13    1    4    4    0    0 -0.60289358017E+02  0.11784574179E+02 -0.70713065736E+02  0.93669741884E+02  0.00000000000E+00 0.  1.
       14    1    4    4    0    0 -0.33823601428E+03  0.25593976367E+03 -0.62637959260E+03  0.75647878887E+03  0.00000000000E+00 0. -1.
        3    1    5    5  502    0  0.33870743988E+03 -0.21781254940E+03 -0.89778660461E+03  0.98396434077E+03  0.00000000000E+00 0. -1.
       -4    1    5    5    0  502  0.59817932424E+02 -0.49911788456E+02 -0.27624176322E+03  0.28702073064E+03  0.14200000000E+01 0.  1.
</event>
<event>
 9   1  0.7335000E-04  0.1118505E+04  0.7818608E-02  0.9187341E-01
       21   -1    0    0  503  502  0.00000000000E+00  0.00000000000E+00  0.23623990860E+03  0.23623990860E+03  0.00000000000E+00 0.  1.
       21   -1    0    0  502  503 -0.00000000000E+00 -0.00000000000E+00 -0.13239230731E+04  0.13239230731E+04  0.00000000000E+00 0. -1.
       39    2    1    2    0    0 -0.56843418861E-13  0.00000000000E+00 -0.10876831645E+04  0.15601629817E+04  0.11185051914E+04 0.  0.
       24    2    3    3    0    0  0.37878796627E+03 -0.44083798679E+02 -0.11027328510E+04  0.11695699912E+04  0.80315121841E+02 0.  0.
      -24    2    3    3    0    0 -0.37878796627E+03  0.44083798679E+02  0.15049686540E+02  0.39059299052E+03  0.83142567228E+02 0.  0.
      -13    1    4    4    0    0  0.12773959481E+03  0.21359509417E+02 -0.33350582043E+03  0.35777054795E+03  0.00000000000E+00 0.  1.
       14    1    4    4    0    0  0.25104837146E+03 -0.65443308096E+02 -0.76922703060E+03  0.81179944321E+03  0.00000000000E+00 0. -1.
        1    1    5    5  501    0 -0.81188355026E+01  0.14127447527E+02 -0.76962978891E+01  0.18020356954E+02  0.00000000000E+00 0. -1.
       -2    1    5    5    0  501 -0.37066913077E+03  0.29956351152E+02  0.22745984429E+02  0.37257263357E+03  0.00000000000E+00 0.  1.
</event>
<event>
 9   1  0.7335000E-04  0.9902299E+03  0.7818608E-02  0.9319326E-01
       21   -1    0    0  503  502  0.00000000000E+00  0.00000000000E+00  0.22327091879E+03  0.22327091879E+03  0.00000000000E+00 0.  1.
       21   -1    0    0  502  503 -0.00000000000E+00 -0.00000000000E+00 -0.10979432308E+04  0.10979432308E+04  0.00000000000E+00 0. -1.
       39    2    1    2    0    0  0.00000000000E+00  0.28421709430E-13 -0.87467231204E+03  0.13212141496E+04  0.99022986004E+03 0.  0.
       24    2    3    3    0    0  0.27820181458E+03 -0.15033271994E+03 -0.93532264332E+03  0.99054788781E+03  0.79752709161E+02 0.  0.
      -24    2    3    3    0    0 -0.27820181458E+03  0.15033271994E+03  0.60650331277E+02  0.33066626182E+03  0.75269766177E+02 0.  0.
      -13    1    4    4    0    0  0.78029592347E+02 -0.46331174312E+02 -0.38983602801E+03  0.40025907077E+03  0.00000000000E+00 0.  1.
       14    1    4    4    0    0  0.20017222223E+03 -0.10400154563E+03 -0.54548661531E+03  0.59028881704E+03  0.00000000000E+00 0. -1.
        1    1    5    5  501    0 -0.14919692513E+03  0.75604134724E+02  0.69934911999E+02  0.18129147683E+03  0.00000000000E+00 0. -1.
       -2    1    5    5    0  501 -0.12900488945E+03  0.74728585213E+02 -0.92845807222E+01  0.14937478499E+03  0.00000000000E+00 0.  1.
</event>
<event>
 9   1  0.7335000E-04  0.1002009E+04  0.7818608E-02  0.9306345E-01
       21   -1    0    0  503  502  0.00000000000E+00  0.00000000000E+00  0.20265975554E+03  0.20265975554E+03  0.00000000000E+00 0.  1.
       21   -1    0    0  502  503 -0.00000000000E+00 -0.00000000000E+00 -0.12385550423E+04  0.12385550423E+04  0.00000000000E+00 0. -1.
       39    2    1    2    0    0  0.00000000000E+00  0.00000000000E+00 -0.10358952868E+04  0.14412147979E+04  0.10020085071E+04 0.  0.
       24    2    3    3    0    0  0.42817532252E+03  0.22598004933E+02 -0.16223359932E+03  0.46462836719E+03  0.75597633598E+02 0.  0.
      -24    2    3    3    0    0 -0.42817532252E+03 -0.22598004933E+02 -0.87366168748E+03  0.97658643068E+03  0.81188273695E+02 0.  0.
      -13    1    4    4    0    0  0.42110964165E+03  0.21097961000E+02 -0.14488547898E+03  0.44583658022E+03  0.00000000000E+00 0.  1.
       14    1    4    4    0    0  0.70656808732E+01  0.15000439335E+01 -0.17348120339E+02  0.18791786964E+02  0.00000000000E+00 0. -1.
        3    1    5    5  501    0 -0.28730004671E+03 -0.48345355478E+02 -0.62655589933E+03  0.69097820893E+03  0.00000000000E+00 0. -1.
       -4    1    5    5    0  501 -0.14087527581E+03  0.25747350545E+02 -0.24710578815E+03  0.28560822175E+03  0.14200000000E+01 0.  1.
</event>
<event>
 9   1  0.7335000E-04  0.1006445E+04  0.7818608E-02  0.9301504E-01
       21   -1    0    0  503  502  0.00000000000E+00  0.00000000000E+00  0.73874495335E+03  0.73874495335E+03  0.00000000000E+00 0.  1.
       21   -1    0    0  502  503 -0.00000000000E+00 -0.00000000000E+00 -0.34278777535E+03  0.34278777535E+03  0.00000000000E+00 0. -1.
       39    2    1    2    0    0  0.00000000000E+00  0.00000000000E+00  0.39595717800E+03  0.10815327287E+04  0.10064447111E+04 0.  0.
       24    2    3    3    0    0  0.31488035288E+03  0.18315007830E+02  0.61023803905E+03  0.69205531990E+03  0.84053705213E+02 0.  0.
      -24    2    3    3    0    0 -0.31488035288E+03 -0.18315007830E+02 -0.21428086104E+03  0.38947740879E+03  0.79317642489E+02 0.  0.
      -13    1    4    4    0    0  0.26453441922E+03  0.45159424545E+02  0.52269032299E+03  0.58755681114E+03  0.00000000000E+00 0.  1.
       14    1    4    4    0    0  0.50345933664E+02 -0.26844416715E+02  0.87547716058E+02  0.10449850876E+03  0.00000000000E+00 0. -1.
        1    1    5    5  501    0 -0.26843961293E+03 -0.39785671077E+02 -0.19749923599E+03  0.33563175301E+03  0.00000000000E+00 0. -1.
       -2    1    5    5    0  501 -0.46440739953E+02  0.21470663247E+02 -0.16781625059E+02  0.53845655788E+02  0.00000000000E+00 0.  1.
</event>
<event>
 9   1  0.7335000E-04  0.1001487E+04  0.7818608E-02  0.9306915E-01
       21   -1    0    0  503  502  0.00000000000E+00  0.00000000000E+00  0.18541469673E+04  0.18541469673E+04  0.00000000000E+00 0. -1.
       21   -1    0    0  502  503 -0.00000000000E+00 -0.00000000000E+00 -0.13523430464E+03  0.13523430464E+03  0.00000000000E+00 0.  1.
       39    2    1    2    0    0  0.00000000000E+00  0.00000000000E+00  0.17189126627E+04  0.19893812720E+04  0.10014874454E+04 0.  0.
       24    2    3    3    0    0 -0.22144363034E+03  0.29290538543E+03  0.20181359037E+03  0.42647279986E+03  0.79495141569E+02 0.  0.
      -24    2    3    3    0    0  0.22144363034E+03 -0.29290538543E+03  0.15170990723E+04  0.15629084721E+04  0.79135647544E+02 0.  0.
      -13    1    4    4    0    0 -0.12472397216E+03  0.99967323570E+02  0.88711198307E+02  0.18280922219E+03  0.00000000000E+00 0.  1.
       14    1    4    4    0    0 -0.96719658172E+02  0.19293806186E+03  0.11310239206E+03  0.24366357766E+03  0.00000000000E+00 0. -1.
        3    1    5    5  501    0  0.95252996792E+02 -0.17265818313E+03  0.91944004970E+03  0.94034780086E+03  0.00000000000E+00 0. -1.
       -4    1    5    5    0  501  0.12619063355E+03 -0.12024720230E+03  0.59765902263E+03  0.62256067125E+03  0.14200000000E+01 0.  1.
</event>
<event>
 9   1  0.7335000E-04  0.9812807E+03  0.7818608E-02  0.9329317E-01
       21   -1    0    0  503  502  0.00000000000E+00  0.00000000000E+00  0.29458431821E+03  0.29458431821E+03  0.00000000000E+00 0.  1.
       21   -1    0    0  502  503 -0.00000000000E+00 -0.00000000000E+00 -0.81717844018E+03  0.81717844018E+03  0.00000000000E+00 0. -1.
       39    2    1    2    0    0  0.28421709430E-13 -0.56843418861E-13 -0.52259412197E+03  0.11117627584E+04  0.98128070124E+03 0.  0.
       24    2    3    3    0    0  0.13599832349E+03 -0.39341449701E+03 -0.54147114396E+03  0.68767593471E+03  0.80228928649E+02 0.  0.
      -24    2    3    3    0    0 -0.13599832349E+03  0.39341449701E+03  0.18877021985E+02  0.42408682368E+03  0.78884609437E+02 0.  0.
      -13    1    4    4    0    0  0.30669917767E+02 -0.15176704689E+03 -0.14891030743E+03  0.21482122809E+03  0.00000000000E+00 0.  1.
       14    1    4    4    0    0  0.10532840573E+03 -0.24164745012E+03 -0.39256083653E+03  0.47285470663E+03  0.00000000000E+00 0. -1.
        1    1    5    5  501    0 -0.13745771859E+02  0.60670645531E+01 -0.79897022321E+01  0.17017369305E+02  0.00000000000E+00 0. -1.
       -2    1    5    5    0  501 -0.12225255163E+03  0.38734743246E+03  0.26866724217E+02  0.40706945437E+03  0.00000000000E+00 0.  1.
</event>
<event>
 9   1  0.7335000E-04  0.1004736E+04  0.7818608E-02  0.9303365E-01
       21   -1    0    0  503  502  0.00000000000E+00  0.00000000000E+00  0.26682800493E+03  0.26682800493E+03  0.00000000000E+00 0. -1.
       21   -1    0    0  502  503 -0.00000000000E+00 -0.00000000000E+00 -0.94582956303E+03  0.94582956303E+03  0.00000000000E+00 0.  1.
       39    2    1    2    0    0  0.00000000000E+00  0.00000000000E+00 -0.67900155810E+03  0.12126575680E+04  0.10047364138E+04 0.  0.
       24    2    3    3    0    0  0.13638602515E+03 -0.15759443206E+03 -0.88272011703E+03  0.91048266290E+03  0.79666313824E+02 0.  0.
      -24    2    3    3    0    0 -0.13638602515E+03  0.15759443206E+03  0.20371855893E+03  0.30217490506E+03  0.79820230010E+02 0.  0.
      -13    1    4    4    0    0  0.12477734551E+03 -0.12642674908E+03 -0.82463248698E+03  0.84354718150E+03  0.00000000000E+00 0.  1.
       14    1    4    4    0    0  0.11608679638E+02 -0.31167682978E+02 -0.58087630052E+02  0.66935481400E+02  0.00000000000E+00 0. -1.
        3    1    5    5  501    0 -0.10771648657E+03  0.73536439374E+02  0.14824511992E+03  0.19745142434E+03  0.00000000000E+00 0. -1.
       -4    1    5    5    0  501 -0.28669538584E+02  0.84057992689E+02  0.55473439013E+02  0.10472348072E+03  0.14200000000E+01 0.  1.
</event>
<event>
 9   1  0.7335000E-04  0.1001397E+04  0.7818608E-02  0.9307014E-01
       21   -1    0    0  503  502  0.00000000000E+00  0.00000000000E+00  0.83162708007E+03  0.83162708007E+03  0.00000000000E+00 0.  1.
       21   -1    0    0  502  503 -0.00000000000E+00 -0.00000000000E+00 -0.30145599197E+03  0.30145599197E+03  0.00000000000E+00 0. -1.
       39    2    1    2    0    0 -0.56843418861E-13  0.28421709430E-13  0.53017108810E+03  0.11330830720E+04  0.10013969570E+04 0.  0.
       24    2    3    3    0    0 -0.44406288801E+03  0.20525325850E+03  0.34476474638E+03  0.60370227913E+03  0.79202038161E+02 0.  0.
      -24    2    3    3    0    0  0.44406288801E+03 -0.20525325850E+03  0.18540634172E+03  0.52938079291E+03  0.80918253365E+02 0.  0.
      -13    1    4    4    0    0 -0.28356019076E+03  0.16961992814E+03  0.24561575314E+03  0.41170912061E+03  0.00000000000E+00 0.  1.
       14    1    4    4    0    0 -0.16050269725E+03  0.35633330361E+02  0.99148993237E+02  0.19199315852E+03  0.00000000000E+00 0. -1.
        1    1    5    5  501    0  0.44069655161E+03 -0.18984141323E+03  0.18225823612E+03  0.51329453281E+03  0.00000000000E+00 0. -1.
       -2    1    5    5    0  501  0.33663363932E+01 -0.15411845265E+02  0.31481056043E+01  0.16086260103E+02  0.00000000000E+00 0.  1.
</event>
<event>
 9   1  0.7335000E-04  0.1131049E+04  0.7818608E-02  0.9175447E-01
       21   -1    0    0  503  502  0.00000000000E+00  0.00000000000E+00  0.10273131102E+04  0.10273131102E+04  0.00000000000E+00 0.  1.
       21   -1    0    0  502  503 -0.00000000000E+00 -0.00000000000E+00 -0.31131492547E+03  0.31131492547E+03  0.00000000000E+00 0. -1.
       39    2    1    2    0    0  0.35527136788E-14  0.14210854715E-13  0.71599818477E+03  0.13386280357E+04  0.11310489014E+04 0.  0.
       24    2    3    3    0    0 -0.27826935554E+02 -0.11498282958E+03  0.10055148373E+04  0.10154430457E+04  0.77904439680E+02 0.  0.
      -24    2    3    3    0    0  0.27826935554E+02  0.11498282958E+03 -0.28951665250E+03  0.32318498998E+03  0.81444804818E+02 0.  0.
      -13    1    4    4    0    0 -0.46708314280E+02 -0.98595327692E+02  0.91693245442E+03  0.92340014687E+03  0.00000000000E+00 0.  1.
       14    1    4    4    0    0  0.18881378726E+02 -0.16387501887E+02  0.88582382855E+02  0.92042898873E+02  0.00000000000E+00 0. -1.
        1    1    5    5  501    0  0.12073206082E+02  0.76634009911E+02 -0.26244332400E+03  0.27366956735E+03  0.00000000000E+00 0. -1.
       -2    1    5    5    0  501  0.15753729471E+02  0.38348819668E+02 -0.27073328500E+02  0.49515422630E+02  0.00000000000E+00 0.  1.
</event>
<event>
 9   1  0.7335000E-04  0.9971949E+03  0.7818608E-02  0.9311627E-01
       21   -1    0    0  503  502  0.00000000000E+00  0.00000000000E+00  0.56460110408E+03  0.56460110408E+03  0.00000000000E+00 0. -1.
       21   -1    0    0  502  503 -0.00000000000E+00 -0.00000000000E+00 -0.44030985202E+03  0.44030985202E+03  0.00000000000E+00 0.  1.
       39    2    1    2    0    0  0.71054273576E-14  0.00000000000E+00  0.12429125206E+03  0.10049109561E+04  0.99719492295E+03 0.  0.
       24    2    3    3    0    0 -0.42842578579E+02 -0.14899659551E+03  0.53276137623E+03  0.56076437966E+03  0.81157461017E+02 0.  0.
      -24    2    3    3    0    0  0.42842578579E+02  0.14899659551E+03 -0.40847012417E+03  0.44414657644E+03  0.79892847047E+02 0.  0.
      -13    1    4    4    0    0 -0.25233808800E+02 -0.94936839818E+01  0.16214402397E+03  0.16437019088E+03  0.00000000000E+00 0.  1.
       14    1    4    4    0    0 -0.17608769779E+02 -0.13950291153E+03  0.37061735226E+03  0.39639418878E+03  0.00000000000E+00 0. -1.
        1    1    5    5  501    0  0.23404108827E+02  0.50565420594E+02 -0.25336443073E+03  0.25941886753E+03  0.00000000000E+00 0. -1.
       -2    1    5    5    0  501  0.19438469752E+02  0.98431174920E+02 -0.15510569344E+03  0.18472770891E+03  0.00000000000E+00 0.  1.
</event>
<event>
 9   1  0.7335000E-04  0.9999590E+03  0.7818608E-02  0.9308590E-01
        2   -1    0    0  501    0  0.00000000000E+00  0.00000000000E+00  0.82223893431E+03  0.82223893431E+03  0.00000000000E+00 0. -1.
       -2   -1    0    0    0  501 -0.00000000000E+00 -0.00000000000E+00 -0.30402295105E+03  0.30402295105E+03  0.00000000000E+00 0.  1.
       39    2    1    2    0    0 -0.14210854715E-13  0.00000000000E+00  0.51821598326E+03  0.11262618854E+04  0.99995901371E+03 0.  0.
       24    2    3    3    0    0 -0.11582505764E+03 -0.17134205193E+03 -0.24548764687E+03  0.33099891368E+03  0.80762326311E+02 0.  0.
      -24    2    3    3    0    0  0.11582505764E+03  0.17134205193E+03  0.76370363013E+03  0.79526297168E+03  0.80164934439E+02 0.  0.
      -13    1    4    4    0    0 -0.88296901369E+02 -0.13035400732E+03 -0.12580810185E+03  0.20153458390E+03  0.00000000000E+00 0.  1.
       14    1    4    4    0    0 -0.27528156275E+02 -0.40988044611E+02 -0.11967954502E+03  0.12946432978E+03  0.00000000000E+00 0. -1.
        1    1    5    5  502    0  0.58633634768E+02  0.11764495036E+03  0.59303365908E+03  0.60742666905E+03  0.00000000000E+00 0. -1.
       -2    1    5    5    0  502  0.57191422876E+02  0.53697101573E+02  0.17066997106E+03  0.18783630264E+03  0.00000000000E+00 0.  1.
</event>
<event>
 9   1  0.7335000E-04  0.1000442E+04  0.7818608E-02  0.9308060E-01
       21   -1    0    0  503  502  0.00000000000E+00  0.00000000000E+00  0.54611825950E+03  0.54611825950E+03  0.00000000000E+00 0.  1.
       21   -1    0    0  502  503 -0.00000000000E+00 -0.00000000000E+00 -0.45818106246E+03  0.45818106246E+03  0.00000000000E+00 0. -1.
       39    2    1    2    0    0 -0.56843418861E-13  0.28421709430E-13  0.87937197043E+02  0.10042993220E+04  0.10004419911E+04 0.  0.
       24    2    3    3    0    0 -0.41002981284E+03  0.17779820597E+03  0.25486552661E+03  0.52046115151E+03  0.78655731594E+02 0.  0.
      -24    2    3    3    0    0  0.41002981284E+03 -0.17779820597E+03 -0.16692832957E+03  0.48383817045E+03  0.80608054885E+02 0.  0.
      -13    1    4    4    0    0 -0.37152039932E+03  0.17681996362E+03  0.25046158089E+03  0.48168839528E+03  0.00000000000E+00 0.  1.
       14    1    4    4    0    0 -0.38509413524E+02  0.97824234399E+00  0.44039457279E+01  0.38772756235E+02  0.00000000000E+00 0. -1.
        1    1    5    5  501    0  0.37869763208E+03 -0.14269874128E+03 -0.16412285006E+03  0.43670486282E+03  0.00000000000E+00 0. -1.
       -2    1    5    5    0  501  0.31332180765E+02 -0.35099464691E+02 -0.28054795136E+01  0.47133307632E+02  0.00000000000E+00 0.  1.
</event>
<event>
 9   1  0.7335000E-04  0.1007494E+04  0.7818608E-02  0.9300364E-01
       21   -1    0    0  503  502  0.00000000000E+00  0.00000000000E+00  0.24892699511E+03  0.24892699511E+03  0.00000000000E+00 0.  1.
       21   -1    0    0  502  503 -0.00000000000E+00 -0.00000000000E+00 -0.10194190583E+04  0.10194190583E+04  0.00000000000E+00 0. -1.
       39    2    1    2    0    0  0.35527136788E-14 -0.28421709430E-13 -0.77049206314E+03  0.12683460534E+04  0.10074937676E+04 0.  0.
       24    2    3    3    0    0 -0.12982196689E+02  0.20064650209E+03 -0.95789937377E+03  0.98194614421E+03  0.78863576044E+02 0.  0.
      -24    2    3    3    0    0  0.12982196689E+02 -0.20064650209E+03  0.18740731063E+03  0.28639990916E+03  0.80472676457E+02 0.  0.
      -13    1    4    4    0    0  0.32316497505E+02  0.98948566125E+02 -0.49815004179E+03  0.50890926390E+03  0.00000000000E+00 0.  1.
       14    1    4    4    0    0 -0.45298694195E+02  0.10169793596E+03 -0.45974933198E+03  0.47303688031E+03  0.00000000000E+00 0. -1.
        3    1    5    5  501    0 -0.23748567897E+02 -0.19302417324E+02  0.17850342079E+02  0.35428978309E+02  0.00000000000E+00 0. -1.
       -4    1    5    5    0  501  0.36730764586E+02 -0.18134408477E+03  0.16955696855E+03  0.25097093085E+03  0.14200000000E+01 0.  1.
</event>
<event>
 9   1  0.7335000E-04  0.9690774E+03  0.7818608E-02  0.9343126E-01
       21   -1    0    0  503  502  0.00000000000E+00  0.00000000000E+00  0.40570092952E+03  0.40570092952E+03  0.00000000000E+00 0.  1.
       21   -1    0    0  502  503 -0.00000000000E+00 -0.00000000000E+00 -0.57869663277E+03  0.57869663277E+03  0.00000000000E+00 0. -1.
       39    2    1    2    0    0 -0.56843418861E-13 -0.56843418861E-13 -0.17299570324E+03  0.98439756229E+03  0.96907742070E+03 0.  0.
       24    2    3    3    0    0  0.36316036685E+03  0.30340581439E+03 -0.14000630291E+03  0.50207541564E+03  0.92398148663E+02 0.  0.
      -24    2    3    3    0    0 -0.36316036685E+03 -0.30340581439E+03 -0.32989400337E+02  0.48232214666E+03  0.87211308704E+02 0.  0.
      -13    1    4    4    0    0  0.32950062299E+03  0.30159797344E+03 -0.14080791600E+03  0.46835762761E+03  0.00000000000E+00 0.  1.
       14    1    4    4    0    0  0.33659743863E+02  0.18078409469E+01  0.80161308949E+00  0.33717788025E+02  0.00000000000E+00 0. -1.
        1    1    5    5  501    0 -0.30826405858E+03 -0.29297538598E+03 -0.31054387500E+02  0.42641022688E+03  0.00000000000E+00 0. -1.
       -2    1    5    5    0  501 -0.54896308273E+02 -0.10430428403E+02 -0.19350128370E+01  0.55911919778E+02  0.00000000000E+00 0.  1.
</event>
<event>
 9   1  0.7335000E-04  0.8658878E+03  0.7818608E-02  0.9469258E-01
       -2   -1    0    0    0  501 -0.00000000000E+00  0.00000000000E+00  0.59585364387E+03  0.59585364387E+03  0.00000000000E+00 0. -1.
        2   -1    0    0  501    0  0.00000000000E+00 -0.00000000000E+00 -0.31457457100E+03  0.31457457100E+03  0.00000000000E+00 0.  1.
       39    2    1    2    0    0  0.56843418861E-13 -0.28421709430E-13  0.28127907287E+03  0.91042821487E+03  0.86588776271E+03 0.  0.
       24    2    3    3    0    0 -0.30169961240E+03  0.86968961474E+02 -0.16049346270E+03  0.36248685846E+03  0.83978060240E+02 0.  0.
      -24    2    3    3    0    0  0.30169961240E+03 -0.86968961474E+02  0.44177253557E+03  0.54794135641E+03  0.80563642546E+02 0.  0.
      -13    1    4    4    0    0 -0.27154136661E+03  0.94510846487E+02 -0.16432575303E+03  0.33116456180E+03  0.00000000000E+00 0.  1.
       14    1    4    4    0    0 -0.30158245796E+02 -0.75418850129E+01  0.38322903253E+01  0.31322296662E+02  0.00000000000E+00 0. -1.
        1    1    5    5  502    0  0.22112114824E+03 -0.78306991975E+02  0.37775938725E+03  0.44466695610E+03  0.00000000000E+00 0. -1.
       -2    1    5    5    0  502  0.80578464159E+02 -0.86619694996E+01  0.64013148317E+02  0.10327440031E+03  0.00000000000E+00 0.  1.
</event>
<event>
 9   1  0.7335000E-04  0.1005255E+04  0.7818608E-02  0.9302800E-01
       21   -1    0    0  503  502  0.00000000000E+00  0.00000000000E+00  0.29709028256E+03  0.29709028256E+03  0.00000000000E+00 0. -1.
       21   -1    0    0  502  503 -0.00000000000E+00 -0.00000000000E+00 -0.85036228329E+03  0.85036228329E+03  0.00000000000E+00 0.  1.
       39    2    1    2    0    0  0.56843418861E-13  0.00000000000E+00 -0.55327200073E+03  0.11474525658E+04  0.10052549349E+04 0.  0.
       24    2    3    3    0    0  0.43270481314E+03  0.13048603400E+03 -0.42836277954E+02  0.46098854965E+03  0.80096415742E+02 0.  0.
      -24    2    3    3    0    0 -0.43270481314E+03 -0.13048603400E+03 -0.51043572278E+03  0.68646401620E+03  0.80175794746E+02 0.  0.
      -13    1    4    4    0    0  0.13178597994E+03  0.75849345886E+02  0.77029225170E+00  0.15205676943E+03  0.00000000000E+00 0.  1.
       14    1    4    4    0    0  0.30091883320E+03  0.54636688112E+02 -0.43606570205E+02  0.30893178022E+03  0.00000000000E+00 0. -1.
        1    1    5    5  501    0 -0.17539390212E+03 -0.38513384165E+02 -0.25878682630E+03  0.31498717931E+03  0.00000000000E+00 0. -1.
       -2    1    5    5    0  501 -0.25731091103E+03 -0.91972649833E+02 -0.25164889647E+03  0.37147683689E+03  0.00000000000E+00 0.  1.
</event>
<event>
 9   1  0.7335000E-04  0.1001250E+04  0.7818608E-02  0.9307175E-01
        1   -1    0    0  501    0  0.00000000000E+00  0.00000000000E+00  0.50110597710E+03  0.50110597710E+03  0.00000000000E+00 0.  1.
       -1   -1    0    0    0  501 -0.00000000000E+00 -0.00000000000E+00 -0.50014413337E+03  0.50014413337E+03  0.00000000000E+00 0. -1.
       39    2    1    2    0    0 -0.11368683772E-12 -0.28421709430E-13  0.96184373478E+00  0.10012501105E+04  0.10012496485E+04 0.  0.
       24    2    3    3    0    0  0.44079414938E+03  0.19264171304E+03  0.11354507208E+03  0.50075510050E+03  0.80329792457E+02 0.  0.
      -24    2    3    3    0    0 -0.44079414938E+03 -0.19264171304E+03 -0.11258322834E+03  0.50049500997E+03  0.80062225612E+02 0.  0.
      -13    1    4    4    0    0  0.24697156659E+03  0.15080974591E+03  0.63829482863E+02  0.29633213974E+03  0.00000000000E+00 0.  1.
       14    1    4    4    0    0  0.19382258279E+03  0.41831967137E+02  0.49715589212E+02  0.20442296076E+03  0.00000000000E+00 0. -1.
        1    1    5    5  502    0 -0.42216539549E+03 -0.16630309806E+03 -0.94377167569E+02  0.46345160625E+03  0.00000000000E+00 0. -1.
       -2    1    5    5    0  502 -0.18628753890E+02 -0.26338614981E+02 -0.18206060771E+02  0.37043403724E+02  0.00000000000E+00 0.  1.
</event>
<event>
 9   1  0.7335000E-04  0.1030543E+04  0.7818608E-02  0.9275666E-01
       21   -1    0    0  503  502  0.00000000000E+00  0.00000000000E+00  0.13629433858E+03  0.13629433858E+03  0.00000000000E+00 0.  1.
       21   -1    0    0  502  503 -0.00000000000E+00 -0.00000000000E+00 -0.19480230495E+04  0.19480230495E+04  0.00000000000E+00 0. -1.
       39    2    1    2    0    0  0.00000000000E+00  0.56843418861E-13 -0.18117287109E+04  0.20843173881E+04  0.10305426009E+04 0.  0.
       24    2    3    3    0    0 -0.16730081894E+03 -0.35093918790E+03 -0.15711088702E+04  0.16204501025E+04  0.79546056023E+02 0.  0.
      -24    2    3    3    0    0  0.16730081894E+03  0.35093918790E+03 -0.24061984069E+03  0.46386728556E+03  0.78275623605E+02 0.  0.
      -13    1    4    4    0    0 -0.92146118390E+02 -0.11713039804E+03 -0.51266066585E+03  0.53388331645E+03  0.00000000000E+00 0.  1.
       14    1    4    4    0    0 -0.75154700555E+02 -0.23380878986E+03 -0.10584482044E+04  0.10865667861E+04  0.00000000000E+00 0. -1.
        1    1    5    5  501    0  0.36915093252E-01  0.82748330970E+01 -0.23861392572E+02  0.25255500014E+02  0.00000000000E+00 0. -1.
       -2    1    5    5    0  501  0.16726390385E+03  0.34266435481E+03 -0.21675844812E+03  0.43861178554E+03  0.00000000000E+00 0.  1.
</event>
<event>
 9   1  0.7335000E-04  0.1048017E+04  0.7818608E-02  0.9257394E-01
       21   -1    0    0  503  502  0.00000000000E+00  0.00000000000E+00  0.76861343167E+03  0.76861343167E+03  0.00000000000E+00 0.  1.
       21   -1    0    0  502  503 -0.00000000000E+00 -0.00000000000E+00 -0.35724683996E+03  0.35724683996E+03  0.00000000000E+00 0. -1.
       39    2    1    2    0    0  0.56843418861E-13  0.00000000000E+00  0.41136659171E+03  0.11258602716E+04  0.10480166404E+04 0.  0.
       24    2    3    3    0    0 -0.34845628489E+03  0.15198585936E+03  0.58220743217E+03  0.69999388673E+03  0.80650253914E+02 0.  0.
      -24    2    3    3    0    0  0.34845628489E+03 -0.15198585936E+03 -0.17084084047E+03  0.42586638490E+03  0.87487719669E+02 0.  0.
      -13    1    4    4    0    0 -0.21018877322E+03  0.89456861719E+02  0.41841034921E+03  0.47670648288E+03  0.00000000000E+00 0.  1.
       14    1    4    4    0    0 -0.13826751167E+03  0.62528997637E+02  0.16379708297E+03  0.22328740385E+03  0.00000000000E+00 0. -1.
        1    1    5    5  501    0  0.20417808203E+03 -0.95749641321E+02 -0.14699173038E+03  0.26918999200E+03  0.00000000000E+00 0. -1.
       -2    1    5    5    0  501  0.14427820286E+03 -0.56236218035E+02 -0.23849110090E+02  0.15667639290E+03  0.00000000000E+00 0.  1.
</event>
<event>
 9   1  0.7335000E-04  0.1031805E+04  0.7818608E-02  0.9274334E-01
       21   -1    0    0  503  502  0.00000000000E+00  0.00000000000E+00  0.25089901383E+03  0.25089901383E+03  0.00000000000E+00 0. -1.
       21   -1    0    0  502  503 -0.00000000000E+00 -0.00000000000E+00 -0.10608059017E+04  0.10608059017E+04  0.00000000000E+00 0.  1.
       39    2    1    2    0    0  0.00000000000E+00 -0.56843418861E-13 -0.80990688784E+03  0.13117049155E+04  0.10318045446E+04 0.  0.
       24    2    3    3    0    0 -0.15026804939E+03 -0.42618420410E+03 -0.10521241782E+03  0.47080570575E+03  0.79842953415E+02 0.  0.
      -24    2    3    3    0    0  0.15026804939E+03  0.42618420410E+03 -0.70469447002E+03  0.84089920974E+03  0.79395984617E+02 0.  0.
      -13    1    4    4    0    0 -0.66238233663E+01 -0.45829167145E+02  0.11688676493E+02  0.47757855431E+02  0.00000000000E+00 0.  1.
       14    1    4    4    0    0 -0.14364422602E+03 -0.38035503696E+03 -0.11690109431E+03  0.42304785032E+03  0.00000000000E+00 0. -1.
        1    1    5    5  501    0  0.91669936989E+02  0.19877087204E+03 -0.40264395525E+03  0.45829618329E+03  0.00000000000E+00 0. -1.
       -2    1    5    5    0  501  0.58598112399E+02  0.22741333206E+03 -0.30205051477E+03  0.38260302645E+03  0.00000000000E+00 0.  1.
</event>
<event>
 9   1  0.7335000E-04  0.1000824E+04  0.7818608E-02  0.9307642E-01
       21   -1    0    0  503  502  0.00000000000E+00  0.00000000000E+00  0.13215103558E+04  0.13215103558E+04  0.00000000000E+00 0. -1.
       21   -1    0    0  502  503 -0.00000000000E+00 -0.00000000000E+00 -0.18948921125E+03  0.18948921125E+03  0.00000000000E+00 0.  1.
       39    2    1    2    0    0 -0.56843418861E-13  0.00000000000E+00  0.11320211446E+04  0.15109995671E+04  0.10008235709E+04 0.  0.
       24    2    3    3    0    0  0.32383293193E+03  0.14161105604E+02  0.11278821778E+04  0.11761660079E+04  0.78612761816E+02 0.  0.
      -24    2    3    3    0    0 -0.32383293193E+03 -0.14161105604E+02  0.41389667430E+01  0.33483355920E+03  0.83833624570E+02 0.  0.
      -13    1    4    4    0    0  0.10689822861E+03 -0.31653229192E+02  0.35294376885E+03  0.37013303307E+03  0.00000000000E+00 0.  1.
       14    1    4    4    0    0  0.21693470331E+03  0.45814334796E+02  0.77493840900E+03  0.80603297483E+03  0.00000000000E+00 0. -1.
        1    1    5    5  501    0 -0.49851122432E+02  0.16132811913E+02  0.25661549075E+02  0.58343098383E+02  0.00000000000E+00 0. -1.
       -2    1    5    5    0  501 -0.27398180950E+03 -0.30293917518E+02 -0.21522582332E+02  0.27649046082E+03  0.00000000000E+00 0.  1.
</event>
<event>
 9   1  0.7335000E-04  0.9951013E+03  0.7818608E-02  0.9313934E-01
       21   -1    0    0  503  502  0.00000000000E+00  0.00000000000E+00  0.93937180261E+03  0.93937180261E+03  0.00000000000E+00 0. -1.
       21   -1    0    0  502  503 -0.00000000000E+00 -0.00000000000E+00 -0.26353424206E+03  0.26353424206E+03  0.00000000000E+00 0.  1.
       39    2    1    2    0    0 -0.56843418861E-13  0.00000000000E+00  0.67583756054E+03  0.12029060447E+04  0.99510127327E+03 0.  0.
       24    2    3    3    0    0 -0.48207083796E+03 -0.30490647718E+02  0.23386964010E+03  0.54324357078E+03  0.84241297637E+02 0.  0.
      -24    2    3    3    0    0  0.48207083796E+03  0.30490647718E+02  0.44196792044E+03  0.65966247389E+03  0.80603748924E+02 0.  0.
      -13    1    4    4    0    0 -0.37288407593E+03 -0.48922504805E+02  0.20705821227E+03  0.42931229755E+03  0.00000000000E+00 0.  1.
       14    1    4    4    0    0 -0.10918676203E+03  0.18431857087E+02  0.26811427825E+02  0.11393127323E+03  0.00000000000E+00 0. -1.
        1    1    5    5  501    0  0.36986810750E+03 -0.10321576613E+02  0.34402610186E+03  0.50523550019E+03  0.00000000000E+00 0. -1.
       -2    1    5    5    0  501  0.11220273047E+03  0.40812224331E+02  0.97941818582E+02  0.15442697370E+03  0.00000000000E+00 0.  1.
</event>
<event>
 9   1  0.7335000E-04  0.9916955E+03  0.7818608E-02  0.9317700E-01
       21   -1    0    0  503  502  0.00000000000E+00  0.00000000000E+00  0.10560609383E+03  0.10560609383E+03  0.00000000000E+00 0. -1.
       21   -1    0    0  502  503 -0.00000000000E+00 -0.00000000000E+00 -0.23281326709E+04  0.23281326709E+04  0.00000000000E+00 0.  1.
       39    2    1    2    0    0  0.53290705182E-14  0.00000000000E+00 -0.22225265771E+04  0.24337387648E+04  0.99169551235E+03 0.  0.
       24    2    3    3    0    0  0.11968309584E+02 -0.16946836230E+03  0.16805962863E+02  0.18652231646E+03  0.75135663274E+02 0.  0.
      -24    2    3    3    0    0 -0.11968309584E+02  0.16946836230E+03 -0.22393325400E+04  0.22472164483E+04  0.80676977823E+02 0.  0.
      -13    1    4    4    0    0 -0.23622949438E+02 -0.18973910633E+02  0.92998324593E+01  0.31694477574E+02  0.00000000000E+00 0.  1.
       14    1    4    4    0    0  0.35591259022E+02 -0.15049445167E+03  0.75061304033E+01  0.15482783889E+03  0.00000000000E+00 0. -1.
        3    1    5    5  501    0  0.12492807760E+00  0.32303659145E+02 -0.15449390441E+03  0.15783506739E+03  0.00000000000E+00 0. -1.
       -4    1    5    5    0  501 -0.12093237661E+02  0.13716470315E+03 -0.20848386356E+04  0.20893813809E+04  0.14200000000E+01 0.  1.
</event>
<event>
 9   1  0.7335000E-04  0.1003697E+04  0.7818608E-02  0.9304499E-01
       21   -1    0    0  503  502  0.00000000000E+00  0.00000000000E+00  0.59441793144E+03  0.59441793144E+03  0.00000000000E+00 0. -1.
       21   -1    0    0  502  503 -0.00000000000E+00 -0.00000000000E+00 -0.42369523816E+03  0.42369523816E+03  0.00000000000E+00 0.  1.
       39    2    1    2    0    0 -0.28421709430E-13  0.00000000000E+00  0.17072269328E+03  0.10181131696E+04  0.10036972592E+04 0.  0.
       24    2    3    3    0    0  0.23649405884E+03  0.30268239658E+03  0.40269310123E+03  0.56194436314E+03  0.77933692392E+02 0.  0.
      -24    2    3    3    0    0 -0.23649405884E+03 -0.30268239658E+03 -0.23197040795E+03  0.45616880646E+03  0.82058739648E+02 0.  0.
      -13    1    4    4    0    0  0.20707886812E+02  0.39519641655E+02  0.17441362294E+02  0.47904277172E+02  0.00000000000E+00 0.  1.
       14    1    4    4    0    0  0.21578617203E+03  0.26316275493E+03  0.38525173894E+03  0.51404008596E+03  0.00000000000E+00 0. -1.
        3    1    5    5  501    0 -0.14785467902E+02 -0.67682772220E+02 -0.33031763460E+02  0.76750668491E+02  0.00000000000E+00 0. -1.
       -4    1    5    5    0  501 -0.22170859094E+03 -0.23499962436E+03 -0.19893864449E+03  0.37941813797E+03  0.14200000000E+01 0.  1.
</event>
<event>
 9   1  0.7335000E-04  0.1006001E+04  0.7818608E-02  0.9301987E-01
       21   -1    0    0  503  502  0.00000000000E+00  0.00000000000E+00  0.89413410648E+03  0.89413410648E+03  0.00000000000E+00 0.  1.
       21   -1    0    0  502  503 -0.00000000000E+00 -0.00000000000E+00 -0.28296593882E+03  0.28296593882E+03  0.00000000000E+00 0. -1.
       39    2    1    2    0    0  0.00000000000E+00 -0.28421709430E-13  0.61116816766E+03  0.11771000453E+04  0.10060009878E+04 0.  0.
       24    2    3    3    0    0  0.77352677925E+02  0.23092580018E+03  0.81212097962E+03  0.85150039509E+03  0.78754525716E+02 0.  0.
      -24    2    3    3    0    0 -0.77352677925E+02 -0.23092580018E+03 -0.20095281196E+03  0.32559965022E+03  0.79516901450E+02 0.  0.
      -13    1    4    4    0    0  0.88440477659E+02  0.20729699704E+03  0.76643174355E+03  0.79888133073E+03  0.00000000000E+00 0.  1.
       14    1    4    4    0    0 -0.11087799734E+02  0.23628803142E+02  0.45689236070E+02  0.52619064354E+02  0.00000000000E+00 0. -1.
        3    1    5    5  501    0 -0.91786123432E+02 -0.21558357493E+03 -0.17685704316E+03  0.29356325374E+03  0.00000000000E+00 0. -1.
       -4    1    5    5    0  501  0.14433445507E+02 -0.15342225249E+02 -0.24095768805E+02  0.32036396475E+02  0.14200000000E+01 0.  1.
</event>
<event>
 9   1  0.7335000E-04  0.1006431E+04  0.7818608E-02  0.9301520E-01
       21   -1    0    0  503  502  0.00000000000E+00  0.00000000000E+00  0.92229733004E+03  0.92229733004E+03  0.00000000000E+00 0.  1.
       21   -1    0    0  502  503 -0.00000000000E+00 -0.00000000000E+00 -0.27455962940E+03  0.27455962940E+03  0.00000000000E+00 0. -1.
       39    2    1    2    0    0 -0.17763568394E-14 -0.28421709430E-13  0.64773770064E+03  0.11968569594E+04  0.10064305503E+04 0.  0.
       24    2    3    3    0    0 -0.30019455925E+01 -0.95508946198E+02  0.90354709795E+03  0.91213348693E+03  0.80368957196E+02 0.  0.
      -24    2    3    3    0    0  0.30019455925E+01  0.95508946198E+02 -0.25580939731E+03  0.28472347251E+03  0.80610406029E+02 0.  0.
      -13    1    4    4    0    0 -0.11503478678E+02 -0.10850964636E+03  0.77234815192E+03  0.78001816719E+03  0.00000000000E+00 0.  1.
       14    1    4    4    0    0  0.85015330858E+01  0.13000700165E+02  0.13119894603E+03  0.13211531974E+03  0.00000000000E+00 0. -1.
        3    1    5    5  501    0  0.10024077213E+01  0.82909559135E+02 -0.25861731455E+03  0.27158408495E+03  0.00000000000E+00 0. -1.
       -4    1    5    5    0  501  0.19995378712E+01  0.12599387064E+02  0.28079172313E+01  0.13139387552E+02  0.14200000000E+01 0.  1.
</event>
<event>
 9   1  0.7335000E-04  0.1016757E+04  0.7818608E-02  0.9290355E-01
       -2   -1    0    0    0  501 -0.00000000000E+00  0.00000000000E+00  0.13581115019E+03  0.13581115019E+03  0.00000000000E+00 0. -1.
        2   -1    0    0  501    0  0.00000000000E+00 -0.00000000000E+00 -0.19030003484E+04  0.19030003484E+04  0.00000000000E+00 0.  1.
       39    2    1    2    0    0  0.00000000000E+00  0.00000000000E+00 -0.17671891982E+04  0.20388114986E+04  0.10167569348E+04 0.  0.
       24    2    3    3    0    0  0.35793854210E+03  0.33726436468E+03 -0.10883552744E+04  0.11968423565E+04  0.77763560484E+02 0.  0.
      -24    2    3    3    0    0 -0.35793854210E+03 -0.33726436468E+03 -0.67883392382E+03  0.84196914213E+03  0.78925842195E+02 0.  0.
      -13    1    4    4    0    0  0.21078095431E+03  0.16882296598E+03 -0.51735273908E+03  0.58359546021E+03  0.00000000000E+00 0.  1.
       14    1    4    4    0    0  0.14715758779E+03  0.16844139870E+03 -0.57100253534E+03  0.61324689628E+03  0.00000000000E+00 0. -1.
        3    1    5    5  502    0 -0.19124152813E+03 -0.22023954138E+03 -0.35571584447E+03  0.46001362988E+03  0.00000000000E+00 0. -1.
       -4    1    5    5    0  502 -0.16669701397E+03 -0.11702482330E+03 -0.32311807935E+03  0.38195551225E+03  0.14200000000E+01 0.  1.
</event>
<event>
 9   1  0.7335000E-04  0.1009151E+04  0.7818608E-02  0.9298565E-01
       21   -1    0    0  503  502  0.00000000000E+00  0.00000000000E+00  0.10346356333E+04  0.10346356333E+04  0.00000000000E+00 0.  1.
       21   -1    0    0  502  503 -0.00000000000E+00 -0.00000000000E+00 -0.24607339250E+03  0.24607339250E+03  0.00000000000E+00 0. -1.
       39    2    1    2    0    0  0.00000000000E+00  0.56843418861E-13  0.78856224083E+03  0.12807090258E+04  0.10091507326E+04 0.  0.
       24    2    3    3    0    0  0.40141997962E+03 -0.27797673909E+03  0.27036196668E+03  0.56379163340E+03  0.79726691587E+02 0.  0.
      -24    2    3    3    0    0 -0.40141997962E+03  0.27797673909E+03  0.51820027415E+03  0.71691739242E+03  0.83844832427E+02 0.  0.
      -13    1    4    4    0    0  0.12497212539E+03 -0.11640065158E+03  0.12768964428E+03  0.21324115238E+03  0.00000000000E+00 0.  1.
       14    1    4    4    0    0  0.27644785423E+03 -0.16157608751E+03  0.14267232240E+03  0.35055048102E+03  0.00000000000E+00 0. -1.
        3    1    5    5  501    0 -0.23623680998E+01  0.18739793024E+02  0.13279749759E+02  0.23089226476E+02  0.00000000000E+00 0. -1.
       -4    1    5    5    0  501 -0.39905761152E+03  0.25923694607E+03  0.50492052439E+03  0.69382816595E+03  0.14200000000E+01 0.  1.
</event>
<event>
 9   1  0.7335000E-04  0.1011279E+04  0.7818608E-02  0.9296260E-01
       21   -1    0    0  503  502  0.00000000000E+00  0.00000000000E+00  0.72730488655E+03  0.72730488655E+03  0.00000000000E+00 0. -1.
       21   -1    0    0  502  503 -0.00000000000E+00 -0.00000000000E+00 -0.35153264809E+03  0.35153264809E+03  0.00000000000E+00 0.  1.
       39    2    1    2    0    0  0.28421709430E-13  0.00000000000E+00  0.37577223846E+03  0.10788375346E+04  0.10112792151E+04 0.  0.
       24    2    3    3    0    0  0.22843396020E+03 -0.22029356188E+02  0.66086881074E+03  0.70416262031E+03  0.80187555921E+02 0.  0.
      -24    2    3    3    0    0 -0.22843396020E+03  0.22029356188E+02 -0.28509657228E+03  0.37467491433E+03  0.80211403181E+02 0.  0.
      -13    1    4    4    0    0  0.55118110454E+02 -0.19718267252E+02  0.88373421554E+02  0.10600319712E+03  0.00000000000E+00 0.  1.
       14    1    4    4    0    0  0.17331584975E+03 -0.23110889355E+01  0.57249538918E+03  0.59815942318E+03  0.00000000000E+00 0. -1.
        1    1    5    5  501    0 -0.45053402789E+02 -0.11996479801E+02 -0.20453360666E+02  0.50912322605E+02  0.00000000000E+00 0. -1.
       -2    1    5    5    0  501 -0.18338055741E+03  0.34025835989E+02 -0.26464321161E+03  0.32376259173E+03  0.00000000000E+00 0.  1.
</event>
<event>
 9   1  0.7335000E-04  0.9967694E+03  0.7818608E-02  0.9312095E-01
       21   -1    0    0  503  502  0.00000000000E+00  0.00000000000E+00  0.49790399018E+03  0.49790399018E+03  0.00000000000E+00 0. -1.
       21   -1    0    0  502  503 -0.00000000000E+00 -0.00000000000E+00 -0.49886582626E+03  0.49886582626E+03  0.00000000000E+00 0.  1.
       39    2    1    2    0    0  0.00000000000E+00  0.00000000000E+00 -0.96183608709E+00  0.99676981644E+03  0.99676935238E+03 0.  0.
       24    2    3    3    0    0  0.31547128124E+03  0.89909575226E+02 -0.36726101674E+03  0.49894005349E+03  0.80340908368E+02 0.  0.
      -24    2    3    3    0    0 -0.31547128124E+03 -0.89909575226E+02  0.36629918065E+03  0.49782976295E+03  0.77804383732E+02 0.  0.
      -13    1    4    4    0    0  0.26663351401E+03  0.10476937670E+03 -0.30538764328E+03  0.41872624202E+03  0.00000000000E+00 0.  1.
       14    1    4    4    0    0  0.48837767224E+02 -0.14859801471E+02 -0.61873373461E+02  0.80213811471E+02  0.00000000000E+00 0. -1.
        3    1    5    5  501    0 -0.20457189344E+03 -0.54638522299E+02  0.28839597639E+03  0.35778103206E+03  0.00000000000E+00 0. -1.
       -4    1    5    5    0  501 -0.11089938780E+03 -0.35271052927E+02  0.77903204259E+02  0.14004873089E+03  0.14200000000E+01 0.  1.
</event>
<event>
 9   1  0.7335000E-04  0.9837159E+03  0.7818608E-02  0.9326587E-01
       21   -1    0    0  503  502  0.00000000000E+00  0.00000000000E+00  0.10225121120E+04  0.10225121120E+04  0.00000000000E+00 0.  1.
       21   -1    0    0  502  503 -0.00000000000E+00 -0.00000000000E+00 -0.23659791865E+03  0.23659791865E+03  0.00000000000E+00 0. -1.
       39    2    1    2    0    0  0.00000000000E+00  0.00000000000E+00  0.78591419338E+03  0.12591100307E+04  0.98371588885E+03 0.  0.
       24    2    3    3    0    0  0.15030853307E+03 -0.61971639706E+02 -0.18991143008E+03  0.26662661176E+03  0.92683653278E+02 0.  0.
      -24    2    3    3    0    0 -0.15030853307E+03  0.61971639706E+02  0.97582562346E+03  0.99248341891E+03  0.79715432397E+02 0.  0.
      -13    1    4    4    0    0 -0.43087138065E+01 -0.26232406849E+02 -0.41899401093E+02  0.49621205102E+02  0.00000000000E+00 0.  1.
       14    1    4    4    0    0  0.15461724687E+03 -0.35739232857E+02 -0.14801202899E+03  0.21700540666E+03  0.00000000000E+00 0. -1.
        1    1    5    5  501    0 -0.32496244674E+02  0.39442882226E+02  0.16210666878E+03  0.16997152390E+03  0.00000000000E+00 0. -1.
       -2    1    5    5    0  501 -0.11781228839E+03  0.22528757479E+02  0.81371895468E+03  0.82251189500E+03  0.00000000000E+00 0.  1.
</event>
<event>
 9   1  0.7335000E-04  0.9987997E+03  0.7818608E-02  0.9309862E-01
       21   -1    0    0  503  502  0.00000000000E+00  0.00000000000E+00  0.13778505760E+03  0.13778505760E+03  0.00000000000E+00 0.  1.
       21   -1    0    0  502  503 -0.00000000000E+00 -0.00000000000E+00 -0.18100670799E+04  0.18100670799E+04  0.00000000000E+00 0. -1.
       39    2    1    2    0    0  0.00000000000E+00  0.00000000000E+00 -0.16722820223E+04  0.19478521375E+04  0.99879967331E+03 0.  0.
       24    2    3    3    0    0  0.11258022317E+03  0.76757557562E+02 -0.17602661313E+04  0.17673209251E+04  0.79500754904E+02 0.  0.
      -24    2    3    3    0    0 -0.11258022317E+03 -0.76757557562E+02  0.87984109000E+02  0.18053121238E+03  0.79273488104E+02 0.  0.
      -13    1    4    4    0    0  0.63341383579E+01  0.22006715361E+02 -0.93071770988E+02  0.95847646735E+02  0.00000000000E+00 0.  1.
       14    1    4    4    0    0  0.10624608481E+03  0.54750842201E+02 -0.16671943603E+04  0.16714732783E+04  0.00000000000E+00 0. -1.
        1    1    5    5  501    0 -0.12687650217E+02 -0.39465983188E+02 -0.12765317133E+01  0.41474930141E+02  0.00000000000E+00 0. -1.
       -2    1    5    5    0  501 -0.99892572952E+02 -0.37291574375E+02  0.89260640713E+02  0.13905628224E+03  0.00000000000E+00 0.  1.
</event>
<event>
 9   1  0.7335000E-04  0.9934920E+03  0.7818608E-02  0.9315712E-01
       21   -1    0    0  503  502  0.00000000000E+00  0.00000000000E+00  0.14579634057E+03  0.14579634057E+03  0.00000000000E+00 0.  1.
       21   -1    0    0  502  503 -0.00000000000E+00 -0.00000000000E+00 -0.16924743296E+04  0.16924743296E+04  0.00000000000E+00 0. -1.
       39    2    1    2    0    0 -0.14210854715E-13 -0.56843418861E-13 -0.15466779890E+04  0.18382706701E+04  0.99349195015E+03 0.  0.
       24    2    3    3    0    0  0.10875628251E+03  0.46100012064E+03 -0.10081883715E+04  0.11167622580E+04  0.79781628620E+02 0.  0.
      -24    2    3    3    0    0 -0.10875628251E+03 -0.46100012064E+03 -0.53848961751E+03  0.72150841213E+03  0.79084008453E+02 0.  0.
      -13    1    4    4    0    0  0.81048674979E+02  0.30926844965E+03 -0.59033254628E+03  0.67134817856E+03  0.00000000000E+00 0.  1.
       14    1    4    4    0    0  0.27707607535E+02  0.15173167100E+03 -0.41785582520E+03  0.44541407943E+03  0.00000000000E+00 0. -1.
        3    1    5    5  501    0 -0.25042041841E+02 -0.14062914329E+03 -0.21837030404E+03  0.26093916818E+03  0.00000000000E+00 0. -1.
       -4    1    5    5    0  501 -0.83714240673E+02 -0.32037097735E+03 -0.32011931346E+03  0.46056924395E+03  0.14200000000E+01 0.  1.
</event>
<event>
 8   1  0.7335000E-04  0.2117670E+04  0.7818608E-02  0.8553499E-01
        2   -1    0    0  501    0  0.00000000000E+00  0.00000000000E+00  0.17644647067E+04  0.17644647067E+04  0.00000000000E+00 0.  1.
       -2   -1    0    0    0  501 -0.00000000000E+00 -0.00000000000E+00 -0.63539455425E+03  0.63539455425E+03  0.00000000000E+00 0. -1.
       24    2    1    2    0    0 -0.44466282543E+03  0.91298899740E+02 -0.51578959203E+03  0.69163777308E+03  0.79141572447E+02 0.  0.
      -24    2    1    2    0    0  0.44466282543E+03 -0.91298899740E+02  0.16448597445E+04  0.17082214879E+04  0.79978467210E+02 0.  0.
      -13    1    3    3    0    0 -0.26632017577E+03  0.92333692386E+02 -0.33249670427E+03  0.43589678264E+03  0.00000000000E+00 0.  1.
       14    1    3    3    0    0 -0.17834264966E+03 -0.10347926455E+01 -0.18329288776E+03  0.25574099043E+03  0.00000000000E+00 0. -1.
        1    1    4    4  502    0  0.30406998136E+03 -0.99203015188E+02  0.11146227646E+04  0.11596049755E+04  0.00000000000E+00 0. -1.
       -2    1    4    4    0  502  0.14059284407E+03  0.79041154477E+01  0.53023697983E+03  0.54861651235E+03  0.00000000000E+00 0.  1.
</event>
<event>
 9   1  0.7335000E-04  0.1120982E+04  0.7818608E-02  0.9184980E-01
       21   -1    0    0  503  502  0.00000000000E+00  0.00000000000E+00  0.12303383228E+04  0.12303383228E+04  0.00000000000E+00 0.  1.
       21   -1    0    0  502  503 -0.00000000000E+00 -0.00000000000E+00 -0.25533630066E+03  0.25533630066E+03  0.00000000000E+00 0. -1.
       39    2    1    2    0    0 -0.56843418861E-13  0.00000000000E+00  0.97500202214E+03  0.14856746235E+04  0.11209817767E+04 0.  0.
       24    2    3    3    0    0  0.45611889797E+03  0.17961828290E+03  0.83191229488E+03  0.96883837044E+03  0.79136243401E+02 0.  0.
      -24    2    3    3    0    0 -0.45611889797E+03 -0.17961828290E+03  0.14308972726E+03  0.51683625302E+03  0.79610713807E+02 0.  0.
      -13    1    4    4    0    0  0.28154371756E+03  0.14759616423E+03  0.56535429300E+03  0.64859615264E+03  0.00000000000E+00 0.  1.
       14    1    4    4    0    0  0.17457518041E+03  0.32022118672E+02  0.26655800188E+03  0.32024221780E+03  0.00000000000E+00 0. -1.
        3    1    5    5  501    0 -0.35305438722E+03 -0.11372178313E+03  0.13315873628E+03  0.39409553834E+03  0.00000000000E+00 0. -1.
       -4    1    5    5    0  501 -0.10306451075E+03 -0.65896499774E+02  0.99309909799E+01  0.12274071468E+03  0.14200000000E+01 0.  1.
</event>
<event>
 9   1  0.7335000E-04  0.9968697E+03  0.7818608E-02  0.9311985E-01
       21   -1    0    0  503  502  0.00000000000E+00  0.00000000000E+00  0.57580255342E+03  0.57580255342E+03  0.00000000000E+00 0.  1.
       21   -1    0    0  502  503 -0.00000000000E+00 -0.00000000000E+00 -0.43146263665E+03  0.43146263665E+03  0.00000000000E+00 0. -1.
       39    2    1    2    0    0  0.00000000000E+00  0.00000000000E+00  0.14433991678E+03  0.10072651901E+04  0.99686967631E+03 0.  0.
       24    2    3    3    0    0 -0.12480600545E+03  0.38618961372E+03 -0.20855948289E+03  0.46361981468E+03  0.82020228722E+02 0.  0.
      -24    2    3    3    0    0  0.12480600545E+03 -0.38618961372E+03  0.35289939966E+03  0.54364537539E+03  0.79330644505E+02 0.  0.
      -13    1    4    4    0    0 -0.72007212548E+02  0.13560809160E+03 -0.45941026490E+02  0.16026593862E+03  0.00000000000E+00 0.  1.
       14    1    4    4    0    0 -0.52798792898E+02  0.25058152212E+03 -0.16261845640E+03  0.30335387606E+03  0.00000000000E+00 0. -1.
        3    1    5    5  501    0  0.56331727841E+02 -0.12239905879E+03  0.16296861227E+03  0.21145581510E+03  0.00000000000E+00 0. -1.
       -4    1    5    5    0  501  0.68474277605E+02 -0.26379055493E+03  0.18993078739E+03  0.33218956029E+03  0.14200000000E+01 0.  1.
</event>
<event>
 9   1  0.7335000E-04  0.9971267E+03  0.7818608E-02  0.9311702E-01
       21   -1    0    0  503  502  0.00000000000E+00  0.00000000000E+00  0.26069334978E+04  0.26069334978E+04  0.00000000000E+00 0. -1.
       21   -1    0    0  502  503 -0.00000000000E+00 -0.00000000000E+00 -0.95347820086E+02  0.95347820086E+02  0.00000000000E+00 0.  1.
       39    2    1    2    0    0 -0.71054273576E-14 -0.14210854715E-13  0.25115856777E+04  0.27022813179E+04  0.99712672439E+03 0.  0.
       24    2    3    3    0    0 -0.57968705101E+02  0.12272694961E+03  0.25376193562E+04  0.25423755648E+04  0.75757774891E+02 0.  0.
      -24    2    3    3    0    0  0.57968705101E+02 -0.12272694961E+03 -0.26033678495E+02  0.15990575310E+03  0.80435207019E+02 0.  0.
      -13    1    4    4    0    0  0.15163005818E+02  0.56382748366E+01  0.38007155940E+03  0.38041568994E+03  0.00000000000E+00 0.  1.
       14    1    4    4    0    0 -0.73131710919E+02  0.11708867477E+03  0.21575477968E+04  0.21619598749E+04  0.00000000000E+00 0. -1.
        1    1    5    5  501    0  0.46712856634E+02 -0.36739110211E+02  0.18732279665E+02  0.62311728394E+02  0.00000000000E+00 0. -1.
       -2    1    5    5    0  501  0.11255848467E+02 -0.85987839398E+02 -0.44765958160E+02  0.97594024710E+02  0.00000000000E+00 0.  1.
</event>
<event>
 9   1  0.7335000E-04  0.9935272E+03  0.7818608E-02  0.9315673E-01
        2   -1    0    0  501    0  0.00000000000E+00  0.00000000000E+00  0.64908008506E+03  0.64908008506E+03  0.00000000000E+00 0. -1.
       -2   -1    0    0    0  501 -0.00000000000E+00 -0.00000000000E+00 -0.38019049407E+03  0.38019049407E+03  0.00000000000E+00 0.  1.
       39    2    1    2    0    0 -0.35527136788E-14 -0.11368683772E-12  0.26888959098E+03  0.10292705791E+04  0.99352720794E+03 0.  0.
       24    2    3    3    0    0 -0.16622949603E+02 -0.36834558986E+03  0.47036760957E+03  0.60292435320E+03  0.79481391011E+02 0.  0.
      -24    2    3    3    0    0  0.16622949603E+02  0.36834558986E+03 -0.20147801859E+03  0.42634622593E+03  0.72269747231E+02 0.  0.
      -13    1    4    4    0    0 -0.84038462366E+01 -0.22980014631E+00  0.16179397046E+02  0.18233220463E+02  0.00000000000E+00 0.  1.
       14    1    4    4    0    0 -0.82191033666E+01 -0.36811578972E+03  0.45418821253E+03  0.58469113274E+03  0.00000000000E+00 0. -1.
        3    1    5    5  502    0  0.14188487245E+02  0.18122495127E+02 -0.15563143294E+01  0.23068595844E+02  0.00000000000E+00 0. -1.
       -4    1    5    5    0  502  0.24344623587E+01  0.35022309474E+03 -0.19992170426E+03  0.40327763009E+03  0.14200000000E+01 0.  1.
</event>
<event>
 9   1  0.7335000E-04  0.1044185E+04  0.7818608E-02  0.9261368E-01
       21   -1    0    0  503  502  0.00000000000E+00  0.00000000000E+00  0.44446779165E+03  0.44446779165E+03  0.00000000000E+00 0.  1.
       21   -1    0    0  502  503 -0.00000000000E+00 -0.00000000000E+00 -0.61327443290E+03  0.61327443290E+03  0.00000000000E+00 0. -1.
       39    2    1    2    0    0 -0.56843418861E-13  0.00000000000E+00 -0.16880664125E+03  0.10577422246E+04  0.10441852956E+04 0.  0.
       24    2    3    3    0    0  0.31988001261E+03 -0.14002653364E+02  0.32536383005E+03  0.46351309193E+03  0.80395694631E+02 0.  0.
      -24    2    3    3    0    0 -0.31988001261E+03  0.14002653364E+02 -0.49417047130E+03  0.59422913262E+03  0.79903132446E+02 0.  0.
      -13    1    4    4    0    0  0.27856085526E+03 -0.19491195871E+02  0.31421558172E+03  0.42036589847E+03  0.00000000000E+00 0.  1.
       14    1    4    4    0    0  0.41319157349E+02  0.54885425075E+01  0.11148248339E+02  0.43147193465E+02  0.00000000000E+00 0. -1.
        1    1    5    5  501    0 -0.32151256257E+03  0.21593957419E+02 -0.48209389566E+03  0.57987166781E+03  0.00000000000E+00 0. -1.
       -2    1    5    5    0  501  0.16325499614E+01 -0.75913040547E+01 -0.12076575643E+02  0.14357464814E+02  0.00000000000E+00 0.  1.
</event>
<event>
 9   1  0.7335000E-04  0.9922056E+03  0.7818608E-02  0.9317135E-01
       21   -1    0    0  503  502  0.00000000000E+00  0.00000000000E+00  0.13296138403E+04  0.13296138403E+04  0.00000000000E+00 0.  1.
       21   -1    0    0  502  503 -0.00000000000E+00 -0.00000000000E+00 -0.18510486352E+03  0.18510486352E+03  0.00000000000E+00 0. -1.
       39    2    1    2    0    0  0.00000000000E+00  0.00000000000E+00  0.11445089768E+04  0.15147187038E+04  0.99220560055E+03 0.  0.
       24    2    3    3    0    0  0.33005019957E+03  0.24309691309E+03  0.98103539040E+03  0.10662088903E+04  0.79634899497E+02 0.  0.
      -24    2    3    3    0    0 -0.33005019957E+03 -0.24309691309E+03  0.16347358637E+03  0.44850981347E+03  0.80051208292E+02 0.  0.
      -13    1    4    4    0    0  0.17927018118E+03  0.15978271661E+03  0.65176593575E+03  0.69459855269E+03  0.00000000000E+00 0.  1.
       14    1    4    4    0    0  0.15078001840E+03  0.83314196481E+02  0.32926945464E+03  0.37161033764E+03  0.00000000000E+00 0. -1.
        3    1    5    5  501    0 -0.25504029767E+03 -0.22120934802E+03  0.11554705602E+03  0.35683364645E+03  0.00000000000E+00 0. -1.
       -4    1    5    5    0  501 -0.75009901898E+02 -0.21887565077E+02  0.47926530356E+02  0.91676167021E+02  0.14200000000E+01 0.  1.
</event>
<event>
 9   1  0.7335000E-04  0.9971762E+03  0.7818608E-02  0.9311647E-01
        2   -1    0    0  501    0  0.00000000000E+00  0.00000000000E+00  0.64915779864E+03  0.64915779864E+03  0.00000000000E+00 0. -1.
       -2   -1    0    0    0  501 -0.00000000000E+00 -0.00000000000E+00 -0.38294249465E+03  0.38294249465E+03  0.00000000000E+00 0.  1.
       39    2    1    2    0    0  0.00000000000E+00  0.00000000000E+00  0.26621530399E+03  0.10321002933E+04  0.99717622681E+03 0.  0.
       24    2    3    3    0    0 -0.33266784995E+03 -0.30193709890E+03 -0.74907312175E+02  0.46239665254E+03  0.79785015987E+02 0.  0.
      -24    2    3    3    0    0  0.33266784995E+03  0.30193709890E+03  0.34112261617E+03  0.56970364075E+03  0.79772733013E+02 0.  0.
      -13    1    4    4    0    0 -0.21550332972E+03 -0.21591307358E+03 -0.85043877357E+02  0.31669007174E+03  0.00000000000E+00 0.  1.
       14    1    4    4    0    0 -0.11716452024E+03 -0.86024025322E+02  0.10136565182E+02  0.14570658080E+03  0.00000000000E+00 0. -1.
        3    1    5    5  502    0  0.33438170362E+03  0.30021710467E+03  0.34380866222E+03  0.56581430688E+03  0.00000000000E+00 0. -1.
       -4    1    5    5    0  502 -0.17138536707E+01  0.17199942321E+01 -0.26860460472E+01  0.38893338672E+01  0.14200000000E+01 0.  1.
</event>
<event>
 9   1  0.7335000E-04  0.9924735E+03  0.7818608E-02  0.9316838E-01
       -2   -1    0    0    0  501 -0.00000000000E+00  0.00000000000E+00  0.52924633146E+03  0.52924633146E+03  0.00000000000E+00 0. -1.
        2   -1    0    0  501    0  0.00000000000E+00 -0.00000000000E+00 -0.46528599761E+03  0.46528599761E+03  0.00000000000E+00 0.  1.
       39    2    1    2    0    0  0.00000000000E+00  0.56843418861E-13  0.63960333844E+02  0.99453232907E+03  0.99247349046E+03 0.  0.
       24    2    3    3    0    0  0.31895464859E+03 -0.31637635294E+03  0.22739052984E+03  0.51002593330E+03  0.81203048100E+02 0.  0.
      -24    2    3    3    0    0 -0.31895464859E+03  0.31637635294E+03 -0.16343019600E+03  0.48450639577E+03  0.78809606164E+02 0.  0.
      -13    1    4    4    0    0  0.53336135784E+02 -0.17236208114E+02  0.20824636511E+02  0.59795449127E+02  0.00000000000E+00 0.  1.
       14    1    4    4    0    0  0.26561851281E+03 -0.29914014482E+03  0.20656589333E+03  0.45023048417E+03  0.00000000000E+00 0. -1.
        3    1    5    5  502    0 -0.28635168818E+03  0.27232010717E+03 -0.11554108788E+03  0.41171018093E+03  0.00000000000E+00 0. -1.
       -4    1    5    5    0  502 -0.32602960410E+02  0.44056245766E+02 -0.47889108122E+02  0.72796214841E+02  0.14200000000E+01 0.  1.
</event>
<event>
 9   1  0.7335000E-04  0.1001761E+04  0.7818608E-02  0.9306615E-01
       21   -1    0    0  503  502  0.00000000000E+00  0.00000000000E+00  0.13435609214E+04  0.13435609214E+04  0.00000000000E+00 0.  1.
       21   -1    0    0  502  503 -0.00000000000E+00 -0.00000000000E+00 -0.18672868370E+03  0.18672868370E+03  0.00000000000E+00 0. -1.
       39    2    1    2    0    0 -0.14210854715E-13 -0.56843418861E-13  0.11568322377E+04  0.15302896051E+04  0.10017611738E+04 0.  0.
       24    2    3    3    0    0  0.12055542485E+03 -0.39813170545E+03  0.17126696637E+03  0.45754131553E+03  0.83481832121E+02 0.  0.
      -24    2    3    3    0    0 -0.12055542485E+03  0.39813170545E+03  0.98556527135E+03  0.10727482896E+04  0.80047007516E+02 0.  0.
      -13    1    4    4    0    0 -0.67161721254E+01 -0.31130107760E+02  0.31292867162E+02  0.44647890346E+02  0.00000000000E+00 0.  1.
       14    1    4    4    0    0  0.12727159698E+03 -0.36700159769E+03  0.13997409921E+03  0.41289342518E+03  0.00000000000E+00 0. -1.
        3    1    5    5  501    0 -0.45354260909E+02  0.51318156418E+02  0.14620511503E+03  0.16145122428E+03  0.00000000000E+00 0. -1.
       -4    1    5    5    0  501 -0.75201163944E+02  0.34681354903E+03  0.83936015632E+03  0.91129706533E+03  0.14200000000E+01 0.  1.
</event>
<event>
 9   1  0.7335000E-04  0.9579428E+03  0.7818608E-02  0.9355915E-01
        2   -1    0    0  501    0  0.00000000000E+00  0.00000000000E+00  0.15493548894E+04  0.15493548894E+04  0.00000000000E+00 0.  1.
       -2   -1    0    0    0  501 -0.00000000000E+00 -0.00000000000E+00 -0.14807039366E+03  0.14807039366E+03  0.00000000000E+00 0. -1.
       39    2    1    2    0    0  0.00000000000E+00  0.00000000000E+00  0.14012844958E+04  0.16974252831E+04  0.95794277157E+03 0.  0.
       24    2    3    3    0    0  0.45848739284E+03 -0.93958967786E+02  0.59059412182E+03  0.75775672417E+03  0.79717371190E+02 0.  0.
      -24    2    3    3    0    0 -0.45848739284E+03  0.93958967786E+02  0.81069037394E+03  0.93966855892E+03  0.81970367892E+02 0.  0.
      -13    1    4    4    0    0  0.33901778824E+03 -0.33456006704E+02  0.43312284924E+03  0.55104243726E+03  0.00000000000E+00 0.  1.
       14    1    4    4    0    0  0.11946960460E+03 -0.60502961082E+02  0.15747127258E+03  0.20671428691E+03  0.00000000000E+00 0. -1.
        3    1    5    5  502    0 -0.23431735350E+03  0.56859838476E+02  0.49619212990E+03  0.55167408237E+03  0.00000000000E+00 0. -1.
       -4    1    5    5    0  502 -0.22417003934E+03  0.37099129310E+02  0.31449824404E+03  0.38799447655E+03  0.14200000000E+01 0.  1.
</event>
<event>
 9   1  0.7335000E-04  0.9999179E+03  0.7818608E-02  0.9308635E-01
       -2   -1    0    0    0  501 -0.00000000000E+00  0.00000000000E+00  0.12768733549E+03  0.12768733549E+03  0.00000000000E+00 0.  1.
        2   -1    0    0  501    0  0.00000000000E+00 -0.00000000000E+00 -0.19575860092E+04  0.19575860092E+04  0.00000000000E+00 0. -1.
       39    2    1    2    0    0 -0.28421709430E-13  0.00000000000E+00 -0.18298986738E+04  0.20852733447E+04  0.99991787964E+03 0.  0.
       24    2    3    3    0    0  0.23005727187E+03 -0.36969999317E+03 -0.42629934869E+03  0.61349033425E+03  0.70956481266E+02 0.  0.
      -24    2    3    3    0    0 -0.23005727187E+03  0.36969999317E+03 -0.14035993251E+04  0.14717830105E+04  0.80310219253E+02 0.  0.
      -13    1    4    4    0    0  0.20996309395E+03 -0.33211393834E+03 -0.40995275456E+03  0.56784278619E+03  0.00000000000E+00 0.  1.
       14    1    4    4    0    0  0.20094177917E+02 -0.37586054832E+02 -0.16346594135E+02  0.45647548059E+02  0.00000000000E+00 0. -1.
        3    1    5    5  502    0 -0.13928328755E+03  0.26958408251E+03 -0.10594552546E+04  0.11020530152E+04  0.00000000000E+00 0. -1.
       -4    1    5    5    0  502 -0.90773984321E+02  0.10011591066E+03 -0.34414407042E+03  0.36972999527E+03  0.14200000000E+01 0.  1.
</event>
<event>
 9   1  0.7335000E-04  0.1003483E+04  0.7818608E-02  0.9304733E-01
       21   -1    0    0  503  502  0.00000000000E+00  0.00000000000E+00  0.58013131719E+03  0.58013131719E+03  0.00000000000E+00 0.  1.
       21   -1    0    0  502  503 -0.00000000000E+00 -0.00000000000E+00 -0.43394420722E+03  0.43394420722E+03  0.00000000000E+00 0. -1.
       39    2    1    2    0    0  0.00000000000E+00  0.00000000000E+00  0.14618710997E+03  0.10140755244E+04  0.10034831828E+04 0.  0.
       24    2    3    3    0    0  0.12831465615E+03  0.38853825566E+03 -0.20919660807E+03  0.46631529761E+03  0.79120849717E+02 0.  0.
      -24    2    3    3    0    0 -0.12831465615E+03 -0.38853825566E+03  0.35538371804E+03  0.54776022681E+03  0.79479883824E+02 0.  0.
      -13    1    4    4    0    0  0.85163788925E+01  0.63671738481E+02 -0.64542810943E+02  0.91062579774E+02  0.00000000000E+00 0.  1.
       14    1    4    4    0    0  0.11979827725E+03  0.32486651718E+03 -0.14465379713E+03  0.37525271783E+03  0.00000000000E+00 0. -1.
        3    1    5    5  501    0  0.10136708460E+02 -0.23015079830E+02  0.30271524691E+02  0.39354948419E+02  0.00000000000E+00 0. -1.
       -4    1    5    5    0  501 -0.13845136461E+03 -0.36552317583E+03  0.32511219335E+03  0.50840527839E+03  0.14200000000E+01 0.  1.
</event>
<event>
 9   1  0.7335000E-04  0.1021166E+04  0.7818608E-02  0.9285630E-01
       21   -1    0    0  503  502  0.00000000000E+00  0.00000000000E+00  0.77339193841E+03  0.77339193841E+03  0.00000000000E+00 0. -1.
       21   -1    0    0  502  503 -0.00000000000E+00 -0.00000000000E+00 -0.33708038460E+03  0.33708038460E+03  0.00000000000E+00 0.  1.
       39    2    1    2    0    0  0.14210854715E-13  0.71054273576E-14  0.43631155381E+03  0.11104723230E+04  0.10211664939E+04 0.  0.
       24    2    3    3    0    0 -0.81726930378E+02 -0.49851819095E+02  0.75629586211E+03  0.76662407572E+03  0.81021894688E+02 0.  0.
      -24    2    3    3    0    0  0.81726930378E+02  0.49851819095E+02 -0.31998430830E+03  0.34384824728E+03  0.81713919136E+02 0.  0.
      -13    1    4    4    0    0 -0.36938721974E+02 -0.42731598442E+02  0.18255495907E+03  0.19109362043E+03  0.00000000000E+00 0.  1.
       14    1    4    4    0    0 -0.44788208404E+02 -0.71202206526E+01  0.57374090304E+03  0.57553045530E+03  0.00000000000E+00 0. -1.
        3    1    5    5  501    0  0.87679132799E+01 -0.63314305242E+01 -0.15108961997E+03  0.15147619146E+03  0.00000000000E+00 0. -1.
       -4    1    5    5    0  501  0.72959017098E+02  0.56183249619E+02 -0.16889468833E+03  0.19237205582E+03  0.14200000000E+01 0.  1.
</event>
<event>
 9   1  0.7335000E-04  0.1003818E+04  0.7818608E-02  0.9304367E-01
       21   -1    0    0  503  502  0.00000000000E+00  0.00000000000E+00  0.11292865476E+04  0.11292865476E+04  0.00000000000E+00 0.  1.
       21   -1    0    0  502  503 -0.00000000000E+00 -0.00000000000E+00 -0.22307225422E+03  0.22307225422E+03  0.00000000000E+00 0. -1.
       39    2    1    2    0    0  0.00000000000E+00 -0.56843418861E-13  0.90621429337E+03  0.13523588018E+04  0.10038177042E+04 0.  0.
       24    2    3    3    0    0  0.16362631532E+03  0.46472150677E+03  0.52489552547E+03  0.72417654785E+03  0.78592047145E+02 0.  0.
      -24    2    3    3    0    0 -0.16362631532E+03 -0.46472150677E+03  0.38131876791E+03  0.62818225398E+03  0.80431906210E+02 0.  0.
      -13    1    4    4    0    0  0.17076965464E+03  0.45804355570E+03  0.51777973598E+03  0.71208288061E+03  0.00000000000E+00 0.  1.
       14    1    4    4    0    0 -0.71433393243E+01  0.66779510638E+01  0.71157894918E+01  0.12093667236E+02  0.00000000000E+00 0. -1.
        1    1    5    5  501    0 -0.13642451164E+03 -0.31764855739E+03  0.22878229288E+03  0.41455227767E+03  0.00000000000E+00 0. -1.
       -2    1    5    5    0  501 -0.27201803677E+02 -0.14707294938E+03  0.15253647503E+03  0.21362997630E+03  0.00000000000E+00 0.  1.
</event>
<event>
 9   1  0.7335000E-04  0.1001976E+04  0.7818608E-02  0.9306380E-01
       21   -1    0    0  503  502  0.00000000000E+00  0.00000000000E+00  0.10278497430E+04  0.10278497430E+04  0.00000000000E+00 0. -1.
       21   -1    0    0  502  503 -0.00000000000E+00 -0.00000000000E+00 -0.24418842566E+03  0.24418842566E+03  0.00000000000E+00 0.  1.
       39    2    1    2    0    0  0.00000000000E+00  0.56843418861E-13  0.78366131730E+03  0.12720381686E+04  0.10019760687E+04 0.  0.
       24    2    3    3    0    0 -0.37649555529E+03 -0.27894108377E+03  0.59193536819E+03  0.75950932618E+03  0.83125838805E+02 0.  0.
      -24    2    3    3    0    0  0.37649555529E+03  0.27894108377E+03  0.19172594911E+03  0.51252884245E+03  0.79811925249E+02 0.  0.
      -13    1    4    4    0    0 -0.12109994761E+03 -0.50987760464E+02  0.13298346364E+03  0.18694798910E+03  0.00000000000E+00 0.  1.
       14    1    4    4    0    0 -0.25539560768E+03 -0.22795332330E+03  0.45895190454E+03  0.57256133707E+03  0.00000000000E+00 0. -1.
        1    1    5    5  501    0  0.94526895066E+02  0.99607511971E+02  0.26927223785E+02  0.13993593432E+03  0.00000000000E+00 0. -1.
       -2    1    5    5    0  501  0.28196866022E+03  0.17933357180E+03  0.16479872533E+03  0.37259290813E+03  0.00000000000E+00 0.  1.
</event>
<event>
 9   1  0.7335000E-04  0.1001951E+04  0.7818608E-02  0.9306408E-01
       21   -1    0    0  503  502  0.00000000000E+00  0.00000000000E+00  0.16255012903E+03  0.16255012903E+03  0.00000000000E+00 0. -1.
       21   -1    0    0  502  503 -0.00000000000E+00 -0.00000000000E+00 -0.15439928530E+04  0.15439928530E+04  0.00000000000E+00 0.  1.
       39    2    1    2    0    0  0.00000000000E+00  0.28421709430E-13 -0.13814427240E+04  0.17065429820E+04  0.10019505726E+04 0.  0.
       24    2    3    3    0    0  0.65405062933E+02 -0.18441267226E+03  0.83476525639E+02  0.22626604714E+03  0.77085263251E+02 0.  0.
      -24    2    3    3    0    0 -0.65405062933E+02  0.18441267226E+03 -0.14649192496E+04  0.14802769349E+04  0.83339907391E+02 0.  0.
      -13    1    4    4    0    0  0.29781725241E+02 -0.90863454437E+02  0.82294605785E+02  0.12615673051E+03  0.00000000000E+00 0.  1.
       14    1    4    4    0    0  0.35623337691E+02 -0.93549217820E+02  0.11819198545E+01  0.10010931664E+03  0.00000000000E+00 0. -1.
        3    1    5    5  501    0 -0.51312498904E+02  0.39481415818E+02 -0.55758694355E+03  0.56133319371E+03  0.00000000000E+00 0. -1.
       -4    1    5    5    0  501 -0.14092564028E+02  0.14493125644E+03 -0.90733230605E+03  0.91894374118E+03  0.14200000000E+01 0.  1.
</event>
<event>
 8   1  0.7335000E-04  0.1749165E+04  0.7818608E-02  0.8733810E-01
       21   -1    0    0  503  502  0.00000000000E+00  0.00000000000E+00  0.69841791594E+03  0.69841791594E+03  0.00000000000E+00 0. -1.
       21   -1    0    0  502  503 -0.00000000000E+00 -0.00000000000E+00 -0.10951823530E+04  0.10951823530E+04  0.00000000000E+00 0.  1.
       24    2    1    2    0    0  0.13201088753E+02  0.60201880703E+03  0.44682605126E+03  0.75415318970E+03  0.80576675845E+02 0.  0.
      -24    2    1    2    0    0 -0.13201088753E+02 -0.60201880703E+03 -0.84359048830E+03  0.10394470792E+04  0.78768050538E+02 0.  0.
      -13    1    3    3    0    0  0.12787182259E+00 -0.24702706081E+01  0.25652571986E+00  0.24868440894E+01  0.00000000000E+00 0.  1.
       14    1    3    3    0    0  0.13073216930E+02  0.60448907764E+03  0.44656952554E+03  0.75166634561E+03  0.00000000000E+00 0. -1.
        1    1    4    4  501    0  0.73945717827E+01 -0.85010307692E+02 -0.79344765607E+02  0.11652048719E+03  0.00000000000E+00 0. -1.
       -2    1    4    4    0  501 -0.20595660535E+02 -0.51700849933E+03 -0.76424572270E+03  0.92292659203E+03  0.00000000000E+00 0.  1.
</event>
<event>
 9   1  0.7335000E-04  0.9977808E+03  0.7818608E-02  0.9310982E-01
       21   -1    0    0  503  502  0.00000000000E+00  0.00000000000E+00  0.14338715232E+04  0.14338715232E+04  0.00000000000E+00 0.  1.
       21   -1    0    0  502  503 -0.00000000000E+00 -0.00000000000E+00 -0.17358016239E+03  0.17358016239E+03  0.00000000000E+00 0. -1.
       39    2    1    2    0    0  0.56843418861E-13  0.00000000000E+00  0.12602913608E+04  0.16074516855E+04  0.99778084133E+03 0.  0.
       24    2    3    3    0    0  0.48157004416E+03  0.75668406099E+02  0.74060039610E+03  0.89010329319E+03  0.78482550527E+02 0.  0.
      -24    2    3    3    0    0 -0.48157004416E+03 -0.75668406099E+02  0.51969096467E+03  0.71734839235E+03  0.82913220513E+02 0.  0.
      -13    1    4    4    0    0  0.39288912510E+03  0.30879937357E+02  0.60377919794E+03  0.72101647347E+03  0.00000000000E+00 0.  1.
       14    1    4    4    0    0  0.88680919062E+02  0.44788468743E+02  0.13682119815E+03  0.16908681972E+03  0.00000000000E+00 0. -1.
        3    1    5    5  501    0 -0.33884481080E+03 -0.51015860784E+02  0.41733134349E+03  0.53998506842E+03  0.00000000000E+00 0. -1.
       -4    1    5    5    0  501 -0.14272523336E+03 -0.24652545316E+02  0.10235962118E+03  0.17736332393E+03  0.14200000000E+01 0.  1.
</event>
<event>
 9   1  0.7335000E-04  0.9886419E+03  0.7818608E-02  0.9321091E-01
       21   -1    0    0  503  502  0.00000000000E+00  0.00000000000E+00  0.84079307834E+03  0.84079307834E+03  0.00000000000E+00 0. -1.
       21   -1    0    0  502  503 -0.00000000000E+00 -0.00000000000E+00 -0.29062227362E+03  0.29062227362E+03  0.00000000000E+00 0.  1.
       39    2    1    2    0    0  0.28421709430E-13 -0.56843418861E-13  0.55017080472E+03  0.11314153520E+04  0.98864188880E+03 0.  0.
       24    2    3    3    0    0  0.17848559926E+03 -0.21654780360E+03 -0.18290789935E+03  0.34323852325E+03  0.74882066033E+02 0.  0.
      -24    2    3    3    0    0 -0.17848559926E+03  0.21654780360E+03  0.73307870406E+03  0.78817682870E+03  0.71191759123E+02 0.  0.
      -13    1    4    4    0    0  0.11200098261E+03 -0.15789714026E+03 -0.85804393020E+02  0.21175013782E+03  0.00000000000E+00 0.  1.
       14    1    4    4    0    0  0.66484616651E+02 -0.58650663345E+02 -0.97103506325E+02  0.13148838543E+03  0.00000000000E+00 0. -1.
        3    1    5    5  501    0 -0.14364328073E+03  0.20857566641E+03  0.65654209632E+03  0.70369363004E+03  0.00000000000E+00 0. -1.
       -4    1    5    5    0  501 -0.34842318530E+02  0.79721371954E+01  0.76536607738E+02  0.84483198661E+02  0.14200000000E+01 0.  1.
</event>
<event>
 9   1  0.7335000E-04  0.9684284E+03  0.7818608E-02  0.9343866E-01
       21   -1    0    0  503  502  0.00000000000E+00  0.00000000000E+00  0.53371700049E+03  0.53371700049E+03  0.00000000000E+00 0.  1.
       21   -1    0    0  502  503 -0.00000000000E+00 -0.00000000000E+00 -0.43930287511E+03  0.43930287511E+03  0.00000000000E+00 0. -1.
       39    2    1    2    0    0  0.00000000000E+00  0.00000000000E+00  0.94414125374E+02  0.97301987560E+03  0.96842844405E+03 0.  0.
       24    2    3    3    0    0 -0.22266058196E+03 -0.24141843587E+03  0.39567025544E+03  0.52046812183E+03  0.80445751078E+02 0.  0.
      -24    2    3    3    0    0  0.22266058196E+03  0.24141843587E+03 -0.30125613007E+03  0.45255175377E+03  0.78658998224E+02 0.  0.
      -13    1    4    4    0    0 -0.18705846954E+03 -0.19026899608E+03  0.26683323754E+03  0.37735015377E+03  0.00000000000E+00 0.  1.
       14    1    4    4    0    0 -0.35602112417E+02 -0.51149439788E+02  0.12883701791E+03  0.14311796806E+03  0.00000000000E+00 0. -1.
        1    1    5    5  501    0  0.20240705725E+03  0.17732113239E+03 -0.22382640482E+03  0.35001380017E+03  0.00000000000E+00 0. -1.
       -2    1    5    5    0  501  0.20253524712E+02  0.64097303473E+02 -0.77429725248E+02  0.10253795360E+03  0.00000000000E+00 0.  1.
</event>
<event>
 9   1  0.7335000E-04  0.1004608E+04  0.7818608E-02  0.9303505E-01
       -2   -1    0    0    0  501 -0.00000000000E+00  0.00000000000E+00  0.62694864064E+03  0.62694864064E+03  0.00000000000E+00 0. -1.
        2   -1    0    0  501    0  0.00000000000E+00 -0.00000000000E+00 -0.40244028457E+03  0.40244028457E+03  0.00000000000E+00 0.  1.
       39    2    1    2    0    0  0.00000000000E+00 -0.56843418861E-13  0.22450835607E+03  0.10293889252E+04  0.10046081611E+04 0.  0.
       24    2    3    3    0    0 -0.17742912579E+02 -0.30521422308E+03  0.51183682446E+03  0.60195551360E+03  0.83084129437E+02 0.  0.
      -24    2    3    3    0    0  0.17742912579E+02  0.30521422308E+03 -0.28732846839E+03  0.42743341161E+03  0.81677045099E+02 0.  0.
      -13    1    4    4    0    0  0.22273456546E+02 -0.66259549370E+02  0.75683851548E+02  0.10302659916E+03  0.00000000000E+00 0.  1.
       14    1    4    4    0    0 -0.40016369125E+02 -0.23895467371E+03  0.43615297292E+03  0.49892891445E+03  0.00000000000E+00 0. -1.
        3    1    5    5  502    0 -0.20775833219E+02  0.79509603098E+02 -0.43631399760E+02  0.93043598790E+02  0.00000000000E+00 0. -1.
       -4    1    5    5    0  502  0.38518745798E+02  0.22570461998E+03 -0.24369706863E+03  0.33438981282E+03  0.14200000000E+01 0.  1.
</event>
<event>
 9   1  0.7335000E-04  0.9826759E+03  0.7818608E-02  0.9327752E-01
       21   -1    0    0  503  502  0.00000000000E+00  0.00000000000E+00  0.49554996065E+03  0.49554996065E+03  0.00000000000E+00 0. -1.
       21   -1    0    0  502  503 -0.00000000000E+00 -0.00000000000E+00 -0.48716172204E+03  0.48716172204E+03  0.00000000000E+00 0.  1.
       39    2    1    2    0    0  0.00000000000E+00  0.00000000000E+00  0.83882386128E+01  0.98271168269E+03  0.98267588184E+03 0.  0.
       24    2    3    3    0    0  0.24519401827E+03 -0.39211894150E+03  0.14919591782E+03  0.49271829885E+03  0.81452619637E+02 0.  0.
      -24    2    3    3    0    0 -0.24519401827E+03  0.39211894150E+03 -0.14080767920E+03  0.48999338384E+03  0.79933364814E+02 0.  0.
      -13    1    4    4    0    0  0.61483193498E+02 -0.15192480682E+03  0.24902813532E+02  0.16577539061E+03  0.00000000000E+00 0.  1.
       14    1    4    4    0    0  0.18371082478E+03 -0.24019413468E+03  0.12429310428E+03  0.32694290824E+03  0.00000000000E+00 0. -1.
        3    1    5    5  501    0 -0.13135496735E+03  0.23103922128E+03 -0.40947828749E+02  0.26890513922E+03  0.00000000000E+00 0. -1.
       -4    1    5    5    0  501 -0.11383905092E+03  0.16107972022E+03 -0.99859850453E+02  0.22108824463E+03  0.14200000000E+01 0.  1.
</event>
<event>
 9   1  0.7335000E-04  0.9994135E+03  0.7818608E-02  0.9309188E-01
       21   -1    0    0  503  502  0.00000000000E+00  0.00000000000E+00  0.59021861585E+03  0.59021861585E+03  0.00000000000E+00 0. -1.
       21   -1    0    0  502  503 -0.00000000000E+00 -0.00000000000E+00 -0.42307513612E+03  0.42307513612E+03  0.00000000000E+00 0.  1.
       39    2    1    2    0    0  0.00000000000E+00  0.00000000000E+00  0.16714347972E+03  0.10132937520E+04  0.99941347047E+03 0.  0.
       24    2    3    3    0    0  0.26271950931E+03  0.10382925661E+03 -0.32630438787E+03  0.43908843745E+03  0.80759193026E+02 0.  0.
      -24    2    3    3    0    0 -0.26271950931E+03 -0.10382925661E+03  0.49344786760E+03  0.57420531452E+03  0.80117976043E+02 0.  0.
      -13    1    4    4    0    0  0.26740174976E+03  0.10211841648E+03 -0.30954800622E+03  0.42160625578E+03  0.00000000000E+00 0.  1.
       14    1    4    4    0    0 -0.46822404582E+01  0.17108401322E+01 -0.16756381657E+02  0.17482181669E+02  0.00000000000E+00 0. -1.
        1    1    5    5  501    0 -0.23691547423E+03 -0.99795981999E+02  0.48074157860E+03  0.54516111870E+03  0.00000000000E+00 0. -1.
       -2    1    5    5    0  501 -0.25804035079E+02 -0.40332746113E+01  0.12706289000E+02  0.29044195816E+02  0.00000000000E+00 0.  1.
</event>
<event>
 9   1  0.7335000E-04  0.1005269E+04  0.7818608E-02  0.9302784E-01
       21   -1    0    0  503  502  0.00000000000E+00  0.00000000000E+00  0.43364644204E+03  0.43364644204E+03  0.00000000000E+00 0.  1.
       21   -1    0    0  502  503 -0.00000000000E+00 -0.00000000000E+00 -0.58259823733E+03  0.58259823733E+03  0.00000000000E+00 0. -1.
       39    2    1    2    0    0  0.56843418861E-13  0.71054273576E-14 -0.14895179529E+03  0.10162446794E+04  0.10052694221E+04 0.  0.
       24    2    3    3    0    0  0.48942947565E+03  0.51577267112E+02 -0.13609807647E+03  0.51720605468E+03  0.82328551951E+02 0.  0.
      -24    2    3    3    0    0 -0.48942947565E+03 -0.51577267112E+02 -0.12853718823E+02  0.49903862468E+03  0.81687849282E+02 0.  0.
      -13    1    4    4    0    0  0.30964172441E+03  0.71656333122E+02 -0.94552095659E+02  0.33159120369E+03  0.00000000000E+00 0.  1.
       14    1    4    4    0    0  0.17978775124E+03 -0.20079066010E+02 -0.41545980806E+02  0.18561485099E+03  0.00000000000E+00 0. -1.
        3    1    5    5  501    0 -0.71703101668E+02  0.15020326579E+02 -0.20119619824E+02  0.75971995507E+02  0.00000000000E+00 0. -1.
       -4    1    5    5    0  501 -0.41772637398E+03 -0.66597593692E+02  0.72659010012E+01  0.42306662918E+03  0.14200000000E+01 0.  1.
</event>
<event>
 9   1  0.7335000E-04  0.9656947E+03  0.7818608E-02  0.9346992E-01
       21   -1    0    0  503  502  0.00000000000E+00  0.00000000000E+00  0.15093565422E+03  0.15093565422E+03  0.00000000000E+00 0. -1.
       21   -1    0    0  502  503 -0.00000000000E+00 -0.00000000000E+00 -0.15446422382E+04  0.15446422382E+04  0.00000000000E+00 0.  1.
       39    2    1    2    0    0  0.14210854715E-13  0.00000000000E+00 -0.13937065839E+04  0.16955778924E+04  0.96569474836E+03 0.  0.
       24    2    3    3    0    0  0.95976868352E+02 -0.16481644250E+03  0.69003680142E+02  0.21826919588E+03  0.80646853746E+02 0.  0.
      -24    2    3    3    0    0 -0.95976868352E+02  0.16481644250E+03 -0.14627102641E+04  0.14773086965E+04  0.80892825002E+02 0.  0.
      -13    1    4    4    0    0 -0.57175868139E+01 -0.46644129482E+02  0.35268774629E+02  0.58755868455E+02  0.00000000000E+00 0.  1.
       14    1    4    4    0    0  0.10169445517E+03 -0.11817231302E+03  0.33734905513E+02  0.15951332742E+03  0.00000000000E+00 0. -1.
        3    1    5    5  501    0  0.38342171385E+01 -0.24982989484E+01 -0.16418604284E+03  0.16424980786E+03  0.00000000000E+00 0. -1.
       -4    1    5    5    0  501 -0.99811085491E+02  0.16731474145E+03 -0.12985242213E+04  0.13130588887E+04  0.14200000000E+01 0.  1.
</event>
<event>
 9   1  0.7335000E-04  0.1021574E+04  0.7818608E-02  0.9285194E-01
       21   -1    0    0  503  502  0.00000000000E+00  0.00000000000E+00  0.11029610307E+03  0.11029610307E+03  0.00000000000E+00 0.  1.
       21   -1    0    0  502  503 -0.00000000000E+00 -0.00000000000E+00 -0.23654809913E+04  0.23654809913E+04  0.00000000000E+00 0. -1.
       39    2    1    2    0    0  0.56843418861E-13  0.00000000000E+00 -0.22551848883E+04  0.24757770944E+04  0.10215739527E+04 0.  0.
       24    2    3    3    0    0  0.48131172027E+03 -0.11980644747E+03 -0.90479816905E+03  0.10348939195E+04  0.79568466796E+02 0.  0.
      -24    2    3    3    0    0 -0.48131172027E+03  0.11980644747E+03 -0.13503867192E+04  0.14408831749E+04  0.81150942517E+02 0.  0.
      -13    1    4    4    0    0  0.38403631594E+03 -0.12529421976E+03 -0.70270991442E+03  0.81054534561E+03  0.00000000000E+00 0.  1.
       14    1    4    4    0    0  0.97275404325E+02  0.54877722870E+01 -0.20208825463E+03  0.22434857386E+03  0.00000000000E+00 0. -1.
        3    1    5    5  501    0 -0.25990522975E+03  0.74328302240E+02 -0.84664723501E+03  0.88875585259E+03  0.00000000000E+00 0. -1.
       -4    1    5    5    0  501 -0.22140649052E+03  0.45478145229E+02 -0.50373948421E+03  0.55212732235E+03  0.14200000000E+01 0.  1.
</event>
<event>
 9   1  0.7335000E-04  0.1011435E+04  0.7818608E-02  0.9296091E-01
       21   -1    0    0  503  502  0.00000000000E+00  0.00000000000E+00  0.20393392647E+03  0.20393392647E+03  0.00000000000E+00 0. -1.
       21   -1    0    0  502  503 -0.00000000000E+00 -0.00000000000E+00 -0.12540846453E+04  0.12540846453E+04  0.00000000000E+00 0.  1.
       39    2    1    2    0    0  0.56843418861E-13  0.28421709430E-13 -0.10501507188E+04  0.14580185717E+04  0.10114354272E+04 0.  0.
       24    2    3    3    0    0  0.17242662449E+03  0.24011514021E+03 -0.11053150639E+04  0.11470251750E+04  0.80988518410E+02 0.  0.
      -24    2    3    3    0    0 -0.17242662449E+03 -0.24011514021E+03  0.55164345135E+02  0.31099339675E+03  0.79294176712E+02 0.  0.
      -13    1    4    4    0    0  0.15807209495E+03  0.24340945663E+03 -0.10721172103E+04  0.11107071006E+04  0.00000000000E+00 0.  1.
       14    1    4    4    0    0  0.14354529539E+02 -0.32943164227E+01 -0.33197853615E+02  0.36318074338E+02  0.00000000000E+00 0. -1.
        3    1    5    5  501    0 -0.15703525831E+03 -0.19070877546E+03  0.18853544608E+02  0.24776070216E+03  0.00000000000E+00 0. -1.
       -4    1    5    5    0  501 -0.15391366171E+02 -0.49406364747E+02  0.36310800527E+02  0.63232694590E+02  0.14200000000E+01 0.  1.
</event>
<event>
 9   1  0.7335000E-04  0.1002482E+04  0.7818608E-02  0.9305827E-01
       21   -1    0    0  503  502  0.00000000000E+00  0.00000000000E+00  0.10894202534E+04  0.10894202534E+04  0.00000000000E+00 0.  1.
       21   -1    0    0  502  503 -0.00000000000E+00 -0.00000000000E+00 -0.23062048506E+03  0.23062048506E+03  0.00000000000E+00 0. -1.
       39    2    1    2    0    0 -0.11368683772E-12  0.00000000000E+00  0.85879976831E+03  0.13200407384E+04  0.10024821739E+04 0.  0.
       24    2    3    3    0    0  0.42152020940E+03 -0.12242615076E+03  0.73308277398E+03  0.85674583286E+03  0.62734514397E+02 0.  0.
      -24    2    3    3    0    0 -0.42152020940E+03  0.12242615076E+03  0.12571699433E+03  0.46329490558E+03  0.78549077356E+02 0.  0.
      -13    1    4    4    0    0  0.28504278734E+03 -0.62314719291E+02  0.44082461317E+03  0.52863868042E+03  0.00000000000E+00 0.  1.
       14    1    4    4    0    0  0.13647742205E+03 -0.60111431470E+02  0.29225816081E+03  0.32810715244E+03  0.00000000000E+00 0. -1.
        1    1    5    5  501    0 -0.15174959163E+03  0.66075616918E+02  0.14633659718E+02  0.16615676245E+03  0.00000000000E+00 0. -1.
       -2    1    5    5    0  501 -0.26977061777E+03  0.56350533842E+02  0.11108333461E+03  0.29713814313E+03  0.00000000000E+00 0.  1.
</event>
<event>
 9   1  0.7335000E-04  0.1025286E+04  0.7818608E-02  0.9281238E-01
       21   -1    0    0  503  502  0.00000000000E+00  0.00000000000E+00  0.12758796438E+03  0.12758796438E+03  0.00000000000E+00 0. -1.
       21   -1    0    0  502  503 -0.00000000000E+00 -0.00000000000E+00 -0.20597787142E+04  0.20597787142E+04  0.00000000000E+00 0.  1.
       39    2    1    2    0    0  0.00000000000E+00  0.00000000000E+00 -0.19321907498E+04  0.21873666786E+04  0.10252862492E+04 0.  0.
       24    2    3    3    0    0  0.39250393078E+03  0.18909006223E+03 -0.41650104791E+03  0.60828419279E+03  0.81988712559E+02 0.  0.
      -24    2    3    3    0    0 -0.39250393078E+03 -0.18909006223E+03 -0.15156897019E+04  0.15790824858E+04  0.79823787971E+02 0.  0.
      -13    1    4    4    0    0  0.13717812503E+03  0.10977466240E+03 -0.17558158303E+03  0.24838922439E+03  0.00000000000E+00 0.  1.
       14    1    4    4    0    0  0.25532580574E+03  0.79315399836E+02 -0.24091946488E+03  0.35989496841E+03  0.00000000000E+00 0. -1.
        3    1    5    5  501    0 -0.51256305746E+01 -0.17396748209E+00 -0.78317395894E+02  0.78485137785E+02  0.00000000000E+00 0. -1.
       -4    1    5    5    0  501 -0.38737830020E+03 -0.18891609475E+03 -0.14373723060E+04  0.15005973480E+04  0.14200000000E+01 0.  1.
</event>
<event>
 9   1  0.7335000E-04  0.9889768E+03  0.7818608E-02  0.9320718E-01
       21   -1    0    0  503  502  0.00000000000E+00  0.00000000000E+00  0.17334679577E+03  0.17334679577E+03  0.00000000000E+00 0.  1.
       21   -1    0    0  502  503 -0.00000000000E+00 -0.00000000000E+00 -0.14105756176E+04  0.14105756176E+04  0.00000000000E+00 0. -1.
       39    2    1    2    0    0  0.00000000000E+00  0.00000000000E+00 -0.12372288219E+04  0.15839224134E+04  0.98897677123E+03 0.  0.
       24    2    3    3    0    0 -0.45034564172E+03  0.79013714564E+02 -0.34596045031E+03  0.57902844043E+03  0.80814216256E+02 0.  0.
      -24    2    3    3    0    0  0.45034564172E+03 -0.79013714564E+02 -0.89126837157E+03  0.10048939730E+04  0.79988890952E+02 0.  0.
      -13    1    4    4    0    0 -0.33315081323E+03  0.72360785310E+02 -0.21448680011E+03  0.40277802203E+03  0.00000000000E+00 0.  1.
       14    1    4    4    0    0 -0.11719482849E+03  0.66529292543E+01 -0.13147365019E+03  0.17625041840E+03  0.00000000000E+00 0. -1.
        1    1    5    5  501    0  0.42884054452E+03 -0.59526432221E+02 -0.85564853534E+03  0.95894839527E+03  0.00000000000E+00 0. -1.
       -2    1    5    5    0  501  0.21505097198E+02 -0.19487282343E+02 -0.35619836224E+02  0.45945577711E+02  0.00000000000E+00 0.  1.
</event>
<event>
 9   1  0.7335000E-04  0.1003963E+04  0.7818608E-02  0.9304209E-01
       21   -1    0    0  503  502  0.00000000000E+00  0.00000000000E+00  0.48416723061E+03  0.48416723061E+03  0.00000000000E+00 0.  1.
       21   -1    0    0  502  503 -0.00000000000E+00 -0.00000000000E+00 -0.52045118713E+03  0.52045118713E+03  0.00000000000E+00 0. -1.
       39    2    1    2    0    0 -0.56843418861E-13  0.35527136788E-14 -0.36283956525E+02  0.10046184177E+04  0.10039629673E+04 0.  0.
       24    2    3    3    0    0  0.23318321462E+03  0.21964221376E+02  0.41892392134E+03  0.48692515469E+03  0.82109778966E+02 0.  0.
      -24    2    3    3    0    0 -0.23318321462E+03 -0.21964221376E+02 -0.45520787786E+03  0.51769326305E+03  0.77040664179E+02 0.  0.
      -13    1    4    4    0    0  0.19514140943E+03  0.43993841377E+02  0.30431606242E+03  0.36417563565E+03  0.00000000000E+00 0.  1.
       14    1    4    4    0    0  0.38041805188E+02 -0.22029620000E+02  0.11460785892E+03  0.12274951904E+03  0.00000000000E+00 0. -1.
        1    1    5    5  501    0 -0.23912305767E+03 -0.20413092658E+02 -0.43826754215E+03  0.49967486385E+03  0.00000000000E+00 0. -1.
       -2    1    5    5    0  501  0.59398430461E+01 -0.15511287178E+01 -0.16940335712E+02  0.18018399200E+02  0.00000000000E+00 0.  1.
</event>
<event>
 9   1  0.7335000E-04  0.9987491E+03  0.7818608E-02  0.9309918E-01
       21   -1    0    0  503  502  0.00000000000E+00  0.00000000000E+00  0.43623051261E+03  0.43623051261E+03  0.00000000000E+00 0.  1.
       21   -1    0    0  502  503 -0.00000000000E+00 -0.00000000000E+00 -0.57165866116E+03  0.57165866116E+03  0.00000000000E+00 0. -1.
       39    2    1    2    0    0  0.00000000000E+00 -0.28421709430E-13 -0.13542814854E+03  0.10078891738E+04  0.99874911924E+03 0.  0.
       24    2    3    3    0    0  0.37506606733E+03 -0.20701620108E+03  0.17756680551E+03  0.47107199010E+03  0.82756190486E+02 0.  0.
      -24    2    3    3    0    0 -0.37506606733E+03  0.20701620108E+03 -0.31299495405E+03  0.53681718368E+03  0.81710373017E+02 0.  0.
      -13    1    4    4    0    0  0.37593294798E+03 -0.19748485434E+03  0.17996017145E+03  0.46120658319E+03  0.00000000000E+00 0.  1.
       14    1    4    4    0    0 -0.86688065605E+00 -0.95313467466E+01 -0.23933659397E+01  0.98654069048E+01  0.00000000000E+00 0. -1.
        1    1    5    5  501    0 -0.13918018952E+03  0.99481522240E+02 -0.16804040927E+03  0.23980258041E+03  0.00000000000E+00 0. -1.
       -2    1    5    5    0  501 -0.23588587781E+03  0.10753467884E+03 -0.14495454478E+03  0.29701460327E+03  0.00000000000E+00 0.  1.
</event>
<event>
 9   1  0.7335000E-04  0.9944567E+03  0.7818608E-02  0.9314646E-01
       21   -1    0    0  503  502  0.00000000000E+00  0.00000000000E+00  0.35916569172E+03  0.35916569172E+03  0.00000000000E+00 0.  1.
       21   -1    0    0  502  503 -0.00000000000E+00 -0.00000000000E+00 -0.68836201370E+03  0.68836201370E+03  0.00000000000E+00 0. -1.
       39    2    1    2    0    0 -0.35527136788E-14  0.00000000000E+00 -0.32919632197E+03  0.10475277054E+04  0.99445667337E+03 0.  0.
       24    2    3    3    0    0  0.18310775581E+02 -0.67657049519E+02 -0.67633436955E+03  0.68471912620E+03  0.80618493531E+02 0.  0.
      -24    2    3    3    0    0 -0.18310775581E+02  0.67657049519E+02  0.34713804757E+03  0.36280857922E+03  0.78819288443E+02 0.  0.
      -13    1    4    4    0    0 -0.20306186552E+02 -0.10305729117E+02 -0.36906690490E+03  0.36976875146E+03  0.00000000000E+00 0.  1.
       14    1    4    4    0    0  0.38616962133E+02 -0.57351320402E+02 -0.30726746464E+03  0.31495037473E+03  0.00000000000E+00 0. -1.
        1    1    5    5  501    0 -0.20541590583E+02  0.31394312829E+02  0.45421190332E+02  0.58912174912E+02  0.00000000000E+00 0. -1.
       -2    1    5    5    0  501  0.22308150013E+01  0.36262736690E+02  0.30171685724E+03  0.30389640431E+03  0.00000000000E+00 0.  1.
</event>
<event>
 9   1  0.7335000E-04  0.9997713E+03  0.7818608E-02  0.9308796E-01
        2   -1    0    0  501    0  0.00000000000E+00  0.00000000000E+00  0.20867452658E+03  0.20867452658E+03  0.00000000000E+00 0. -1.
       -2   -1    0    0    0  501 -0.00000000000E+00 -0.00000000000E+00 -0.11974899903E+04  0.11974899903E+04  0.00000000000E+00 0.  1.
       39    2    1    2    0    0 -0.56843418861E-13  0.00000000000E+00 -0.98881546372E+03  0.14061645169E+04  0.99977128746E+03 0.  0.
       24    2    3    3    0    0 -0.37288482221E+03 -0.13723083856E+03 -0.81937730527E+02  0.41367890899E+03  0.80876785129E+02 0.  0.
      -24    2    3    3    0    0  0.37288482221E+03  0.13723083856E+03 -0.90687773319E+03  0.99248560788E+03  0.68739109767E+02 0.  0.
      -13    1    4    4    0    0 -0.21557061004E+03 -0.48472866439E+02 -0.73494789592E+02  0.23285572957E+03  0.00000000000E+00 0.  1.
       14    1    4    4    0    0 -0.15731421216E+03 -0.88757972124E+02 -0.84429409355E+01  0.18082317942E+03  0.00000000000E+00 0. -1.
        3    1    5    5  502    0  0.90484562228E+02  0.19578112709E+02 -0.28062842146E+03  0.29550477057E+03  0.00000000000E+00 0. -1.
       -4    1    5    5    0  502  0.28240025998E+03  0.11765272585E+03 -0.62624931173E+03  0.69698083731E+03  0.14200000000E+01 0.  1.
</event>
<event>
 9   1  0.7335000E-04  0.9996030E+03  0.7818608E-02  0.9308980E-01
       21   -1    0    0  503  502  0.00000000000E+00  0.00000000000E+00  0.13765088336E+04  0.13765088336E+04  0.00000000000E+00 0. -1.
       21   -1    0    0  502  503 -0.00000000000E+00 -0.00000000000E+00 -0.18147471831E+03  0.18147471831E+03  0.00000000000E+00 0.  1.
       39    2    1    2    0    0 -0.28421709430E-13  0.00000000000E+00  0.11950341153E+04  0.15579835519E+04  0.99960302686E+03 0.  0.
       24    2    3    3    0    0 -0.14876969026E+03  0.17171003308E+03 -0.85246760428E+02  0.25540957827E+03  0.79688683680E+02 0.  0.
      -24    2    3    3    0    0  0.14876969026E+03 -0.17171003308E+03  0.12802808757E+04  0.13025739736E+04  0.77220980939E+02 0.  0.
      -13    1    4    4    0    0 -0.11831265714E+03  0.16702920444E+03 -0.54364430112E+02  0.21178321756E+03  0.00000000000E+00 0.  1.
       14    1    4    4    0    0 -0.30457033119E+02  0.46808286352E+01 -0.30882330316E+02  0.43626360711E+02  0.00000000000E+00 0. -1.
        1    1    5    5  501    0  0.13170676989E+03 -0.12373991412E+03  0.11174544199E+04  0.11319728884E+04  0.00000000000E+00 0. -1.
       -2    1    5    5    0  501  0.17062920368E+02 -0.47970118954E+02  0.16282645581E+03  0.17060108521E+03  0.00000000000E+00 0.  1.
</event>
<event>
 9   1  0.7335000E-04  0.9971825E+03  0.7818608E-02  0.9311640E-01
       21   -1    0    0  503  502  0.00000000000E+00  0.00000000000E+00  0.77706581536E+03  0.77706581536E+03  0.00000000000E+00 0.  1.
       21   -1    0    0  502  503 -0.00000000000E+00 -0.00000000000E+00 -0.31991271798E+03  0.31991271798E+03  0.00000000000E+00 0. -1.
       39    2    1    2    0    0  0.14210854715E-13  0.28421709430E-13  0.45715309738E+03  0.10969785333E+04  0.99718250493E+03 0.  0.
       24    2    3    3    0    0  0.12487800864E+03 -0.20060822268E+03  0.70310879528E+03  0.74608617416E+03  0.80277177522E+02 0.  0.
      -24    2    3    3    0    0 -0.12487800864E+03  0.20060822268E+03 -0.24595569790E+03  0.35089235917E+03  0.82420060335E+02 0.  0.
      -13    1    4    4    0    0  0.12779361353E+03 -0.14275018965E+03  0.53432388535E+03  0.56763618521E+03  0.00000000000E+00 0.  1.
       14    1    4    4    0    0 -0.29156048895E+01 -0.57858033029E+02  0.16878490993E+03  0.17844998896E+03  0.00000000000E+00 0. -1.
        1    1    5    5  501    0 -0.11107651641E+03  0.20011180404E+03 -0.20354441609E+03  0.30628917046E+03  0.00000000000E+00 0. -1.
       -2    1    5    5    0  501 -0.13801492225E+02  0.49641863950E+00 -0.42411281804E+02  0.44603188713E+02  0.00000000000E+00 0.  1.
</event>
<event>
 9   1  0.7335000E-04  0.9268908E+03  0.7818608E-02  0.9392577E-01
       21   -1    0    0  503  502  0.00000000000E+00  0.00000000000E+00  0.92654504537E+03  0.92654504537E+03  0.00000000000E+00 0. -1.
       21   -1    0    0  502  503 -0.00000000000E+00 -0.00000000000E+00 -0.23180918509E+03  0.23180918509E+03  0.00000000000E+00 0.  1.
       39    2    1    2    0    0  0.00000000000E+00 -0.28421709430E-13  0.69473586029E+03  0.11583542305E+04  0.92689082834E+03 0.  0.
       24    2    3    3    0    0 -0.21868533936E+03 -0.20655088716E+03 -0.81210152795E+02  0.32213902977E+03  0.81804149959E+02 0.  0.
      -24    2    3    3    0    0  0.21868533936E+03  0.20655088716E+03  0.77594601308E+03  0.83621520069E+03  0.81713524019E+02 0.  0.
      -13    1    4    4    0    0 -0.38318955216E+02 -0.49928014484E+02 -0.51691038723E+02  0.81443922078E+02  0.00000000000E+00 0.  1.
       14    1    4    4    0    0 -0.18036638414E+03 -0.15662287267E+03 -0.29519114072E+02  0.24069510769E+03  0.00000000000E+00 0. -1.
        3    1    5    5  501    0  0.42934741588E+02  0.26788174152E+02  0.22497529037E+03  0.23059679006E+03  0.00000000000E+00 0. -1.
       -4    1    5    5    0  501  0.17575059777E+03  0.17976271301E+03  0.55097072271E+03  0.60561841063E+03  0.14200000000E+01 0.  1.
</event>
<event>
 9   1  0.7335000E-04  0.9934442E+03  0.7818608E-02  0.9315764E-01
       21   -1    0    0  503  502  0.00000000000E+00  0.00000000000E+00  0.25640610189E+04  0.25640610189E+04  0.00000000000E+00 0.  1.
       21   -1    0    0  502  503 -0.00000000000E+00 -0.00000000000E+00 -0.96227366600E+02  0.96227366600E+02  0.00000000000E+00 0. -1.
       39    2    1    2    0    0 -0.56843418861E-13  0.00000000000E+00  0.24678336523E+04  0.26602883855E+04  0.99344418997E+03 0.  0.
       24    2    3    3    0    0 -0.29047304845E+03  0.26184267814E+02  0.22884332929E+04  0.23083435490E+04  0.80391519991E+02 0.  0.
      -24    2    3    3    0    0  0.29047304845E+03 -0.26184267814E+02  0.17940035938E+03  0.35194483646E+03  0.81366278105E+02 0.  0.
      -13    1    4    4    0    0 -0.94207125294E+01  0.43832845407E+01  0.28342867713E+03  0.28361907205E+03  0.00000000000E+00 0.  1.
       14    1    4    4    0    0 -0.28105233592E+03  0.21800983273E+02  0.20050046158E+04  0.20247244770E+04  0.00000000000E+00 0. -1.
        1    1    5    5  501    0  0.24490867532E+03 -0.47024578357E+02  0.12858024781E+03  0.28057877743E+03  0.00000000000E+00 0. -1.
       -2    1    5    5    0  501  0.45564373122E+02  0.20840310543E+02  0.50820111571E+02  0.71366059031E+02  0.00000000000E+00 0.  1.
</event>
<event>
 9   1  0.7335000E-04  0.1000427E+04  0.7818608E-02  0.9308077E-01
        2   -1    0    0  501    0  0.00000000000E+00  0.00000000000E+00  0.48043993544E+03  0.48043993544E+03  0.00000000000E+00 0.  1.
       -2   -1    0    0    0  501 -0.00000000000E+00 -0.00000000000E+00 -0.52080038264E+03  0.52080038264E+03  0.00000000000E+00 0. -1.
       39    2    1    2    0    0 -0.56843418861E-13  0.00000000000E+00 -0.40360447197E+02  0.10012403181E+04  0.10004265135E+04 0.  0.
       24    2    3    3    0    0 -0.28339048744E+03  0.20424717581E+03 -0.36837097884E+03  0.51293058978E+03  0.73304397395E+02 0.  0.
      -24    2    3    3    0    0  0.28339048744E+03 -0.20424717581E+03  0.32801053165E+03  0.48830972830E+03  0.93959590713E+02 0.  0.
      -13    1    4    4    0    0 -0.22691055811E+03  0.12639405000E+03 -0.25119483746E+03  0.36133461448E+03  0.00000000000E+00 0.  1.
       14    1    4    4    0    0 -0.56479929326E+02  0.77853125814E+02 -0.11717614138E+03  0.15159597529E+03  0.00000000000E+00 0. -1.
        1    1    5    5  502    0  0.72414376658E+02 -0.91167753261E+02  0.15062998187E+03  0.19038065191E+03  0.00000000000E+00 0. -1.
       -2    1    5    5    0  502  0.21097611078E+03 -0.11307942255E+03  0.17738054977E+03  0.29792907639E+03  0.00000000000E+00 0.  1.
</event>
<event>
 9   1  0.7335000E-04  0.9023896E+03  0.7818608E-02  0.9422599E-01
       21   -1    0    0  503  502  0.00000000000E+00  0.00000000000E+00  0.74367766115E+02  0.74367766115E+02  0.00000000000E+00 0. -1.
       21   -1    0    0  502  503 -0.00000000000E+00 -0.00000000000E+00 -0.27374323972E+04  0.27374323972E+04  0.00000000000E+00 0.  1.
       39    2    1    2    0    0  0.00000000000E+00  0.13322676296E-14 -0.26630646310E+04  0.28118001633E+04  0.90238956613E+03 0.  0.
       24    2    3    3    0    0  0.84716332228E+02  0.38088566762E+01  0.27754179739E+02  0.11845524286E+03  0.77910113160E+02 0.  0.
      -24    2    3    3    0    0 -0.84716332228E+02 -0.38088566762E+01 -0.26908188108E+04  0.26933449204E+04  0.80060124433E+02 0.  0.
      -13    1    4    4    0    0 -0.28342754881E+00  0.30437534871E+01 -0.20489179519E+02  0.20715965916E+02  0.00000000000E+00 0.  1.
       14    1    4    4    0    0  0.84999759777E+02  0.76510318907E+00  0.48243359258E+02  0.97739276944E+02  0.00000000000E+00 0. -1.
        3    1    5    5  501    0  0.84854044062E+01  0.11997479869E+02 -0.13885234128E+03  0.13962777049E+03  0.00000000000E+00 0. -1.
       -4    1    5    5    0  501 -0.93201736634E+02 -0.15806336546E+02 -0.25519664695E+04  0.25537171499E+04  0.14200000000E+01 0.  1.
</event>
<event>
 9   1  0.7335000E-04  0.9960831E+03  0.7818608E-02  0.9312851E-01
       21   -1    0    0  503  502  0.00000000000E+00  0.00000000000E+00  0.13388686769E+03  0.13388686769E+03  0.00000000000E+00 0. -1.
       21   -1    0    0  502  503 -0.00000000000E+00 -0.00000000000E+00 -0.18526490582E+04  0.18526490582E+04  0.00000000000E+00 0.  1.
       39    2    1    2    0    0  0.00000000000E+00 -0.28421709430E-13 -0.17187621905E+04  0.19865359259E+04  0.99608308756E+03 0.  0.
       24    2    3    3    0    0  0.22726280550E+03  0.23673597938E+03 -0.12918512772E+03  0.36143788993E+03  0.79096424431E+02 0.  0.
      -24    2    3    3    0    0 -0.22726280550E+03 -0.23673597938E+03 -0.15895770628E+04  0.16250980360E+04  0.80598270551E+02 0.  0.
      -13    1    4    4    0    0  0.15499792627E+03  0.14115081988E+03 -0.11929216256E+03  0.24120226191E+03  0.00000000000E+00 0.  1.
       14    1    4    4    0    0  0.72264879234E+02  0.95585159499E+02 -0.98929651581E+01  0.12023562803E+03  0.00000000000E+00 0. -1.
        3    1    5    5  501    0 -0.65137768045E+02 -0.22220450982E+02 -0.34709411780E+03  0.35385166932E+03  0.00000000000E+00 0. -1.
       -4    1    5    5    0  501 -0.16212503746E+03 -0.21451552840E+03 -0.12424829450E+04  0.12712463667E+04  0.14200000000E+01 0.  1.
</event>
<event>
 9   1  0.7335000E-04  0.9946739E+03  0.7818608E-02  0.9314406E-01
       21   -1    0    0  503  502  0.00000000000E+00  0.00000000000E+00  0.61299333244E+03  0.61299333244E+03  0.00000000000E+00 0. -1.
       21   -1    0    0  502  503 -0.00000000000E+00 -0.00000000000E+00 -0.40350200948E+03  0.40350200948E+03  0.00000000000E+00 0.  1.
       39    2    1    2    0    0  0.00000000000E+00  0.00000000000E+00  0.20949132296E+03  0.10164953419E+04  0.99467389920E+03 0.  0.
       24    2    3    3    0    0  0.28728583207E+03  0.30432413922E+03 -0.15171100617E+03  0.45340124207E+03  0.86082088144E+02 0.  0.
      -24    2    3    3    0    0 -0.28728583207E+03 -0.30432413922E+03  0.36120232912E+03  0.56309409985E+03  0.10705844993E+03 0.  0.
      -13    1    4    4    0    0  0.16026351607E+03  0.20900599402E+03 -0.60406550537E+02  0.27021630496E+03  0.00000000000E+00 0.  1.
       14    1    4    4    0    0  0.12702231600E+03  0.95318145205E+02 -0.91304455629E+02  0.18318493711E+03  0.00000000000E+00 0. -1.
        1    1    5    5  501    0 -0.25460669693E+03 -0.27641850212E+03  0.27147091531E+03  0.46360351196E+03  0.00000000000E+00 0. -1.
       -2    1    5    5    0  501 -0.32679135137E+02 -0.27905637103E+02  0.89731413808E+02  0.99490587893E+02  0.00000000000E+00 0.  1.
</event>
<event>
 9   1  0.7335000E-04  0.1007784E+04  0.7818608E-02  0.9300048E-01
       21   -1    0    0  503  502  0.00000000000E+00  0.00000000000E+00  0.72496903026E+03  0.72496903026E+03  0.00000000000E+00 0. -1.
       21   -1    0    0  502  503 -0.00000000000E+00 -0.00000000000E+00 -0.35023168597E+03  0.35023168597E+03  0.00000000000E+00 0.  1.
       39    2    1    2    0    0 -0.28421709430E-13  0.00000000000E+00  0.37473734429E+03  0.10752007162E+04  0.10077839565E+04 0.  0.
       24    2    3    3    0    0  0.24622753608E+03 -0.17398756545E+03 -0.23481021001E+03  0.39056173283E+03  0.80640932366E+02 0.  0.
      -24    2    3    3    0    0 -0.24622753608E+03  0.17398756545E+03  0.60954755430E+03  0.68463898339E+03  0.79263132457E+02 0.  0.
      -13    1    4    4    0    0  0.21304608138E+03 -0.14745141947E+03 -0.23232442828E+03  0.34800171533E+03  0.00000000000E+00 0.  1.
       14    1    4    4    0    0  0.33181454695E+02 -0.26536145981E+02 -0.24857817346E+01  0.42560017505E+02  0.00000000000E+00 0. -1.
        1    1    5    5  501    0 -0.24547343542E+03  0.15800763980E+03  0.59607655625E+03  0.66372500529E+03  0.00000000000E+00 0. -1.
       -2    1    5    5    0  501 -0.75410066164E+00  0.15979925651E+02  0.13470998051E+02  0.20913978103E+02  0.00000000000E+00 0.  1.
</event>
<event>
 9   1  0.7335000E-04  0.9964603E+03  0.7818608E-02  0.9312436E-01
       21   -1    0    0  503  502  0.00000000000E+00  0.00000000000E+00  0.31653222183E+03  0.31653222183E+03  0.00000000000E+00 0. -1.
       21   -1    0    0  502  503 -0.00000000000E+00 -0.00000000000E+00 -0.78422747356E+03  0.78422747356E+03  0.00000000000E+00 0.  1.
       39    2    1    2    0    0 -0.14210854715E-13  0.56843418861E-13 -0.46769525174E+03  0.11007596954E+04  0.99646026439E+03 0.  0.
       24    2    3    3    0    0  0.67235850432E+02 -0.21445345349E+03 -0.71704768208E+03  0.75562228048E+03  0.79351805798E+02 0.  0.
      -24    2    3    3    0    0 -0.67235850432E+02  0.21445345349E+03  0.24935243035E+03  0.34513741491E+03  0.80201355079E+02 0.  0.
      -13    1    4    4    0    0  0.70137340796E+02 -0.19485173723E+03 -0.69823712918E+03  0.72830044256E+03  0.00000000000E+00 0.  1.
       14    1    4    4    0    0 -0.29014903644E+01 -0.19601716260E+02 -0.18810552906E+02  0.27321837919E+02  0.00000000000E+00 0. -1.
        1    1    5    5  501    0 -0.72505539345E+02  0.21610494810E+03  0.25130266380E+03  0.33928075492E+03  0.00000000000E+00 0. -1.
       -2    1    5    5    0  501  0.52696889135E+01 -0.16514946133E+01 -0.19502334520E+01  0.58566599885E+01  0.00000000000E+00 0.  1.
</event>
<event>
 9   1  0.7335000E-04  0.1003473E+04  0.7818608E-02  0.9304743E-01
        2   -1    0    0  501    0  0.00000000000E+00  0.00000000000E+00  0.20696664910E+04  0.20696664910E+04  0.00000000000E+00 0. -1.
       -2   -1    0    0    0  501 -0.00000000000E+00 -0.00000000000E+00 -0.12163298691E+03  0.12163298691E+03  0.00000000000E+00 0.  1.
       39    2    1    2    0    0  0.14210854715E-13  0.00000000000E+00  0.19480335041E+04  0.21912994779E+04  0.10034734021E+04 0.  0.
       24    2    3    3    0    0 -0.77993089711E+02  0.47119746667E+03  0.68766131973E+03  0.84168025140E+03  0.86241407087E+02 0.  0.
      -24    2    3    3    0    0  0.77993089711E+02 -0.47119746667E+03  0.12603721843E+04  0.13496192265E+04  0.69455300851E+02 0.  0.
      -13    1    4    4    0    0 -0.82881007520E+02  0.38760836505E+03  0.51580169700E+03  0.65050818342E+03  0.00000000000E+00 0.  1.
       14    1    4    4    0    0  0.48879178089E+01  0.83589101621E+02  0.17185962273E+03  0.19117206798E+03  0.00000000000E+00 0. -1.
        1    1    5    5  502    0  0.62942098089E+02 -0.45815557263E+03  0.11989135029E+04  0.12850143283E+04  0.00000000000E+00 0. -1.
       -2    1    5    5    0  502  0.15050991621E+02 -0.13041894045E+02  0.61458681392E+02  0.64604898169E+02  0.00000000000E+00 0.  1.
</event>
<event>
 9   1  0.7335000E-04  0.1000585E+04  0.7818608E-02  0.9307904E-01
       21   -1    0    0  503  502  0.00000000000E+00  0.00000000000E+00  0.80551640754E+03  0.80551640754E+03  0.00000000000E+00 0.  1.
       21   -1    0    0  502  503 -0.00000000000E+00 -0.00000000000E+00 -0.31072295604E+03  0.31072295604E+03  0.00000000000E+00 0. -1.
       39    2    1    2    0    0  0.28421709430E-13  0.00000000000E+00  0.49479345150E+03  0.11162393636E+04  0.10005847076E+04 0.  0.
       24    2    3    3    0    0 -0.14636889875E+03  0.25358934941E+03  0.69159060474E+03  0.75500035849E+03  0.77437485112E+02 0.  0.
      -24    2    3    3    0    0  0.14636889875E+03 -0.25358934941E+03 -0.19679715324E+03  0.36123900510E+03  0.77672946569E+02 0.  0.
      -13    1    4    4    0    0 -0.11789316828E+03  0.22180237747E+03  0.51052670883E+03  0.56897505587E+03  0.00000000000E+00 0.  1.
       14    1    4    4    0    0 -0.28475730465E+02  0.31786971936E+02  0.18106389591E+03  0.18602530261E+03  0.00000000000E+00 0. -1.
        3    1    5    5  501    0  0.13418846320E+03 -0.23672380239E+03 -0.20299224974E+03  0.33948572242E+03  0.00000000000E+00 0. -1.
       -4    1    5    5    0  501  0.12180435550E+02 -0.16865547020E+02  0.61950965069E+01  0.21753282677E+02  0.14200000000E+01 0.  1.
</event>
<event>
 9   1  0.7335000E-04  0.9999153E+03  0.7818608E-02  0.9308638E-01
       21   -1    0    0  503  502  0.00000000000E+00  0.00000000000E+00  0.26156728519E+03  0.26156728519E+03  0.00000000000E+00 0. -1.
       21   -1    0    0  502  503 -0.00000000000E+00 -0.00000000000E+00 -0.95561509222E+03  0.95561509222E+03  0.00000000000E+00 0.  1.
       39    2    1    2    0    0  0.00000000000E+00 -0.14210854715E-13 -0.69404780702E+03  0.12171823774E+04  0.99991528713E+03 0.  0.
       24    2    3    3    0    0  0.38991005239E+03  0.41188953034E+02  0.20750177541E+02  0.39790828835E+03  0.64606944372E+02 0.  0.
      -24    2    3    3    0    0 -0.38991005239E+03 -0.41188953034E+02 -0.71479798457E+03  0.81927408906E+03  0.80916595644E+02 0.  0.
      -13    1    4    4    0    0  0.24138118139E+03  0.46365636558E+02 -0.10585147599E+02  0.24602173142E+03  0.00000000000E+00 0.  1.
       14    1    4    4    0    0  0.14852887101E+03 -0.51766835242E+01  0.31335325141E+02  0.15188655693E+03  0.00000000000E+00 0. -1.
        3    1    5    5  501    0 -0.96095025862E+02  0.86189026953E+01 -0.11982288109E+03  0.15383777921E+03  0.00000000000E+00 0. -1.
       -4    1    5    5    0  501 -0.29381502653E+03 -0.49807855729E+02 -0.59497510348E+03  0.66543630985E+03  0.14200000000E+01 0.  1.
</event>
<event>
 9   1  0.7335000E-04  0.9985171E+03  0.7818608E-02  0.9310173E-01
       21   -1    0    0  503  502  0.00000000000E+00  0.00000000000E+00  0.19615496779E+03  0.19615496779E+03  0.00000000000E+00 0. -1.
       21   -1    0    0  502  503 -0.00000000000E+00 -0.00000000000E+00 -0.12707254486E+04  0.12707254486E+04  0.00000000000E+00 0.  1.
       39    2    1    2    0    0 -0.28421709430E-13  0.71054273576E-14 -0.10745704808E+04  0.14668804164E+04  0.99851711941E+03 0.  0.
       24    2    3    3    0    0  0.21451219935E+03 -0.31391593757E+02 -0.11878811616E+04  0.12101525772E+04  0.80041802949E+02 0.  0.
      -24    2    3    3    0    0 -0.21451219935E+03  0.31391593757E+02  0.11331068080E+03  0.25672783918E+03  0.77903512088E+02 0.  0.
      -13    1    4    4    0    0  0.15579968761E+03 -0.36296275902E+02 -0.10144831821E+04  0.10270185437E+04  0.00000000000E+00 0.  1.
       14    1    4    4    0    0  0.58712511742E+02  0.49046821450E+01 -0.17339797949E+03  0.18313403352E+03  0.00000000000E+00 0. -1.
        3    1    5    5  501    0 -0.10528529963E+03  0.35575148528E+01  0.96294036835E+02  0.14272418071E+03  0.00000000000E+00 0. -1.
       -4    1    5    5    0  501 -0.10922689972E+03  0.27834078904E+02  0.17016643962E+02  0.11400365846E+03  0.14200000000E+01 0.  1.
</event>
<event>
 9   1  0.7335000E-04  0.9966816E+03  0.7818608E-02  0.9312192E-01
       21   -1    0    0  503  502  0.00000000000E+00  0.00000000000E+00  0.59172028015E+03  0.59172028015E+03  0.00000000000E+00 0. -1.
       21   -1    0    0  502  503 -0.00000000000E+00 -0.00000000000E+00 -0.41969758177E+03  0.41969758177E+03  0.00000000000E+00 0.  1.
       39    2    1    2    0    0  0.00000000000E+00  0.00000000000E+00  0.17202269838E+03  0.10114178619E+04  0.99668163555E+03 0.  0.
       24    2    3    3    0    0 -0.14454361890E+03  0.53026469798E+02 -0.38738530550E+03  0.42460139480E+03  0.80711246321E+02 0.  0.
      -24    2    3    3    0    0  0.14454361890E+03 -0.53026469798E+02  0.55940800389E+03  0.58681646712E+03  0.87815642129E+02 0.  0.
      -13    1    4    4    0    0 -0.13191378870E+03  0.44605176670E+02 -0.24823187935E+03  0.28462244353E+03  0.00000000000E+00 0.  1.
       14    1    4    4    0    0 -0.12629830200E+02  0.84212931279E+01 -0.13915342616E+03  0.13997895128E+03  0.00000000000E+00 0. -1.
        3    1    5    5  501    0  0.13618480831E+03 -0.14621311069E+02  0.45826155429E+03  0.47829252230E+03  0.00000000000E+00 0. -1.
       -4    1    5    5    0  501  0.83588105864E+01 -0.38405158729E+02  0.10114644960E+03  0.10852394482E+03  0.14200000000E+01 0.  1.
</event>
<event>
 9   1  0.7335000E-04  0.1001156E+04  0.7818608E-02  0.9307278E-01
       21   -1    0    0  503  502  0.00000000000E+00  0.00000000000E+00  0.34262321462E+03  0.34262321462E+03  0.00000000000E+00 0.  1.
       21   -1    0    0  502  503 -0.00000000000E+00 -0.00000000000E+00 -0.73135217538E+03  0.73135217538E+03  0.00000000000E+00 0. -1.
       39    2    1    2    0    0  0.00000000000E+00 -0.28421709430E-13 -0.38872896076E+03  0.10739753900E+04  0.10011557988E+04 0.  0.
       24    2    3    3    0    0 -0.29495770897E+03  0.15454107724E+03  0.19692602297E+03  0.39527083418E+03  0.81093644582E+02 0.  0.
      -24    2    3    3    0    0  0.29495770897E+03 -0.15454107724E+03 -0.58565498374E+03  0.67870455582E+03  0.82250346370E+02 0.  0.
      -13    1    4    4    0    0 -0.22492945582E+03  0.10596517545E+03  0.10495976631E+03  0.26988595934E+03  0.00000000000E+00 0.  1.
       14    1    4    4    0    0 -0.70028253153E+02  0.48575901787E+02  0.91966256664E+02  0.12538487484E+03  0.00000000000E+00 0. -1.
        3    1    5    5  501    0  0.24959032341E+03 -0.15501897342E+03 -0.46786212295E+03  0.55246825950E+03  0.00000000000E+00 0. -1.
       -4    1    5    5    0  501  0.45367385566E+02  0.47789617473E+00 -0.11779286078E+03  0.12623629632E+03  0.14200000000E+01 0.  1.
</event>
<event>
 9   1  0.7335000E-04  0.9967039E+03  0.7818608E-02  0.9312167E-01
       21   -1    0    0  503  502  0.00000000000E+00  0.00000000000E+00  0.44038903441E+03  0.44038903441E+03  0.00000000000E+00 0.  1.
       21   -1    0    0  502  503 -0.00000000000E+00 -0.00000000000E+00 -0.56394378449E+03  0.56394378449E+03  0.00000000000E+00 0. -1.
       39    2    1    2    0    0  0.00000000000E+00  0.00000000000E+00 -0.12355475009E+03  0.10043328189E+04  0.99670388524E+03 0.  0.
       24    2    3    3    0    0  0.96195159413E+02 -0.18922036583E+03  0.38524470343E+03  0.44738795627E+03  0.81759686623E+02 0.  0.
      -24    2    3    3    0    0 -0.96195159413E+02  0.18922036583E+03 -0.50879945351E+03  0.55694486263E+03  0.79074904878E+02 0.  0.
      -13    1    4    4    0    0  0.42217598807E+02 -0.74627969034E+02  0.23899170382E+03  0.25390686069E+03  0.00000000000E+00 0.  1.
       14    1    4    4    0    0  0.53977560606E+02 -0.11459239679E+03  0.14625299961E+03  0.19348109558E+03  0.00000000000E+00 0. -1.
        3    1    5    5  501    0 -0.26821459283E+02  0.13177630385E+03 -0.33967216578E+03  0.36532391810E+03  0.00000000000E+00 0. -1.
       -4    1    5    5    0  501 -0.69373700130E+02  0.57444061978E+02 -0.16912728773E+03  0.19162094453E+03  0.14200000000E+01 0.  1.
</event>
<event>
 9   1  0.7335000E-04  0.9988058E+03  0.7818608E-02  0.9309856E-01
       21   -1    0    0  503  502  0.00000000000E+00  0.00000000000E+00  0.52638830524E+03  0.52638830524E+03  0.00000000000E+00 0. -1.
       21   -1    0    0  502  503 -0.00000000000E+00 -0.00000000000E+00 -0.47380088810E+03  0.47380088810E+03  0.00000000000E+00 0.  1.
       39    2    1    2    0    0  0.00000000000E+00  0.35527136788E-14  0.52587417139E+02  0.10001891933E+04  0.99880577994E+03 0.  0.
       24    2    3    3    0    0  0.15267394209E+03  0.30485264622E+02 -0.44203921542E+03  0.47552186113E+03  0.80521354273E+02 0.  0.
      -24    2    3    3    0    0 -0.15267394209E+03 -0.30485264622E+02  0.49462663256E+03  0.52466733222E+03  0.79885041840E+02 0.  0.
      -13    1    4    4    0    0  0.12258866489E+03  0.28289287432E+01 -0.39300985137E+03  0.41169494395E+03  0.00000000000E+00 0.  1.
       14    1    4    4    0    0  0.30085277195E+02  0.27656335879E+02 -0.49029364048E+02  0.63826917184E+02  0.00000000000E+00 0. -1.
        3    1    5    5  501    0 -0.13153844472E+03 -0.35037971058E+02  0.47896366503E+03  0.49793193739E+03  0.00000000000E+00 0. -1.
       -4    1    5    5    0  501 -0.21135497367E+02  0.45527064352E+01  0.15662967531E+02  0.26735394830E+02  0.14200000000E+01 0.  1.
</event>
<event>
 9   1  0.7335000E-04  0.9912603E+03  0.7818608E-02  0.9318183E-01
       -2   -1    0    0    0  501 -0.00000000000E+00  0.00000000000E+00  0.11820587819E+04  0.11820587819E+04  0.00000000000E+00 0.  1.
        2   -1    0    0  501    0  0.00000000000E+00 -0.00000000000E+00 -0.20781473384E+03  0.20781473384E+03  0.00000000000E+00 0. -1.
       39    2    1    2    0    0  0.71054273576E-14  0.00000000000E+00  0.97424404807E+03  0.13898735158E+04  0.99126027087E+03 0.  0.
       24    2    3    3    0    0  0.40677261608E+02  0.44190832192E+03  0.77752493091E+03  0.89884744132E+03  0.80275151756E+02 0.  0.
      -24    2    3    3    0    0 -0.40677261608E+02 -0.44190832192E+03  0.19671911716E+03  0.49102607444E+03  0.73963437735E+02 0.  0.
      -13    1    4    4    0    0  0.26622899226E+02  0.28615540945E+03  0.57643784536E+03  0.64410735649E+03  0.00000000000E+00 0.  1.
       14    1    4    4    0    0  0.14054362382E+02  0.15575291247E+03  0.20108708554E+03  0.25474008483E+03  0.00000000000E+00 0. -1.
        1    1    5    5  502    0 -0.32845013238E+02 -0.38715027328E+03  0.19717521987E+03  0.43570884353E+03  0.00000000000E+00 0. -1.
       -2    1    5    5    0  502 -0.78322483704E+01 -0.54758048643E+02 -0.45610271073E+00  0.55317230909E+02  0.00000000000E+00 0.  1.
</event>
<event>
 9   1  0.7335000E-04  0.9969592E+03  0.7818608E-02  0.9311886E-01
       21   -1    0    0  503  502  0.00000000000E+00  0.00000000000E+00  0.81708663295E+03  0.81708663295E+03  0.00000000000E+00 0.  1.
       21   -1    0    0  502  503 -0.00000000000E+00 -0.00000000000E+00 -0.30410719326E+03  0.30410719326E+03  0.00000000000E+00 0. -1.
       39    2    1    2    0    0  0.00000000000E+00  0.00000000000E+00  0.51297943969E+03  0.11211938262E+04  0.99695922203E+03 0.  0.
       24    2    3    3    0    0 -0.16536321231E+03 -0.40643889250E+03  0.50673138341E+03  0.67514412070E+03  0.80655585441E+02 0.  0.
      -24    2    3    3    0    0  0.16536321231E+03  0.40643889250E+03  0.62480562855E+01  0.44604970552E+03  0.79898286986E+02 0.  0.
      -13    1    4    4    0    0 -0.71062866834E+02 -0.18283193313E+03  0.16686286203E+03  0.25752798206E+03  0.00000000000E+00 0.  1.
       14    1    4    4    0    0 -0.94300345474E+02 -0.22360695936E+03  0.33986852137E+03  0.41761613864E+03  0.00000000000E+00 0. -1.
        3    1    5    5  501    0  0.10378553348E+03  0.25080885792E+03  0.42641886054E+02  0.27476326285E+03  0.00000000000E+00 0. -1.
       -4    1    5    5    0  501  0.61577678831E+02  0.15563003458E+03 -0.36393829769E+02  0.17128644266E+03  0.14200000000E+01 0.  1.
</event>
<event>
 9   1  0.7335000E-04  0.9832685E+03  0.7818608E-02  0.9327088E-01
       21   -1    0    0  503  502  0.00000000000E+00  0.00000000000E+00  0.54021750503E+03  0.54021750503E+03  0.00000000000E+00 0.  1.
       21   -1    0    0  502  503 -0.00000000000E+00 -0.00000000000E+00 -0.44742018154E+03  0.44742018154E+03  0.00000000000E+00 0. -1.
       39    2    1    2    0    0 -0.56843418861E-13  0.56843418861E-13  0.92797323495E+02  0.98763768657E+03  0.98326845606E+03 0.  0.
       24    2    3    3    0    0 -0.22026117914E+03  0.26134175653E+03 -0.29881346098E+03  0.46161781976E+03  0.83588434077E+02 0.  0.
      -24    2    3    3    0    0  0.22026117914E+03 -0.26134175653E+03  0.39161078448E+03  0.52601986681E+03  0.80767524545E+02 0.  0.
      -13    1    4    4    0    0 -0.17251162811E+02  0.81652650235E+00 -0.34551740754E+02  0.38627608300E+02  0.00000000000E+00 0.  1.
       14    1    4    4    0    0 -0.20301001633E+03  0.26052523003E+03 -0.26426172023E+03  0.42299021146E+03  0.00000000000E+00 0. -1.
        3    1    5    5  501    0  0.92907378321E+02 -0.80810997534E+02  0.19300828542E+03  0.22894190641E+03  0.00000000000E+00 0. -1.
       -4    1    5    5    0  501  0.12735380082E+03 -0.18053075900E+03  0.19860249905E+03  0.29707796040E+03  0.14200000000E+01 0.  1.
</event>
<event>
 9   1  0.7335000E-04  0.1003079E+04  0.7818608E-02  0.9305175E-01
        2   -1    0    0  501    0  0.00000000000E+00  0.00000000000E+00  0.10215035300E+04  0.10215035300E+04  0.00000000000E+00 0.  1.
       -2   -1    0    0    0  501 -0.00000000000E+00 -0.00000000000E+00 -0.24624648274E+03  0.24624648274E+03  0.00000000000E+00 0. -1.
       39    2    1    2    0    0  0.00000000000E+00  0.00000000000E+00  0.77525704722E+03  0.12677500127E+04  0.10030785639E+04 0.  0.
       24    2    3    3    0    0  0.93835825412E+02  0.47454572158E+03  0.25973662994E+03  0.55501366931E+03  0.81106425080E+02 0.  0.
      -24    2    3    3    0    0 -0.93835825412E+02 -0.47454572158E+03  0.51552041728E+03  0.71273634338E+03  0.90735828337E+02 0.  0.
      -13    1    4    4    0    0 -0.11914161415E+02  0.11738340946E+03  0.60883518929E+02  0.13276902853E+03  0.00000000000E+00 0.  1.
       14    1    4    4    0    0  0.10574998683E+03  0.35716231211E+03  0.19885311101E+03  0.42224464078E+03  0.00000000000E+00 0. -1.
        1    1    5    5  502    0 -0.75158385578E+02 -0.19156083269E+03  0.25466538975E+03  0.32741227265E+03  0.00000000000E+00 0. -1.
       -2    1    5    5    0  502 -0.18677439834E+02 -0.28298488889E+03  0.26085502752E+03  0.38532407073E+03  0.00000000000E+00 0.  1.
</event>
<event>
 9   1  0.7335000E-04  0.9967518E+03  0.7818608E-02  0.9312115E-01
       -1   -1    0    0    0  501 -0.00000000000E+00  0.00000000000E+00  0.50241131691E+03  0.50241131691E+03  0.00000000000E+00 0. -1.
        1   -1    0    0  501    0  0.00000000000E+00 -0.00000000000E+00 -0.49437289520E+03  0.49437289520E+03  0.00000000000E+00 0.  1.
       39    2    1    2    0    0 -0.56843418861E-13  0.28421709430E-13  0.80384217127E+01  0.99678421211E+03  0.99675179924E+03 0.  0.
       24    2    3    3    0    0  0.46063494829E+03 -0.16724443804E+03  0.43631814630E+02  0.49864777805E+03  0.81182594559E+02 0.  0.
      -24    2    3    3    0    0 -0.46063494829E+03  0.16724443804E+03 -0.35593392917E+02  0.49813643406E+03  0.81961940419E+02 0.  0.
      -13    1    4    4    0    0  0.49598741689E+02  0.41118527641E+00 -0.12629925798E+02  0.51183193298E+02  0.00000000000E+00 0.  1.
       14    1    4    4    0    0  0.41103620660E+03 -0.16765562332E+03  0.56261740428E+02  0.44746458475E+03  0.00000000000E+00 0. -1.
        1    1    5    5  502    0 -0.23000309944E+02  0.24396574404E+02 -0.16533320978E+02  0.37383924389E+02  0.00000000000E+00 0. -1.
       -2    1    5    5    0  502 -0.43763463835E+03  0.14284786364E+03 -0.19060071939E+02  0.46075250967E+03  0.00000000000E+00 0.  1.
</event>
<event>
 9   1  0.7335000E-04  0.9939225E+03  0.7818608E-02  0.9315236E-01
       21   -1    0    0  503  502  0.00000000000E+00  0.00000000000E+00  0.25390490544E+04  0.25390490544E+04  0.00000000000E+00 0. -1.
       21   -1    0    0  502  503 -0.00000000000E+00 -0.00000000000E+00 -0.97268891298E+02  0.97268891298E+02  0.00000000000E+00 0.  1.
       39    2    1    2    0    0 -0.11368683772E-12  0.00000000000E+00  0.24417801631E+04  0.26363179457E+04  0.99392250498E+03 0.  0.
       24    2    3    3    0    0 -0.45094362557E+03 -0.14062616311E+03  0.88878552007E+03  0.10098608089E+04  0.82178351229E+02 0.  0.
      -24    2    3    3    0    0  0.45094362557E+03  0.14062616311E+03  0.15529946431E+04  0.16264571369E+04  0.10219875473E+03 0.  0.
      -13    1    4    4    0    0 -0.13540023150E+03 -0.76765485665E+02  0.24908793419E+03  0.29371918807E+03  0.00000000000E+00 0.  1.
       14    1    4    4    0    0 -0.31554339407E+03 -0.63860677449E+02  0.63969758588E+03  0.71614162080E+03  0.00000000000E+00 0. -1.
        3    1    5    5  501    0  0.10483443751E+03 -0.10567899023E+02  0.35992446811E+03  0.37503008215E+03  0.00000000000E+00 0. -1.
       -4    1    5    5    0  501  0.34610918806E+03  0.15119406214E+03  0.11930701750E+04  0.12514270547E+04  0.14200000000E+01 0.  1.
</event>
<event>
 9   1  0.7335000E-04  0.9983229E+03  0.7818608E-02  0.9310386E-01
       21   -1    0    0  503  502  0.00000000000E+00  0.00000000000E+00  0.87070641023E+03  0.87070641023E+03  0.00000000000E+00 0.  1.
       21   -1    0    0  502  503 -0.00000000000E+00 -0.00000000000E+00 -0.28616094081E+03  0.28616094081E+03  0.00000000000E+00 0. -1.
       39    2    1    2    0    0 -0.28421709430E-13  0.00000000000E+00  0.58454546942E+03  0.11568673510E+04  0.99832292475E+03 0.  0.
       24    2    3    3    0    0  0.20267017914E+03 -0.19707952748E+03 -0.17554291833E+03  0.34201800728E+03  0.79028219410E+02 0.  0.
      -24    2    3    3    0    0 -0.20267017914E+03  0.19707952748E+03  0.76008838775E+03  0.81484934376E+03  0.79558495214E+02 0.  0.
      -13    1    4    4    0    0  0.27208733295E+02  0.14083411565E+01 -0.26694216871E+02  0.38142886711E+02  0.00000000000E+00 0.  1.
       14    1    4    4    0    0  0.17546144585E+03 -0.19848786864E+03 -0.14884870146E+03  0.30387512057E+03  0.00000000000E+00 0. -1.
        1    1    5    5  501    0 -0.85807178922E+02  0.12945254443E+03  0.34481653017E+03  0.37817888980E+03  0.00000000000E+00 0. -1.
       -2    1    5    5    0  501 -0.11686300022E+03  0.67626983052E+02  0.41527185758E+03  0.43667045396E+03  0.00000000000E+00 0.  1.
</event>
<event>
 9   1  0.7335000E-04  0.1002293E+04  0.7818608E-02  0.9306033E-01
       21   -1    0    0  503  502  0.00000000000E+00  0.00000000000E+00  0.85271002282E+03  0.85271002282E+03  0.00000000000E+00 0.  1.
       21   -1    0    0  502  503 -0.00000000000E+00 -0.00000000000E+00 -0.29452900635E+03  0.29452900635E+03  0.00000000000E+00 0. -1.
       39    2    1    2    0    0  0.00000000000E+00 -0.56843418861E-13  0.55818101647E+03  0.11472390292E+04  0.10022930424E+04 0.  0.
       24    2    3    3    0    0  0.18577636117E+03  0.36810221242E+03  0.59232307214E+03  0.72607280934E+03  0.79517341025E+02 0.  0.
      -24    2    3    3    0    0 -0.18577636117E+03 -0.36810221242E+03 -0.34142055675E+02  0.42116621983E+03  0.78760457109E+02 0.  0.
      -13    1    4    4    0    0  0.21561325254E+02  0.77479379751E+02  0.16737475271E+03  0.18569397642E+03  0.00000000000E+00 0.  1.
       14    1    4    4    0    0  0.16421503592E+03  0.29062283266E+03  0.42494831943E+03  0.54037883292E+03  0.00000000000E+00 0. -1.
        3    1    5    5  501    0 -0.16651980302E+03 -0.36067856769E+03 -0.23638490673E+02  0.39796564203E+03  0.00000000000E+00 0. -1.
       -4    1    5    5    0  501 -0.19256558146E+02 -0.74236447226E+01 -0.10503565002E+02  0.23200577802E+02  0.14200000000E+01 0.  1.
</event>
<event>
 9   1  0.7335000E-04  0.1002147E+04  0.7818608E-02  0.9306193E-01
       21   -1    0    0  503  502  0.00000000000E+00  0.00000000000E+00  0.22817550017E+03  0.22817550017E+03  0.00000000000E+00 0. -1.
       21   -1    0    0  502  503 -0.00000000000E+00 -0.00000000000E+00 -0.11003582230E+04  0.11003582230E+04  0.00000000000E+00 0.  1.
       39    2    1    2    0    0  0.00000000000E+00  0.00000000000E+00 -0.87218272282E+03  0.13285337232E+04  0.10021472704E+04 0.  0.
       24    2    3    3    0    0  0.31961407082E+03 -0.31807554113E+03 -0.70482051545E+03  0.84051529591E+03  0.79804758776E+02 0.  0.
      -24    2    3    3    0    0 -0.31961407082E+03  0.31807554113E+03 -0.16736220737E+03  0.48801842726E+03  0.82623681602E+02 0.  0.
      -13    1    4    4    0    0  0.20032167136E+03 -0.22410625897E+03 -0.52680007404E+03  0.60652345819E+03  0.00000000000E+00 0.  1.
       14    1    4    4    0    0  0.11929239946E+03 -0.93969282161E+02 -0.17802044142E+03  0.23399183772E+03  0.00000000000E+00 0. -1.
        1    1    5    5  501    0 -0.28559325279E+03  0.25683892704E+03 -0.11625322568E+03  0.40130356710E+03  0.00000000000E+00 0. -1.
       -2    1    5    5    0  501 -0.34020818028E+02  0.61236614091E+02 -0.51108981686E+02  0.86714860166E+02  0.00000000000E+00 0.  1.
</event>
<event>
 9   1  0.7335000E-04  0.9990663E+03  0.7818608E-02  0.9309569E-01
       21   -1    0    0  503  502  0.00000000000E+00  0.00000000000E+00  0.37688302205E+03  0.37688302205E+03  0.00000000000E+00 0.  1.
       21   -1    0    0  502  503 -0.00000000000E+00 -0.00000000000E+00 -0.66209769246E+03  0.66209769246E+03  0.00000000000E+00 0. -1.
       39    2    1    2    0    0  0.17763568394E-14  0.56843418861E-13 -0.28521467041E+03  0.10389807145E+04  0.99906632258E+03 0.  0.
       24    2    3    3    0    0 -0.51959193534E+00 -0.33356984761E+03  0.23501073738E+03  0.41576539205E+03  0.79760274171E+02 0.  0.
      -24    2    3    3    0    0  0.51959193534E+00  0.33356984761E+03 -0.52022540779E+03  0.62321532246E+03  0.80583807529E+02 0.  0.
      -13    1    4    4    0    0  0.14556939800E+02 -0.16328043913E+03  0.16002987888E+03  0.22908943326E+03  0.00000000000E+00 0.  1.
       14    1    4    4    0    0 -0.15076531735E+02 -0.17028940848E+03  0.74980858505E+02  0.18667595879E+03  0.00000000000E+00 0. -1.
        1    1    5    5  501    0  0.31083240728E+02  0.14426618922E+03 -0.27306408791E+03  0.31039152262E+03  0.00000000000E+00 0. -1.
       -2    1    5    5    0  501 -0.30563648792E+02  0.18930365839E+03 -0.24716131988E+03  0.31282379985E+03  0.00000000000E+00 0.  1.
</event>
<event>
 9   1  0.7335000E-04  0.1005412E+04  0.7818608E-02  0.9302629E-01
       21   -1    0    0  503  502  0.00000000000E+00  0.00000000000E+00  0.56942360142E+03  0.56942360142E+03  0.00000000000E+00 0.  1.
       21   -1    0    0  502  503 -0.00000000000E+00 -0.00000000000E+00 -0.44380515317E+03  0.44380515317E+03  0.00000000000E+00 0. -1.
       39    2    1    2    0    0  0.00000000000E+00  0.00000000000E+00  0.12561844825E+03  0.10132287546E+04  0.10054116145E+04 0.  0.
       24    2    3    3    0    0  0.81680874697E+02 -0.15259072398E+03 -0.40580742738E+03  0.44859467541E+03  0.81251586751E+02 0.  0.
      -24    2    3    3    0    0 -0.81680874697E+02  0.15259072398E+03  0.53142587563E+03  0.56463407918E+03  0.80265109172E+02 0.  0.
      -13    1    4    4    0    0  0.76105448257E+02 -0.64684490917E+02 -0.17419326501E+03  0.20079695265E+03  0.00000000000E+00 0.  1.
       14    1    4    4    0    0  0.55754264392E+01 -0.87906233059E+02 -0.23161416237E+03  0.24779772275E+03  0.00000000000E+00 0. -1.
        1    1    5    5  501    0 -0.10699697520E+02  0.10758818608E+02  0.69268382796E+01  0.16679831936E+02  0.00000000000E+00 0. -1.
       -2    1    5    5    0  501 -0.70981177176E+02  0.14183190537E+03  0.52449903735E+03  0.54795424725E+03  0.00000000000E+00 0.  1.
</event>
<event>
 9   1  0.7335000E-04  0.1004410E+04  0.7818608E-02  0.9303721E-01
       21   -1    0    0  503  502  0.00000000000E+00  0.00000000000E+00  0.18139622216E+04  0.18139622216E+04  0.00000000000E+00 0.  1.
       21   -1    0    0  502  503 -0.00000000000E+00 -0.00000000000E+00 -0.13903811747E+03  0.13903811747E+03  0.00000000000E+00 0. -1.
       39    2    1    2    0    0 -0.28421709430E-13  0.28421709430E-13  0.16749241041E+04  0.19530003390E+04  0.10044100606E+04 0.  0.
       24    2    3    3    0    0 -0.15942485540E+03  0.21585156950E+03  0.27536116791E+02  0.28195139208E+03  0.82037584023E+02 0.  0.
      -24    2    3    3    0    0  0.15942485540E+03 -0.21585156950E+03  0.16473879873E+04  0.16710489470E+04  0.80679723869E+02 0.  0.
      -13    1    4    4    0    0  0.69651947530E+01 -0.11178544100E+01 -0.61327625200E+00  0.70809352624E+01  0.00000000000E+00 0.  1.
       14    1    4    4    0    0 -0.16639005015E+03  0.21696942391E+03  0.28149393043E+02  0.27487045681E+03  0.00000000000E+00 0. -1.
        1    1    5    5  501    0  0.27356079807E+02 -0.21588888493E+02  0.99236239693E+02  0.10517730971E+03  0.00000000000E+00 0. -1.
       -2    1    5    5    0  501  0.13206877559E+03 -0.19426268101E+03  0.15481517476E+04  0.15658716372E+04  0.00000000000E+00 0.  1.
</event>
<event>
 9   1  0.7335000E-04  0.9924048E+03  0.7818608E-02  0.9316915E-01
       21   -1    0    0  503  502  0.00000000000E+00  0.00000000000E+00  0.14667031052E+03  0.14667031052E+03  0.00000000000E+00 0. -1.
       21   -1    0    0  502  503 -0.00000000000E+00 -0.00000000000E+00 -0.16787092731E+04  0.16787092731E+04  0.00000000000E+00 0.  1.
       39    2    1    2    0    0  0.00000000000E+00  0.00000000000E+00 -0.15320389626E+04  0.18253795836E+04  0.99240477700E+03 0.  0.
       24    2    3    3    0    0 -0.11162105763E+03 -0.31959374231E+03 -0.11602566670E+03  0.36725973313E+03  0.82573213677E+02 0.  0.
      -24    2    3    3    0    0  0.11162105763E+03  0.31959374231E+03 -0.14160132959E+04  0.14581198505E+04  0.80127546178E+02 0.  0.
      -13    1    4    4    0    0 -0.10573739585E+03 -0.19019089782E+03 -0.87992038300E+02  0.23472446250E+03  0.00000000000E+00 0.  1.
       14    1    4    4    0    0 -0.58836617744E+01 -0.12940284449E+03 -0.28033628399E+02  0.13253527062E+03  0.00000000000E+00 0. -1.
        1    1    5    5  501    0  0.36194033827E+02  0.21900046314E+03 -0.92612462548E+03  0.95235394306E+03  0.00000000000E+00 0. -1.
       -2    1    5    5    0  501  0.75427023800E+02  0.10059327916E+03 -0.48988867040E+03  0.50576590743E+03  0.00000000000E+00 0.  1.
</event>
<event>
 9   1  0.7335000E-04  0.9599933E+03  0.7818608E-02  0.9353546E-01
       -2   -1    0    0    0  501 -0.00000000000E+00  0.00000000000E+00  0.12408103200E+03  0.12408103200E+03  0.00000000000E+00 0. -1.
        2   -1    0    0  501    0  0.00000000000E+00 -0.00000000000E+00 -0.18568252730E+04  0.18568252730E+04  0.00000000000E+00 0.  1.
       39    2    1    2    0    0 -0.28421709430E-13  0.00000000000E+00 -0.17327442410E+04  0.19809063050E+04  0.95999332520E+03 0.  0.
       24    2    3    3    0    0 -0.21618547664E+03 -0.40658113839E+03 -0.10917151375E+04  0.11875030462E+04  0.79228534811E+02 0.  0.
      -24    2    3    3    0    0  0.21618547664E+03  0.40658113839E+03 -0.64102910345E+03  0.79340325881E+03  0.80783892040E+02 0.  0.
      -13    1    4    4    0    0 -0.22259514695E+03 -0.40005486191E+03 -0.10755083322E+04  0.11688929226E+04  0.00000000000E+00 0.  1.
       14    1    4    4    0    0  0.64096703141E+01 -0.65262764867E+01 -0.16206805341E+02  0.18610123527E+02  0.00000000000E+00 0. -1.
        1    1    5    5  502    0  0.13871244987E+03  0.22582167762E+03 -0.30500752334E+03  0.40406207831E+03  0.00000000000E+00 0. -1.
       -2    1    5    5    0  502  0.77473026771E+02  0.18075946078E+03 -0.33602158011E+03  0.38934118051E+03  0.00000000000E+00 0.  1.
</event>
<event>
 9   1  0.7335000E-04  0.1020071E+04  0.7818608E-02  0.9286801E-01
       21   -1    0    0  503  502  0.00000000000E+00  0.00000000000E+00  0.26637558814E+03  0.26637558814E+03  0.00000000000E+00 0. -1.
       21   -1    0    0  502  503 -0.00000000000E+00 -0.00000000000E+00 -0.97657710134E+03  0.97657710134E+03  0.00000000000E+00 0.  1.
       39    2    1    2    0    0 -0.71054273576E-14  0.35527136788E-14 -0.71020151319E+03  0.12429526895E+04  0.10200711735E+04 0.  0.
       24    2    3    3    0    0  0.47705931281E+02  0.12274861640E+02  0.25433890574E+03  0.27420800094E+03  0.89862231779E+02 0.  0.
      -24    2    3    3    0    0 -0.47705931281E+02 -0.12274861640E+02 -0.96454041893E+03  0.96874468854E+03  0.75508434727E+02 0.  0.
      -13    1    4    4    0    0  0.24300790000E+02  0.23585564692E+02  0.21919579008E+02  0.40339499257E+02  0.00000000000E+00 0.  1.
       14    1    4    4    0    0  0.23405141281E+02 -0.11310703052E+02  0.23241932673E+03  0.23386850168E+03  0.00000000000E+00 0. -1.
        1    1    5    5  501    0 -0.11344565482E+02 -0.22085916495E+02 -0.89108763744E+02  0.92503289939E+02  0.00000000000E+00 0. -1.
       -2    1    5    5    0  501 -0.36361365799E+02  0.98110548550E+01 -0.87543165519E+03  0.87624139860E+03  0.00000000000E+00 0.  1.
</event>
<event>
 9   1  0.7335000E-04  0.1011621E+04  0.7818608E-02  0.9295890E-01
       21   -1    0    0  503  502  0.00000000000E+00  0.00000000000E+00  0.53863939969E+03  0.53863939969E+03  0.00000000000E+00 0.  1.
       21   -1    0    0  502  503 -0.00000000000E+00 -0.00000000000E+00 -0.47498232522E+03  0.47498232522E+03  0.00000000000E+00 0. -1.
       39    2    1    2    0    0 -0.28421709430E-13 -0.56843418861E-13  0.63657074466E+02  0.10136217249E+04  0.10116208668E+04 0.  0.
       24    2    3    3    0    0 -0.17864281646E+03 -0.31030856729E+03  0.38053008832E+03  0.52867971564E+03  0.80588031405E+02 0.  0.
      -24    2    3    3    0    0  0.17864281646E+03  0.31030856729E+03 -0.31687301386E+03  0.48494200926E+03  0.80966552543E+02 0.  0.
      -13    1    4    4    0    0 -0.13251667359E+03 -0.15292541575E+03  0.19438524578E+03  0.28059307785E+03  0.00000000000E+00 0.  1.
       14    1    4    4    0    0 -0.46126142875E+02 -0.15738315154E+03  0.18614484255E+03  0.24808663779E+03  0.00000000000E+00 0. -1.
        1    1    5    5  501    0  0.14471789900E+03  0.29591087481E+03 -0.27450631250E+03  0.42878926260E+03  0.00000000000E+00 0. -1.
       -2    1    5    5    0  501  0.33924917462E+02  0.14397692481E+02 -0.42366701363E+02  0.56152746664E+02  0.00000000000E+00 0.  1.
</event>
<event>
 9   1  0.7335000E-04  0.1005658E+04  0.7818608E-02  0.9302361E-01
       21   -1    0    0  503  502  0.00000000000E+00  0.00000000000E+00  0.22851270561E+03  0.22851270561E+03  0.00000000000E+00 0. -1.
       21   -1    0    0  502  503 -0.00000000000E+00 -0.00000000000E+00 -0.11064467599E+04  0.11064467599E+04  0.00000000000E+00 0.  1.
       39    2    1    2    0    0  0.28421709430E-13  0.00000000000E+00 -0.87793405429E+03  0.13349594655E+04  0.10056582774E+04 0.  0.
       24    2    3    3    0    0 -0.19610740469E+03  0.13954037515E+03  0.13755436788E+03  0.28834816633E+03  0.79333665182E+02 0.  0.
      -24    2    3    3    0    0  0.19610740469E+03 -0.13954037515E+03 -0.10154884222E+04  0.10466112992E+04  0.79049639875E+02 0.  0.
      -13    1    4    4    0    0 -0.10621092432E+03  0.68552893497E+02  0.27228274846E+02  0.12931217500E+03  0.00000000000E+00 0.  1.
       14    1    4    4    0    0 -0.89896480368E+02  0.70987481653E+02  0.11032609303E+03  0.15903599133E+03  0.00000000000E+00 0. -1.
        1    1    5    5  501    0  0.75292482008E+01 -0.37108453947E+02 -0.12372184132E+03  0.12938632444E+03  0.00000000000E+00 0. -1.
       -2    1    5    5    0  501  0.18857815649E+03 -0.10243192120E+03 -0.89176658085E+03  0.91722497475E+03  0.00000000000E+00 0.  1.
</event>
<event>
 9   1  0.7335000E-04  0.1010133E+04  0.7818608E-02  0.9297501E-01
        2   -1    0    0  501    0  0.00000000000E+00  0.00000000000E+00  0.66764022786E+03  0.66764022786E+03  0.00000000000E+00 0. -1.
       -2   -1    0    0    0  501 -0.00000000000E+00 -0.00000000000E+00 -0.38207994334E+03  0.38207994334E+03  0.00000000000E+00 0.  1.
       39    2    1    2    0    0 -0.14210854715E-13 -0.56843418861E-13  0.28556028453E+03  0.10497201712E+04  0.10101325466E+04 0.  0.
       24    2    3    3    0    0 -0.87257774192E+02  0.26141050680E+03 -0.28896468928E+03  0.40747743653E+03  0.81165863548E+02 0.  0.
      -24    2    3    3    0    0  0.87257774192E+02 -0.26141050680E+03  0.57452497381E+03  0.64224273467E+03  0.80295781218E+02 0.  0.
      -13    1    4    4    0    0 -0.92737139845E+01  0.15536681132E+03 -0.15885801444E+03  0.22239765417E+03  0.00000000000E+00 0.  1.
       14    1    4    4    0    0 -0.77984060208E+02  0.10604369548E+03 -0.13010667484E+03  0.18507978236E+03  0.00000000000E+00 0. -1.
        1    1    5    5  502    0  0.50231003177E+02 -0.22333016951E+03  0.41281765500E+03  0.47203594627E+03  0.00000000000E+00 0. -1.
       -2    1    5    5    0  502  0.37026771015E+02 -0.38080337296E+02  0.16170731881E+03  0.17020678840E+03  0.00000000000E+00 0.  1.
</event>
<event>
 9   1  0.7335000E-04  0.1002256E+04  0.7818608E-02  0.9306074E-01
       21   -1    0    0  503  502  0.00000000000E+00  0.00000000000E+00  0.14483081379E+04  0.14483081379E+04  0.00000000000E+00 0. -1.
       21   -1    0    0  502  503 -0.00000000000E+00 -0.00000000000E+00 -0.17339482728E+03  0.17339482728E+03  0.00000000000E+00 0.  1.
       39    2    1    2    0    0  0.00000000000E+00 -0.14210854715E-13  0.12749133107E+04  0.16217029652E+04  0.10022557347E+04 0.  0.
       24    2    3    3    0    0  0.67252053954E+02 -0.79398294906E+02 -0.14548313019E+03  0.19555781963E+03  0.79060683365E+02 0.  0.
      -24    2    3    3    0    0 -0.67252053954E+02  0.79398294906E+02  0.14203964408E+04  0.14261451456E+04  0.74411014935E+02 0.  0.
      -13    1    4    4    0    0  0.52775983664E+02 -0.56670260788E+02 -0.14944931119E+03  0.16832088262E+03  0.00000000000E+00 0.  1.
       14    1    4    4    0    0  0.14476070290E+02 -0.22728034117E+02  0.39661810074E+01  0.27236937009E+02  0.00000000000E+00 0. -1.
        3    1    5    5  501    0 -0.21357007991E+02  0.78578163180E+02  0.97094692000E+03  0.97435546439E+03  0.00000000000E+00 0. -1.
       -4    1    5    5    0  501 -0.45895045963E+02  0.82013172516E+00  0.44944952084E+03  0.45178968120E+03  0.14200000000E+01 0.  1.
</event>
<event>
 9   1  0.7335000E-04  0.9902459E+03  0.7818608E-02  0.9319308E-01
       21   -1    0    0  503  502  0.00000000000E+00  0.00000000000E+00  0.14447548421E+03  0.14447548421E+03  0.00000000000E+00 0. -1.
       21   -1    0    0  502  503 -0.00000000000E+00 -0.00000000000E+00 -0.16968051703E+04  0.16968051703E+04  0.00000000000E+00 0.  1.
       39    2    1    2    0    0 -0.14210854715E-13  0.00000000000E+00 -0.15523296861E+04  0.18412806545E+04  0.99024592621E+03 0.  0.
       24    2    3    3    0    0  0.12383513382E+03  0.31136341477E+03 -0.11755407913E+03  0.36549366286E+03  0.86512078012E+02 0.  0.
      -24    2    3    3    0    0 -0.12383513382E+03 -0.31136341477E+03 -0.14347756069E+04  0.14757869916E+04  0.84165824417E+02 0.  0.
      -13    1    4    4    0    0  0.10264387042E+02  0.79783181139E+02  0.36120936900E+01  0.80521803599E+02  0.00000000000E+00 0.  1.
       14    1    4    4    0    0  0.11357074677E+03  0.23158023363E+03 -0.12116617282E+03  0.28497185926E+03  0.00000000000E+00 0. -1.
        1    1    5    5  501    0 -0.25881431904E+02 -0.77980691234E+02 -0.21809524005E+03  0.23305872748E+03  0.00000000000E+00 0. -1.
       -2    1    5    5    0  501 -0.97953701911E+02 -0.23338272354E+03 -0.12166803669E+04  0.12427282642E+04  0.00000000000E+00 0.  1.
</event>
<event>
 9   1  0.7335000E-04  0.9990136E+03  0.7818608E-02  0.9309627E-01
       21   -1    0    0  503  502  0.00000000000E+00  0.00000000000E+00  0.19571173462E+03  0.19571173462E+03  0.00000000000E+00 0.  1.
       21   -1    0    0  502  503 -0.00000000000E+00 -0.00000000000E+00 -0.12748701843E+04  0.12748701843E+04  0.00000000000E+00 0. -1.
       39    2    1    2    0    0  0.00000000000E+00  0.00000000000E+00 -0.10791584497E+04  0.14705819189E+04  0.99901362391E+03 0.  0.
       24    2    3    3    0    0 -0.36628896825E+03 -0.17159593969E+03 -0.95418922118E+03  0.10393979372E+04  0.79108957611E+02 0.  0.
      -24    2    3    3    0    0  0.36628896825E+03  0.17159593969E+03 -0.12496922852E+03  0.43118398178E+03  0.81789628213E+02 0.  0.
      -13    1    4    4    0    0 -0.33539443557E+03 -0.13438010701E+03 -0.80018835615E+03  0.87797998035E+03  0.00000000000E+00 0.  1.
       14    1    4    4    0    0 -0.30894532680E+02 -0.37215832676E+02 -0.15400086503E+03  0.16141795681E+03  0.00000000000E+00 0. -1.
        3    1    5    5  501    0  0.55726206152E+02  0.29525020517E+02 -0.52507676634E+02  0.82062128866E+02  0.00000000000E+00 0. -1.
       -4    1    5    5    0  501  0.31056276210E+03  0.14207091917E+03 -0.72461551883E+02  0.34912185291E+03  0.14200000000E+01 0.  1.
</event>
<event>
 9   1  0.7335000E-04  0.9987026E+03  0.7818608E-02  0.9309969E-01
       21   -1    0    0  503  502  0.00000000000E+00  0.00000000000E+00  0.14160514851E+04  0.14160514851E+04  0.00000000000E+00 0. -1.
       21   -1    0    0  502  503 -0.00000000000E+00 -0.00000000000E+00 -0.17608944346E+03  0.17608944346E+03  0.00000000000E+00 0.  1.
       39    2    1    2    0    0 -0.28421709430E-13  0.28421709430E-13  0.12399620416E+04  0.15921409286E+04  0.99870259422E+03 0.  0.
       24    2    3    3    0    0  0.17018644621E+03 -0.20372332292E+03 -0.42113790648E+02  0.28120350983E+03  0.82675412310E+02 0.  0.
      -24    2    3    3    0    0 -0.17018644621E+03  0.20372332292E+03  0.12820758323E+04  0.13109374187E+04  0.66120022025E+02 0.  0.
      -13    1    4    4    0    0  0.17887924809E+03 -0.19820358508E+03 -0.44403056649E+02  0.27065490570E+03  0.00000000000E+00 0.  1.
       14    1    4    4    0    0 -0.86928018795E+01 -0.55197378389E+01  0.22892660005E+01  0.10548604133E+02  0.00000000000E+00 0. -1.
        3    1    5    5  501    0 -0.12637016071E+03  0.11234398293E+03  0.70219473480E+03  0.72226590228E+03  0.00000000000E+00 0. -1.
       -4    1    5    5    0  501 -0.43816285498E+02  0.91379339990E+02  0.57988109750E+03  0.58867151646E+03  0.14200000000E+01 0.  1.
</event>
<event>
 9   1  0.7335000E-04  0.1031130E+04  0.7818608E-02  0.9275046E-01
       -2   -1    0    0    0  501 -0.00000000000E+00  0.00000000000E+00  0.64935867884E+02  0.64935867884E+02  0.00000000000E+00 0.  1.
        2   -1    0    0  501    0  0.00000000000E+00 -0.00000000000E+00 -0.40933833817E+04  0.40933833817E+04  0.00000000000E+00 0. -1.
       39    2    1    2    0    0  0.56843418861E-13  0.00000000000E+00 -0.40284475138E+04  0.41583192496E+04  0.10311302584E+04 0.  0.
       24    2    3    3    0    0 -0.29439716106E+03 -0.40373921362E+03 -0.24079565299E+04  0.24606410389E+04  0.82611325373E+02 0.  0.
      -24    2    3    3    0    0  0.29439716106E+03  0.40373921362E+03 -0.16204909838E+04  0.16976782107E+04  0.80282234785E+02 0.  0.
      -13    1    4    4    0    0 -0.31459519516E+02 -0.97282731565E+02 -0.44753715504E+03  0.45906768169E+03  0.00000000000E+00 0.  1.
       14    1    4    4    0    0 -0.26293764154E+03 -0.30645648205E+03 -0.19604193749E+04  0.20015733572E+04  0.00000000000E+00 0. -1.
        1    1    5    5  502    0  0.64981233695E+01  0.13349742285E+02 -0.11545099005E+03  0.11640177116E+03  0.00000000000E+00 0. -1.
       -2    1    5    5    0  502  0.28789903769E+03  0.39038947133E+03 -0.15050399938E+04  0.15812764395E+04  0.00000000000E+00 0.  1.
</event>
<event>
 9   1  0.7335000E-04  0.1000947E+04  0.7818608E-02  0.9307507E-01
       21   -1    0    0  503  502  0.00000000000E+00  0.00000000000E+00  0.29132667461E+03  0.29132667461E+03  0.00000000000E+00 0. -1.
       21   -1    0    0  502  503 -0.00000000000E+00 -0.00000000000E+00 -0.85976965372E+03  0.85976965372E+03  0.00000000000E+00 0.  1.
       39    2    1    2    0    0  0.00000000000E+00  0.35527136788E-14 -0.56844297911E+03  0.11510963283E+04  0.10009472197E+04 0.  0.
       24    2    3    3    0    0 -0.35382374463E+03 -0.14014799921E+02 -0.68031417039E+03  0.77111980258E+03  0.80066988285E+02 0.  0.
      -24    2    3    3    0    0  0.35382374463E+03  0.14014799921E+02  0.11187119129E+03  0.37997652575E+03  0.80494346384E+02 0.  0.
      -13    1    4    4    0    0 -0.24552099624E+03  0.18441723720E+02 -0.41208787453E+03  0.48003861626E+03  0.00000000000E+00 0.  1.
       14    1    4    4    0    0 -0.10830274839E+03 -0.32456523641E+02 -0.26822629587E+03  0.29108118632E+03  0.00000000000E+00 0. -1.
        1    1    5    5  501    0  0.35120688621E+03  0.11428447875E+02  0.11978572839E+03  0.37124857854E+03  0.00000000000E+00 0. -1.
       -2    1    5    5    0  501  0.26168584156E+01  0.25863520452E+01 -0.79145371026E+01  0.87279472052E+01  0.00000000000E+00 0.  1.
</event>
<event>
 9   1  0.7335000E-04  0.9993364E+03  0.7818608E-02  0.9309273E-01
       21   -1    0    0  503  502  0.00000000000E+00  0.00000000000E+00  0.78538160853E+03  0.78538160853E+03  0.00000000000E+00 0. -1.
       21   -1    0    0  502  503 -0.00000000000E+00 -0.00000000000E+00 -0.31789425920E+03  0.31789425920E+03  0.00000000000E+00 0.  1.
       39    2    1    2    0    0  0.00000000000E+00  0.35527136788E-14  0.46748734932E+03  0.11032758677E+04  0.99933638908E+03 0.  0.
       24    2    3    3    0    0 -0.37160297722E+03  0.23045928002E+02  0.58579872790E+03  0.69897974611E+03  0.82417524762E+02 0.  0.
      -24    2    3    3    0    0  0.37160297722E+03 -0.23045928002E+02 -0.11831137858E+03  0.40429612162E+03  0.10410515921E+03 0.  0.
      -13    1    4    4    0    0 -0.23138292113E+03  0.20860678133E+02  0.28967919983E+03  0.37133174238E+03  0.00000000000E+00 0.  1.
       14    1    4    4    0    0 -0.14022005610E+03  0.21852498686E+01  0.29611952807E+03  0.32764800374E+03  0.00000000000E+00 0. -1.
        1    1    5    5  501    0  0.11040136566E+03  0.33790463422E+02 -0.10056018664E+02  0.11589383275E+03  0.00000000000E+00 0. -1.
       -2    1    5    5    0  501  0.26120161157E+03 -0.56836391424E+02 -0.10825535991E+03  0.28840228887E+03  0.00000000000E+00 0.  1.
</event>
<event>
 9   1  0.7335000E-04  0.1003530E+04  0.7818608E-02  0.9304682E-01
       21   -1    0    0  503  502  0.00000000000E+00  0.00000000000E+00  0.21898210929E+03  0.21898210929E+03  0.00000000000E+00 0. -1.
       21   -1    0    0  502  503 -0.00000000000E+00 -0.00000000000E+00 -0.11497199190E+04  0.11497199190E+04  0.00000000000E+00 0.  1.
       39    2    1    2    0    0  0.00000000000E+00 -0.11368683772E-12 -0.93073780967E+03  0.13687020283E+04  0.10035299556E+04 0.  0.
       24    2    3    3    0    0 -0.35443813374E+02 -0.41467534518E+03 -0.98445152996E+02  0.43505735392E+03  0.79821972159E+02 0.  0.
      -24    2    3    3    0    0  0.35443813374E+02  0.41467534518E+03 -0.83229265668E+03  0.93364467434E+03  0.75956604433E+02 0.  0.
      -13    1    4    4    0    0 -0.30965600961E+02 -0.11011648722E+03  0.17753175733E+01  0.11440131535E+03  0.00000000000E+00 0.  1.
       14    1    4    4    0    0 -0.44782124124E+01 -0.30455885796E+03 -0.10022047057E+03  0.32065603857E+03  0.00000000000E+00 0. -1.
        3    1    5    5  501    0  0.38783877573E+01  0.51468587481E+02 -0.16966845849E+03  0.17734554743E+03  0.00000000000E+00 0. -1.
       -4    1    5    5    0  501  0.31565425617E+02  0.36320675770E+03 -0.66262419819E+03  0.75629912691E+03  0.14200000000E+01 0.  1.
</event>
<event>
 9   1  0.7335000E-04  0.1034360E+04  0.7818608E-02  0.9271642E-01
       -1   -1    0    0    0  501 -0.00000000000E+00  0.00000000000E+00  0.18975762380E+03  0.18975762380E+03  0.00000000000E+00 0. -1.
        1   -1    0    0  501    0  0.00000000000E+00 -0.00000000000E+00 -0.14095630955E+04  0.14095630955E+04  0.00000000000E+00 0.  1.
       39    2    1    2    0    0  0.00000000000E+00 -0.56843418861E-13 -0.12198054717E+04  0.15993207193E+04  0.10343603697E+04 0.  0.
       24    2    3    3    0    0 -0.16777275462E+03  0.45879151068E+03 -0.84199246490E+03  0.97661402455E+03  0.78653000751E+02 0.  0.
      -24    2    3    3    0    0  0.16777275462E+03 -0.45879151068E+03 -0.37781300680E+03  0.62270669476E+03  0.79897510138E+02 0.  0.
      -13    1    4    4    0    0 -0.10996649162E+03  0.18941861724E+03 -0.38886435136E+03  0.44630429708E+03  0.00000000000E+00 0.  1.
       14    1    4    4    0    0 -0.57806263006E+02  0.26937289344E+03 -0.45312811354E+03  0.53030972746E+03  0.00000000000E+00 0. -1.
        1    1    5    5  502    0  0.51946207202E+02 -0.14163550848E+03 -0.16509868064E+03  0.22364391352E+03  0.00000000000E+00 0. -1.
       -2    1    5    5    0  502  0.11582654742E+03 -0.31715600219E+03 -0.21271432616E+03  0.39906278124E+03  0.00000000000E+00 0.  1.
</event>
<event>
 9   1  0.7335000E-04  0.1000071E+04  0.7818608E-02  0.9308467E-01
       21   -1    0    0  503  502  0.00000000000E+00  0.00000000000E+00  0.99098112085E+03  0.99098112085E+03  0.00000000000E+00 0.  1.
       21   -1    0    0  502  503 -0.00000000000E+00 -0.00000000000E+00 -0.25231094250E+03  0.25231094250E+03  0.00000000000E+00 0. -1.
       39    2    1    2    0    0  0.28421709430E-13  0.00000000000E+00  0.73867017835E+03  0.12432920634E+04  0.10000707587E+04 0.  0.
       24    2    3    3    0    0  0.19283254841E+03  0.43933127853E+03  0.51293864349E+03  0.70690809614E+03  0.80103934883E+02 0.  0.
      -24    2    3    3    0    0 -0.19283254841E+03 -0.43933127853E+03  0.22573153486E+03  0.53638396722E+03  0.80973269901E+02 0.  0.
      -13    1    4    4    0    0  0.77631786227E+02  0.13759901825E+03  0.12075600011E+03  0.19885219541E+03  0.00000000000E+00 0.  1.
       14    1    4    4    0    0  0.11520076218E+03  0.30173226028E+03  0.39218264338E+03  0.50805590073E+03  0.00000000000E+00 0. -1.
        3    1    5    5  501    0 -0.12203080920E+03 -0.30852402419E+03  0.19384514803E+03  0.38425841997E+03  0.00000000000E+00 0. -1.
       -4    1    5    5    0  501 -0.70801739208E+02 -0.13080725433E+03  0.31886386825E+02  0.15212554725E+03  0.14200000000E+01 0.  1.
</event>
<event>
 9   1  0.7335000E-04  0.9818980E+03  0.7818608E-02  0.9328625E-01
       21   -1    0    0  503  502  0.00000000000E+00  0.00000000000E+00  0.46753761937E+03  0.46753761937E+03  0.00000000000E+00 0. -1.
       21   -1    0    0  502  503 -0.00000000000E+00 -0.00000000000E+00 -0.51553268915E+03  0.51553268915E+03  0.00000000000E+00 0.  1.
       39    2    1    2    0    0  0.14210854715E-13  0.00000000000E+00 -0.47995069781E+02  0.98307030853E+03  0.98189801140E+03 0.  0.
       24    2    3    3    0    0 -0.10797381830E+03  0.25756618607E+03 -0.41974229141E+03  0.51132819601E+03  0.85289197439E+02 0.  0.
      -24    2    3    3    0    0  0.10797381830E+03 -0.25756618607E+03  0.37174722163E+03  0.47174211251E+03  0.79661397712E+02 0.  0.
      -13    1    4    4    0    0 -0.10871243971E+03  0.26183126549E+03 -0.42028580386E+03  0.50696564288E+03  0.00000000000E+00 0.  1.
       14    1    4    4    0    0  0.73862141103E+00 -0.42650794214E+01  0.54351245205E+00  0.43625531338E+01  0.00000000000E+00 0. -1.
        3    1    5    5  501    0  0.10161612540E+03 -0.14168516658E+03  0.22309425871E+03  0.28314584871E+03  0.00000000000E+00 0. -1.
       -4    1    5    5    0  501  0.63576928936E+01 -0.11588101949E+03  0.14865296292E+03  0.18859626380E+03  0.14200000000E+01 0.  1.
</event>
<event>
 9   1  0.7335000E-04  0.9397061E+03  0.7818608E-02  0.9377264E-01
       -2   -1    0    0    0  501 -0.00000000000E+00  0.00000000000E+00  0.11274832547E+03  0.11274832547E+03  0.00000000000E+00 0.  1.
        2   -1    0    0  501    0  0.00000000000E+00 -0.00000000000E+00 -0.19580060831E+04  0.19580060831E+04  0.00000000000E+00 0. -1.
       39    2    1    2    0    0  0.00000000000E+00  0.56843418861E-13 -0.18452577576E+04  0.20707544086E+04  0.93970613944E+03 0.  0.
       24    2    3    3    0    0  0.73053417304E+02  0.44304091653E+03 -0.11701325089E+04  0.12559745113E+04  0.81485146666E+02 0.  0.
      -24    2    3    3    0    0 -0.73053417304E+02 -0.44304091653E+03 -0.67512524872E+03  0.81477989726E+03  0.80312664203E+02 0.  0.
      -13    1    4    4    0    0  0.55056880836E+02  0.14065527736E+03 -0.33085566942E+03  0.36370405712E+03  0.00000000000E+00 0.  1.
       14    1    4    4    0    0  0.17996536468E+02  0.30238563916E+03 -0.83927683951E+03  0.89227045420E+03  0.00000000000E+00 0. -1.
        1    1    5    5  502    0 -0.61545762617E+02 -0.15979448325E+03 -0.22349639391E+03  0.28155425031E+03  0.00000000000E+00 0. -1.
       -2    1    5    5    0  502 -0.11507654687E+02 -0.28324643327E+03 -0.45162885481E+03  0.53322564696E+03  0.00000000000E+00 0.  1.
</event>
<event>
 9   1  0.7335000E-04  0.9976072E+03  0.7818608E-02  0.9311173E-01
       21   -1    0    0  503  502  0.00000000000E+00  0.00000000000E+00  0.39856838980E+03  0.39856838980E+03  0.00000000000E+00 0.  1.
       21   -1    0    0  502  503 -0.00000000000E+00 -0.00000000000E+00 -0.62424679040E+03  0.62424679040E+03  0.00000000000E+00 0. -1.
       39    2    1    2    0    0  0.00000000000E+00 -0.28421709430E-13 -0.22567840060E+03  0.10228151802E+04  0.99760721347E+03 0.  0.
       24    2    3    3    0    0 -0.92253420265E+02 -0.95154352695E+02  0.37304279300E+03  0.40417995491E+03  0.81458370659E+02 0.  0.
      -24    2    3    3    0    0  0.92253420265E+02  0.95154352695E+02 -0.59872119360E+03  0.61863522530E+03  0.81715542734E+02 0.  0.
      -13    1    4    4    0    0 -0.37439042036E+02 -0.41214882275E+02  0.26955966066E+03  0.27525035703E+03  0.00000000000E+00 0.  1.
       14    1    4    4    0    0 -0.54814378229E+02 -0.53939470420E+02  0.10348313235E+03  0.12892959788E+03  0.00000000000E+00 0. -1.
        3    1    5    5  501    0  0.96779614225E+02  0.53178375365E+02 -0.48249327096E+03  0.49496867563E+03  0.00000000000E+00 0. -1.
       -4    1    5    5    0  501 -0.45261939601E+01  0.41975977330E+02 -0.11622792265E+03  0.12366654967E+03  0.14200000000E+01 0.  1.
</event>
<event>
 9   1  0.7335000E-04  0.9959147E+03  0.7818608E-02  0.9313037E-01
       21   -1    0    0  503  502  0.00000000000E+00  0.00000000000E+00  0.46340136613E+03  0.46340136613E+03  0.00000000000E+00 0.  1.
       21   -1    0    0  502  503 -0.00000000000E+00 -0.00000000000E+00 -0.53509015613E+03  0.53509015613E+03  0.00000000000E+00 0. -1.
       39    2    1    2    0    0 -0.14210854715E-13 -0.56843418861E-13 -0.71688790000E+02  0.99849152225E+03  0.99591467375E+03 0.  0.
       24    2    3    3    0    0  0.88274310839E+02  0.31364332568E+03  0.33253641651E+03  0.47321201613E+03  0.84762339559E+02 0.  0.
      -24    2    3    3    0    0 -0.88274310839E+02 -0.31364332568E+03 -0.40422520651E+03  0.52527950612E+03  0.79724853551E+02 0.  0.
      -13    1    4    4    0    0  0.98234327332E+01  0.18989462286E+03  0.18902958985E+03  0.26812059500E+03  0.00000000000E+00 0.  1.
       14    1    4    4    0    0  0.78450878106E+02  0.12374870282E+03  0.14350682666E+03  0.20509142114E+03  0.00000000000E+00 0. -1.
        1    1    5    5  501    0 -0.75706544640E+02 -0.13526915554E+03 -0.21348288875E+03  0.26382602057E+03  0.00000000000E+00 0. -1.
       -2    1    5    5    0  501 -0.12567766200E+02 -0.17837417014E+03 -0.19074231776E+03  0.26145348555E+03  0.00000000000E+00 0.  1.
</event>
<event>
 9   1  0.7335000E-04  0.1003706E+04  0.7818608E-02  0.9304490E-01
       21   -1    0    0  503  502  0.00000000000E+00  0.00000000000E+00  0.18246702214E+04  0.18246702214E+04  0.00000000000E+00 0. -1.
       21   -1    0    0  502  503 -0.00000000000E+00 -0.00000000000E+00 -0.13802836124E+03  0.13802836124E+03  0.00000000000E+00 0.  1.
       39    2    1    2    0    0  0.00000000000E+00  0.71054273576E-14  0.16866418602E+04  0.19626985827E+04  0.10037056151E+04 0.  0.
       24    2    3    3    0    0  0.34375087525E+03 -0.36096697542E+02  0.14779102422E+03  0.38348330020E+03  0.75826241377E+02 0.  0.
      -24    2    3    3    0    0 -0.34375087525E+03  0.36096697542E+02  0.15388508359E+04  0.15792152825E+04  0.79946089579E+02 0.  0.
      -13    1    4    4    0    0  0.12072574138E+03  0.11647369167E+02  0.22830661002E+02  0.12341638838E+03  0.00000000000E+00 0.  1.
       14    1    4    4    0    0  0.22302513387E+03 -0.47744066709E+02  0.12496036322E+03  0.26006691181E+03  0.00000000000E+00 0. -1.
        1    1    5    5  501    0 -0.21548125449E+03  0.31194153870E+02  0.11264564378E+04  0.11473052569E+04  0.00000000000E+00 0. -1.
       -2    1    5    5    0  501 -0.12826962076E+03  0.49025436722E+01  0.41239439815E+03  0.43191002555E+03  0.00000000000E+00 0.  1.
</event>
<event>
 9   1  0.7335000E-04  0.1050345E+04  0.7818608E-02  0.9254988E-01
       21   -1    0    0  503  502  0.00000000000E+00  0.00000000000E+00  0.11180879465E+03  0.11180879465E+03  0.00000000000E+00 0. -1.
       21   -1    0    0  502  503 -0.00000000000E+00 -0.00000000000E+00 -0.24667652809E+04  0.24667652809E+04  0.00000000000E+00 0.  1.
       39    2    1    2    0    0 -0.56843418861E-13  0.00000000000E+00 -0.23549564862E+04  0.25785740755E+04  0.10503448058E+04 0.  0.
       24    2    3    3    0    0  0.46439821662E+03  0.16750758004E+03 -0.15644401910E+04  0.16431171326E+04  0.92931735154E+02 0.  0.
      -24    2    3    3    0    0 -0.46439821662E+03 -0.16750758004E+03 -0.79051629523E+03  0.93545694290E+03  0.80244538834E+02 0.  0.
      -13    1    4    4    0    0  0.44906229678E+03  0.16326329228E+03 -0.15486982073E+04  0.16207337802E+04  0.00000000000E+00 0.  1.
       14    1    4    4    0    0  0.15335919832E+02  0.42442877592E+01 -0.15741983709E+02  0.22383352447E+02  0.00000000000E+00 0. -1.
        3    1    5    5  501    0 -0.43596840599E+03 -0.13839560823E+03 -0.69986635100E+03  0.83608295321E+03  0.00000000000E+00 0. -1.
       -4    1    5    5    0  501 -0.28429810631E+02 -0.29111971814E+02 -0.90649944235E+02  0.99373989682E+02  0.14200000000E+01 0.  1.
</event>
<event>
 9   1  0.7335000E-04  0.1001917E+04  0.7818608E-02  0.9306445E-01
       21   -1    0    0  503  502  0.00000000000E+00  0.00000000000E+00  0.42895294156E+03  0.42895294156E+03  0.00000000000E+00 0.  1.
       21   -1    0    0  502  503 -0.00000000000E+00 -0.00000000000E+00 -0.58505114574E+03  0.58505114574E+03  0.00000000000E+00 0. -1.
       39    2    1    2    0    0  0.14210854715E-13 -0.56843418861E-13 -0.15609820417E+03  0.10140040873E+04  0.10019169824E+04 0.  0.
       24    2    3    3    0    0  0.10617663725E+03  0.40796362135E+03  0.18465795810E+03  0.46655664599E+03  0.76607752778E+02 0.  0.
      -24    2    3    3    0    0 -0.10617663725E+03 -0.40796362135E+03 -0.34075616228E+03  0.54744744131E+03  0.76656012284E+02 0.  0.
      -13    1    4    4    0    0  0.12491119424E+02  0.19971680266E+03  0.86817772433E+02  0.21812875770E+03  0.00000000000E+00 0.  1.
       14    1    4    4    0    0  0.93685517831E+02  0.20824681870E+03  0.97840185670E+02  0.24842788829E+03  0.00000000000E+00 0. -1.
        3    1    5    5  501    0 -0.71029052208E+02 -0.21174683040E+03 -0.13505497719E+03  0.26100132817E+03  0.00000000000E+00 0. -1.
       -4    1    5    5    0  501 -0.35147585047E+02 -0.19621679095E+03 -0.20570118509E+03  0.28644611314E+03  0.14200000000E+01 0.  1.
</event>
<event>
 9   1  0.7335000E-04  0.1067301E+04  0.7818608E-02  0.9237662E-01
       21   -1    0    0  503  502  0.00000000000E+00  0.00000000000E+00  0.61160385463E+03  0.61160385463E+03  0.00000000000E+00 0.  1.
       21   -1    0    0  502  503 -0.00000000000E+00 -0.00000000000E+00 -0.46563296705E+03  0.46563296705E+03  0.00000000000E+00 0. -1.
       39    2    1    2    0    0  0.56843418861E-13 -0.11368683772E-12  0.14597088758E+03  0.10772368217E+04  0.10673011149E+04 0.  0.
       24    2    3    3    0    0 -0.25416118323E+03  0.37864368975E+03  0.34064515129E+03  0.57477117430E+03  0.79710933140E+02 0.  0.
      -24    2    3    3    0    0  0.25416118323E+03 -0.37864368975E+03 -0.19467426372E+03  0.50246564738E+03  0.81269348489E+02 0.  0.
      -13    1    4    4    0    0 -0.14433045331E+03  0.19284364496E+03  0.22637667281E+03  0.33055460842E+03  0.00000000000E+00 0.  1.
       14    1    4    4    0    0 -0.10983072992E+03  0.18580004478E+03  0.11426847849E+03  0.24421656588E+03  0.00000000000E+00 0. -1.
        1    1    5    5  501    0  0.15166086951E+03 -0.20935516807E+03 -0.15241885200E+03  0.30010350245E+03  0.00000000000E+00 0. -1.
       -2    1    5    5    0  501  0.10250031372E+03 -0.16928852167E+03 -0.42255411719E+02  0.20236214493E+03  0.00000000000E+00 0.  1.
</event>
<event>
 9   1  0.7335000E-04  0.1010072E+04  0.7818608E-02  0.9297567E-01
       21   -1    0    0  503  502  0.00000000000E+00  0.00000000000E+00  0.90961761629E+03  0.90961761629E+03  0.00000000000E+00 0. -1.
       21   -1    0    0  502  503 -0.00000000000E+00 -0.00000000000E+00 -0.28040488605E+03  0.28040488605E+03  0.00000000000E+00 0.  1.
       39    2    1    2    0    0  0.56843418861E-13  0.56843418861E-13  0.62921273024E+03  0.11900225023E+04  0.10100717282E+04 0.  0.
       24    2    3    3    0    0  0.33421766100E+03  0.17913629963E+03 -0.65605478524E+02  0.39441564287E+03  0.86419683857E+02 0.  0.
      -24    2    3    3    0    0 -0.33421766100E+03 -0.17913629963E+03  0.69481820876E+03  0.79560685947E+03  0.80166531899E+02 0.  0.
      -13    1    4    4    0    0  0.20494652375E+03  0.10674449798E+03 -0.82344783854E+02  0.24531230885E+03  0.00000000000E+00 0.  1.
       14    1    4    4    0    0  0.12927113725E+03  0.72391801651E+02  0.16739305330E+02  0.14910333402E+03  0.00000000000E+00 0. -1.
        1    1    5    5  501    0 -0.30756270457E+03 -0.15778220384E+03  0.66815666622E+03  0.75227878589E+03  0.00000000000E+00 0. -1.
       -2    1    5    5    0  501 -0.26654956430E+02 -0.21354095785E+02  0.26661542548E+02  0.43328073580E+02  0.00000000000E+00 0.  1.
</event>
<event>
 9   1  0.7335000E-04  0.9998004E+03  0.7818608E-02  0.9308764E-01
       21   -1    0    0  503  502  0.00000000000E+00  0.00000000000E+00  0.97755278656E+03  0.97755278656E+03  0.00000000000E+00 0. -1.
       21   -1    0    0  502  503 -0.00000000000E+00 -0.00000000000E+00 -0.25563860020E+03  0.25563860020E+03  0.00000000000E+00 0.  1.
       39    2    1    2    0    0  0.00000000000E+00  0.00000000000E+00  0.72191418636E+03  0.12331913868E+04  0.99980043205E+03 0.  0.
       24    2    3    3    0    0  0.33555392831E+03  0.52036756693E+02 -0.80374189420E+02  0.35829318060E+03  0.81300246515E+02 0.  0.
      -24    2    3    3    0    0 -0.33555392831E+03 -0.52036756693E+02  0.80228837578E+03  0.87489820617E+03  0.80473414218E+02 0.  0.
      -13    1    4    4    0    0  0.26421570259E+03  0.71146899719E+02 -0.77470315843E+02  0.28438260965E+03  0.00000000000E+00 0.  1.
       14    1    4    4    0    0  0.71338225727E+02 -0.19110143026E+02 -0.29038735775E+01  0.73910570950E+02  0.00000000000E+00 0. -1.
        1    1    5    5  501    0 -0.27473949835E+03 -0.30521116547E+02  0.71328111155E+03  0.76497272801E+03  0.00000000000E+00 0. -1.
       -2    1    5    5    0  501 -0.60814429963E+02 -0.21515640147E+02  0.89007264229E+02  0.10992547816E+03  0.00000000000E+00 0.  1.
</event>
<event>
 9   1  0.7335000E-04  0.1006009E+04  0.7818608E-02  0.9301979E-01
       21   -1    0    0  503  502  0.00000000000E+00  0.00000000000E+00  0.56009437025E+03  0.56009437025E+03  0.00000000000E+00 0.  1.
       21   -1    0    0  502  503 -0.00000000000E+00 -0.00000000000E+00 -0.45173358410E+03  0.45173358410E+03  0.00000000000E+00 0. -1.
       39    2    1    2    0    0  0.00000000000E+00  0.17763568394E-14  0.10836078615E+03  0.10118279544E+04  0.10060088216E+04 0.  0.
       24    2    3    3    0    0  0.26420073107E+03 -0.14739896417E+02 -0.36821356522E+03  0.46066122545E+03  0.81291107602E+02 0.  0.
      -24    2    3    3    0    0 -0.26420073107E+03  0.14739896417E+02  0.47657435137E+03  0.55116672891E+03  0.81500673783E+02 0.  0.
      -13    1    4    4    0    0  0.16224795968E+02  0.10108131794E+02 -0.43035626043E+01  0.19594361017E+02  0.00000000000E+00 0.  1.
       14    1    4    4    0    0  0.24797593510E+03 -0.24848028211E+02 -0.36391000261E+03  0.44106686443E+03  0.00000000000E+00 0. -1.
        3    1    5    5  501    0 -0.14918995959E+02  0.22497348408E+02  0.37570741905E+02  0.46263028145E+02  0.00000000000E+00 0. -1.
       -4    1    5    5    0  501 -0.24928173511E+03 -0.77574519907E+01  0.43900360946E+03  0.50490370076E+03  0.14200000000E+01 0.  1.
</event>
<event>
 9   1  0.7335000E-04  0.9964713E+03  0.7818608E-02  0.9312423E-01
       21   -1    0    0  503  502  0.00000000000E+00  0.00000000000E+00  0.26508564921E+03  0.26508564921E+03  0.00000000000E+00 0.  1.
       21   -1    0    0  502  503 -0.00000000000E+00 -0.00000000000E+00 -0.93644742664E+03  0.93644742664E+03  0.00000000000E+00 0. -1.
       39    2    1    2    0    0  0.00000000000E+00  0.00000000000E+00 -0.67136177743E+03  0.12015330759E+04  0.99647132230E+03 0.  0.
       24    2    3    3    0    0  0.15146384150E+03  0.16032133138E+03  0.19409832740E+03  0.30476088942E+03  0.80998854597E+02 0.  0.
      -24    2    3    3    0    0 -0.15146384150E+03 -0.16032133138E+03 -0.86546010483E+03  0.89677218643E+03  0.80838955476E+02 0.  0.
      -13    1    4    4    0    0  0.15545263918E+03  0.16637769057E+03  0.18848367739E+03  0.29558950521E+03  0.00000000000E+00 0.  1.
       14    1    4    4    0    0 -0.39887976834E+01 -0.60563591931E+01  0.56146500138E+01  0.91713842146E+01  0.00000000000E+00 0. -1.
        1    1    5    5  501    0 -0.14531385428E+03 -0.16933385805E+03 -0.80588286489E+03  0.83620408015E+03  0.00000000000E+00 0. -1.
       -2    1    5    5    0  501 -0.61499872133E+01  0.90125266724E+01 -0.59577239943E+02  0.60568106285E+02  0.00000000000E+00 0.  1.
</event>
<event>
 9   1  0.7335000E-04  0.9965176E+03  0.7818608E-02  0.9312372E-01
       21   -1    0    0  503  502  0.00000000000E+00  0.00000000000E+00  0.13050224826E+04  0.13050224826E+04  0.00000000000E+00 0.  1.
       21   -1    0    0  502  503 -0.00000000000E+00 -0.00000000000E+00 -0.19023567302E+03  0.19023567302E+03  0.00000000000E+00 0. -1.
       39    2    1    2    0    0 -0.56843418861E-13  0.28421709430E-13  0.11147868096E+04  0.14952581556E+04  0.99651759700E+03 0.  0.
       24    2    3    3    0    0  0.37045299992E+03 -0.24175925430E+03  0.23162746960E+03  0.50584043375E+03  0.80872106208E+02 0.  0.
      -24    2    3    3    0    0 -0.37045299992E+03  0.24175925430E+03  0.88315933997E+03  0.98941772186E+03  0.57393783334E+02 0.  0.
      -13    1    4    4    0    0  0.16545775853E+03 -0.14544283600E+03  0.14291467573E+03  0.26259187524E+03  0.00000000000E+00 0.  1.
       14    1    4    4    0    0  0.20499524139E+03 -0.96316418293E+02  0.88712793871E+02  0.24324855852E+03  0.00000000000E+00 0. -1.
        1    1    5    5  501    0 -0.15488043532E+03  0.99023376031E+02  0.30559318651E+03  0.35662413531E+03  0.00000000000E+00 0. -1.
       -2    1    5    5    0  501 -0.21557256459E+03  0.14273587826E+03  0.57756615346E+03  0.63279358654E+03  0.00000000000E+00 0.  1.
</event>
<event>
 9   1  0.7335000E-04  0.9923063E+03  0.7818608E-02  0.9317024E-01
       21   -1    0    0  503  502  0.00000000000E+00  0.00000000000E+00  0.19509131148E+04  0.19509131148E+04  0.00000000000E+00 0.  1.
       21   -1    0    0  502  503 -0.00000000000E+00 -0.00000000000E+00 -0.12618088027E+03  0.12618088027E+03  0.00000000000E+00 0. -1.
       39    2    1    2    0    0  0.00000000000E+00  0.00000000000E+00  0.18247322346E+04  0.20770939951E+04  0.99230627159E+03 0.  0.
       24    2    3    3    0    0  0.10039585219E+03 -0.41985196149E+03  0.13967114552E+04  0.14641118477E+04  0.80409059465E+02 0.  0.
      -24    2    3    3    0    0 -0.10039585219E+03  0.41985196149E+03  0.42802077938E+03  0.61298214739E+03  0.78678642162E+02 0.  0.
      -13    1    4    4    0    0  0.10275256825E+03 -0.30076163762E+03  0.10776492930E+04  0.11235406764E+04  0.00000000000E+00 0.  1.
       14    1    4    4    0    0 -0.23567160544E+01 -0.11909032387E+03  0.31906216224E+03  0.34057117130E+03  0.00000000000E+00 0. -1.
        1    1    5    5  501    0 -0.94470636995E+02  0.33961045304E+03  0.38401308521E+03  0.52127345096E+03  0.00000000000E+00 0. -1.
       -2    1    5    5    0  501 -0.59252151997E+01  0.80241508459E+02  0.44007694171E+02  0.91708696432E+02  0.00000000000E+00 0.  1.
</event>
<event>
 9   1  0.7335000E-04  0.1006852E+04  0.7818608E-02  0.9301061E-01
       21   -1    0    0  503  502  0.00000000000E+00  0.00000000000E+00  0.57525485461E+03  0.57525485461E+03  0.00000000000E+00 0.  1.
       21   -1    0    0  502  503 -0.00000000000E+00 -0.00000000000E+00 -0.44056618875E+03  0.44056618875E+03  0.00000000000E+00 0. -1.
       39    2    1    2    0    0  0.00000000000E+00  0.00000000000E+00  0.13468866586E+03  0.10158210434E+04  0.10068522014E+04 0.  0.
       24    2    3    3    0    0 -0.39449402090E+03  0.21352034364E+03  0.28342052993E+03  0.53666073646E+03  0.80380840995E+02 0.  0.
      -24    2    3    3    0    0  0.39449402090E+03 -0.21352034364E+03 -0.14873186407E+03  0.47916030689E+03  0.79100964836E+02 0.  0.
      -13    1    4    4    0    0 -0.38353224895E+03  0.20969874290E+03  0.28876032318E+03  0.52388269012E+03  0.00000000000E+00 0.  1.
       14    1    4    4    0    0 -0.10961771947E+02  0.38216007384E+01 -0.53397932495E+01  0.12778046344E+02  0.00000000000E+00 0. -1.
        3    1    5    5  501    0  0.16000314645E+03 -0.10668607528E+03 -0.10054917622E+03  0.21700936010E+03  0.00000000000E+00 0. -1.
       -4    1    5    5    0  501  0.23449087445E+03 -0.10683426836E+03 -0.48182687853E+02  0.26215094679E+03  0.14200000000E+01 0.  1.
</event>
<event>
 9   1  0.7335000E-04  0.1048741E+04  0.7818608E-02  0.9256645E-01
       21   -1    0    0  503  502  0.00000000000E+00  0.00000000000E+00  0.76393979303E+03  0.76393979303E+03  0.00000000000E+00 0. -1.
       21   -1    0    0  502  503 -0.00000000000E+00 -0.00000000000E+00 -0.35992960056E+03  0.35992960056E+03  0.00000000000E+00 0.  1.
       39    2    1    2    0    0  0.56843418861E-13 -0.14210854715E-13  0.40401019247E+03  0.11238693936E+04  0.10487412351E+04 0.  0.
       24    2    3    3    0    0 -0.36278438758E+03  0.11775693886E+03  0.57839462366E+03  0.69731156248E+03  0.78891482225E+02 0.  0.
      -24    2    3    3    0    0  0.36278438758E+03 -0.11775693886E+03 -0.17438443119E+03  0.42655783111E+03  0.77861703777E+02 0.  0.
      -13    1    4    4    0    0 -0.28329601830E+03  0.58594762643E+02  0.40706811636E+03  0.49939406439E+03  0.00000000000E+00 0.  1.
       14    1    4    4    0    0 -0.79488369285E+02  0.59162176222E+02  0.17132650729E+03  0.19791749809E+03  0.00000000000E+00 0. -1.
        3    1    5    5  501    0 -0.21851502371E+01 -0.13289393585E+01  0.33733105650E+01  0.42332240131E+01  0.00000000000E+00 0. -1.
       -4    1    5    5    0  501  0.36496953782E+03 -0.11642799951E+03 -0.17775774175E+03  0.42232460710E+03  0.14200000000E+01 0.  1.
</event>
<event>
 9   1  0.7335000E-04  0.1050091E+04  0.7818608E-02  0.9255251E-01
       21   -1    0    0  503  502  0.00000000000E+00  0.00000000000E+00  0.12125299872E+04  0.12125299872E+04  0.00000000000E+00 0.  1.
       21   -1    0    0  502  503 -0.00000000000E+00 -0.00000000000E+00 -0.22735317791E+03  0.22735317791E+03  0.00000000000E+00 0. -1.
       39    2    1    2    0    0  0.00000000000E+00  0.00000000000E+00  0.98517680924E+03  0.14398831651E+04  0.10500905597E+04 0.  0.
       24    2    3    3    0    0  0.18654973273E+03  0.17449906530E+03 -0.12517413572E+03  0.29764306947E+03  0.87590558726E+02 0.  0.
      -24    2    3    3    0    0 -0.18654973273E+03 -0.17449906530E+03  0.11103509450E+04  0.11422400956E+04  0.81132536258E+02 0.  0.
      -13    1    4    4    0    0  0.45666450874E+02  0.66308537668E+02 -0.30546202076E+00  0.80512981625E+02  0.00000000000E+00 0.  1.
       14    1    4    4    0    0  0.14088328186E+03  0.10819052763E+03 -0.12486867370E+03  0.21713008785E+03  0.00000000000E+00 0. -1.
        3    1    5    5  501    0 -0.34728399198E+02 -0.82581351649E+02  0.32844025532E+03  0.34043904398E+03  0.00000000000E+00 0. -1.
       -4    1    5    5    0  501 -0.15182133354E+03 -0.91917713647E+02  0.78191068964E+03  0.80180105161E+03  0.14200000000E+01 0.  1.
</event>
<event>
 9   1  0.7335000E-04  0.9994447E+03  0.7818608E-02  0.9309154E-01
        2   -1    0    0  501    0  0.00000000000E+00  0.00000000000E+00  0.75729890999E+03  0.75729890999E+03  0.00000000000E+00 0.  1.
       -2   -1    0    0    0  501 -0.00000000000E+00 -0.00000000000E+00 -0.32975410657E+03  0.32975410657E+03  0.00000000000E+00 0. -1.
       39    2    1    2    0    0  0.56843418861E-13 -0.11368683772E-12  0.42754480342E+03  0.10870530166E+04  0.99944469676E+03 0.  0.
       24    2    3    3    0    0  0.32461815428E+03 -0.33610298147E+03  0.38703373300E+03  0.61206398483E+03  0.80529813086E+02 0.  0.
      -24    2    3    3    0    0 -0.32461815428E+03  0.33610298147E+03  0.40511070421E+02  0.47498903173E+03  0.75041809645E+02 0.  0.
      -13    1    4    4    0    0  0.30025384389E+03 -0.27595980689E+03  0.31645312968E+03  0.51618675794E+03  0.00000000000E+00 0.  1.
       14    1    4    4    0    0  0.24364310389E+02 -0.60143174584E+02  0.70580603317E+02  0.95877226881E+02  0.00000000000E+00 0. -1.
        3    1    5    5  502    0 -0.28521622264E+03  0.32274770283E+03  0.28466093401E+02  0.43165343947E+03  0.00000000000E+00 0. -1.
       -4    1    5    5    0  502 -0.39401931646E+02  0.13355278647E+02  0.12044977021E+02  0.43335592261E+02  0.14200000000E+01 0.  1.
</event>
<event>
 9   1  0.7335000E-04  0.1009314E+04  0.7818608E-02  0.9298388E-01
       21   -1    0    0  503  502  0.00000000000E+00  0.00000000000E+00  0.38124756445E+03  0.38124756445E+03  0.00000000000E+00 0.  1.
       21   -1    0    0  502  503 -0.00000000000E+00 -0.00000000000E+00 -0.66801341044E+03  0.66801341044E+03  0.00000000000E+00 0. -1.
       39    2    1    2    0    0  0.00000000000E+00 -0.56843418861E-13 -0.28676584599E+03  0.10492609749E+04  0.10093135999E+04 0.  0.
       24    2    3    3    0    0  0.63641695879E+02  0.30681259480E+03  0.25978883937E+03  0.41422804903E+03  0.76879137340E+02 0.  0.
      -24    2    3    3    0    0 -0.63641695879E+02 -0.30681259480E+03 -0.54655468537E+03  0.63503292586E+03  0.79753113082E+02 0.  0.
      -13    1    4    4    0    0  0.60405590834E+02  0.27311850656E+03  0.25767286068E+03  0.38031284118E+03  0.00000000000E+00 0.  1.
       14    1    4    4    0    0  0.32361050454E+01  0.33694088234E+02  0.21159786904E+01  0.33915207852E+02  0.00000000000E+00 0. -1.
        3    1    5    5  501    0 -0.22259606752E+02 -0.25518688236E+03 -0.45352458072E+03  0.52086503082E+03  0.00000000000E+00 0. -1.
       -4    1    5    5    0  501 -0.41382089127E+02 -0.51625712442E+02 -0.93030104653E+02  0.11416789504E+03  0.14200000000E+01 0.  1.
</event>
<event>
 9   1  0.7335000E-04  0.1055390E+04  0.7818608E-02  0.9249796E-01
       21   -1    0    0  503  502  0.00000000000E+00  0.00000000000E+00  0.70617423567E+03  0.70617423567E+03  0.00000000000E+00 0. -1.
       21   -1    0    0  502  503 -0.00000000000E+00 -0.00000000000E+00 -0.39432516008E+03  0.39432516008E+03  0.00000000000E+00 0.  1.
       39    2    1    2    0    0  0.00000000000E+00  0.00000000000E+00  0.31184907560E+03  0.11004993958E+04  0.10553904842E+04 0.  0.
       24    2    3    3    0    0  0.36362938880E+03  0.32772811563E+03  0.34388726282E+03  0.60347879532E+03  0.79348325159E+02 0.  0.
      -24    2    3    3    0    0 -0.36362938880E+03 -0.32772811563E+03 -0.32038187221E+02  0.49702060043E+03  0.79818429179E+02 0.  0.
      -13    1    4    4    0    0  0.13792531922E+03  0.11992357938E+03  0.82913647755E+02  0.20069811050E+03  0.00000000000E+00 0.  1.
       14    1    4    4    0    0  0.22570406957E+03  0.20780453625E+03  0.26097361506E+03  0.40278068483E+03  0.00000000000E+00 0. -1.
        3    1    5    5  501    0 -0.52817369969E+02 -0.88631412420E+02  0.38105293249E+01  0.10324592957E+03  0.00000000000E+00 0. -1.
       -4    1    5    5    0  501 -0.31081201883E+03 -0.23909670321E+03 -0.35848716546E+02  0.39377467086E+03  0.14200000000E+01 0.  1.
</event>
<event>
 9   1  0.7335000E-04  0.1002225E+04  0.7818608E-02  0.9306108E-01
       21   -1    0    0  503  502  0.00000000000E+00  0.00000000000E+00  0.27161198883E+03  0.27161198883E+03  0.00000000000E+00 0. -1.
       21   -1    0    0  502  503 -0.00000000000E+00 -0.00000000000E+00 -0.92453084404E+03  0.92453084404E+03  0.00000000000E+00 0.  1.
       39    2    1    2    0    0  0.00000000000E+00 -0.28421709430E-13 -0.65291885521E+03  0.11961428329E+04  0.10022248476E+04 0.  0.
       24    2    3    3    0    0 -0.77961784617E+02  0.23763195125E+03  0.18207692524E+03  0.32084698799E+03  0.85110509816E+02 0.  0.
      -24    2    3    3    0    0  0.77961784617E+02 -0.23763195125E+03 -0.83499578046E+03  0.87529584488E+03  0.79861621371E+02 0.  0.
      -13    1    4    4    0    0 -0.22265437816E+02  0.93821070634E+02  0.12160222243E+03  0.15519421225E+03  0.00000000000E+00 0.  1.
       14    1    4    4    0    0 -0.55696346801E+02  0.14381088062E+03  0.60474702817E+02  0.16565277574E+03  0.00000000000E+00 0. -1.
        1    1    5    5  501    0  0.32891588710E+02 -0.16482568286E+02 -0.11123060973E+03  0.11715707493E+03  0.00000000000E+00 0. -1.
       -2    1    5    5    0  501  0.45070195907E+02 -0.22114938297E+03 -0.72376517073E+03  0.75813876995E+03  0.00000000000E+00 0.  1.
</event>
<event>
 9   1  0.7335000E-04  0.1013214E+04  0.7818608E-02  0.9294169E-01
       21   -1    0    0  503  502  0.00000000000E+00  0.00000000000E+00  0.15805584349E+04  0.15805584349E+04  0.00000000000E+00 0.  1.
       21   -1    0    0  502  503 -0.00000000000E+00 -0.00000000000E+00 -0.16237984034E+03  0.16237984034E+03  0.00000000000E+00 0. -1.
       39    2    1    2    0    0  0.00000000000E+00  0.00000000000E+00  0.14181785945E+04  0.17429382752E+04  0.10132143432E+04 0.  0.
       24    2    3    3    0    0 -0.27947060440E+03 -0.31008787242E+03  0.11805289326E+04  0.12546957874E+04  0.79716064198E+02 0.  0.
      -24    2    3    3    0    0  0.27947060440E+03  0.31008787242E+03  0.23764966190E+03  0.48824248777E+03  0.87436020739E+02 0.  0.
      -13    1    4    4    0    0 -0.17012573163E+03 -0.21618434786E+03  0.67180279491E+03  0.72594588784E+03  0.00000000000E+00 0.  1.
       14    1    4    4    0    0 -0.10934487277E+03 -0.93903524560E+02  0.50872613770E+03  0.52874989958E+03  0.00000000000E+00 0. -1.
        3    1    5    5  501    0  0.27345813128E+03  0.31496716059E+03  0.23822591195E+03  0.48034908862E+03  0.00000000000E+00 0. -1.
       -4    1    5    5    0  501  0.60124731207E+01 -0.48792881734E+01 -0.57625004817E+00  0.78933991553E+01  0.14200000000E+01 0.  1.
</event>
<event>
 9   1  0.7335000E-04  0.9926260E+03  0.7818608E-02  0.9316670E-01
       21   -1    0    0  503  502  0.00000000000E+00  0.00000000000E+00  0.11098460946E+04  0.11098460946E+04  0.00000000000E+00 0.  1.
       21   -1    0    0  502  503 -0.00000000000E+00 -0.00000000000E+00 -0.22194663301E+03  0.22194663301E+03  0.00000000000E+00 0. -1.
       39    2    1    2    0    0 -0.56843418861E-13  0.00000000000E+00  0.88789946164E+03  0.13317927277E+04  0.99262601994E+03 0.  0.
       24    2    3    3    0    0  0.30580540530E+03 -0.32060202372E+03  0.72408254645E+03  0.85246077521E+03  0.78046368787E+02 0.  0.
      -24    2    3    3    0    0 -0.30580540530E+03  0.32060202372E+03  0.16381691519E+03  0.47933195244E+03  0.81366672554E+02 0.  0.
      -13    1    4    4    0    0  0.21247445481E+03 -0.17999214247E+03  0.49461682768E+03  0.56761639469E+03  0.00000000000E+00 0.  1.
       14    1    4    4    0    0  0.93330950492E+02 -0.14060988126E+03  0.22946571877E+03  0.28484438053E+03  0.00000000000E+00 0. -1.
        3    1    5    5  501    0 -0.76341054685E+02  0.12750965473E+03  0.33520780455E+02  0.15234930719E+03  0.00000000000E+00 0. -1.
       -4    1    5    5    0  501 -0.22946435062E+03  0.19309236899E+03  0.13029613473E+03  0.32698264525E+03  0.14200000000E+01 0.  1.
</event>
<event>
 9   1  0.7335000E-04  0.9875376E+03  0.7818608E-02  0.9322320E-01
       21   -1    0    0  503  502  0.00000000000E+00  0.00000000000E+00  0.13292508026E+04  0.13292508026E+04  0.00000000000E+00 0.  1.
       21   -1    0    0  502  503 -0.00000000000E+00 -0.00000000000E+00 -0.18341731796E+03  0.18341731796E+03  0.00000000000E+00 0. -1.
       39    2    1    2    0    0 -0.71054273576E-14  0.14210854715E-13  0.11458334846E+04  0.15126681205E+04  0.98753757821E+03 0.  0.
       24    2    3    3    0    0 -0.42729969601E+02  0.36644392069E+02  0.13123491054E+04  0.13158126159E+04  0.77032484903E+02 0.  0.
      -24    2    3    3    0    0  0.42729969601E+02 -0.36644392069E+02 -0.16651562084E+03  0.19685550465E+03  0.88633943585E+02 0.  0.
      -13    1    4    4    0    0 -0.63518624395E+02  0.37248002916E+02  0.10940046625E+04  0.10964799273E+04  0.00000000000E+00 0.  1.
       14    1    4    4    0    0  0.20788654793E+02 -0.60361084711E+00  0.21834444293E+03  0.21933268856E+03  0.00000000000E+00 0. -1.
        3    1    5    5  501    0  0.44992445898E+02 -0.63539697360E+02 -0.12753559702E+03  0.14942202594E+03  0.00000000000E+00 0. -1.
       -4    1    5    5    0  501 -0.22624762971E+01  0.26895305291E+02 -0.38980023816E+02  0.47433478709E+02  0.14200000000E+01 0.  1.
</event>
<event>
 9   1  0.7335000E-04  0.9998010E+03  0.7818608E-02  0.9308763E-01
       21   -1    0    0  503  502  0.00000000000E+00  0.00000000000E+00  0.60874325569E+03  0.60874325569E+03  0.00000000000E+00 0. -1.
       21   -1    0    0  502  503 -0.00000000000E+00 -0.00000000000E+00 -0.41051875728E+03  0.41051875728E+03  0.00000000000E+00 0.  1.
       39    2    1    2    0    0  0.00000000000E+00  0.00000000000E+00  0.19822449841E+03  0.10192620130E+04  0.99980102985E+03 0.  0.
       24    2    3    3    0    0 -0.78071201171E+02  0.15615876177E+03  0.56954293849E+03  0.60111343476E+03  0.80483112163E+02 0.  0.
      -24    2    3    3    0    0  0.78071201171E+02 -0.15615876177E+03 -0.37131844008E+03  0.41814857820E+03  0.80561642095E+02 0.  0.
      -13    1    4    4    0    0  0.43548071021E+01 -0.64964107156E+01  0.10565138247E+02  0.13144955050E+02  0.00000000000E+00 0.  1.
       14    1    4    4    0    0 -0.82426008273E+02  0.16265517248E+03  0.55897780024E+03  0.58796847971E+03  0.00000000000E+00 0. -1.
        1    1    5    5  501    0  0.17349868316E+02 -0.76469168194E+02 -0.24307724380E+03  0.25541162477E+03  0.00000000000E+00 0. -1.
       -2    1    5    5    0  501  0.60721332855E+02 -0.79689593574E+02 -0.12824119628E+03  0.16273695343E+03  0.00000000000E+00 0.  1.
</event>
<event>
 9   1  0.7335000E-04  0.9848424E+03  0.7818608E-02  0.9325327E-01
       21   -1    0    0  503  502  0.00000000000E+00  0.00000000000E+00  0.10218204197E+04  0.10218204197E+04  0.00000000000E+00 0.  1.
       21   -1    0    0  502  503 -0.00000000000E+00 -0.00000000000E+00 -0.23730061764E+03  0.23730061764E+03  0.00000000000E+00 0. -1.
       39    2    1    2    0    0  0.00000000000E+00 -0.17763568394E-14  0.78451980205E+03  0.12591210373E+04  0.98484235634E+03 0.  0.
       24    2    3    3    0    0  0.45616283995E+03  0.11717949475E+02  0.60506402439E+03  0.76214362103E+03  0.80861477759E+02 0.  0.
      -24    2    3    3    0    0 -0.45616283995E+03 -0.11717949475E+02  0.17945577766E+03  0.49697741629E+03  0.80995859673E+02 0.  0.
      -13    1    4    4    0    0  0.22616353720E+03  0.20275651344E+02  0.36263504700E+03  0.42786122155E+03  0.00000000000E+00 0.  1.
       14    1    4    4    0    0  0.22999930275E+03 -0.85577018688E+01  0.24242897739E+03  0.33428239948E+03  0.00000000000E+00 0. -1.
        3    1    5    5  501    0 -0.37019301735E+03  0.22221431891E+02  0.13857847974E+03  0.39590485875E+03  0.00000000000E+00 0. -1.
       -4    1    5    5    0  501 -0.85969822595E+02 -0.33939381366E+02  0.40877297914E+02  0.10107255755E+03  0.14200000000E+01 0.  1.
</event>
<event>
 9   1  0.7335000E-04  0.1003831E+04  0.7818608E-02  0.9304353E-01
       21   -1    0    0  503  502  0.00000000000E+00  0.00000000000E+00  0.31971634688E+03  0.31971634688E+03  0.00000000000E+00 0. -1.
       21   -1    0    0  502  503 -0.00000000000E+00 -0.00000000000E+00 -0.78794566345E+03  0.78794566345E+03  0.00000000000E+00 0.  1.
       39    2    1    2    0    0  0.00000000000E+00  0.28421709430E-13 -0.46822931657E+03  0.11076620103E+04  0.10038308803E+04 0.  0.
       24    2    3    3    0    0  0.14665020523E+03  0.13559196528E+03  0.26685165189E+03  0.34232635827E+03  0.78013253393E+02 0.  0.
      -24    2    3    3    0    0 -0.14665020523E+03 -0.13559196528E+03 -0.73508096847E+03  0.76533565207E+03  0.74183329519E+02 0.  0.
      -13    1    4    4    0    0  0.11220721350E+03  0.86485708239E+02  0.12742408867E+03  0.19054431208E+03  0.00000000000E+00 0.  1.
       14    1    4    4    0    0  0.34442991731E+02  0.49106257044E+02  0.13942756323E+03  0.15178204620E+03  0.00000000000E+00 0. -1.
        1    1    5    5  501    0  0.78276740421E+01 -0.60787514395E+00 -0.30864867492E+02  0.31847794875E+02  0.00000000000E+00 0. -1.
       -2    1    5    5    0  501 -0.15447787928E+03 -0.13498409014E+03 -0.70421610097E+03  0.73348785719E+03  0.00000000000E+00 0.  1.
</event>
<event>
 9   1  0.7335000E-04  0.9847468E+03  0.7818608E-02  0.9325434E-01
       21   -1    0    0  503  502  0.00000000000E+00  0.00000000000E+00  0.20797270836E+03  0.20797270836E+03  0.00000000000E+00 0.  1.
       21   -1    0    0  502  503 -0.00000000000E+00 -0.00000000000E+00 -0.11656892363E+04  0.11656892363E+04  0.00000000000E+00 0. -1.
       39    2    1    2    0    0  0.00000000000E+00  0.00000000000E+00 -0.95771652795E+03  0.13736619447E+04  0.98474676455E+03 0.  0.
       24    2    3    3    0    0  0.16836123216E+03 -0.34530999944E+02 -0.11128400989E+04  0.11290211293E+04  0.82083678699E+02 0.  0.
      -24    2    3    3    0    0 -0.16836123216E+03  0.34530999944E+02  0.15512357095E+03  0.24464081533E+03  0.79043733516E+02 0.  0.
      -13    1    4    4    0    0  0.10093552758E+03 -0.43321918259E+02 -0.47338670636E+03  0.48596269722E+03  0.00000000000E+00 0.  1.
       14    1    4    4    0    0  0.67425704579E+02  0.87909183145E+01 -0.63945339254E+03  0.64305843211E+03  0.00000000000E+00 0. -1.
        1    1    5    5  501    0 -0.78809784405E+02 -0.14912116050E+02  0.36853090334E+02  0.88269494109E+02  0.00000000000E+00 0. -1.
       -2    1    5    5    0  501 -0.89551447750E+02  0.49443115994E+02  0.11827048062E+03  0.15637132122E+03  0.00000000000E+00 0.  1.
</event>
<event>
 9   1  0.7335000E-04  0.9840397E+03  0.7818608E-02  0.9326225E-01
       -1   -1    0    0    0  501 -0.00000000000E+00  0.00000000000E+00  0.57442925512E+02  0.57442925512E+02  0.00000000000E+00 0. -1.
        1   -1    0    0  501    0  0.00000000000E+00 -0.00000000000E+00 -0.42143315116E+04  0.42143315116E+04  0.00000000000E+00 0.  1.
       39    2    1    2    0    0 -0.56843418861E-13  0.00000000000E+00 -0.41568885861E+04  0.42717744372E+04  0.98403969657E+03 0.  0.
       24    2    3    3    0    0 -0.39918980762E+03 -0.25738248904E+03 -0.16469079433E+04  0.17159118918E+04  0.80309392902E+02 0.  0.
      -24    2    3    3    0    0  0.39918980762E+03  0.25738248904E+03 -0.25099806428E+04  0.25558625453E+04  0.82657577527E+02 0.  0.
      -13    1    4    4    0    0 -0.30102666871E+03 -0.22926482009E+03 -0.13443731984E+04  0.13966097199E+04  0.00000000000E+00 0.  1.
       14    1    4    4    0    0 -0.98163138910E+02 -0.28117668950E+02 -0.30253474488E+03  0.31930217194E+03  0.00000000000E+00 0. -1.
        1    1    5    5  502    0  0.49944698336E+01  0.16553376628E+02 -0.50525422125E+02  0.53402034490E+02  0.00000000000E+00 0. -1.
       -2    1    5    5    0  502  0.39419533779E+03  0.24082911241E+03 -0.24594552207E+04  0.25024605109E+04  0.00000000000E+00 0.  1.
</event>
<event>
 9   1  0.7335000E-04  0.1091186E+04  0.7818608E-02  0.9213825E-01
       21   -1    0    0  503  502  0.00000000000E+00  0.00000000000E+00  0.10549316776E+04  0.10549316776E+04  0.00000000000E+00 0.  1.
       21   -1    0    0  502  503 -0.00000000000E+00 -0.00000000000E+00 -0.28217160605E+03  0.28217160605E+03  0.00000000000E+00 0. -1.
       39    2    1    2    0    0  0.00000000000E+00  0.00000000000E+00  0.77276007155E+03  0.13371032836E+04  0.10911860808E+04 0.  0.
       24    2    3    3    0    0 -0.34604581777E+03 -0.37998086116E+03  0.18502793542E+03  0.55197353070E+03  0.79412082582E+02 0.  0.
      -24    2    3    3    0    0  0.34604581777E+03  0.37998086116E+03  0.58773213612E+03  0.78512975295E+03  0.82864360845E+02 0.  0.
      -13    1    4    4    0    0 -0.10836927760E+03 -0.10233478784E+03  0.18004403257E+02  0.15013483162E+03  0.00000000000E+00 0.  1.
       14    1    4    4    0    0 -0.23767654018E+03 -0.27764607331E+03  0.16702353217E+03  0.40183869907E+03  0.00000000000E+00 0. -1.
        1    1    5    5  501    0  0.23328282099E+03  0.22948233883E+03  0.42539601878E+03  0.53669804471E+03  0.00000000000E+00 0. -1.
       -2    1    5    5    0  501  0.11276299678E+03  0.15049852232E+03  0.16233611734E+03  0.24843170824E+03  0.00000000000E+00 0.  1.
</event>
<event>
 9   1  0.7335000E-04  0.1005663E+04  0.7818608E-02  0.9302355E-01
       21   -1    0    0  503  502  0.00000000000E+00  0.00000000000E+00  0.14539961508E+04  0.14539961508E+04  0.00000000000E+00 0.  1.
       21   -1    0    0  502  503 -0.00000000000E+00 -0.00000000000E+00 -0.17389295658E+03  0.17389295658E+03  0.00000000000E+00 0. -1.
       39    2    1    2    0    0  0.17763568394E-14  0.00000000000E+00  0.12801031942E+04  0.16278891074E+04  0.10056633423E+04 0.  0.
       24    2    3    3    0    0  0.87558682227E+01 -0.11660305066E+03  0.14208434270E+04  0.14279933317E+04  0.81828935067E+02 0.  0.
      -24    2    3    3    0    0 -0.87558682227E+01  0.11660305066E+03 -0.14074023282E+03  0.19989577567E+03  0.80483360670E+02 0.  0.
      -13    1    4    4    0    0 -0.22013880867E+02 -0.88688077787E+02  0.11850443147E+04  0.11885622466E+04  0.00000000000E+00 0.  1.
       14    1    4    4    0    0  0.30769749089E+02 -0.27914972876E+02  0.23579911230E+03  0.23943108514E+03  0.00000000000E+00 0. -1.
        3    1    5    5  501    0 -0.14269582799E+02  0.11127688417E+03 -0.15030413934E+03  0.18755665877E+03  0.00000000000E+00 0. -1.
       -4    1    5    5    0  501  0.55137145758E+01  0.53261664932E+01  0.95639065255E+01  0.12339116904E+02  0.14200000000E+01 0.  1.
</event>
<event>
 9   1  0.7335000E-04  0.9987706E+03  0.7818608E-02  0.9309894E-01
       21   -1    0    0  503  502  0.00000000000E+00  0.00000000000E+00  0.53364215169E+03  0.53364215169E+03  0.00000000000E+00 0.  1.
       21   -1    0    0  502  503 -0.00000000000E+00 -0.00000000000E+00 -0.46732751610E+03  0.46732751610E+03  0.00000000000E+00 0. -1.
       39    2    1    2    0    0 -0.56843418861E-13  0.56843418861E-13  0.66314635590E+02  0.10009696678E+04  0.99877056671E+03 0.  0.
       24    2    3    3    0    0 -0.34170773318E+03  0.22767956452E+03  0.30664391773E+03  0.51842125508E+03  0.78281200987E+02 0.  0.
      -24    2    3    3    0    0  0.34170773318E+03 -0.22767956452E+03 -0.24032928214E+03  0.48254841270E+03  0.80576967736E+02 0.  0.
      -13    1    4    4    0    0 -0.28446197153E+03  0.22130201497E+03  0.26463686335E+03  0.44713070183E+03  0.00000000000E+00 0.  1.
       14    1    4    4    0    0 -0.57245761654E+02  0.63775495450E+01  0.42007054381E+02  0.71290553254E+02  0.00000000000E+00 0. -1.
        1    1    5    5  501    0  0.29031811434E+03 -0.16195008329E+03 -0.16975107379E+03  0.37326647859E+03  0.00000000000E+00 0. -1.
       -2    1    5    5    0  501  0.51389618843E+02 -0.65729481230E+02 -0.70578208350E+02  0.10928193410E+03  0.00000000000E+00 0.  1.
</event>
<event>
 9   1  0.7335000E-04  0.9538492E+03  0.7818608E-02  0.9360663E-01
       21   -1    0    0  503  502  0.00000000000E+00  0.00000000000E+00  0.56619171649E+03  0.56619171649E+03  0.00000000000E+00 0. -1.
       21   -1    0    0  502  503 -0.00000000000E+00 -0.00000000000E+00 -0.40173155676E+03  0.40173155676E+03  0.00000000000E+00 0.  1.
       39    2    1    2    0    0  0.00000000000E+00 -0.56843418861E-13  0.16446015973E+03  0.96792327324E+03  0.95384921175E+03 0.  0.
       24    2    3    3    0    0 -0.10430558371E+03 -0.39577991348E+03 -0.14638999916E+03  0.44780119049E+03  0.10758475563E+03 0.  0.
      -24    2    3    3    0    0  0.10430558371E+03  0.39577991348E+03  0.31085015889E+03  0.52012208275E+03  0.79860910188E+02 0.  0.
      -13    1    4    4    0    0 -0.21476663477E+02 -0.11376363264E+03  0.75160066446E+01  0.11601681577E+03  0.00000000000E+00 0.  1.
       14    1    4    4    0    0 -0.82828920230E+02 -0.28201628084E+03 -0.15390600581E+03  0.33178437472E+03  0.00000000000E+00 0. -1.
        3    1    5    5  501    0  0.11232326521E+03  0.38490176237E+03  0.28848560335E+03  0.49395326289E+03  0.00000000000E+00 0. -1.
       -4    1    5    5    0  501 -0.80176815032E+01  0.10878151112E+02  0.22364555538E+02  0.26168819858E+02  0.14200000000E+01 0.  1.
</event>
<event>
 9   1  0.7335000E-04  0.9947027E+03  0.7818608E-02  0.9314374E-01
       -2   -1    0    0    0  501 -0.00000000000E+00  0.00000000000E+00  0.15590166464E+03  0.15590166464E+03  0.00000000000E+00 0. -1.
        2   -1    0    0  501    0  0.00000000000E+00 -0.00000000000E+00 -0.15866307664E+04  0.15866307664E+04  0.00000000000E+00 0.  1.
       39    2    1    2    0    0 -0.28421709430E-13 -0.14210854715E-13 -0.14307291018E+04  0.17425324311E+04  0.99470272474E+03 0.  0.
       24    2    3    3    0    0 -0.21041364370E+03 -0.80759468901E+02 -0.14790244592E+04  0.14983662048E+04  0.82413224504E+02 0.  0.
      -24    2    3    3    0    0  0.21041364370E+03  0.80759468901E+02  0.48295357430E+02  0.24416622622E+03  0.80552536915E+02 0.  0.
      -13    1    4    4    0    0 -0.12846129320E+03 -0.47913617220E+02 -0.11325831468E+04  0.11408517006E+04  0.00000000000E+00 0.  1.
       14    1    4    4    0    0 -0.81952350501E+02 -0.32845851681E+02 -0.34644131247E+03  0.35751450419E+03  0.00000000000E+00 0. -1.
        1    1    5    5  502    0  0.20375267827E+03  0.67159969177E+02  0.62447257639E+02  0.22343964588E+03  0.00000000000E+00 0. -1.
       -2    1    5    5    0  502  0.66609654322E+01  0.13599499724E+02 -0.14151900209E+02  0.20726580344E+02  0.00000000000E+00 0.  1.
</event>
<event>
 9   1  0.7335000E-04  0.1052497E+04  0.7818608E-02  0.9252769E-01
       21   -1    0    0  503  502  0.00000000000E+00  0.00000000000E+00  0.59310820837E+03  0.59310820837E+03  0.00000000000E+00 0.  1.
       21   -1    0    0  502  503 -0.00000000000E+00 -0.00000000000E+00 -0.46692607540E+03  0.46692607540E+03  0.00000000000E+00 0. -1.
       39    2    1    2    0    0  0.00000000000E+00  0.00000000000E+00  0.12618213297E+03  0.10600342838E+04  0.10524973882E+04 0.  0.
       24    2    3    3    0    0 -0.23576080562E+03 -0.31488455572E+03 -0.27951036117E+03  0.48919557913E+03  0.80317070024E+02 0.  0.
      -24    2    3    3    0    0  0.23576080562E+03  0.31488455572E+03  0.40569249415E+03  0.57083870464E+03  0.80839260355E+02 0.  0.
      -13    1    4    4    0    0 -0.17889452825E+03 -0.27754919134E+03 -0.25378893679E+03  0.41646804233E+03  0.00000000000E+00 0.  1.
       14    1    4    4    0    0 -0.56866277373E+02 -0.37335364378E+02 -0.25721424389E+02  0.72727536793E+02  0.00000000000E+00 0. -1.
        3    1    5    5  501    0  0.28473324206E+01  0.10447433743E+01 -0.37408728048E+01  0.48159028202E+01  0.00000000000E+00 0. -1.
       -4    1    5    5    0  501  0.23291347320E+03  0.31383981235E+03  0.40943336695E+03  0.56602280182E+03  0.14200000000E+01 0.  1.
</event>
<event>
 9   1  0.7335000E-04  0.9878228E+03  0.7818608E-02  0.9322002E-01
       21   -1    0    0  503  502  0.00000000000E+00  0.00000000000E+00  0.26344782480E+03  0.26344782480E+03  0.00000000000E+00 0.  1.
       21   -1    0    0  502  503 -0.00000000000E+00 -0.00000000000E+00 -0.92598400818E+03  0.92598400818E+03  0.00000000000E+00 0. -1.
       39    2    1    2    0    0 -0.28421709430E-13  0.56843418861E-13 -0.66253618338E+03  0.11894318330E+04  0.98782280346E+03 0.  0.
       24    2    3    3    0    0 -0.16521118459E+03  0.38388092947E+03 -0.63161803173E+03  0.76167772632E+03  0.80946384959E+02 0.  0.
      -24    2    3    3    0    0  0.16521118459E+03 -0.38388092947E+03 -0.30918151648E+02  0.42775410667E+03  0.85780767920E+02 0.  0.
      -13    1    4    4    0    0 -0.96710061610E+01  0.10411347955E+03 -0.13346111597E+03  0.16954354739E+03  0.00000000000E+00 0.  1.
       14    1    4    4    0    0 -0.15554017843E+03  0.27976744992E+03 -0.49815691576E+03  0.59213417893E+03  0.00000000000E+00 0. -1.
        3    1    5    5  501    0  0.23154087862E+02 -0.68778326820E+02 -0.38239666666E+02  0.82029519879E+02  0.00000000000E+00 0. -1.
       -4    1    5    5    0  501  0.14205709673E+03 -0.31510260265E+03  0.73215150184E+01  0.34572458679E+03  0.14200000000E+01 0.  1.
</event>
<event>
 9   1  0.7335000E-04  0.9232404E+03  0.7818608E-02  0.9396987E-01
       -2   -1    0    0    0  501 -0.00000000000E+00  0.00000000000E+00  0.59437718636E+02  0.59437718636E+02  0.00000000000E+00 0. -1.
        2   -1    0    0  501    0  0.00000000000E+00 -0.00000000000E+00 -0.35851509916E+04  0.35851509916E+04  0.00000000000E+00 0.  1.
       39    2    1    2    0    0  0.00000000000E+00  0.00000000000E+00 -0.35257132729E+04  0.36445887102E+04  0.92324037153E+03 0.  0.
       24    2    3    3    0    0 -0.42489508819E+03  0.76675867603E+02 -0.23292770127E+04  0.23701439266E+04  0.75072007920E+02 0.  0.
      -24    2    3    3    0    0  0.42489508819E+03 -0.76675867603E+02 -0.11964362603E+04  0.12744447836E+04  0.79591186472E+02 0.  0.
      -13    1    4    4    0    0 -0.40668342911E+03  0.82063415341E+02 -0.21347164140E+04  0.21746585902E+04  0.00000000000E+00 0.  1.
       14    1    4    4    0    0 -0.18211659076E+02 -0.53875477380E+01 -0.19456059865E+03  0.19548533639E+03  0.00000000000E+00 0. -1.
        1    1    5    5  502    0  0.21761414315E+03 -0.40816479654E+02 -0.49762479899E+03  0.54465800360E+03  0.00000000000E+00 0. -1.
       -2    1    5    5    0  502  0.20728094504E+03 -0.35859387949E+02 -0.69881146128E+03  0.72978678003E+03  0.00000000000E+00 0.  1.
</event>
<event>
 9   1  0.7335000E-04  0.9966914E+03  0.7818608E-02  0.9312181E-01
        2   -1    0    0  501    0  0.00000000000E+00  0.00000000000E+00  0.27712886785E+04  0.27712886785E+04  0.00000000000E+00 0.  1.
       -2   -1    0    0    0  501 -0.00000000000E+00 -0.00000000000E+00 -0.89614783192E+02  0.89614783192E+02  0.00000000000E+00 0. -1.
       39    2    1    2    0    0  0.00000000000E+00  0.00000000000E+00  0.26816738953E+04  0.28609034617E+04  0.99669139473E+03 0.  0.
       24    2    3    3    0    0 -0.42291644831E+03 -0.11898566013E+03  0.19775834462E+04  0.20272929716E+04  0.77875518837E+02 0.  0.
      -24    2    3    3    0    0  0.42291644831E+03  0.11898566013E+03  0.70409044911E+03  0.83361049009E+03  0.78403948254E+02 0.  0.
      -13    1    4    4    0    0 -0.40044430360E+03 -0.91837211370E+02  0.18092900362E+04  0.18553490639E+04  0.00000000000E+00 0.  1.
       14    1    4    4    0    0 -0.22472144709E+02 -0.27148448763E+02  0.16829340994E+03  0.17194390768E+03  0.00000000000E+00 0. -1.
        3    1    5    5  502    0  0.22617410736E+03  0.90390212030E+02  0.33237104512E+03  0.41206265167E+03  0.00000000000E+00 0. -1.
       -4    1    5    5    0  502  0.19674234094E+03  0.28595448104E+02  0.37171940399E+03  0.42154783842E+03  0.14200000000E+01 0.  1.
</event>
<event>
 9   1  0.7335000E-04  0.9974651E+03  0.7818608E-02  0.9311329E-01
       21   -1    0    0  503  502  0.00000000000E+00  0.00000000000E+00  0.32575092654E+03  0.32575092654E+03  0.00000000000E+00 0. -1.
       21   -1    0    0  502  503 -0.00000000000E+00 -0.00000000000E+00 -0.76357154390E+03  0.76357154390E+03  0.00000000000E+00 0.  1.
       39    2    1    2    0    0  0.00000000000E+00  0.00000000000E+00 -0.43782061737E+03  0.10893224704E+04  0.99746506285E+03 0.  0.
       24    2    3    3    0    0 -0.15835698755E+03  0.40167603977E+03 -0.47634996651E+03  0.64848522413E+03  0.84871779101E+02 0.  0.
      -24    2    3    3    0    0  0.15835698755E+03 -0.40167603977E+03  0.38529349144E+02  0.44083724631E+03  0.80202185471E+02 0.  0.
      -13    1    4    4    0    0 -0.87328638246E+02  0.24967420155E+03 -0.34868614275E+03  0.43765914148E+03  0.00000000000E+00 0.  1.
       14    1    4    4    0    0 -0.71028349301E+02  0.15200183822E+03 -0.12766382376E+03  0.21082608265E+03  0.00000000000E+00 0. -1.
        1    1    5    5  501    0  0.10527107881E+03 -0.28653526690E+03  0.63034841811E+02  0.31170154073E+03  0.00000000000E+00 0. -1.
       -2    1    5    5    0  501  0.53085908739E+02 -0.11514077287E+03 -0.24505492667E+02  0.12913570558E+03  0.00000000000E+00 0.  1.
</event>
<event>
 9   1  0.7335000E-04  0.1028951E+04  0.7818608E-02  0.9277349E-01
       21   -1    0    0  503  502  0.00000000000E+00  0.00000000000E+00  0.61069115152E+03  0.61069115152E+03  0.00000000000E+00 0. -1.
       21   -1    0    0  502  503 -0.00000000000E+00 -0.00000000000E+00 -0.43341901944E+03  0.43341901944E+03  0.00000000000E+00 0.  1.
       39    2    1    2    0    0  0.00000000000E+00  0.11368683772E-12  0.17727213208E+03  0.10441101710E+04  0.10289512332E+04 0.  0.
       24    2    3    3    0    0 -0.13716968903E+03  0.48631225230E+03  0.33912162616E+02  0.51278629977E+03  0.80527163975E+02 0.  0.
      -24    2    3    3    0    0  0.13716968903E+03 -0.48631225230E+03  0.14335996946E+03  0.53132387119E+03  0.80236182152E+02 0.  0.
      -13    1    4    4    0    0 -0.59024499444E+02  0.18857553841E+03 -0.25652075356E+02  0.19925524885E+03  0.00000000000E+00 0.  1.
       14    1    4    4    0    0 -0.78145189584E+02  0.29773671389E+03  0.59564237972E+02  0.31353105093E+03  0.00000000000E+00 0. -1.
        3    1    5    5  501    0  0.84573029680E+02 -0.39120374412E+03  0.89979247609E+02  0.41023070553E+03  0.00000000000E+00 0. -1.
       -4    1    5    5    0  501  0.52596659348E+02 -0.95108508181E+02  0.53380721855E+02  0.12109316566E+03  0.14200000000E+01 0.  1.
</event>
<event>
 9   1  0.7335000E-04  0.9979790E+03  0.7818608E-02  0.9310764E-01
       21   -1    0    0  503  502  0.00000000000E+00  0.00000000000E+00  0.29558359296E+03  0.29558359296E+03  0.00000000000E+00 0. -1.
       21   -1    0    0  502  503 -0.00000000000E+00 -0.00000000000E+00 -0.84236927974E+03  0.84236927974E+03  0.00000000000E+00 0.  1.
       39    2    1    2    0    0  0.56843418861E-13  0.00000000000E+00 -0.54678568678E+03  0.11379528727E+04  0.99797903445E+03 0.  0.
       24    2    3    3    0    0 -0.34826316593E+03 -0.45598195998E+02 -0.66692104509E+03  0.75798601507E+03  0.79954302151E+02 0.  0.
      -24    2    3    3    0    0  0.34826316593E+03  0.45598195998E+02  0.12013535831E+03  0.37996685762E+03  0.81091802018E+02 0.  0.
      -13    1    4    4    0    0 -0.35053569197E+03 -0.43954615257E+02 -0.64094597624E+03  0.73185997568E+03  0.00000000000E+00 0.  1.
       14    1    4    4    0    0  0.22725260384E+01 -0.16435807416E+01 -0.25975068851E+02  0.26126039387E+02  0.00000000000E+00 0. -1.
        1    1    5    5  501    0  0.24522321476E+03  0.48219757228E+01  0.10962514102E+03  0.26865470041E+03  0.00000000000E+00 0. -1.
       -2    1    5    5    0  501  0.10303995117E+03  0.40776220275E+02  0.10510217294E+02  0.11131215722E+03  0.00000000000E+00 0.  1.
</event>
<event>
 9   1  0.7335000E-04  0.9960885E+03  0.7818608E-02  0.9312845E-01
       21   -1    0    0  503  502  0.00000000000E+00  0.00000000000E+00  0.40152481785E+03  0.40152481785E+03  0.00000000000E+00 0. -1.
       21   -1    0    0  502  503 -0.00000000000E+00 -0.00000000000E+00 -0.61776522184E+03  0.61776522184E+03  0.00000000000E+00 0.  1.
       39    2    1    2    0    0  0.28421709430E-13  0.00000000000E+00 -0.21624040399E+03  0.10192900397E+04  0.99608848638E+03 0.  0.
       24    2    3    3    0    0 -0.15232813381E+03  0.15929881578E+03 -0.55788266334E+03  0.60523764219E+03  0.80619876037E+02 0.  0.
      -24    2    3    3    0    0  0.15232813381E+03 -0.15929881578E+03  0.34164225934E+03  0.41405239751E+03  0.78358033748E+02 0.  0.
      -13    1    4    4    0    0 -0.15915888567E+03  0.15228504972E+03 -0.49775638945E+03  0.54431949303E+03  0.00000000000E+00 0.  1.
       14    1    4    4    0    0  0.68307518597E+01  0.70137660603E+01 -0.60126273885E+02  0.60918149156E+02  0.00000000000E+00 0. -1.
        3    1    5    5  501    0  0.35471625993E+02 -0.92427259294E+02  0.15479194767E+03  0.18374324906E+03  0.00000000000E+00 0. -1.
       -4    1    5    5    0  501  0.11685650782E+03 -0.66871556482E+02  0.18685031167E+03  0.23030914845E+03  0.14200000000E+01 0.  1.
</event>
<event>
 9   1  0.7335000E-04  0.9972885E+03  0.7818608E-02  0.9311524E-01
       21   -1    0    0  503  502  0.00000000000E+00  0.00000000000E+00  0.63089383500E+03  0.63089383500E+03  0.00000000000E+00 0. -1.
       21   -1    0    0  502  503 -0.00000000000E+00 -0.00000000000E+00 -0.39411719730E+03  0.39411719730E+03  0.00000000000E+00 0.  1.
       39    2    1    2    0    0  0.00000000000E+00  0.28421709430E-13  0.23677663769E+03  0.10250110323E+04  0.99728854409E+03 0.  0.
       24    2    3    3    0    0 -0.20359494100E+03 -0.13478132975E+03  0.55723720513E+03  0.61363038737E+03  0.80075231303E+02 0.  0.
      -24    2    3    3    0    0  0.20359494100E+03  0.13478132975E+03 -0.32046056744E+03  0.41138064493E+03  0.83199476497E+02 0.  0.
      -13    1    4    4    0    0 -0.71923365156E+02 -0.13534504820E+02  0.11233427043E+03  0.13407140482E+03  0.00000000000E+00 0.  1.
       14    1    4    4    0    0 -0.13167157585E+03 -0.12124682493E+03  0.44490293470E+03  0.47955898255E+03  0.00000000000E+00 0. -1.
        1    1    5    5  501    0  0.10627531423E+03  0.23949716505E+02 -0.11440343830E+03  0.15797524499E+03  0.00000000000E+00 0. -1.
       -2    1    5    5    0  501  0.97319626776E+02  0.11083161325E+03 -0.20605712914E+03  0.25340539994E+03  0.00000000000E+00 0.  1.
</event>
<event>
 9   1  0.7335000E-04  0.1031763E+04  0.7818608E-02  0.9274378E-01
       21   -1    0    0  503  502  0.00000000000E+00  0.00000000000E+00  0.62589127671E+03  0.62589127671E+03  0.00000000000E+00 0. -1.
       21   -1    0    0  502  503 -0.00000000000E+00 -0.00000000000E+00 -0.42520768035E+03  0.42520768035E+03  0.00000000000E+00 0.  1.
       39    2    1    2    0    0  0.56843418861E-13  0.28421709430E-13  0.20068359635E+03  0.10510989571E+04  0.10317631083E+04 0.  0.
       24    2    3    3    0    0  0.34009027507E+03  0.25284377928E+03 -0.18791137165E+03  0.47037174069E+03  0.79671318072E+02 0.  0.
      -24    2    3    3    0    0 -0.34009027507E+03 -0.25284377928E+03  0.38859496801E+03  0.58072721637E+03  0.81527165737E+02 0.  0.
      -13    1    4    4    0    0  0.34435115292E+03  0.24618988105E+03 -0.18444468330E+03  0.46174345176E+03  0.00000000000E+00 0.  1.
       14    1    4    4    0    0 -0.42608778465E+01  0.66538982280E+01 -0.34666883501E+01  0.86282889247E+01  0.00000000000E+00 0. -1.
        3    1    5    5  501    0 -0.26012066997E+03 -0.17058052026E+03  0.23942914968E+03  0.39253890834E+03  0.00000000000E+00 0. -1.
       -4    1    5    5    0  501 -0.79969605098E+02 -0.82263259016E+02  0.14916581833E+03  0.18818830803E+03  0.14200000000E+01 0.  1.
</event>
<event>
 9   1  0.7335000E-04  0.1005213E+04  0.7818608E-02  0.9302846E-01
       -2   -1    0    0    0  501 -0.00000000000E+00  0.00000000000E+00  0.12732596175E+03  0.12732596175E+03  0.00000000000E+00 0.  1.
        2   -1    0    0  501    0  0.00000000000E+00 -0.00000000000E+00 -0.19839895584E+04  0.19839895584E+04  0.00000000000E+00 0. -1.
       39    2    1    2    0    0  0.00000000000E+00  0.14210854715E-13 -0.18566635966E+04  0.21113155201E+04  0.10052131687E+04 0.  0.
       24    2    3    3    0    0  0.44662514463E+03  0.99090531713E+02 -0.52595522877E+03  0.70179453216E+03  0.81201658878E+02 0.  0.
      -24    2    3    3    0    0 -0.44662514463E+03 -0.99090531713E+02 -0.13307083679E+04  0.14095209880E+04  0.81680487010E+02 0.  0.
      -13    1    4    4    0    0  0.37536553177E+03  0.87061224292E+02 -0.48244311153E+03  0.61743849498E+03  0.00000000000E+00 0.  1.
       14    1    4    4    0    0  0.71259612863E+02  0.12029307421E+02 -0.43512117238E+02  0.84356037181E+02  0.00000000000E+00 0. -1.
        3    1    5    5  502    0 -0.19833972869E+03 -0.54731297134E+02 -0.71884049228E+03  0.74770703902E+03  0.00000000000E+00 0. -1.
       -4    1    5    5    0  502 -0.24828541594E+03 -0.44359234578E+02 -0.61186787558E+03  0.66181394896E+03  0.14200000000E+01 0.  1.
</event>
<event>
 9   1  0.7335000E-04  0.1000383E+04  0.7818608E-02  0.9308125E-01
       21   -1    0    0  503  502  0.00000000000E+00  0.00000000000E+00  0.86443248697E+03  0.86443248697E+03  0.00000000000E+00 0.  1.
       21   -1    0    0  502  503 -0.00000000000E+00 -0.00000000000E+00 -0.28942839164E+03  0.28942839164E+03  0.00000000000E+00 0. -1.
       39    2    1    2    0    0  0.71054273576E-14  0.56843418861E-13  0.57500409533E+03  0.11538608786E+04  0.10003825356E+04 0.  0.
       24    2    3    3    0    0 -0.59295050589E+02 -0.23707434370E+03 -0.20622141515E+03  0.33000247250E+03  0.81573355470E+02 0.  0.
      -24    2    3    3    0    0  0.59295050589E+02  0.23707434370E+03  0.78122551048E+03  0.82385840612E+03  0.93323242787E+02 0.  0.
      -13    1    4    4    0    0 -0.50481476986E+01 -0.59312040411E+02 -0.98771301818E+02  0.11532203604E+03  0.00000000000E+00 0.  1.
       14    1    4    4    0    0 -0.54246902890E+02 -0.17776230329E+03 -0.10745011333E+03  0.21468043646E+03  0.00000000000E+00 0. -1.
        3    1    5    5  501    0  0.51304725993E+02  0.58465034919E+02  0.16864298953E+03  0.18571697051E+03  0.00000000000E+00 0. -1.
       -4    1    5    5    0  501  0.79903245964E+01  0.17860930878E+03  0.61258252095E+03  0.63814143561E+03  0.14200000000E+01 0.  1.
</event>
<event>
 9   1  0.7335000E-04  0.1006609E+04  0.7818608E-02  0.9301326E-01
       21   -1    0    0  503  502  0.00000000000E+00  0.00000000000E+00  0.39212023580E+03  0.39212023580E+03  0.00000000000E+00 0. -1.
       21   -1    0    0  502  503 -0.00000000000E+00 -0.00000000000E+00 -0.64601481009E+03  0.64601481009E+03  0.00000000000E+00 0.  1.
       39    2    1    2    0    0  0.56843418861E-13  0.00000000000E+00 -0.25389457429E+03  0.10381350459E+04  0.10066091191E+04 0.  0.
       24    2    3    3    0    0 -0.27577761835E+03  0.34287019917E+02 -0.54953815438E+03  0.62102542007E+03  0.80321197262E+02 0.  0.
      -24    2    3    3    0    0  0.27577761835E+03 -0.34287019917E+02  0.29564358010E+03  0.41710962582E+03  0.96676879251E+02 0.  0.
      -13    1    4    4    0    0 -0.26469882832E+03  0.49342073914E+02 -0.49684466868E+03  0.56511479787E+03  0.00000000000E+00 0.  1.
       14    1    4    4    0    0 -0.11078790032E+02 -0.15055053997E+02 -0.52693485707E+02  0.55910622205E+02  0.00000000000E+00 0. -1.
        3    1    5    5  501    0  0.24207820215E+03  0.46277086346E+01  0.23310942942E+03  0.33610010075E+03  0.00000000000E+00 0. -1.
       -4    1    5    5    0  501  0.33699416206E+02 -0.38914728552E+02  0.62534150684E+02  0.81009525073E+02  0.14200000000E+01 0.  1.
</event>
<event>
 9   1  0.7335000E-04  0.8950355E+03  0.7818608E-02  0.9431809E-01
       21   -1    0    0  503  502  0.00000000000E+00  0.00000000000E+00  0.16133801446E+04  0.16133801446E+04  0.00000000000E+00 0.  1.
       21   -1    0    0  502  503 -0.00000000000E+00 -0.00000000000E+00 -0.12413201931E+03  0.12413201931E+03  0.00000000000E+00 0. -1.
       39    2    1    2    0    0  0.00000000000E+00 -0.71054273576E-14  0.14892481253E+04  0.17375121640E+04  0.89503549709E+03 0.  0.
       24    2    3    3    0    0  0.55127004046E+02 -0.43041223712E+02  0.15885297169E+04  0.15919921431E+04  0.78235469973E+02 0.  0.
      -24    2    3    3    0    0 -0.55127004046E+02  0.43041223712E+02 -0.99281591564E+02  0.14552002083E+03  0.80172991247E+02 0.  0.
      -13    1    4    4    0    0  0.54288217645E+00 -0.12169278235E+02  0.10100331629E+04  0.10101066162E+04  0.00000000000E+00 0.  1.
       14    1    4    4    0    0  0.54584121869E+02 -0.30871945477E+02  0.57849655404E+03  0.58188552690E+03  0.00000000000E+00 0. -1.
        3    1    5    5  501    0 -0.19783503493E+02  0.15980680948E+02 -0.97700268235E+02  0.10095598837E+03  0.00000000000E+00 0. -1.
       -4    1    5    5    0  501 -0.35343500553E+02  0.27060542764E+02 -0.15813233296E+01  0.44564032464E+02  0.14200000000E+01 0.  1.
</event>
<event>
 9   1  0.7335000E-04  0.1006640E+04  0.7818608E-02  0.9301292E-01
       21   -1    0    0  503  502  0.00000000000E+00  0.00000000000E+00  0.32523270635E+03  0.32523270635E+03  0.00000000000E+00 0.  1.
       21   -1    0    0  502  503 -0.00000000000E+00 -0.00000000000E+00 -0.77892263780E+03  0.77892263780E+03  0.00000000000E+00 0. -1.
       39    2    1    2    0    0 -0.56843418861E-13  0.00000000000E+00 -0.45368993144E+03  0.11041553441E+04  0.10066401890E+04 0.  0.
       24    2    3    3    0    0 -0.41172024725E+03 -0.26075275720E+03 -0.11971827981E+03  0.50803642493E+03  0.79138992607E+02 0.  0.
      -24    2    3    3    0    0  0.41172024725E+03  0.26075275720E+03 -0.33397165163E+03  0.59611891922E+03  0.79467851191E+02 0.  0.
      -13    1    4    4    0    0 -0.32594114260E+03 -0.22674784809E+03 -0.69856531077E+02  0.40315276259E+03  0.00000000000E+00 0.  1.
       14    1    4    4    0    0 -0.85779104651E+02 -0.34004909109E+02 -0.49861748732E+02  0.10488366234E+03  0.00000000000E+00 0. -1.
        3    1    5    5  501    0  0.32996956950E+03  0.17055586491E+03 -0.23865654429E+03  0.44150443484E+03  0.00000000000E+00 0. -1.
       -4    1    5    5    0  501  0.81750677750E+02  0.90196892295E+02 -0.95315107349E+02  0.15461448438E+03  0.14200000000E+01 0.  1.
</event>
<event>
 9   1  0.7335000E-04  0.9309990E+03  0.7818608E-02  0.9387640E-01
        2   -1    0    0  501    0  0.00000000000E+00  0.00000000000E+00  0.12750158254E+03  0.12750158254E+03  0.00000000000E+00 0.  1.
       -2   -1    0    0    0  501 -0.00000000000E+00 -0.00000000000E+00 -0.16995067952E+04  0.16995067952E+04  0.00000000000E+00 0. -1.
       39    2    1    2    0    0  0.56843418861E-13  0.00000000000E+00 -0.15720052126E+04  0.18270083777E+04  0.93099904601E+03 0.  0.
       24    2    3    3    0    0 -0.43204773073E+03  0.12446310427E+03 -0.96137150796E+03  0.10644171632E+04  0.81193688935E+02 0.  0.
      -24    2    3    3    0    0  0.43204773073E+03 -0.12446310427E+03 -0.61063370469E+03  0.76259121448E+03  0.80718852500E+02 0.  0.
      -13    1    4    4    0    0 -0.36031838713E+03  0.71129677968E+02 -0.78641272247E+03  0.86794800608E+03  0.00000000000E+00 0.  1.
       14    1    4    4    0    0 -0.71729343598E+02  0.53333426306E+02 -0.17495878549E+03  0.19646915715E+03  0.00000000000E+00 0. -1.
        3    1    5    5  502    0  0.33497821860E+03 -0.89851255397E+02 -0.52168961520E+03  0.62645327809E+03  0.00000000000E+00 0. -1.
       -4    1    5    5    0  502  0.97069512134E+02 -0.34611848877E+02 -0.88944089493E+02  0.13613793639E+03  0.14200000000E+01 0.  1.
</event>
<event>
 9   1  0.7335000E-04  0.9999494E+03  0.7818608E-02  0.9308600E-01
       21   -1    0    0  503  502  0.00000000000E+00  0.00000000000E+00  0.20649055423E+03  0.20649055423E+03  0.00000000000E+00 0.  1.
       21   -1    0    0  502  503 -0.00000000000E+00 -0.00000000000E+00 -0.12105866499E+04  0.12105866499E+04  0.00000000000E+00 0. -1.
       39    2    1    2    0    0  0.00000000000E+00  0.00000000000E+00 -0.10040960957E+04  0.14170772042E+04  0.99994941529E+03 0.  0.
       24    2    3    3    0    0  0.36096276192E+03 -0.76452105277E+02 -0.96628680455E+03  0.10374269225E+04  0.80033687089E+02 0.  0.
      -24    2    3    3    0    0 -0.36096276192E+03  0.76452105277E+02 -0.37809291159E+02  0.37965028162E+03  0.81029340026E+02 0.  0.
      -13    1    4    4    0    0  0.27491029258E+02  0.10265501486E+02 -0.44093945660E+02  0.52966151968E+02  0.00000000000E+00 0.  1.
       14    1    4    4    0    0  0.33347173266E+03 -0.86717606763E+02 -0.92219285889E+03  0.98446077057E+03  0.00000000000E+00 0. -1.
        1    1    5    5  501    0 -0.15202558928E+02  0.13798564184E+02 -0.18650693152E+02  0.27737457103E+02  0.00000000000E+00 0. -1.
       -2    1    5    5    0  501 -0.34576020299E+03  0.62653541093E+02 -0.19158598007E+02  0.35191282452E+03  0.00000000000E+00 0.  1.
</event>
<event>
 9   1  0.7335000E-04  0.9979682E+03  0.7818608E-02  0.9310776E-01
       21   -1    0    0  503  502  0.00000000000E+00  0.00000000000E+00  0.99009810612E+03  0.99009810612E+03  0.00000000000E+00 0.  1.
       21   -1    0    0  502  503 -0.00000000000E+00 -0.00000000000E+00 -0.25147519573E+03  0.25147519573E+03  0.00000000000E+00 0. -1.
       39    2    1    2    0    0  0.28421709430E-13  0.28421709430E-13  0.73862291039E+03  0.12415733018E+04  0.99796816588E+03 0.  0.
       24    2    3    3    0    0 -0.23068487005E+03 -0.18533021369E+03  0.85909315001E+03  0.91221356619E+03  0.80806884459E+02 0.  0.
      -24    2    3    3    0    0  0.23068487005E+03  0.18533021369E+03 -0.12047023962E+03  0.32935973566E+03  0.80012245706E+02 0.  0.
      -13    1    4    4    0    0 -0.15355909407E+03 -0.96224381876E+02  0.41682693352E+03  0.45451536778E+03  0.00000000000E+00 0.  1.
       14    1    4    4    0    0 -0.77125775982E+02 -0.89105831813E+02  0.44226621649E+03  0.45769819841E+03  0.00000000000E+00 0. -1.
        1    1    5    5  501    0  0.21092077190E+03  0.19243981155E+03 -0.11302095321E+03  0.30707391448E+03  0.00000000000E+00 0. -1.
       -2    1    5    5    0  501  0.19764098152E+02 -0.71095978662E+01 -0.74492864008E+01  0.22285821175E+02  0.00000000000E+00 0.  1.
</event>
<event>
 9   1  0.7335000E-04  0.9989062E+03  0.7818608E-02  0.9309745E-01
       21   -1    0    0  503  502  0.00000000000E+00  0.00000000000E+00  0.37318563007E+03  0.37318563007E+03  0.00000000000E+00 0. -1.
       21   -1    0    0  502  503 -0.00000000000E+00 -0.00000000000E+00 -0.66844321301E+03  0.66844321301E+03  0.00000000000E+00 0.  1.
       39    2    1    2    0    0 -0.56843418861E-13 -0.28421709430E-13 -0.29525758294E+03  0.10416288431E+04  0.99890620504E+03 0.  0.
       24    2    3    3    0    0  0.36854709599E+03  0.25065926415E+03  0.71728739099E+02  0.45874603936E+03  0.81522315693E+02 0.  0.
      -24    2    3    3    0    0 -0.36854709599E+03 -0.25065926415E+03 -0.36698632204E+03  0.58288280372E+03  0.80102269891E+02 0.  0.
      -13    1    4    4    0    0  0.21086460105E+03  0.10796838721E+03  0.91750901704E+01  0.23707643260E+03  0.00000000000E+00 0.  1.
       14    1    4    4    0    0  0.15768249494E+03  0.14269087693E+03  0.62553648929E+02  0.22166960677E+03  0.00000000000E+00 0. -1.
        3    1    5    5  501    0 -0.66345663645E+02 -0.21803024376E+02 -0.87272605823E+02  0.11177489290E+03  0.00000000000E+00 0. -1.
       -4    1    5    5    0  501 -0.30220143234E+03 -0.22885623977E+03 -0.27971371622E+03  0.47110791082E+03  0.14200000000E+01 0.  1.
</event>
<event>
 9   1  0.7335000E-04  0.9984236E+03  0.7818608E-02  0.9310275E-01
        2   -1    0    0  501    0  0.00000000000E+00  0.00000000000E+00  0.14936507931E+04  0.14936507931E+04  0.00000000000E+00 0.  1.
       -2   -1    0    0    0  501 -0.00000000000E+00 -0.00000000000E+00 -0.16684785758E+03  0.16684785758E+03  0.00000000000E+00 0. -1.
       39    2    1    2    0    0 -0.28421709430E-13  0.56843418861E-13  0.13268029355E+04  0.16604986507E+04  0.99842362714E+03 0.  0.
       24    2    3    3    0    0 -0.15047307543E+03  0.46783873169E+03  0.72243998793E+03  0.87745231926E+03  0.80546949781E+02 0.  0.
      -24    2    3    3    0    0  0.15047307543E+03 -0.46783873169E+03  0.60436294759E+03  0.78304633143E+03  0.79948479890E+02 0.  0.
      -13    1    4    4    0    0 -0.11295385615E+03  0.43025804348E+03  0.64945148293E+03  0.78718980321E+03  0.00000000000E+00 0.  1.
       14    1    4    4    0    0 -0.37519219284E+02  0.37580688214E+02  0.72988504998E+02  0.90262516052E+02  0.00000000000E+00 0. -1.
        1    1    5    5  502    0  0.16016284384E+03 -0.43329786916E+03  0.56429018643E+03  0.72926167763E+03  0.00000000000E+00 0. -1.
       -2    1    5    5    0  502 -0.96897684093E+01 -0.34540862532E+02  0.40072761161E+02  0.53784653790E+02  0.00000000000E+00 0.  1.
</event>
<event>
 9   1  0.7335000E-04  0.1000643E+04  0.7818608E-02  0.9307840E-01
       21   -1    0    0  503  502  0.00000000000E+00  0.00000000000E+00  0.18649535428E+03  0.18649535428E+03  0.00000000000E+00 0. -1.
       21   -1    0    0  502  503 -0.00000000000E+00 -0.00000000000E+00 -0.13422393865E+04  0.13422393865E+04  0.00000000000E+00 0.  1.
       39    2    1    2    0    0  0.00000000000E+00  0.00000000000E+00 -0.11557440323E+04  0.15287347408E+04  0.10006426134E+04 0.  0.
       24    2    3    3    0    0 -0.45023316670E+03 -0.77969619933E+02 -0.86423339577E+03  0.98091117263E+03  0.80611414713E+02 0.  0.
      -24    2    3    3    0    0  0.45023316670E+03  0.77969619933E+02 -0.29151063649E+03  0.54782356820E+03  0.79643233609E+02 0.  0.
      -13    1    4    4    0    0 -0.10130164581E+03 -0.39550885854E+02 -0.15234982325E+03  0.18718110123E+03  0.00000000000E+00 0.  1.
       14    1    4    4    0    0 -0.34893152090E+03 -0.38418734079E+02 -0.71188357253E+03  0.79373007140E+03  0.00000000000E+00 0. -1.
        3    1    5    5  501    0  0.30221479383E+03  0.16642876413E+02 -0.17397837795E+03  0.34911207791E+03  0.00000000000E+00 0. -1.
       -4    1    5    5    0  501  0.14801837287E+03  0.61326743519E+02 -0.11753225854E+03  0.19871149030E+03  0.14200000000E+01 0.  1.
</event>
<event>
 9   1  0.7335000E-04  0.9866467E+03  0.7818608E-02  0.9323313E-01
       21   -1    0    0  503  502  0.00000000000E+00  0.00000000000E+00  0.34312425223E+03  0.34312425223E+03  0.00000000000E+00 0. -1.
       21   -1    0    0  502  503 -0.00000000000E+00 -0.00000000000E+00 -0.70927061445E+03  0.70927061445E+03  0.00000000000E+00 0.  1.
       39    2    1    2    0    0  0.00000000000E+00 -0.56843418861E-13 -0.36614636222E+03  0.10523948667E+04  0.98664674369E+03 0.  0.
       24    2    3    3    0    0 -0.44714182226E+00 -0.44277018872E+03 -0.39933868978E+03  0.60153273406E+03  0.79527360294E+02 0.  0.
      -24    2    3    3    0    0  0.44714182226E+00  0.44277018872E+03  0.33192327560E+02  0.45086213262E+03  0.78289795433E+02 0.  0.
      -13    1    4    4    0    0 -0.19810300503E+02 -0.41539778346E+03 -0.37634214394E+03  0.56087536567E+03  0.00000000000E+00 0.  1.
       14    1    4    4    0    0  0.19363158681E+02 -0.27372405255E+02 -0.22996545838E+02  0.40657368385E+02  0.00000000000E+00 0. -1.
        3    1    5    5  501    0 -0.38698324992E+02  0.23795948605E+03  0.20400659403E+02  0.24194723445E+03  0.00000000000E+00 0. -1.
       -4    1    5    5    0  501  0.39145466814E+02  0.20481070267E+03  0.12791668157E+02  0.20891489816E+03  0.14200000000E+01 0.  1.
</event>
<event>
 9   1  0.7335000E-04  0.9969645E+03  0.7818608E-02  0.9311880E-01
       21   -1    0    0  503  502  0.00000000000E+00  0.00000000000E+00  0.39958099542E+03  0.39958099542E+03  0.00000000000E+00 0.  1.
       21   -1    0    0  502  503 -0.00000000000E+00 -0.00000000000E+00 -0.62186281988E+03  0.62186281988E+03  0.00000000000E+00 0. -1.
       39    2    1    2    0    0  0.00000000000E+00  0.00000000000E+00 -0.22228182446E+03  0.10214438153E+04  0.99696452210E+03 0.  0.
       24    2    3    3    0    0 -0.25420925805E+03  0.83755849671E+02 -0.53425040948E+03  0.60258283533E+03  0.77750782428E+02 0.  0.
      -24    2    3    3    0    0  0.25420925805E+03 -0.83755849671E+02  0.31196858502E+03  0.41886097997E+03  0.80515422540E+02 0.  0.
      -13    1    4    4    0    0 -0.15970741056E+02  0.23776141617E+02 -0.28943829460E+02  0.40719955106E+02  0.00000000000E+00 0.  1.
       14    1    4    4    0    0 -0.23823851699E+03  0.59979708055E+02 -0.50530658002E+03  0.56186288022E+03  0.00000000000E+00 0. -1.
        1    1    5    5  501    0  0.20789653657E+03 -0.74087831506E+02  0.20217201684E+03  0.29930503018E+03  0.00000000000E+00 0. -1.
       -2    1    5    5    0  501  0.46312721475E+02 -0.96680181660E+01  0.10979656818E+03  0.11955594979E+03  0.00000000000E+00 0.  1.
</event>
<event>
 9   1  0.7335000E-04  0.1004508E+04  0.7818608E-02  0.9303615E-01
       21   -1    0    0  503  502  0.00000000000E+00  0.00000000000E+00  0.61067740523E+03  0.61067740523E+03  0.00000000000E+00 0. -1.
       21   -1    0    0  502  503 -0.00000000000E+00 -0.00000000000E+00 -0.41308040615E+03  0.41308040615E+03  0.00000000000E+00 0.  1.
       39    2    1    2    0    0  0.35527136788E-14  0.28421709430E-13  0.19759699908E+03  0.10237578114E+04  0.10045075820E+04 0.  0.
       24    2    3    3    0    0  0.20698701732E+02  0.17998318978E+03 -0.37087421968E+03  0.42073284835E+03  0.81523358620E+02 0.  0.
      -24    2    3    3    0    0 -0.20698701732E+02 -0.17998318978E+03  0.56847121876E+03  0.60302496303E+03  0.87505397695E+02 0.  0.
      -13    1    4    4    0    0  0.15046311603E+02  0.10816967831E+03 -0.30171516179E+03  0.32087241959E+03  0.00000000000E+00 0.  1.
       14    1    4    4    0    0  0.56523901291E+01  0.71813511475E+02 -0.69159057888E+02  0.99860428762E+02  0.00000000000E+00 0. -1.
        1    1    5    5  501    0 -0.78578833589E+01 -0.18656355714E+03  0.53061789298E+03  0.56251493806E+03  0.00000000000E+00 0. -1.
       -2    1    5    5    0  501 -0.12840818373E+02  0.65803673623E+01  0.37853325780E+02  0.40510024978E+02  0.00000000000E+00 0.  1.
</event>
<event>
 9   1  0.7335000E-04  0.9984299E+03  0.7818608E-02  0.9310269E-01
       21   -1    0    0  503  502  0.00000000000E+00  0.00000000000E+00  0.57408053051E+03  0.57408053051E+03  0.00000000000E+00 0.  1.
       21   -1    0    0  502  503 -0.00000000000E+00 -0.00000000000E+00 -0.43411257625E+03  0.43411257625E+03  0.00000000000E+00 0. -1.
       39    2    1    2    0    0 -0.14210854715E-13  0.56843418861E-13  0.13996795425E+03  0.10081931068E+04  0.99842992358E+03 0.  0.
       24    2    3    3    0    0 -0.11712618787E+03  0.32146034174E+03  0.42764605117E+03  0.55391035482E+03  0.82947217507E+02 0.  0.
      -24    2    3    3    0    0  0.11712618787E+03 -0.32146034174E+03 -0.28767809692E+03  0.45428275194E+03  0.80986641284E+02 0.  0.
      -13    1    4    4    0    0 -0.12022842752E+03  0.22180440382E+03  0.31056632335E+03  0.40012936600E+03  0.00000000000E+00 0.  1.
       14    1    4    4    0    0  0.31022396520E+01  0.99655937917E+02  0.11707972783E+03  0.15378098881E+03  0.00000000000E+00 0. -1.
        3    1    5    5  501    0  0.30653358780E+02 -0.19873500618E+03 -0.17491341534E+03  0.26651441602E+03  0.00000000000E+00 0. -1.
       -4    1    5    5    0  501  0.86472829089E+02 -0.12272533557E+03 -0.11276468159E+03  0.18776833592E+03  0.14200000000E+01 0.  1.
</event>
<event>
 9   1  0.7335000E-04  0.1011505E+04  0.7818608E-02  0.9296016E-01
       21   -1    0    0  503  502  0.00000000000E+00  0.00000000000E+00  0.51927396178E+03  0.51927396178E+03  0.00000000000E+00 0. -1.
       21   -1    0    0  502  503 -0.00000000000E+00 -0.00000000000E+00 -0.49258318374E+03  0.49258318374E+03  0.00000000000E+00 0.  1.
       39    2    1    2    0    0  0.00000000000E+00  0.00000000000E+00  0.26690778040E+02  0.10118571455E+04  0.10115050595E+04 0.  0.
       24    2    3    3    0    0 -0.19032008621E+03  0.46152708886E+03 -0.83081431925E+00  0.50566715502E+03  0.80433776804E+02 0.  0.
      -24    2    3    3    0    0  0.19032008621E+03 -0.46152708886E+03  0.27521592359E+02  0.50618999049E+03  0.79005566040E+02 0.  0.
      -13    1    4    4    0    0 -0.18930418345E+03  0.39755649285E+03 -0.13107212056E+02  0.44052132513E+03  0.00000000000E+00 0.  1.
       14    1    4    4    0    0 -0.10159027593E+01  0.63970596004E+02  0.12276397736E+02  0.65145829896E+02  0.00000000000E+00 0. -1.
        3    1    5    5  501    0  0.51000192668E+02 -0.22690207845E+03  0.13515216310E+02  0.23295543335E+03  0.00000000000E+00 0. -1.
       -4    1    5    5    0  501  0.13931989355E+03 -0.23462501041E+03  0.14006376049E+02  0.27323455714E+03  0.14200000000E+01 0.  1.
</event>
<event>
 9   1  0.7335000E-04  0.1004979E+04  0.7818608E-02  0.9303100E-01
       21   -1    0    0  503  502  0.00000000000E+00  0.00000000000E+00  0.52621672144E+03  0.52621672144E+03  0.00000000000E+00 0.  1.
       21   -1    0    0  502  503 -0.00000000000E+00 -0.00000000000E+00 -0.47983257210E+03  0.47983257210E+03  0.00000000000E+00 0. -1.
       39    2    1    2    0    0  0.28421709430E-13  0.00000000000E+00  0.46384149344E+02  0.10060492935E+04  0.10049794484E+04 0.  0.
       24    2    3    3    0    0 -0.18590600873E+03  0.19211936613E+03 -0.39473861606E+03  0.48380940181E+03  0.82353308050E+02 0.  0.
      -24    2    3    3    0    0  0.18590600873E+03 -0.19211936613E+03  0.44112276541E+03  0.52223989173E+03  0.81696483595E+02 0.  0.
      -13    1    4    4    0    0  0.80563424707E+01  0.50160454094E+01 -0.20938820933E+02  0.22989118896E+02  0.00000000000E+00 0.  1.
       14    1    4    4    0    0 -0.19396235120E+03  0.18710332072E+03 -0.37379979513E+03  0.46082028292E+03  0.00000000000E+00 0. -1.
        1    1    5    5  501    0  0.82364121708E+02 -0.39492925449E+02  0.10781271242E+03  0.14130506242E+03  0.00000000000E+00 0. -1.
       -2    1    5    5    0  501  0.10354188702E+03 -0.15262644068E+03  0.33331005299E+03  0.38093482932E+03  0.00000000000E+00 0.  1.
</event>
<event>
 9   1  0.7335000E-04  0.9954466E+03  0.7818608E-02  0.9313553E-01
       -2   -1    0    0    0  501 -0.00000000000E+00  0.00000000000E+00  0.14361125583E+03  0.14361125583E+03  0.00000000000E+00 0. -1.
        2   -1    0    0  501    0  0.00000000000E+00 -0.00000000000E+00 -0.17249933908E+04  0.17249933908E+04  0.00000000000E+00 0.  1.
       39    2    1    2    0    0  0.00000000000E+00  0.00000000000E+00 -0.15813821350E+04  0.18686046467E+04  0.99544656744E+03 0.  0.
       24    2    3    3    0    0 -0.28690777550E+03 -0.51236454415E+02 -0.15316874288E+04  0.15611226065E+04  0.78077955785E+02 0.  0.
      -24    2    3    3    0    0  0.28690777550E+03  0.51236454415E+02 -0.49694706262E+02  0.30748204019E+03  0.84465349724E+02 0.  0.
      -13    1    4    4    0    0 -0.20749822300E+03 -0.25073358935E+02 -0.90140662454E+03  0.92532053291E+03  0.00000000000E+00 0.  1.
       14    1    4    4    0    0 -0.79409552499E+02 -0.26163095479E+02 -0.63028080421E+03  0.63580207357E+03  0.00000000000E+00 0. -1.
        3    1    5    5  502    0  0.20314065857E+03  0.31808718088E+02  0.47932555345E+01  0.20567181871E+03  0.00000000000E+00 0. -1.
       -4    1    5    5    0  502  0.83767116927E+02  0.19427736326E+02 -0.54487961796E+02  0.10181022148E+03  0.14200000000E+01 0.  1.
</event>
<event>
 9   1  0.7335000E-04  0.9303740E+03  0.7818608E-02  0.9388389E-01
       21   -1    0    0  503  502  0.00000000000E+00  0.00000000000E+00  0.57333289333E+03  0.57333289333E+03  0.00000000000E+00 0.  1.
       21   -1    0    0  502  503 -0.00000000000E+00 -0.00000000000E+00 -0.37744034603E+03  0.37744034603E+03  0.00000000000E+00 0. -1.
       39    2    1    2    0    0 -0.28421709430E-13 -0.14210854715E-13  0.19589254730E+03  0.95077323935E+03  0.93037404445E+03 0.  0.
       24    2    3    3    0    0 -0.16150133901E+03 -0.64996685035E+02  0.53073132373E+03  0.56420508884E+03  0.79651696242E+02 0.  0.
      -24    2    3    3    0    0  0.16150133901E+03  0.64996685035E+02 -0.33483877643E+03  0.38656815052E+03  0.83729786974E+02 0.  0.
      -13    1    4    4    0    0 -0.16346218593E+03 -0.69613363560E+02  0.53018223150E+03  0.55915928429E+03  0.00000000000E+00 0.  1.
       14    1    4    4    0    0  0.19608469130E+01  0.46166785252E+01  0.54909222992E+00  0.50458045442E+01  0.00000000000E+00 0. -1.
        3    1    5    5  501    0  0.12583135819E+03  0.28238498264E+02 -0.29401437498E+03  0.32105357213E+03  0.00000000000E+00 0. -1.
       -4    1    5    5    0  501  0.35669980828E+02  0.36758186771E+02 -0.40824401449E+02  0.65514578382E+02  0.14200000000E+01 0.  1.
</event>
<event>
 9   1  0.7335000E-04  0.9984485E+03  0.7818608E-02  0.9310248E-01
       21   -1    0    0  503  502  0.00000000000E+00  0.00000000000E+00  0.64007886328E+03  0.64007886328E+03  0.00000000000E+00 0.  1.
       21   -1    0    0  502  503 -0.00000000000E+00 -0.00000000000E+00 -0.38936584967E+03  0.38936584967E+03  0.00000000000E+00 0. -1.
       39    2    1    2    0    0  0.13322676296E-14  0.14210854715E-13  0.25071301360E+03  0.10294447129E+04  0.99844849733E+03 0.  0.
       24    2    3    3    0    0  0.29197625420E+01  0.84307928431E+02 -0.37525590126E+03  0.39271623599E+03  0.79326532593E+02 0.  0.
      -24    2    3    3    0    0 -0.29197625420E+01 -0.84307928431E+02  0.62596891486E+03  0.63672847696E+03  0.80434564592E+02 0.  0.
      -13    1    4    4    0    0  0.25292557302E+02  0.26751353260E+02 -0.52596367030E+02  0.64200671187E+02  0.00000000000E+00 0.  1.
       14    1    4    4    0    0 -0.22372794760E+02  0.57556575171E+02 -0.32265953423E+03  0.32851556481E+03  0.00000000000E+00 0. -1.
        1    1    5    5  501    0 -0.34865034792E+01  0.14047617829E+02  0.15040638181E+03  0.15110119444E+03  0.00000000000E+00 0. -1.
       -2    1    5    5    0  501  0.56674093724E+00 -0.98355546260E+02  0.47556253305E+03  0.48562728251E+03  0.00000000000E+00 0.  1.
</event>
<event>
 9   1  0.7335000E-04  0.1003780E+04  0.7818608E-02  0.9304409E-01
        2   -1    0    0  501    0  0.00000000000E+00  0.00000000000E+00  0.11761076699E+04  0.11761076699E+04  0.00000000000E+00 0.  1.
       -2   -1    0    0    0  501 -0.00000000000E+00 -0.00000000000E+00 -0.21417566689E+03  0.21417566689E+03  0.00000000000E+00 0. -1.
       39    2    1    2    0    0  0.00000000000E+00 -0.56843418861E-13  0.96193200302E+03  0.13902833368E+04  0.10037801443E+04 0.  0.
       24    2    3    3    0    0 -0.28655750664E+03  0.35423240379E+03  0.75033446480E+03  0.88141000176E+03  0.79284182647E+02 0.  0.
      -24    2    3    3    0    0  0.28655750664E+03 -0.35423240379E+03  0.21159753822E+03  0.50887333505E+03  0.81134163189E+02 0.  0.
      -13    1    4    4    0    0 -0.70054040942E+01  0.17355828197E+02  0.69562330587E+02  0.72036229049E+02  0.00000000000E+00 0.  1.
       14    1    4    4    0    0 -0.27955210254E+03  0.33687657560E+03  0.68077213422E+03  0.80937377271E+03  0.00000000000E+00 0. -1.
        3    1    5    5  502    0  0.12993618538E+03 -0.22230529603E+03  0.10591074424E+03  0.27842439308E+03  0.00000000000E+00 0. -1.
       -4    1    5    5    0  502  0.15662132125E+03 -0.13192710776E+03  0.10568679398E+03  0.23044894197E+03  0.14200000000E+01 0.  1.
</event>
<event>
 9   1  0.7335000E-04  0.9859850E+03  0.7818608E-02  0.9324051E-01
       21   -1    0    0  503  502  0.00000000000E+00  0.00000000000E+00  0.10272834343E+03  0.10272834343E+03  0.00000000000E+00 0.  1.
       21   -1    0    0  502  503 -0.00000000000E+00 -0.00000000000E+00 -0.23658669897E+04  0.23658669897E+04  0.00000000000E+00 0. -1.
       39    2    1    2    0    0  0.00000000000E+00 -0.28421709430E-13 -0.22631386462E+04  0.24685953331E+04  0.98598498290E+03 0.  0.
       24    2    3    3    0    0  0.44985456889E+03  0.16423325640E+03 -0.93493503630E+03  0.10543568030E+04  0.90681036056E+02 0.  0.
      -24    2    3    3    0    0 -0.44985456889E+03 -0.16423325640E+03 -0.13282036099E+04  0.14142385301E+04  0.81265582401E+02 0.  0.
      -13    1    4    4    0    0  0.31173409018E+03  0.14266207578E+03 -0.72726700545E+03  0.80401984308E+03  0.00000000000E+00 0.  1.
       14    1    4    4    0    0  0.13812047871E+03  0.21571180611E+02 -0.20766803085E+03  0.25033695993E+03  0.00000000000E+00 0. -1.
        1    1    5    5  501    0 -0.39306895368E+03 -0.11251893746E+03 -0.11085715740E+04  0.11815644919E+04  0.00000000000E+00 0. -1.
       -2    1    5    5    0  501 -0.56785615204E+02 -0.51714318935E+02 -0.21963203588E+03  0.23267403822E+03  0.00000000000E+00 0.  1.
</event>
<event>
 9   1  0.7335000E-04  0.1002945E+04  0.7818608E-02  0.9305321E-01
       21   -1    0    0  503  502  0.00000000000E+00  0.00000000000E+00  0.24082387645E+04  0.24082387645E+04  0.00000000000E+00 0. -1.
       21   -1    0    0  502  503 -0.00000000000E+00 -0.00000000000E+00 -0.10442261043E+03  0.10442261043E+03  0.00000000000E+00 0.  1.
       39    2    1    2    0    0 -0.56843418861E-13  0.42632564146E-13  0.23038161541E+04  0.25126613749E+04  0.10029448207E+04 0.  0.
       24    2    3    3    0    0 -0.23914304278E+03  0.12278078340E+03  0.11052718342E+03  0.30155455216E+03  0.80339118547E+02 0.  0.
      -24    2    3    3    0    0  0.23914304278E+03 -0.12278078340E+03  0.21932889706E+04  0.22111068228E+04  0.78818508210E+02 0.  0.
      -13    1    4    4    0    0 -0.20211737921E+03  0.11150586197E+03  0.12212444562E+03  0.26115009564E+03  0.00000000000E+00 0.  1.
       14    1    4    4    0    0 -0.37025663569E+02  0.11274921431E+02 -0.11597262203E+02  0.40404456519E+02  0.00000000000E+00 0. -1.
        3    1    5    5  501    0  0.22574429775E+03 -0.13337963463E+03  0.20934903046E+04  0.21098465040E+04  0.00000000000E+00 0. -1.
       -4    1    5    5    0  501  0.13398745036E+02  0.10598851232E+02  0.99798666037E+02  0.10126031878E+03  0.14200000000E+01 0.  1.
</event>
<event>
 9   1  0.7335000E-04  0.1001319E+04  0.7818608E-02  0.9307099E-01
       21   -1    0    0  503  502  0.00000000000E+00  0.00000000000E+00  0.76033085976E+03  0.76033085976E+03  0.00000000000E+00 0.  1.
       21   -1    0    0  502  503 -0.00000000000E+00 -0.00000000000E+00 -0.32967215822E+03  0.32967215822E+03  0.00000000000E+00 0. -1.
       39    2    1    2    0    0 -0.28421709430E-13  0.00000000000E+00  0.43065870154E+03  0.10900030180E+04  0.10013189612E+04 0.  0.
       24    2    3    3    0    0  0.14042337812E+03  0.24908197941E+03  0.65422617389E+03  0.71833638880E+03  0.78960263919E+02 0.  0.
      -24    2    3    3    0    0 -0.14042337812E+03 -0.24908197941E+03 -0.22356747235E+03  0.37166662918E+03  0.79956931908E+02 0.  0.
      -13    1    4    4    0    0  0.14300641718E+03  0.20901408801E+03  0.52274864986E+03  0.58086476505E+03  0.00000000000E+00 0.  1.
       14    1    4    4    0    0 -0.25830390564E+01  0.40067891400E+02  0.13147752403E+03  0.13747162375E+03  0.00000000000E+00 0. -1.
        1    1    5    5  501    0 -0.14782079035E+03 -0.21042194611E+03 -0.18719349039E+03  0.31807197977E+03  0.00000000000E+00 0. -1.
       -2    1    5    5    0  501  0.73974122272E+01 -0.38660033299E+02 -0.36373981955E+02  0.53594649412E+02  0.00000000000E+00 0.  1.
</event>
<event>
 9   1  0.7335000E-04  0.1003772E+04  0.7818608E-02  0.9304418E-01
       21   -1    0    0  503  502  0.00000000000E+00  0.00000000000E+00  0.75895171228E+03  0.75895171228E+03  0.00000000000E+00 0.  1.
       21   -1    0    0  502  503 -0.00000000000E+00 -0.00000000000E+00 -0.33189123394E+03  0.33189123394E+03  0.00000000000E+00 0. -1.
       39    2    1    2    0    0  0.00000000000E+00  0.56843418861E-13  0.42706047834E+03  0.10908429462E+04  0.10037717276E+04 0.  0.
       24    2    3    3    0    0  0.17518597452E+03  0.43553350841E+03  0.41999793464E+02  0.47845242558E+03  0.82299321228E+02 0.  0.
      -24    2    3    3    0    0 -0.17518597452E+03 -0.43553350841E+03  0.38506068487E+03  0.61239052065E+03  0.79817642953E+02 0.  0.
      -13    1    4    4    0    0 -0.46969670183E+01  0.59842611336E+02  0.74415208765E+01  0.60486162580E+02  0.00000000000E+00 0.  1.
       14    1    4    4    0    0  0.17988294154E+03  0.37569089707E+03  0.34558272588E+02  0.41796626300E+03  0.00000000000E+00 0. -1.
        3    1    5    5  501    0 -0.41803520781E+02 -0.85189371076E+02  0.12135630483E+03  0.15405231584E+03  0.00000000000E+00 0. -1.
       -4    1    5    5    0  501 -0.13338245374E+03 -0.35034413733E+03  0.26370438004E+03  0.45833820480E+03  0.14200000000E+01 0.  1.
</event>
<event>
 9   1  0.7335000E-04  0.1070666E+04  0.7818608E-02  0.9234264E-01
       21   -1    0    0  503  502  0.00000000000E+00  0.00000000000E+00  0.54709767477E+03  0.54709767477E+03  0.00000000000E+00 0.  1.
       21   -1    0    0  502  503 -0.00000000000E+00 -0.00000000000E+00 -0.52382095086E+03  0.52382095086E+03  0.00000000000E+00 0. -1.
       39    2    1    2    0    0  0.28421709430E-13  0.71054273576E-14  0.23276723904E+02  0.10709186256E+04  0.10706656326E+04 0.  0.
       24    2    3    3    0    0 -0.24511991528E+03 -0.53577805206E+02  0.47776385550E+03  0.54554688804E+03  0.80054677186E+02 0.  0.
      -24    2    3    3    0    0  0.24511991528E+03  0.53577805206E+02 -0.45448713160E+03  0.52537173759E+03  0.80638426252E+02 0.  0.
      -13    1    4    4    0    0 -0.21857823367E+03 -0.73033999339E+02  0.41888884547E+03  0.47809860296E+03  0.00000000000E+00 0.  1.
       14    1    4    4    0    0 -0.26541681614E+02  0.19456194132E+02  0.58875010038E+02  0.67448285078E+02  0.00000000000E+00 0. -1.
        1    1    5    5  501    0  0.21166451534E+03  0.74109255757E+02 -0.38959017967E+03  0.44952703694E+03  0.00000000000E+00 0. -1.
       -2    1    5    5    0  501  0.33455399947E+02 -0.20531450551E+02 -0.64896951927E+02  0.75844700651E+02  0.00000000000E+00 0.  1.
</event>
<event>
 9   1  0.7335000E-04  0.9977934E+03  0.7818608E-02  0.9310968E-01
       21   -1    0    0  503  502  0.00000000000E+00  0.00000000000E+00  0.48316077755E+03  0.48316077755E+03  0.00000000000E+00 0. -1.
       21   -1    0    0  502  503 -0.00000000000E+00 -0.00000000000E+00 -0.51514515422E+03  0.51514515422E+03  0.00000000000E+00 0.  1.
       39    2    1    2    0    0  0.00000000000E+00 -0.28421709430E-13 -0.31984376669E+02  0.99830593177E+03  0.99779343206E+03 0.  0.
       24    2    3    3    0    0  0.15606615002E+03 -0.21091871919E+03 -0.43272987135E+03  0.51260228848E+03  0.81624844899E+02 0.  0.
      -24    2    3    3    0    0 -0.15606615002E+03  0.21091871919E+03  0.40074549469E+03  0.48570364329E+03  0.80422187903E+02 0.  0.
      -13    1    4    4    0    0  0.91365232499E+02 -0.15609421269E+03 -0.22817487711E+03  0.29116452993E+03  0.00000000000E+00 0.  1.
       14    1    4    4    0    0  0.64700917523E+02 -0.54824506501E+02 -0.20455499425E+03  0.22143775855E+03  0.00000000000E+00 0. -1.
        1    1    5    5  501    0 -0.15976883570E+03  0.16999513492E+03  0.33745860691E+03  0.41024716712E+03  0.00000000000E+00 0. -1.
       -2    1    5    5    0  501  0.37026856768E+01  0.40923584276E+02  0.63286887779E+02  0.75456476169E+02  0.00000000000E+00 0.  1.
</event>
<event>
 9   1  0.7335000E-04  0.1013983E+04  0.7818608E-02  0.9293340E-01
       21   -1    0    0  503  502  0.00000000000E+00  0.00000000000E+00  0.18539584114E+04  0.18539584114E+04  0.00000000000E+00 0. -1.
       21   -1    0    0  502  503 -0.00000000000E+00 -0.00000000000E+00 -0.13864408177E+03  0.13864408177E+03  0.00000000000E+00 0.  1.
       39    2    1    2    0    0  0.00000000000E+00  0.00000000000E+00  0.17153143297E+04  0.19926024932E+04  0.10139829616E+04 0.  0.
       24    2    3    3    0    0 -0.46711160216E+03  0.77246566071E+02  0.11762126621E+04  0.12704946087E+04  0.80746785548E+02 0.  0.
      -24    2    3    3    0    0  0.46711160216E+03 -0.77246566071E+02  0.53910166755E+03  0.72210788449E+03  0.81540836753E+02 0.  0.
      -13    1    4    4    0    0 -0.40737007316E+03  0.46438608470E+02  0.95497029989E+03  0.10392666619E+04  0.00000000000E+00 0.  1.
       14    1    4    4    0    0 -0.59741528994E+02  0.30807957601E+02  0.22124236224E+03  0.23122794681E+03  0.00000000000E+00 0. -1.
        1    1    5    5  501    0  0.24814377121E+03 -0.81708400073E+02  0.28388095113E+03  0.38579785931E+03  0.00000000000E+00 0. -1.
       -2    1    5    5    0  501  0.21896783094E+03  0.44618340016E+01  0.25522071642E+03  0.33631002518E+03  0.00000000000E+00 0.  1.
</event>
<event>
 9   1  0.7335000E-04  0.1003633E+04  0.7818608E-02  0.9304569E-01
       21   -1    0    0  503  502  0.00000000000E+00  0.00000000000E+00  0.20351000046E+04  0.20351000046E+04  0.00000000000E+00 0. -1.
       21   -1    0    0  502  503 -0.00000000000E+00 -0.00000000000E+00 -0.12373830284E+03  0.12373830284E+03  0.00000000000E+00 0.  1.
       39    2    1    2    0    0  0.00000000000E+00 -0.56843418861E-13  0.19113617017E+04  0.21588383074E+04  0.10036330418E+04 0.  0.
       24    2    3    3    0    0  0.22574976040E+03 -0.39628930433E+03  0.53994607289E+03  0.71140514584E+03  0.80915714490E+02 0.  0.
      -24    2    3    3    0    0 -0.22574976040E+03  0.39628930433E+03  0.13714156288E+04  0.14474331616E+04  0.79207090064E+02 0.  0.
      -13    1    4    4    0    0  0.18167744018E+03 -0.36407279388E+03  0.49444779084E+03  0.64033921431E+03  0.00000000000E+00 0.  1.
       14    1    4    4    0    0  0.44072320218E+02 -0.32216510451E+02  0.45498282051E+02  0.71065931533E+02  0.00000000000E+00 0. -1.
        3    1    5    5  501    0 -0.11771531431E+03  0.28070298478E+03  0.92677568659E+03  0.97548153962E+03  0.00000000000E+00 0. -1.
       -4    1    5    5    0  501 -0.10803444609E+03  0.11558631956E+03  0.44463994224E+03  0.47195162193E+03  0.14200000000E+01 0.  1.
</event>
<event>
 9   1  0.7335000E-04  0.9986890E+03  0.7818608E-02  0.9309984E-01
        1   -1    0    0  501    0  0.00000000000E+00  0.00000000000E+00  0.18661311554E+04  0.18661311554E+04  0.00000000000E+00 0. -1.
       -1   -1    0    0    0  501 -0.00000000000E+00 -0.00000000000E+00 -0.13361598032E+03  0.13361598032E+03  0.00000000000E+00 0.  1.
       39    2    1    2    0    0 -0.28421709430E-13 -0.11368683772E-12  0.17325151751E+04  0.19997471358E+04  0.99868902815E+03 0.  0.
       24    2    3    3    0    0  0.10734401841E+03 -0.48067170577E+03  0.84090211388E+03  0.97801853804E+03  0.82679311840E+02 0.  0.
      -24    2    3    3    0    0 -0.10734401841E+03  0.48067170577E+03  0.89161306124E+03  0.10217285977E+04  0.79921520203E+02 0.  0.
      -13    1    4    4    0    0  0.44567940397E+02 -0.33192192477E+03  0.61618107313E+03  0.70131132911E+03  0.00000000000E+00 0.  1.
       14    1    4    4    0    0  0.62776078014E+02 -0.14874978100E+03  0.22472104075E+03  0.27670720893E+03  0.00000000000E+00 0. -1.
        1    1    5    5  502    0 -0.10008531382E+03  0.44466471953E+03  0.85978519355E+03  0.97312607707E+03  0.00000000000E+00 0. -1.
       -2    1    5    5    0  502 -0.72587045958E+01  0.36006986242E+02  0.31827867691E+02  0.48602520638E+02  0.00000000000E+00 0.  1.
</event>
<event>
 9   1  0.7335000E-04  0.9999133E+03  0.7818608E-02  0.9308640E-01
       21   -1    0    0  503  502  0.00000000000E+00  0.00000000000E+00  0.81792193082E+02  0.81792193082E+02  0.00000000000E+00 0. -1.
       21   -1    0    0  502  503 -0.00000000000E+00 -0.00000000000E+00 -0.30559965790E+04  0.30559965790E+04  0.00000000000E+00 0.  1.
       39    2    1    2    0    0 -0.28421709430E-13  0.00000000000E+00 -0.29742043859E+04  0.31377887721E+04  0.99991332074E+03 0.  0.
       24    2    3    3    0    0  0.20277837316E+03 -0.44870695731E+03 -0.15230703844E+04  0.16027961472E+04  0.82189364338E+02 0.  0.
      -24    2    3    3    0    0 -0.20277837316E+03  0.44870695731E+03 -0.14511340015E+04  0.15349926249E+04  0.89193417937E+02 0.  0.
      -13    1    4    4    0    0  0.16591460271E+02 -0.39223046670E+02 -0.22500141212E+03  0.22899641787E+03  0.00000000000E+00 0.  1.
       14    1    4    4    0    0  0.18618691289E+03 -0.40948391064E+03 -0.12980689723E+04  0.13737997293E+04  0.00000000000E+00 0. -1.
        3    1    5    5  501    0 -0.13942343145E+02  0.62085455362E+02 -0.11691981398E+03  0.13311361914E+03  0.00000000000E+00 0. -1.
       -4    1    5    5    0  501 -0.18883603001E+03  0.38662150195E+03 -0.13342141876E+04  0.14018790057E+04  0.14200000000E+01 0.  1.
</event>
<event>
 9   1  0.7335000E-04  0.9906566E+03  0.7818608E-02  0.9318852E-01
       21   -1    0    0  503  502  0.00000000000E+00  0.00000000000E+00  0.14497320469E+03  0.14497320469E+03  0.00000000000E+00 0. -1.
       21   -1    0    0  502  503 -0.00000000000E+00 -0.00000000000E+00 -0.16923825511E+04  0.16923825511E+04  0.00000000000E+00 0.  1.
       39    2    1    2    0    0 -0.14210854715E-13  0.00000000000E+00 -0.15474093464E+04  0.18373557558E+04  0.99065659437E+03 0.  0.
       24    2    3    3    0    0 -0.84731871243E+02 -0.78850110934E+02 -0.16544870886E+04  0.16604776630E+04  0.80384781932E+02 0.  0.
      -24    2    3    3    0    0  0.84731871243E+02  0.78850110934E+02  0.10707774219E+03  0.17687809273E+03  0.80146034320E+02 0.  0.
      -13    1    4    4    0    0 -0.96643443892E+02 -0.57520638421E+02 -0.14831035155E+04  0.14873616295E+04  0.00000000000E+00 0.  1.
       14    1    4    4    0    0  0.11911572649E+02 -0.21329472514E+02 -0.17138357307E+03  0.17311603357E+03  0.00000000000E+00 0. -1.
        3    1    5    5  501    0 -0.50617378894E+00 -0.32391706957E+01  0.41396067058E+02  0.41525688514E+02  0.00000000000E+00 0. -1.
       -4    1    5    5    0  501  0.85238045032E+02  0.82089281630E+02  0.65681675134E+02  0.13535240422E+03  0.14200000000E+01 0.  1.
</event>
<event>
 9   1  0.7335000E-04  0.1005293E+04  0.7818608E-02  0.9302758E-01
       21   -1    0    0  503  502  0.00000000000E+00  0.00000000000E+00  0.70369174543E+03  0.70369174543E+03  0.00000000000E+00 0.  1.
       21   -1    0    0  502  503 -0.00000000000E+00 -0.00000000000E+00 -0.35904022141E+03  0.35904022141E+03  0.00000000000E+00 0. -1.
       39    2    1    2    0    0  0.00000000000E+00 -0.88817841970E-15  0.34465152402E+03  0.10627319668E+04  0.10052932708E+04 0.  0.
       24    2    3    3    0    0 -0.35755469960E+03 -0.27983213114E+01 -0.19160437181E+03  0.41328119821E+03  0.78967839603E+02 0.  0.
      -24    2    3    3    0    0  0.35755469960E+03  0.27983213114E+01  0.53625589583E+03  0.64945076863E+03  0.79766667596E+02 0.  0.
      -13    1    4    4    0    0 -0.25971669204E+02  0.36462477772E+01  0.64374381557E+01  0.27004876118E+02  0.00000000000E+00 0.  1.
       14    1    4    4    0    0 -0.33158303039E+03 -0.64445690887E+01 -0.19804180997E+03  0.38627632209E+03  0.00000000000E+00 0. -1.
        1    1    5    5  501    0  0.53184639646E+02  0.27053462245E+02  0.10965493153E+03  0.12483869481E+03  0.00000000000E+00 0. -1.
       -2    1    5    5    0  501  0.30437005995E+03 -0.24255140933E+02  0.42660096430E+03  0.52461207382E+03  0.00000000000E+00 0.  1.
</event>
<event>
 9   1  0.7335000E-04  0.9966477E+03  0.7818608E-02  0.9312229E-01
       21   -1    0    0  503  502  0.00000000000E+00  0.00000000000E+00  0.10749298198E+04  0.10749298198E+04  0.00000000000E+00 0.  1.
       21   -1    0    0  502  503 -0.00000000000E+00 -0.00000000000E+00 -0.23101660424E+03  0.23101660424E+03  0.00000000000E+00 0. -1.
       39    2    1    2    0    0 -0.28421709430E-13  0.11368683772E-12  0.84391321557E+03  0.13059464241E+04  0.99664765443E+03 0.  0.
       24    2    3    3    0    0 -0.21546192698E+03 -0.36752663882E+03  0.74494224742E+03  0.86215854768E+03  0.82938152414E+02 0.  0.
      -24    2    3    3    0    0  0.21546192698E+03  0.36752663882E+03  0.98970968150E+02  0.44378787637E+03  0.75184802021E+02 0.  0.
      -13    1    4    4    0    0 -0.17263998138E+03 -0.33737194592E+03  0.61956367460E+03  0.72628062066E+03  0.00000000000E+00 0.  1.
       14    1    4    4    0    0 -0.42821945599E+02 -0.30154692906E+02  0.12537857281E+03  0.13587792702E+03  0.00000000000E+00 0. -1.
        3    1    5    5  501    0  0.17897342587E+03  0.34567623834E+03  0.81021181666E+02  0.39760279275E+03  0.00000000000E+00 0. -1.
       -4    1    5    5    0  501  0.36488501115E+02  0.21850400483E+02  0.17949786484E+02  0.46185083628E+02  0.14200000000E+01 0.  1.
</event>
<event>
 9   1  0.7335000E-04  0.1015686E+04  0.7818608E-02  0.9291506E-01
       21   -1    0    0  503  502  0.00000000000E+00  0.00000000000E+00  0.91509000395E+03  0.91509000395E+03  0.00000000000E+00 0.  1.
       21   -1    0    0  502  503 -0.00000000000E+00 -0.00000000000E+00 -0.28183492052E+03  0.28183492052E+03  0.00000000000E+00 0. -1.
       39    2    1    2    0    0  0.00000000000E+00  0.00000000000E+00  0.63325508343E+03  0.11969249245E+04  0.10156856178E+04 0.  0.
       24    2    3    3    0    0  0.29342682328E+03  0.15039127648E+03 -0.12775158676E+03  0.36355869583E+03  0.84484440773E+02 0.  0.
      -24    2    3    3    0    0 -0.29342682328E+03 -0.15039127648E+03  0.76100667019E+03  0.83336622863E+03  0.81555393951E+02 0.  0.
      -13    1    4    4    0    0  0.29840781743E+02  0.22587309368E+02 -0.46251383311E+02  0.59496632323E+02  0.00000000000E+00 0.  1.
       14    1    4    4    0    0  0.26358604154E+03  0.12780396711E+03 -0.81500203453E+02  0.30406206351E+03  0.00000000000E+00 0. -1.
        1    1    5    5  501    0 -0.47710171038E+02  0.45652879166E+01  0.84910571456E+02  0.97503371322E+02  0.00000000000E+00 0. -1.
       -2    1    5    5    0  501 -0.24571665224E+03 -0.15495656440E+03  0.67609609874E+03  0.73586285731E+03  0.00000000000E+00 0.  1.
</event>
<event>
 9   1  0.7335000E-04  0.9908184E+03  0.7818608E-02  0.9318673E-01
       21   -1    0    0  503  502  0.00000000000E+00  0.00000000000E+00  0.50102279889E+03  0.50102279889E+03  0.00000000000E+00 0. -1.
       21   -1    0    0  502  503 -0.00000000000E+00 -0.00000000000E+00 -0.48985854681E+03  0.48985854681E+03  0.00000000000E+00 0.  1.
       39    2    1    2    0    0  0.14210854715E-13 -0.71054273576E-14  0.11164252089E+02  0.99088134570E+03  0.99081844993E+03 0.  0.
       24    2    3    3    0    0  0.10440291910E+03 -0.60902687218E+02 -0.46610039882E+03  0.49165033504E+03  0.99304397379E+02 0.  0.
      -24    2    3    3    0    0 -0.10440291910E+03  0.60902687218E+02  0.47726465091E+03  0.49923101066E+03  0.82710024615E+02 0.  0.
      -13    1    4    4    0    0  0.42992273938E+02 -0.27766376918E+02 -0.36639490361E+03  0.36995206811E+03  0.00000000000E+00 0.  1.
       14    1    4    4    0    0  0.61410645164E+02 -0.33136310299E+02 -0.99705495210E+02  0.12169826693E+03  0.00000000000E+00 0. -1.
        3    1    5    5  501    0 -0.44285413448E+02  0.70430786902E+02  0.31866529455E+03  0.32934672237E+03  0.00000000000E+00 0. -1.
       -4    1    5    5    0  501 -0.60117505653E+02 -0.95280996837E+01  0.15859935636E+03  0.16988428829E+03  0.14200000000E+01 0.  1.
</event>
<event>
 9   1  0.7335000E-04  0.9796486E+03  0.7818608E-02  0.9331152E-01
       -2   -1    0    0    0  501 -0.00000000000E+00  0.00000000000E+00  0.18099280691E+03  0.18099280691E+03  0.00000000000E+00 0.  1.
        2   -1    0    0  501    0  0.00000000000E+00 -0.00000000000E+00 -0.13256207517E+04  0.13256207517E+04  0.00000000000E+00 0. -1.
       39    2    1    2    0    0  0.00000000000E+00 -0.71054273576E-14 -0.11446279448E+04  0.15066135586E+04  0.97964855077E+03 0.  0.
       24    2    3    3    0    0 -0.46630168782E+03  0.38102559704E+02 -0.75934840592E+03  0.89536080049E+03  0.78561392279E+02 0.  0.
      -24    2    3    3    0    0  0.46630168782E+03 -0.38102559704E+02 -0.38527953890E+03  0.61125275816E+03  0.79375954410E+02 0.  0.
      -13    1    4    4    0    0 -0.27081307104E+02  0.10555854206E+02 -0.87564140207E+02  0.92262136885E+02  0.00000000000E+00 0.  1.
       14    1    4    4    0    0 -0.43922038072E+03  0.27546705498E+02 -0.67178426572E+03  0.80309866361E+03  0.00000000000E+00 0. -1.
        3    1    5    5  502    0  0.53700013713E+02  0.17833873273E+02 -0.63310826877E+02  0.84911714790E+02  0.00000000000E+00 0. -1.
       -4    1    5    5    0  502  0.41260167411E+03 -0.55936432977E+02 -0.32196871203E+03  0.52634104337E+03  0.14200000000E+01 0.  1.
</event>
<event>
 9   1  0.7335000E-04  0.9954905E+03  0.7818608E-02  0.9313505E-01
       21   -1    0    0  503  502  0.00000000000E+00  0.00000000000E+00  0.44438963803E+03  0.44438963803E+03  0.00000000000E+00 0.  1.
       21   -1    0    0  502  503 -0.00000000000E+00 -0.00000000000E+00 -0.55750705102E+03  0.55750705102E+03  0.00000000000E+00 0. -1.
       39    2    1    2    0    0  0.00000000000E+00  0.00000000000E+00 -0.11311741299E+03  0.10018966891E+04  0.99549054562E+03 0.  0.
       24    2    3    3    0    0  0.93676605706E+02  0.14205997832E+03 -0.52011926317E+03  0.55323126720E+03  0.81144582072E+02 0.  0.
      -24    2    3    3    0    0 -0.93676605706E+02 -0.14205997832E+03  0.40700185018E+03  0.44866542185E+03  0.81815712527E+02 0.  0.
      -13    1    4    4    0    0  0.32130079795E+02  0.27324805438E+02 -0.24807636932E+03  0.25163638853E+03  0.00000000000E+00 0.  1.
       14    1    4    4    0    0  0.61546525911E+02  0.11473517288E+03 -0.27204289385E+03  0.30159487867E+03  0.00000000000E+00 0. -1.
        1    1    5    5  501    0 -0.30073842012E+02  0.22930848606E+01  0.82848262223E+02  0.88167617439E+02  0.00000000000E+00 0. -1.
       -2    1    5    5    0  501 -0.63602763694E+02 -0.14435306318E+03  0.32415358796E+03  0.36049780441E+03  0.00000000000E+00 0.  1.
</event>
<event>
 9   1  0.7335000E-04  0.1000853E+04  0.7818608E-02  0.9307610E-01
       21   -1    0    0  503  502  0.00000000000E+00  0.00000000000E+00  0.20566022157E+04  0.20566022157E+04  0.00000000000E+00 0.  1.
       21   -1    0    0  502  503 -0.00000000000E+00 -0.00000000000E+00 -0.12176709494E+03  0.12176709494E+03  0.00000000000E+00 0. -1.
       39    2    1    2    0    0 -0.56843418861E-13 -0.28421709430E-13  0.19348351207E+04  0.21783693106E+04  0.10008525910E+04 0.  0.
       24    2    3    3    0    0  0.24031136034E+03  0.16824746030E+03  0.10325029227E+03  0.32151928375E+03  0.81592090104E+02 0.  0.
      -24    2    3    3    0    0 -0.24031136034E+03 -0.16824746030E+03  0.18315848284E+04  0.18568500268E+04  0.84452830574E+02 0.  0.
      -13    1    4    4    0    0  0.98611074885E+02  0.80803411631E+02  0.86728647285E+02  0.15419206750E+03  0.00000000000E+00 0.  1.
       14    1    4    4    0    0  0.14170028545E+03  0.87444048665E+02  0.16521644980E+02  0.16732721625E+03  0.00000000000E+00 0. -1.
        3    1    5    5  501    0 -0.28593480530E+02 -0.49826924258E+01  0.82667031241E+02  0.87614224912E+02  0.00000000000E+00 0. -1.
       -4    1    5    5    0  501 -0.21171787981E+03 -0.16326476787E+03  0.17489177972E+04  0.17692358019E+04  0.14200000000E+01 0.  1.
</event>
<event>
 9   1  0.7335000E-04  0.9952253E+03  0.7818608E-02  0.9313797E-01
       21   -1    0    0  503  502  0.00000000000E+00  0.00000000000E+00  0.64095499732E+03  0.64095499732E+03  0.00000000000E+00 0. -1.
       21   -1    0    0  502  503 -0.00000000000E+00 -0.00000000000E+00 -0.38632719850E+03  0.38632719850E+03  0.00000000000E+00 0.  1.
       39    2    1    2    0    0  0.00000000000E+00  0.00000000000E+00  0.25462779882E+03  0.10272821958E+04  0.99522529807E+03 0.  0.
       24    2    3    3    0    0  0.34429849453E+03 -0.13403469038E+03 -0.20490335619E+03  0.43159183420E+03  0.88200761983E+02 0.  0.
      -24    2    3    3    0    0 -0.34429849453E+03  0.13403469038E+03  0.45953115501E+03  0.59569036162E+03  0.84683959188E+02 0.  0.
      -13    1    4    4    0    0  0.31584389221E+03 -0.14130296808E+03 -0.20508412063E+03  0.40222305947E+03  0.00000000000E+00 0.  1.
       14    1    4    4    0    0  0.28454602317E+02  0.72682776953E+01  0.18076444031E+00  0.29368774735E+02  0.00000000000E+00 0. -1.
        1    1    5    5  501    0 -0.10693811480E+03  0.46440938381E+01  0.15644689255E+03  0.18955990661E+03  0.00000000000E+00 0. -1.
       -2    1    5    5    0  501 -0.23736037973E+03  0.12939059654E+03  0.30308426246E+03  0.40613045501E+03  0.00000000000E+00 0.  1.
</event>
<event>
 9   1  0.7335000E-04  0.9988469E+03  0.7818608E-02  0.9309810E-01
       21   -1    0    0  503  502  0.00000000000E+00  0.00000000000E+00  0.30522627132E+04  0.30522627132E+04  0.00000000000E+00 0. -1.
       21   -1    0    0  502  503 -0.00000000000E+00 -0.00000000000E+00 -0.81717670623E+02  0.81717670623E+02  0.00000000000E+00 0.  1.
       39    2    1    2    0    0  0.71054273576E-14 -0.71054273576E-14  0.29705450426E+04  0.31339803838E+04  0.99884693333E+03 0.  0.
       24    2    3    3    0    0 -0.36688610981E+02  0.20627280551E+02  0.30256705031E+04  0.30270576847E+04  0.81392222348E+02 0.  0.
      -24    2    3    3    0    0  0.36688610981E+02 -0.20627280551E+02 -0.55125460545E+02  0.10692269917E+03  0.81376337590E+02 0.  0.
      -13    1    4    4    0    0 -0.30437744603E+02 -0.12521661737E+02  0.46430764323E+03  0.46547270153E+03  0.00000000000E+00 0.  1.
       14    1    4    4    0    0 -0.62508663774E+01  0.33148942288E+02  0.25613628599E+04  0.25615849831E+04  0.00000000000E+00 0. -1.
        3    1    5    5  501    0  0.15408999648E+02 -0.26804065138E+01  0.20810506174E+02  0.26032652890E+02  0.00000000000E+00 0. -1.
       -4    1    5    5    0  501  0.21279611333E+02 -0.17946874037E+02 -0.75935966719E+02  0.80890046284E+02  0.14200000000E+01 0.  1.
</event>
<event>
 9   1  0.7335000E-04  0.1006620E+04  0.7818608E-02  0.9301314E-01
       21   -1    0    0  503  502  0.00000000000E+00  0.00000000000E+00  0.21854612583E+03  0.21854612583E+03  0.00000000000E+00 0. -1.
       21   -1    0    0  502  503 -0.00000000000E+00 -0.00000000000E+00 -0.11591191559E+04  0.11591191559E+04  0.00000000000E+00 0.  1.
       39    2    1    2    0    0  0.00000000000E+00 -0.62172489379E-14 -0.94057303009E+03  0.13776652817E+04  0.10066200890E+04 0.  0.
       24    2    3    3    0    0 -0.31042861407E+03 -0.63229934900E+01  0.59655718488E+02  0.32715357876E+03  0.84052094943E+02 0.  0.
      -24    2    3    3    0    0  0.31042861407E+03  0.63229934900E+01 -0.10002287486E+04  0.10505117030E+04  0.81923036717E+02 0.  0.
      -13    1    4    4    0    0 -0.22686826980E+01 -0.62500610282E+01 -0.92422616306E+01  0.11385498851E+02  0.00000000000E+00 0.  1.
       14    1    4    4    0    0 -0.30815993137E+03 -0.72932461814E-01  0.68897980118E+02  0.31576807991E+03  0.00000000000E+00 0. -1.
        3    1    5    5  501    0  0.14418336650E+03  0.43167521540E+02 -0.44569077586E+03  0.47041741653E+03  0.00000000000E+00 0. -1.
       -4    1    5    5    0  501  0.16624524757E+03 -0.36844528050E+02 -0.55453797272E+03  0.58009428646E+03  0.14200000000E+01 0.  1.
</event>
<event>
 9   1  0.7335000E-04  0.9827389E+03  0.7818608E-02  0.9327682E-01
       21   -1    0    0  503  502  0.00000000000E+00  0.00000000000E+00  0.85746867053E+03  0.85746867053E+03  0.00000000000E+00 0.  1.
       21   -1    0    0  502  503 -0.00000000000E+00 -0.00000000000E+00 -0.28157755936E+03  0.28157755936E+03  0.00000000000E+00 0. -1.
       39    2    1    2    0    0  0.00000000000E+00 -0.35527136788E-14  0.57589111117E+03  0.11390462299E+04  0.98273889814E+03 0.  0.
       24    2    3    3    0    0 -0.22624738454E+03  0.26080180957E+02 -0.20755035226E+03  0.31924751237E+03  0.83509104782E+02 0.  0.
      -24    2    3    3    0    0  0.22624738454E+03 -0.26080180957E+02  0.78344146343E+03  0.81979871753E+03  0.80133362551E+02 0.  0.
      -13    1    4    4    0    0 -0.98314210203E+01  0.18731692342E+02 -0.29929342368E+01  0.21365645149E+02  0.00000000000E+00 0.  1.
       14    1    4    4    0    0 -0.21641596351E+03  0.73484886150E+01 -0.20455741802E+03  0.29788186722E+03  0.00000000000E+00 0. -1.
        1    1    5    5  501    0  0.69895426815E+02 -0.19218122047E+02  0.14067172692E+03  0.15825056607E+03  0.00000000000E+00 0. -1.
       -2    1    5    5    0  501  0.15635195772E+03 -0.68620589099E+01  0.64276973651E+03  0.66154815147E+03  0.00000000000E+00 0.  1.
</event>
<event>
 9   1  0.7335000E-04  0.1007495E+04  0.7818608E-02  0.9300363E-01
       21   -1    0    0  503  502  0.00000000000E+00  0.00000000000E+00  0.23585913787E+03  0.23585913787E+03  0.00000000000E+00 0.  1.
       21   -1    0    0  502  503 -0.00000000000E+00 -0.00000000000E+00 -0.10759026263E+04  0.10759026263E+04  0.00000000000E+00 0. -1.
       39    2    1    2    0    0  0.00000000000E+00 -0.56843418861E-13 -0.84004348842E+03  0.13117617642E+04  0.10074948454E+04 0.  0.
       24    2    3    3    0    0 -0.17993759265E+03  0.43383571215E+03 -0.20470513922E+03  0.51760169394E+03  0.73595904545E+02 0.  0.
      -24    2    3    3    0    0  0.17993759265E+03 -0.43383571215E+03 -0.63533834920E+03  0.79416007021E+03  0.80277249392E+02 0.  0.
      -13    1    4    4    0    0 -0.17400731507E+03  0.38138605203E+03 -0.16095582472E+03  0.44904414470E+03  0.00000000000E+00 0.  1.
       14    1    4    4    0    0 -0.59302775833E+01  0.52449660118E+02 -0.43749314500E+02  0.68557549241E+02  0.00000000000E+00 0. -1.
        3    1    5    5  501    0  0.13569644153E+03 -0.39441627261E+03 -0.55071149536E+03  0.69084069905E+03  0.00000000000E+00 0. -1.
       -4    1    5    5    0  501  0.44241151127E+02 -0.39419439541E+02 -0.84626853836E+02  0.10331937116E+03  0.14200000000E+01 0.  1.
</event>
<event>
 9   1  0.7335000E-04  0.1013228E+04  0.7818608E-02  0.9294155E-01
       21   -1    0    0  503  502  0.00000000000E+00  0.00000000000E+00  0.14833797141E+04  0.14833797141E+04  0.00000000000E+00 0.  1.
       21   -1    0    0  502  503 -0.00000000000E+00 -0.00000000000E+00 -0.17302216823E+03  0.17302216823E+03  0.00000000000E+00 0. -1.
       39    2    1    2    0    0  0.56843418861E-13  0.00000000000E+00  0.13103575459E+04  0.16564018824E+04  0.10132276634E+04 0.  0.
       24    2    3    3    0    0  0.39135112471E+03 -0.20156912241E+03  0.26613178890E+03  0.52043195212E+03  0.78977679176E+02 0.  0.
      -24    2    3    3    0    0 -0.39135112471E+03  0.20156912241E+03  0.10442257570E+04  0.11359699302E+04  0.78958450469E+02 0.  0.
      -13    1    4    4    0    0  0.19896451808E+03 -0.99594349772E+02  0.88607485810E+02  0.23949363353E+03  0.00000000000E+00 0.  1.
       14    1    4    4    0    0  0.19238660663E+03 -0.10197477264E+03  0.17752430309E+03  0.28093831859E+03  0.00000000000E+00 0. -1.
        3    1    5    5  501    0 -0.28888614783E+03  0.18569205038E+03  0.79080796119E+03  0.86215658407E+03  0.00000000000E+00 0. -1.
       -4    1    5    5    0  501 -0.10246497688E+03  0.15877072028E+02  0.25341779583E+03  0.27381334617E+03  0.14200000000E+01 0.  1.
</event>
<event>
 9   1  0.7335000E-04  0.1004743E+04  0.7818608E-02  0.9303358E-01
       21   -1    0    0  503  502  0.00000000000E+00  0.00000000000E+00  0.40319846491E+03  0.40319846491E+03  0.00000000000E+00 0.  1.
       21   -1    0    0  502  503 -0.00000000000E+00 -0.00000000000E+00 -0.62593758529E+03  0.62593758529E+03  0.00000000000E+00 0. -1.
       39    2    1    2    0    0  0.00000000000E+00 -0.14210854715E-13 -0.22273912038E+03  0.10291360502E+04  0.10047428995E+04 0.  0.
       24    2    3    3    0    0 -0.48488775735E+03 -0.35617278647E+02 -0.21578571290E+03  0.53681003962E+03  0.72227536159E+02 0.  0.
      -24    2    3    3    0    0  0.48488775735E+03  0.35617278647E+02 -0.69534074837E+01  0.49232601057E+03  0.77148059257E+02 0.  0.
      -13    1    4    4    0    0 -0.56041508225E+02 -0.25460407448E+02 -0.15989378076E+02  0.63596723208E+02  0.00000000000E+00 0.  1.
       14    1    4    4    0    0 -0.42884624912E+03 -0.10156871199E+02 -0.19979633482E+03  0.47321331641E+03  0.00000000000E+00 0. -1.
        3    1    5    5  501    0  0.32839090040E+03  0.10298336014E+02 -0.38110579657E+02  0.33075528034E+03  0.00000000000E+00 0. -1.
       -4    1    5    5    0  501  0.15649685695E+03  0.25318942633E+02  0.31157172173E+02  0.16157073024E+03  0.14200000000E+01 0.  1.
</event>
<event>
 9   1  0.7335000E-04  0.1003814E+04  0.7818608E-02  0.9304371E-01
       21   -1    0    0  503  502  0.00000000000E+00  0.00000000000E+00  0.51166112338E+03  0.51166112338E+03  0.00000000000E+00 0.  1.
       21   -1    0    0  502  503 -0.00000000000E+00 -0.00000000000E+00 -0.49233898650E+03  0.49233898650E+03  0.00000000000E+00 0. -1.
       39    2    1    2    0    0  0.00000000000E+00 -0.71054273576E-14  0.19322136874E+02  0.10040001099E+04  0.10038141639E+04 0.  0.
       24    2    3    3    0    0  0.46360185393E+03 -0.60547392505E+02  0.17305816376E+03  0.50518564460E+03  0.81674609060E+02 0.  0.
      -24    2    3    3    0    0 -0.46360185393E+03  0.60547392505E+02 -0.15373602688E+03  0.49881446528E+03  0.81169200456E+02 0.  0.
      -13    1    4    4    0    0  0.31645397914E+03 -0.77591781091E+02  0.10653310362E+03  0.34280155713E+03  0.00000000000E+00 0.  1.
       14    1    4    4    0    0  0.14714787479E+03  0.17044388586E+02  0.66525060136E+02  0.16238408747E+03  0.00000000000E+00 0. -1.
        3    1    5    5  501    0 -0.44444972621E+03  0.40100175233E+02 -0.14821267790E+03  0.47022396905E+03  0.00000000000E+00 0. -1.
       -4    1    5    5    0  501 -0.19152127719E+02  0.20447217272E+02 -0.55233489817E+01  0.28590496224E+02  0.14200000000E+01 0.  1.
</event>
<event>
 9   1  0.7335000E-04  0.1003405E+04  0.7818608E-02  0.9304818E-01
       21   -1    0    0  503  502  0.00000000000E+00  0.00000000000E+00  0.12924714897E+03  0.12924714897E+03  0.00000000000E+00 0.  1.
       21   -1    0    0  502  503 -0.00000000000E+00 -0.00000000000E+00 -0.19474733201E+04  0.19474733201E+04  0.00000000000E+00 0. -1.
       39    2    1    2    0    0  0.56843418861E-13  0.00000000000E+00 -0.18182261712E+04  0.20767204691E+04  0.10034049518E+04 0.  0.
       24    2    3    3    0    0  0.44046595891E+03  0.15434982083E+03 -0.56929191273E+03  0.74114456907E+03  0.85836252371E+02 0.  0.
      -24    2    3    3    0    0 -0.44046595891E+03 -0.15434982083E+03 -0.12489342584E+04  0.13355759000E+04  0.78051743842E+02 0.  0.
      -13    1    4    4    0    0  0.15728890350E+03  0.27122660946E+02 -0.24329921023E+03  0.29098100213E+03  0.00000000000E+00 0.  1.
       14    1    4    4    0    0  0.28317705541E+03  0.12722715988E+03 -0.32599270250E+03  0.45016356694E+03  0.00000000000E+00 0. -1.
        1    1    5    5  501    0 -0.12786241411E+02 -0.20789912559E+02 -0.83065094419E+02  0.86576661661E+02  0.00000000000E+00 0. -1.
       -2    1    5    5    0  501 -0.42767971750E+03 -0.13355990827E+03 -0.11658691640E+04  0.12489992384E+04  0.00000000000E+00 0.  1.
</event>
<event>
 9   1  0.7335000E-04  0.1007439E+04  0.7818608E-02  0.9300423E-01
       21   -1    0    0  503  502  0.00000000000E+00  0.00000000000E+00  0.33349219410E+03  0.33349219410E+03  0.00000000000E+00 0. -1.
       21   -1    0    0  502  503 -0.00000000000E+00 -0.00000000000E+00 -0.76083745040E+03  0.76083745040E+03  0.00000000000E+00 0.  1.
       39    2    1    2    0    0  0.28421709430E-13  0.28421709430E-13 -0.42734525630E+03  0.10943296445E+04  0.10074390318E+04 0.  0.
       24    2    3    3    0    0 -0.17530719461E+03 -0.23551860085E+03  0.22222135962E+03  0.37699370305E+03  0.80872094326E+02 0.  0.
      -24    2    3    3    0    0  0.17530719461E+03  0.23551860085E+03 -0.64956661592E+03  0.71733594145E+03  0.80202497128E+02 0.  0.
      -13    1    4    4    0    0 -0.92170660024E+00 -0.30065382707E+01  0.26291382735E+02  0.26478776814E+02  0.00000000000E+00 0.  1.
       14    1    4    4    0    0 -0.17438548801E+03 -0.23251206258E+03  0.19592997689E+03  0.35051492624E+03  0.00000000000E+00 0. -1.
        1    1    5    5  501    0  0.10492902086E+02  0.14910765527E+02 -0.11062319002E+03  0.11211566391E+03  0.00000000000E+00 0. -1.
       -2    1    5    5    0  501  0.16481429252E+03  0.22060783532E+03 -0.53894342589E+03  0.60522027754E+03  0.00000000000E+00 0.  1.
</event>
<event>
 9   1  0.7335000E-04  0.9933333E+03  0.7818608E-02  0.9315887E-01
       21   -1    0    0  503  502  0.00000000000E+00  0.00000000000E+00  0.10282986521E+03  0.10282986521E+03  0.00000000000E+00 0. -1.
       21   -1    0    0  502  503 -0.00000000000E+00 -0.00000000000E+00 -0.23988924150E+04  0.23988924150E+04  0.00000000000E+00 0.  1.
       39    2    1    2    0    0  0.00000000000E+00 -0.28421709430E-13 -0.22960625498E+04  0.25017222802E+04  0.99333334524E+03 0.  0.
       24    2    3    3    0    0  0.15943415024E+03 -0.25451580573E+03 -0.17215931100E+03  0.35523127981E+03  0.79705019685E+02 0.  0.
      -24    2    3    3    0    0 -0.15943415024E+03  0.25451580573E+03 -0.21239032388E+04  0.21464910004E+04  0.79127134698E+02 0.  0.
      -13    1    4    4    0    0  0.11663805103E+03 -0.21832783047E+03 -0.16773999916E+03  0.29901201285E+03  0.00000000000E+00 0.  1.
       14    1    4    4    0    0  0.42796099212E+02 -0.36187975250E+02 -0.44193118366E+01  0.56219266961E+02  0.00000000000E+00 0. -1.
        1    1    5    5  501    0 -0.24382145798E+02  0.75208549576E+02 -0.37525487313E+03  0.38349320043E+03  0.00000000000E+00 0. -1.
       -2    1    5    5    0  501 -0.13505200445E+03  0.17930725615E+03 -0.17486483656E+04  0.17629978000E+04  0.00000000000E+00 0.  1.
</event>
<event>
 9   1  0.7335000E-04  0.1003103E+04  0.7818608E-02  0.9305148E-01
       21   -1    0    0  503  502  0.00000000000E+00  0.00000000000E+00  0.15028588850E+04  0.15028588850E+04  0.00000000000E+00 0.  1.
       21   -1    0    0  502  503 -0.00000000000E+00 -0.00000000000E+00 -0.16738346904E+03  0.16738346904E+03  0.00000000000E+00 0. -1.
       39    2    1    2    0    0  0.00000000000E+00  0.28421709430E-13  0.13354754159E+04  0.16702423540E+04  0.10031026541E+04 0.  0.
       24    2    3    3    0    0  0.35884384907E+03 -0.22172567951E+03  0.11003055723E+04  0.11809924111E+04  0.78355201038E+02 0.  0.
      -24    2    3    3    0    0 -0.35884384907E+03  0.22172567951E+03  0.23516984359E+03  0.48924994294E+03  0.78290908515E+02 0.  0.
      -13    1    4    4    0    0  0.14314234492E+03 -0.13234043605E+03  0.53190957066E+03  0.56650817583E+03  0.00000000000E+00 0.  1.
       14    1    4    4    0    0  0.21570150415E+03 -0.89385243461E+02  0.56839600168E+03  0.61448423524E+03  0.00000000000E+00 0. -1.
        3    1    5    5  501    0 -0.30342722328E+03  0.17122063811E+03  0.16110236214E+03  0.38384705004E+03  0.00000000000E+00 0. -1.
       -4    1    5    5    0  501 -0.55416625798E+02  0.50505041404E+02  0.74067481451E+02  0.10540289289E+03  0.14200000000E+01 0.  1.
</event>
<event>
 9   1  0.7335000E-04  0.9833823E+03  0.7818608E-02  0.9326961E-01
       21   -1    0    0  503  502  0.00000000000E+00  0.00000000000E+00  0.25551290074E+04  0.25551290074E+04  0.00000000000E+00 0. -1.
       21   -1    0    0  502  503 -0.00000000000E+00 -0.00000000000E+00 -0.94617599581E+02  0.94617599581E+02  0.00000000000E+00 0.  1.
       39    2    1    2    0    0  0.28421709430E-13  0.14210854715E-13  0.24605114078E+04  0.26497466070E+04  0.98338227216E+03 0.  0.
       24    2    3    3    0    0  0.21698513532E+03 -0.10060410130E+03  0.23671951743E+04  0.23805892792E+04  0.79928648623E+02 0.  0.
      -24    2    3    3    0    0 -0.21698513532E+03  0.10060410130E+03  0.93316233516E+02  0.26915732778E+03  0.80833245062E+02 0.  0.
      -13    1    4    4    0    0  0.10180794029E+03 -0.11571273516E+02  0.77305527722E+03  0.77981614033E+03  0.00000000000E+00 0.  1.
       14    1    4    4    0    0  0.11517719503E+03 -0.89032827788E+02  0.15941398971E+04  0.16007731389E+04  0.00000000000E+00 0. -1.
        1    1    5    5  501    0 -0.16536347767E+03  0.98327795389E+02  0.10038598940E+03  0.21700410586E+03  0.00000000000E+00 0. -1.
       -2    1    5    5    0  501 -0.51621657653E+02  0.22763059155E+01 -0.70697558879E+01  0.52153221912E+02  0.00000000000E+00 0.  1.
</event>
<event>
 9   1  0.7335000E-04  0.9949480E+03  0.7818608E-02  0.9314103E-01
       21   -1    0    0  503  502  0.00000000000E+00  0.00000000000E+00  0.32961319381E+03  0.32961319381E+03  0.00000000000E+00 0.  1.
       21   -1    0    0  502  503 -0.00000000000E+00 -0.00000000000E+00 -0.75082066808E+03  0.75082066808E+03  0.00000000000E+00 0. -1.
       39    2    1    2    0    0  0.00000000000E+00  0.56843418861E-13 -0.42120747428E+03  0.10804338619E+04  0.99494803559E+03 0.  0.
       24    2    3    3    0    0  0.11455343245E+03 -0.47502232334E+03 -0.26220485581E+03  0.56056666304E+03  0.81944497969E+02 0.  0.
      -24    2    3    3    0    0 -0.11455343245E+03  0.47502232334E+03 -0.15900261847E+03  0.51986719885E+03  0.78812278213E+02 0.  0.
      -13    1    4    4    0    0  0.34817593150E+02 -0.25264965303E+03 -0.17238174617E+03  0.30783043771E+03  0.00000000000E+00 0.  1.
       14    1    4    4    0    0  0.79735839303E+02 -0.22237267031E+03 -0.89823109640E+02  0.25273622533E+03  0.00000000000E+00 0. -1.
        3    1    5    5  501    0 -0.10686800014E+03  0.28535994525E+03 -0.87569352230E+02  0.31704803935E+03  0.00000000000E+00 0. -1.
       -4    1    5    5    0  501 -0.76854323187E+01  0.18966237809E+03 -0.71433266243E+02  0.20281915949E+03  0.14200000000E+01 0.  1.
</event>
<event>
 9   1  0.7335000E-04  0.1011438E+04  0.7818608E-02  0.9296088E-01
       21   -1    0    0  503  502  0.00000000000E+00  0.00000000000E+00  0.18355468995E+03  0.18355468995E+03  0.00000000000E+00 0.  1.
       21   -1    0    0  502  503 -0.00000000000E+00 -0.00000000000E+00 -0.13933259245E+04  0.13933259245E+04  0.00000000000E+00 0. -1.
       39    2    1    2    0    0  0.00000000000E+00 -0.14210854715E-13 -0.12097712346E+04  0.15768806145E+04  0.10114376067E+04 0.  0.
       24    2    3    3    0    0  0.24696858390E+03  0.76641015088E+02  0.60750526598E+02  0.27789399503E+03  0.81652430250E+02 0.  0.
      -24    2    3    3    0    0 -0.24696858390E+03 -0.76641015088E+02 -0.12705217611E+04  0.12989866194E+04  0.79204578499E+02 0.  0.
      -13    1    4    4    0    0  0.77938015354E+02  0.55790627643E+02  0.47757570324E+02  0.10708741239E+03  0.00000000000E+00 0.  1.
       14    1    4    4    0    0  0.16903056855E+03  0.20850387445E+02  0.12992956274E+02  0.17080658264E+03  0.00000000000E+00 0. -1.
        1    1    5    5  501    0 -0.24106534614E+03 -0.66225557416E+02 -0.11002485965E+04  0.11282930912E+04  0.00000000000E+00 0. -1.
       -2    1    5    5    0  501 -0.59032377593E+01 -0.10415457672E+02 -0.17027316467E+03  0.17069352823E+03  0.00000000000E+00 0.  1.
</event>
<event>
 9   1  0.7335000E-04  0.1005287E+04  0.7818608E-02  0.9302765E-01
       21   -1    0    0  503  502  0.00000000000E+00  0.00000000000E+00  0.73392476739E+03  0.73392476739E+03  0.00000000000E+00 0. -1.
       21   -1    0    0  502  503 -0.00000000000E+00 -0.00000000000E+00 -0.34424572986E+03  0.34424572986E+03  0.00000000000E+00 0.  1.
       39    2    1    2    0    0  0.00000000000E+00  0.00000000000E+00  0.38967903752E+03  0.10781704972E+04  0.10052869585E+04 0.  0.
       24    2    3    3    0    0  0.54162475761E+02 -0.20437548021E+03  0.67596957812E+03  0.71290458006E+03  0.81210584451E+02 0.  0.
      -24    2    3    3    0    0 -0.54162475761E+02  0.20437548021E+03 -0.28629054060E+03  0.36526591719E+03  0.82182759337E+02 0.  0.
      -13    1    4    4    0    0  0.10594713134E+02 -0.65961923926E+02  0.11061127487E+03  0.12922104118E+03  0.00000000000E+00 0.  1.
       14    1    4    4    0    0  0.43567762627E+02 -0.13841355629E+03  0.56535830325E+03  0.58368353888E+03  0.00000000000E+00 0. -1.
        3    1    5    5  501    0 -0.40039573787E+01  0.18731254165E+02  0.14164295493E+01  0.19206713148E+02  0.00000000000E+00 0. -1.
       -4    1    5    5    0  501 -0.50158518382E+02  0.18564422605E+03 -0.28770697015E+03  0.34605920404E+03  0.14200000000E+01 0.  1.
</event>
<event>
 9   1  0.7335000E-04  0.1006413E+04  0.7818608E-02  0.9301539E-01
       21   -1    0    0  503  502  0.00000000000E+00  0.00000000000E+00  0.44723321092E+03  0.44723321092E+03  0.00000000000E+00 0.  1.
       21   -1    0    0  502  503 -0.00000000000E+00 -0.00000000000E+00 -0.56618459187E+03  0.56618459187E+03  0.00000000000E+00 0. -1.
       39    2    1    2    0    0  0.71054273576E-14  0.00000000000E+00 -0.11895138095E+03  0.10134178028E+04  0.10064125456E+04 0.  0.
       24    2    3    3    0    0  0.42786597881E+02  0.17932815165E+03  0.40409829077E+03  0.45191435101E+03  0.83317903916E+02 0.  0.
      -24    2    3    3    0    0 -0.42786597881E+02 -0.17932815165E+03 -0.52304967172E+03  0.56150345179E+03  0.87840129510E+02 0.  0.
      -13    1    4    4    0    0  0.33026593696E+02  0.18163972160E+03  0.33866830464E+03  0.38572006031E+03  0.00000000000E+00 0.  1.
       14    1    4    4    0    0  0.97600041845E+01 -0.23115699450E+01  0.65429986124E+02  0.66194290701E+02  0.00000000000E+00 0. -1.
        1    1    5    5  501    0 -0.37862503851E+02 -0.15086347927E+03 -0.31342767028E+03  0.34990036163E+03  0.00000000000E+00 0. -1.
       -2    1    5    5    0  501 -0.49240940301E+01 -0.28464672388E+02 -0.20962200144E+03  0.21160309016E+03  0.00000000000E+00 0.  1.
</event>
<event>
 9   1  0.7335000E-04  0.9989313E+03  0.7818608E-02  0.9309718E-01
       21   -1    0    0  503  502  0.00000000000E+00  0.00000000000E+00  0.65248760376E+03  0.65248760376E+03  0.00000000000E+00 0.  1.
       21   -1    0    0  502  503 -0.00000000000E+00 -0.00000000000E+00 -0.38233055165E+03  0.38233055165E+03  0.00000000000E+00 0. -1.
       39    2    1    2    0    0  0.00000000000E+00 -0.56843418861E-13  0.27015705211E+03  0.10348181554E+04  0.99893131994E+03 0.  0.
       24    2    3    3    0    0 -0.16420623178E+03 -0.32254676959E+03 -0.21135114732E+03  0.42689602278E+03  0.81060481526E+02 0.  0.
      -24    2    3    3    0    0  0.16420623178E+03  0.32254676959E+03  0.48150819943E+03  0.60792213263E+03  0.81969921915E+02 0.  0.
      -13    1    4    4    0    0 -0.29747648543E+02 -0.11006398528E+03 -0.33260263316E+02  0.11876551926E+03  0.00000000000E+00 0.  1.
       14    1    4    4    0    0 -0.13445858324E+03 -0.21248278430E+03 -0.17809088400E+03  0.30813050352E+03  0.00000000000E+00 0. -1.
        1    1    5    5  501    0  0.35507246605E+02  0.77916430406E+02  0.62740009567E+02  0.10615104092E+03  0.00000000000E+00 0. -1.
       -2    1    5    5    0  501  0.12869898518E+03  0.24463033918E+03  0.41876818986E+03  0.50177109171E+03  0.00000000000E+00 0.  1.
</event>
<event>
 9   1  0.7335000E-04  0.9925262E+03  0.7818608E-02  0.9316780E-01
       21   -1    0    0  503  502  0.00000000000E+00  0.00000000000E+00  0.15879477426E+04  0.15879477426E+04  0.00000000000E+00 0.  1.
       21   -1    0    0  502  503 -0.00000000000E+00 -0.00000000000E+00 -0.15509140897E+03  0.15509140897E+03  0.00000000000E+00 0. -1.
       39    2    1    2    0    0 -0.71054273576E-14 -0.11368683772E-12  0.14328563337E+04  0.17430391516E+04  0.99252617652E+03 0.  0.
       24    2    3    3    0    0 -0.60287528359E+02 -0.44206976844E+03  0.10712716512E+04  0.11632257229E+04  0.80067880148E+02 0.  0.
      -24    2    3    3    0    0  0.60287528359E+02  0.44206976844E+03  0.36158468246E+03  0.57981342872E+03  0.79874046426E+02 0.  0.
      -13    1    4    4    0    0 -0.76029958150E+02 -0.28904832828E+03  0.73467913835E+03  0.79314748121E+03  0.00000000000E+00 0.  1.
       14    1    4    4    0    0  0.15742429791E+02 -0.15302144016E+03  0.33659251287E+03  0.37007824168E+03  0.00000000000E+00 0. -1.
        1    1    5    5  501    0  0.17915256874E+01  0.28986037774E+03  0.22077510390E+03  0.36436780134E+03  0.00000000000E+00 0. -1.
       -2    1    5    5    0  501  0.58496002672E+02  0.15220939070E+03  0.14080957855E+03  0.21544562738E+03  0.00000000000E+00 0.  1.
</event>
<event>
 9   1  0.7335000E-04  0.1004157E+04  0.7818608E-02  0.9303998E-01
       21   -1    0    0  503  502  0.00000000000E+00  0.00000000000E+00  0.10862810604E+03  0.10862810604E+03  0.00000000000E+00 0.  1.
       21   -1    0    0  502  503 -0.00000000000E+00 -0.00000000000E+00 -0.23206027429E+04  0.23206027429E+04  0.00000000000E+00 0. -1.
       39    2    1    2    0    0  0.00000000000E+00  0.00000000000E+00 -0.22119746369E+04  0.24292308490E+04  0.10041567225E+04 0.  0.
       24    2    3    3    0    0  0.38214882499E+02 -0.46804342973E+03 -0.72166874566E+03  0.86464356521E+03  0.79231856190E+02 0.  0.
      -24    2    3    3    0    0 -0.38214882499E+02  0.46804342973E+03 -0.14903058912E+04  0.15645872838E+04  0.79979307935E+02 0.  0.
      -13    1    4    4    0    0  0.18366762736E+01 -0.37759178310E+03 -0.59682174326E+03  0.70624013003E+03  0.00000000000E+00 0.  1.
       14    1    4    4    0    0  0.36378206225E+02 -0.90451646633E+02 -0.12484700240E+03  0.15840343518E+03  0.00000000000E+00 0. -1.
        3    1    5    5  501    0  0.19647508752E+02  0.24884946914E+03 -0.77192359145E+03  0.81128177222E+03  0.00000000000E+00 0. -1.
       -4    1    5    5    0  501 -0.57862391251E+02  0.21919396059E+03 -0.71838229978E+03  0.75330551154E+03  0.14200000000E+01 0.  1.
</event>
<event>
 9   1  0.7335000E-04  0.1010863E+04  0.7818608E-02  0.9296710E-01
       21   -1    0    0  503  502  0.00000000000E+00  0.00000000000E+00  0.13677912331E+03  0.13677912331E+03  0.00000000000E+00 0.  1.
       21   -1    0    0  502  503 -0.00000000000E+00 -0.00000000000E+00 -0.18676901799E+04  0.18676901799E+04  0.00000000000E+00 0. -1.
       39    2    1    2    0    0  0.00000000000E+00  0.00000000000E+00 -0.17309110566E+04  0.20044693032E+04  0.10108630479E+04 0.  0.
       24    2    3    3    0    0  0.18463761325E+03 -0.68230153340E+02  0.44076372346E+02  0.21679511387E+03  0.79441756949E+02 0.  0.
      -24    2    3    3    0    0 -0.18463761325E+03  0.68230153340E+02 -0.17749874289E+04  0.17876741893E+04  0.80325788468E+02 0.  0.
      -13    1    4    4    0    0  0.95233459823E+02 -0.20583287257E+02  0.59731691671E+02  0.11428455090E+03  0.00000000000E+00 0.  1.
       14    1    4    4    0    0  0.89404153427E+02 -0.47646866083E+02 -0.15655319325E+02  0.10251056297E+03  0.00000000000E+00 0. -1.
        1    1    5    5  501    0 -0.18721385429E+03  0.54252025373E+02 -0.17142545327E+04  0.17253002383E+04  0.00000000000E+00 0. -1.
       -2    1    5    5    0  501  0.25762410405E+01  0.13978127967E+02 -0.60732896270E+02  0.62373951042E+02  0.00000000000E+00 0.  1.
</event>
<event>
 9   1  0.7335000E-04  0.9988013E+03  0.7818608E-02  0.9309860E-01
       21   -1    0    0  503  502  0.00000000000E+00  0.00000000000E+00  0.50209785959E+03  0.50209785959E+03  0.00000000000E+00 0.  1.
       21   -1    0    0  502  503 -0.00000000000E+00 -0.00000000000E+00 -0.49671795459E+03  0.49671795459E+03  0.00000000000E+00 0. -1.
       39    2    1    2    0    0 -0.71054273576E-14  0.00000000000E+00  0.53799050014E+01  0.99881581419E+03  0.99880132524E+03 0.  0.
       24    2    3    3    0    0 -0.49484548365E+02  0.66207587114E+02 -0.48290547842E+03  0.49638224373E+03  0.79783868546E+02 0.  0.
      -24    2    3    3    0    0  0.49484548365E+02 -0.66207587114E+02  0.48828538342E+03  0.50243357046E+03  0.84762680133E+02 0.  0.
      -13    1    4    4    0    0 -0.75994756928E+01 -0.17949528401E+02 -0.57490867145E+02  0.60705332597E+02  0.00000000000E+00 0.  1.
       14    1    4    4    0    0 -0.41885072672E+02  0.84157115515E+02 -0.42541461128E+03  0.43567691113E+03  0.00000000000E+00 0. -1.
        3    1    5    5  501    0 -0.19303118143E+02 -0.98730353809E+01  0.40847976919E+02  0.46245479953E+02  0.00000000000E+00 0. -1.
       -4    1    5    5    0  501  0.68787666508E+02 -0.56334551733E+02  0.44743740650E+03  0.45618809051E+03  0.14200000000E+01 0.  1.
</event>
<event>
 9   1  0.7335000E-04  0.9990921E+03  0.7818608E-02  0.9309541E-01
       21   -1    0    0  503  502  0.00000000000E+00  0.00000000000E+00  0.87193890580E+03  0.87193890580E+03  0.00000000000E+00 0. -1.
       21   -1    0    0  502  503 -0.00000000000E+00 -0.00000000000E+00 -0.28619697704E+03  0.28619697704E+03  0.00000000000E+00 0.  1.
       39    2    1    2    0    0  0.00000000000E+00  0.14210854715E-13  0.58574192875E+03  0.11581358828E+04  0.99909214591E+03 0.  0.
       24    2    3    3    0    0 -0.15515807848E+03  0.11082661379E+03 -0.23410410213E+03  0.31254344354E+03  0.80759555603E+02 0.  0.
      -24    2    3    3    0    0  0.15515807848E+03 -0.11082661379E+03  0.81984603089E+03  0.84559243930E+03  0.80761942734E+02 0.  0.
      -13    1    4    4    0    0 -0.94418419692E+02  0.10639957347E+03 -0.18999255142E+03  0.23734547986E+03  0.00000000000E+00 0.  1.
       14    1    4    4    0    0 -0.60739658792E+02  0.44270403208E+01 -0.44111550709E+02  0.75197963684E+02  0.00000000000E+00 0. -1.
        1    1    5    5  501    0  0.11315456672E+03 -0.39331136098E+02  0.56627296117E+03  0.57880563299E+03  0.00000000000E+00 0. -1.
       -2    1    5    5    0  501  0.42003511767E+02 -0.71495477693E+02  0.25357306972E+03  0.26678680630E+03  0.00000000000E+00 0.  1.
</event>
<event>
 9   1  0.7335000E-04  0.1025380E+04  0.7818608E-02  0.9281138E-01
       21   -1    0    0  503  502  0.00000000000E+00  0.00000000000E+00  0.51599022292E+03  0.51599022292E+03  0.00000000000E+00 0.  1.
       21   -1    0    0  502  503 -0.00000000000E+00 -0.00000000000E+00 -0.50941119783E+03  0.50941119783E+03  0.00000000000E+00 0. -1.
       39    2    1    2    0    0  0.00000000000E+00  0.00000000000E+00  0.65790250858E+01  0.10254014208E+04  0.10253803149E+04 0.  0.
       24    2    3    3    0    0  0.63780217215E+02 -0.19997310748E+03  0.46391460474E+03  0.51559792746E+03  0.81038894899E+02 0.  0.
      -24    2    3    3    0    0 -0.63780217215E+02  0.19997310748E+03 -0.45733557966E+03  0.50980349329E+03  0.81771691450E+02 0.  0.
      -13    1    4    4    0    0  0.74814497514E+02 -0.14317516179E+03  0.28548243314E+03  0.32801913911E+03  0.00000000000E+00 0.  1.
       14    1    4    4    0    0 -0.11034280299E+02 -0.56797945691E+02  0.17843217160E+03  0.18757878835E+03  0.00000000000E+00 0. -1.
        1    1    5    5  501    0 -0.88186344596E+01  0.73546618893E+02 -0.25061391428E+03  0.26133160447E+03  0.00000000000E+00 0. -1.
       -2    1    5    5    0  501 -0.54961582755E+02  0.12642648859E+03 -0.20672166538E+03  0.24847188882E+03  0.00000000000E+00 0.  1.
</event>
<event>
 9   1  0.7335000E-04  0.1003249E+04  0.7818608E-02  0.9304988E-01
       -2   -1    0    0    0  501 -0.00000000000E+00  0.00000000000E+00  0.26874496827E+03  0.26874496827E+03  0.00000000000E+00 0.  1.
        2   -1    0    0  501    0  0.00000000000E+00 -0.00000000000E+00 -0.93630515646E+03  0.93630515646E+03  0.00000000000E+00 0. -1.
       39    2    1    2    0    0  0.35527136788E-14 -0.56843418861E-13 -0.66756018820E+03  0.12050501247E+04  0.10032493201E+04 0.  0.
       24    2    3    3    0    0  0.22469603659E+02  0.45751385072E+03 -0.10898319577E+03  0.47808081136E+03  0.82825832583E+02 0.  0.
      -24    2    3    3    0    0 -0.22469603659E+02 -0.45751385072E+03 -0.55857699243E+03  0.72696931337E+03  0.81561752216E+02 0.  0.
      -13    1    4    4    0    0  0.49237193516E+02  0.20189142488E+03 -0.61434789614E+02  0.21669952017E+03  0.00000000000E+00 0.  1.
       14    1    4    4    0    0 -0.26767589857E+02  0.25562242584E+03 -0.47548406152E+02  0.26138129119E+03  0.00000000000E+00 0. -1.
        1    1    5    5  502    0  0.16032857924E+01 -0.22139805389E+03 -0.33048839374E+03  0.39779674105E+03  0.00000000000E+00 0. -1.
       -2    1    5    5    0  502 -0.24072889451E+02 -0.23611579682E+03 -0.22808859869E+03  0.32917257232E+03  0.00000000000E+00 0.  1.
</event>
<event>
 9   1  0.7335000E-04  0.9778675E+03  0.7818608E-02  0.9333158E-01
       21   -1    0    0  503  502  0.00000000000E+00  0.00000000000E+00  0.48129780114E+03  0.48129780114E+03  0.00000000000E+00 0.  1.
       21   -1    0    0  502  503 -0.00000000000E+00 -0.00000000000E+00 -0.49669082602E+03  0.49669082602E+03  0.00000000000E+00 0. -1.
       39    2    1    2    0    0 -0.35527136788E-14 -0.14210854715E-13 -0.15393024879E+02  0.97798862715E+03  0.97786748061E+03 0.  0.
       24    2    3    3    0    0  0.10052808825E+02  0.12170586833E+03  0.45878714916E+03  0.48143256032E+03  0.79864163125E+02 0.  0.
      -24    2    3    3    0    0 -0.10052808825E+02 -0.12170586833E+03 -0.47418017404E+03  0.49655606684E+03  0.82508864436E+02 0.  0.
      -13    1    4    4    0    0  0.12951244462E+02  0.12449054712E+03  0.33560405767E+03  0.35818391167E+03  0.00000000000E+00 0.  1.
       14    1    4    4    0    0 -0.28984356370E+01 -0.27846787906E+01  0.12318309149E+03  0.12324864865E+03  0.00000000000E+00 0. -1.
        3    1    5    5  501    0 -0.32081463355E+02 -0.10615046995E+03 -0.29131160480E+03  0.31170433692E+03  0.00000000000E+00 0. -1.
       -4    1    5    5    0  501  0.22028654530E+02 -0.15555398378E+02 -0.18286856924E+03  0.18485172992E+03  0.14200000000E+01 0.  1.
</event>
<event>
 9   1  0.7335000E-04  0.1003155E+04  0.7818608E-02  0.9305091E-01
       21   -1    0    0  503  502  0.00000000000E+00  0.00000000000E+00  0.11613285054E+04  0.11613285054E+04  0.00000000000E+00 0. -1.
       21   -1    0    0  502  503 -0.00000000000E+00 -0.00000000000E+00 -0.21663133590E+03  0.21663133590E+03  0.00000000000E+00 0.  1.
       39    2    1    2    0    0  0.00000000000E+00  0.35527136788E-14  0.94469716951E+03  0.13779598413E+04  0.10031553131E+04 0.  0.
       24    2    3    3    0    0 -0.13400618761E+03 -0.31875723959E+02  0.11247899483E+04  0.11360539172E+04  0.80575151223E+02 0.  0.
      -24    2    3    3    0    0  0.13400618761E+03  0.31875723959E+02 -0.18009277877E+03  0.24190592409E+03  0.84328803181E+02 0.  0.
      -13    1    4    4    0    0 -0.46363804662E+02  0.20571287953E+02  0.23440949201E+03  0.23983450589E+03  0.00000000000E+00 0.  1.
       14    1    4    4    0    0 -0.87642382950E+02 -0.52447011912E+02  0.89038045627E+03  0.89621941133E+03  0.00000000000E+00 0. -1.
        3    1    5    5  501    0  0.86585067568E+01  0.34892280325E+02 -0.35663754311E+02  0.50639355615E+02  0.00000000000E+00 0. -1.
       -4    1    5    5    0  501  0.12534768085E+03 -0.30165563656E+01 -0.14442902446E+03  0.19126656847E+03  0.14200000000E+01 0.  1.
</event>
<event>
 9   1  0.7335000E-04  0.9945327E+03  0.7818608E-02  0.9314562E-01
       21   -1    0    0  503  502  0.00000000000E+00  0.00000000000E+00  0.34235800400E+03  0.34235800400E+03  0.00000000000E+00 0. -1.
       21   -1    0    0  502  503 -0.00000000000E+00 -0.00000000000E+00 -0.72226684897E+03  0.72226684897E+03  0.00000000000E+00 0.  1.
       39    2    1    2    0    0  0.00000000000E+00  0.00000000000E+00 -0.37990884497E+03  0.10646248530E+04  0.99453272801E+03 0.  0.
       24    2    3    3    0    0 -0.24400721235E+03 -0.46529821214E+02  0.26276536230E+03  0.37022697902E+03  0.79484818885E+02 0.  0.
      -24    2    3    3    0    0  0.24400721235E+03  0.46529821214E+02 -0.64267420727E+03  0.69439787395E+03  0.86334968097E+02 0.  0.
      -13    1    4    4    0    0 -0.84545893407E+02 -0.43797510522E+02  0.61162234221E+02  0.11316823280E+03  0.00000000000E+00 0.  1.
       14    1    4    4    0    0 -0.15946131894E+03 -0.27323106925E+01  0.20160312808E+03  0.25705874623E+03  0.00000000000E+00 0. -1.
        1    1    5    5  501    0  0.11351980628E+03 -0.34962472164E+01 -0.38329355537E+03  0.39976608129E+03  0.00000000000E+00 0. -1.
       -2    1    5    5    0  501  0.13048740607E+03  0.50026068431E+02 -0.25938065190E+03  0.29463179266E+03  0.00000000000E+00 0.  1.
</event>
<event>
 9   1  0.7335000E-04  0.1000824E+04  0.7818608E-02  0.9307642E-01
       21   -1    0    0  503  502  0.00000000000E+00  0.00000000000E+00  0.16059020317E+04  0.16059020317E+04  0.00000000000E+00 0.  1.
       21   -1    0    0  502  503 -0.00000000000E+00 -0.00000000000E+00 -0.15593235127E+03  0.15593235127E+03  0.00000000000E+00 0. -1.
       39    2    1    2    0    0 -0.28421709430E-13 -0.28421709430E-13  0.14499696804E+04  0.17618343829E+04  0.10008238201E+04 0.  0.
       24    2    3    3    0    0  0.19727113700E+03  0.18660862483E+03 -0.15353787287E+01  0.28295407236E+03  0.79510812599E+02 0.  0.
      -24    2    3    3    0    0 -0.19727113700E+03 -0.18660862483E+03  0.14515050591E+04  0.14788803106E+04  0.80506869131E+02 0.  0.
      -13    1    4    4    0    0 -0.36258115944E+01 -0.32672416495E+00 -0.76472026954E+01  0.84695317145E+01  0.00000000000E+00 0.  1.
       14    1    4    4    0    0  0.20089694859E+03  0.18693534900E+03  0.61118239667E+01  0.27448454064E+03  0.00000000000E+00 0. -1.
        3    1    5    5  501    0  0.18064732915E+00 -0.32438858460E+02  0.14662223695E+03  0.15016788119E+03  0.00000000000E+00 0. -1.
       -4    1    5    5    0  501 -0.19745178433E+03 -0.15416976637E+03  0.13048828222E+04  0.13287124294E+04  0.14200000000E+01 0.  1.
</event>
<event>
 8   1  0.7335000E-04  0.1168434E+04  0.7818608E-02  0.9140943E-01
       21   -1    0    0  503  502  0.00000000000E+00  0.00000000000E+00  0.85497683902E+03  0.85497683902E+03  0.00000000000E+00 0.  1.
       21   -1    0    0  502  503 -0.00000000000E+00 -0.00000000000E+00 -0.39920354515E+03  0.39920354515E+03  0.00000000000E+00 0. -1.
       24    2    1    2    0    0 -0.10674246917E+03  0.40496746885E+03  0.65554907205E+03  0.78213495660E+03  0.81227451812E+02 0.  0.
      -24    2    1    2    0    0  0.10674246917E+03 -0.40496746885E+03 -0.19977577818E+03  0.47204542756E+03  0.86740524474E+02 0.  0.
      -13    1    3    3    0    0 -0.52473107521E+02  0.14925166070E+03  0.31816354398E+03  0.35532735041E+03  0.00000000000E+00 0.  1.
       14    1    3    3    0    0 -0.54269361651E+02  0.25571580815E+03  0.33738552807E+03  0.42680760619E+03  0.00000000000E+00 0. -1.
        1    1    4    4  501    0  0.49593008607E+02 -0.21753303911E+03 -0.59052481799E+02  0.23079706501E+03  0.00000000000E+00 0. -1.
       -2    1    4    4    0  501  0.57149460565E+02 -0.18743442974E+03 -0.14072329638E+03  0.24124836256E+03  0.00000000000E+00 0.  1.
</event>
<event>
 9   1  0.7335000E-04  0.1014293E+04  0.7818608E-02  0.9293006E-01
       21   -1    0    0  503  502  0.00000000000E+00  0.00000000000E+00  0.31499898180E+04  0.31499898180E+04  0.00000000000E+00 0. -1.
       21   -1    0    0  502  503 -0.00000000000E+00 -0.00000000000E+00 -0.81650229137E+02  0.81650229137E+02  0.00000000000E+00 0.  1.
       39    2    1    2    0    0  0.28421709430E-13  0.00000000000E+00  0.30683395888E+04  0.32316400471E+04  0.10142926410E+04 0.  0.
       24    2    3    3    0    0 -0.20162580288E+03  0.24072894042E+03  0.29109372340E+03  0.43568254345E+03  0.80500532453E+02 0.  0.
      -24    2    3    3    0    0  0.20162580288E+03 -0.24072894042E+03  0.27772458654E+04  0.27959575037E+04  0.75368282587E+02 0.  0.
      -13    1    4    4    0    0 -0.14029666783E+03  0.17327337263E+03  0.15371141059E+03  0.27080253768E+03  0.00000000000E+00 0.  1.
       14    1    4    4    0    0 -0.61329135048E+02  0.67455567788E+02  0.13738231281E+03  0.16488000577E+03  0.00000000000E+00 0. -1.
        3    1    5    5  501    0  0.10637278435E+03 -0.16032076983E+03  0.19339897423E+04  0.19435365296E+04  0.00000000000E+00 0. -1.
       -4    1    5    5    0  501  0.95253018530E+02 -0.80408170588E+02  0.84325612312E+03  0.85242097406E+03  0.14200000000E+01 0.  1.
</event>
<event>
 9   1  0.7335000E-04  0.9937021E+03  0.7818608E-02  0.9315479E-01
       -2   -1    0    0    0  501 -0.00000000000E+00  0.00000000000E+00  0.25585281361E+03  0.25585281361E+03  0.00000000000E+00 0. -1.
        2   -1    0    0  501    0  0.00000000000E+00 -0.00000000000E+00 -0.96485531794E+03  0.96485531794E+03  0.00000000000E+00 0.  1.
       39    2    1    2    0    0  0.56843418861E-13  0.28421709430E-13 -0.70900250433E+03  0.12207081316E+04  0.99370206365E+03 0.  0.
       24    2    3    3    0    0 -0.34266238362E+03 -0.13938885255E+03  0.41081153051E+02  0.38067157860E+03  0.79852540689E+02 0.  0.
      -24    2    3    3    0    0  0.34266238362E+03  0.13938885255E+03 -0.75008365738E+03  0.84003655296E+03  0.78671188350E+02 0.  0.
      -13    1    4    4    0    0 -0.54146766139E+02 -0.51741601858E+02  0.24032415042E+02  0.78655086415E+02  0.00000000000E+00 0.  1.
       14    1    4    4    0    0 -0.28851561748E+03 -0.87647250688E+02  0.17048738010E+02  0.30201649218E+03  0.00000000000E+00 0. -1.
        3    1    5    5  502    0  0.45160938402E+02  0.25461183563E+02 -0.17608843894E+03  0.18356176223E+03  0.00000000000E+00 0. -1.
       -4    1    5    5    0  502  0.29750144521E+03  0.11392766898E+03 -0.57399521844E+03  0.65647479072E+03  0.14200000000E+01 0.  1.
</event>
<event>
 9   1  0.7335000E-04  0.1006857E+04  0.7818608E-02  0.9301056E-01
       21   -1    0    0  503  502  0.00000000000E+00  0.00000000000E+00  0.27106883607E+03  0.27106883607E+03  0.00000000000E+00 0. -1.
       21   -1    0    0  502  503 -0.00000000000E+00 -0.00000000000E+00 -0.93496715748E+03  0.93496715748E+03  0.00000000000E+00 0.  1.
       39    2    1    2    0    0  0.00000000000E+00 -0.14210854715E-13 -0.66389832142E+03  0.12060359935E+04  0.10068574063E+04 0.  0.
       24    2    3    3    0    0  0.13486365151E+03  0.69863415063E+02  0.23445549884E+03  0.29121757169E+03  0.82275098680E+02 0.  0.
      -24    2    3    3    0    0 -0.13486365151E+03 -0.69863415063E+02 -0.89835382026E+03  0.91481842185E+03  0.82365389122E+02 0.  0.
      -13    1    4    4    0    0 -0.46479000911E+01  0.78689604692E+01 -0.23776336521E+01  0.94433392349E+01  0.00000000000E+00 0.  1.
       14    1    4    4    0    0  0.13951155161E+03  0.61994454594E+02  0.23683313249E+03  0.28177423246E+03  0.00000000000E+00 0. -1.
        3    1    5    5  501    0 -0.52475294955E+02 -0.72873907796E+02 -0.50377504540E+03  0.51171628798E+03  0.00000000000E+00 0. -1.
       -4    1    5    5    0  501 -0.82388356560E+02  0.30104927328E+01 -0.39457877486E+03  0.40310213387E+03  0.14200000000E+01 0.  1.
</event>
<event>
 9   1  0.7335000E-04  0.1001366E+04  0.7818608E-02  0.9307048E-01
       21   -1    0    0  503  502  0.00000000000E+00  0.00000000000E+00  0.81002421552E+03  0.81002421552E+03  0.00000000000E+00 0.  1.
       21   -1    0    0  502  503 -0.00000000000E+00 -0.00000000000E+00 -0.30947666726E+03  0.30947666726E+03  0.00000000000E+00 0. -1.
       39    2    1    2    0    0  0.00000000000E+00  0.00000000000E+00  0.50054754826E+03  0.11195008828E+04  0.10013662559E+04 0.  0.
       24    2    3    3    0    0  0.21425105203E+03 -0.41425561779E+03  0.42862812142E+03  0.63857923024E+03  0.80932914484E+02 0.  0.
      -24    2    3    3    0    0 -0.21425105203E+03  0.41425561779E+03  0.71919426835E+02  0.48092165255E+03  0.92746977127E+02 0.  0.
      -13    1    4    4    0    0  0.19553513789E+03 -0.32229204495E+03  0.36824867970E+03  0.52698504959E+03  0.00000000000E+00 0.  1.
       14    1    4    4    0    0  0.18715914138E+02 -0.91963572838E+02  0.60379441719E+02  0.11159418064E+03  0.00000000000E+00 0. -1.
        3    1    5    5  501    0 -0.40499418706E+02  0.16837318212E+03  0.94831385188E+01  0.17343489063E+03  0.00000000000E+00 0. -1.
       -4    1    5    5    0  501 -0.17375163333E+03  0.24588243567E+03  0.62436288316E+02  0.30748676191E+03  0.14200000000E+01 0.  1.
</event>
<event>
 9   1  0.7335000E-04  0.1012362E+04  0.7818608E-02  0.9295090E-01
       -2   -1    0    0    0  501 -0.00000000000E+00  0.00000000000E+00  0.21817900121E+03  0.21817900121E+03  0.00000000000E+00 0. -1.
        2   -1    0    0  501    0  0.00000000000E+00 -0.00000000000E+00 -0.11743528468E+04  0.11743528468E+04  0.00000000000E+00 0.  1.
       39    2    1    2    0    0  0.00000000000E+00  0.56843418861E-13 -0.95617384554E+03  0.13925318480E+04  0.10123618546E+04 0.  0.
       24    2    3    3    0    0  0.23495717389E+03 -0.43679158136E+03 -0.56139271509E+03  0.75341949839E+03  0.80544403228E+02 0.  0.
      -24    2    3    3    0    0 -0.23495717389E+03  0.43679158136E+03 -0.39478113045E+03  0.63911234957E+03  0.81367655174E+02 0.  0.
      -13    1    4    4    0    0  0.54854368615E+02 -0.76728550919E+02 -0.66264635770E+02  0.11527043956E+03  0.00000000000E+00 0.  1.
       14    1    4    4    0    0  0.18010280527E+03 -0.36006303044E+03 -0.49512807932E+03  0.63814905883E+03  0.00000000000E+00 0. -1.
        3    1    5    5  502    0 -0.21375386200E+03  0.41922162609E+03 -0.34976096677E+03  0.58631921270E+03  0.00000000000E+00 0. -1.
       -4    1    5    5    0  502 -0.21203311883E+02  0.17569955268E+02 -0.45020163686E+02  0.52793136876E+02  0.14200000000E+01 0.  1.
</event>
<event>
 9   1  0.7335000E-04  0.8668060E+03  0.7818608E-02  0.9468054E-01
       21   -1    0    0  503  502  0.00000000000E+00  0.00000000000E+00  0.37906018793E+04  0.37906018793E+04  0.00000000000E+00 0.  1.
       21   -1    0    0  502  503 -0.00000000000E+00 -0.00000000000E+00 -0.49553650085E+02  0.49553650085E+02  0.00000000000E+00 0. -1.
       39    2    1    2    0    0 -0.71054273576E-14  0.28421709430E-13  0.37410482292E+04  0.38401555294E+04  0.86680599707E+03 0.  0.
       24    2    3    3    0    0 -0.41157939852E+02  0.24650624565E+03  0.34629712852E+03  0.43528074242E+03  0.84192151303E+02 0.  0.
      -24    2    3    3    0    0  0.41157939852E+02 -0.24650624565E+03  0.33947511007E+04  0.34048747870E+04  0.79862219363E+02 0.  0.
      -13    1    4    4    0    0 -0.15794949417E+02  0.53524959945E+02  0.14454233600E+03  0.15494156531E+03  0.00000000000E+00 0.  1.
       14    1    4    4    0    0 -0.25362990436E+02  0.19298128571E+03  0.20175479251E+03  0.28033917710E+03  0.00000000000E+00 0. -1.
        3    1    5    5  501    0 -0.27759085162E+01 -0.43801580083E+02  0.30154161506E+03  0.30471893557E+03  0.00000000000E+00 0. -1.
       -4    1    5    5    0  501  0.43933848369E+02 -0.20270466557E+03  0.30932094857E+04  0.31001558514E+04  0.14200000000E+01 0.  1.
</event>
<event>
 9   1  0.7335000E-04  0.1001046E+04  0.7818608E-02  0.9307398E-01
       21   -1    0    0  503  502  0.00000000000E+00  0.00000000000E+00  0.77756867594E+03  0.77756867594E+03  0.00000000000E+00 0. -1.
       21   -1    0    0  502  503 -0.00000000000E+00 -0.00000000000E+00 -0.32218787540E+03  0.32218787540E+03  0.00000000000E+00 0.  1.
       39    2    1    2    0    0  0.00000000000E+00  0.00000000000E+00  0.45538080054E+03  0.10997565513E+04  0.10010458524E+04 0.  0.
       24    2    3    3    0    0 -0.20283196402E+03 -0.28863987492E+03 -0.15238555390E+03  0.39251935627E+03  0.79976902847E+02 0.  0.
      -24    2    3    3    0    0  0.20283196402E+03  0.28863987492E+03  0.60776635444E+03  0.70723719507E+03  0.79691439139E+02 0.  0.
      -13    1    4    4    0    0 -0.18003557907E+03 -0.19846794508E+03 -0.10180970416E+03  0.28664882838E+03  0.00000000000E+00 0.  1.
       14    1    4    4    0    0 -0.22796384955E+02 -0.90171929837E+02 -0.50575849744E+02  0.10587052789E+03  0.00000000000E+00 0. -1.
        1    1    5    5  501    0  0.12321276291E+03  0.23424890280E+03  0.46256755729E+03  0.53293778104E+03  0.00000000000E+00 0. -1.
       -2    1    5    5    0  501  0.79619201115E+02  0.54390972113E+02  0.14519879715E+03  0.17429941402E+03  0.00000000000E+00 0.  1.
</event>
<event>
 9   1  0.7335000E-04  0.1010656E+04  0.7818608E-02  0.9296934E-01
       21   -1    0    0  503  502  0.00000000000E+00  0.00000000000E+00  0.75041997288E+03  0.75041997288E+03  0.00000000000E+00 0.  1.
       21   -1    0    0  502  503 -0.00000000000E+00 -0.00000000000E+00 -0.34028447741E+03  0.34028447741E+03  0.00000000000E+00 0. -1.
       39    2    1    2    0    0  0.00000000000E+00 -0.56843418861E-13  0.41013549547E+03  0.10907044503E+04  0.10106557640E+04 0.  0.
       24    2    3    3    0    0 -0.11925675743E+03  0.35950939794E+03  0.55087180651E+03  0.67321776042E+03  0.79329845201E+02 0.  0.
      -24    2    3    3    0    0  0.11925675743E+03 -0.35950939794E+03 -0.14073631104E+03  0.41748668987E+03  0.10497259440E+03 0.  0.
      -13    1    4    4    0    0 -0.73966994207E+02  0.29362175163E+03  0.47294811490E+03  0.56157347574E+03  0.00000000000E+00 0.  1.
       14    1    4    4    0    0 -0.45289763221E+02  0.65887646308E+02  0.77923691610E+02  0.11164428468E+03  0.00000000000E+00 0. -1.
        1    1    5    5  501    0  0.13282186462E+03 -0.30639676180E+03 -0.14143907277E+03  0.36266463113E+03  0.00000000000E+00 0. -1.
       -2    1    5    5    0  501 -0.13565107197E+02 -0.53112636138E+02  0.70276172921E+00  0.54822058744E+02  0.00000000000E+00 0.  1.
</event>
<event>
 9   1  0.7335000E-04  0.1005958E+04  0.7818608E-02  0.9302034E-01
       21   -1    0    0  503  502  0.00000000000E+00  0.00000000000E+00  0.73628864860E+03  0.73628864860E+03  0.00000000000E+00 0. -1.
       21   -1    0    0  502  503 -0.00000000000E+00 -0.00000000000E+00 -0.34359869339E+03  0.34359869339E+03  0.00000000000E+00 0.  1.
       39    2    1    2    0    0  0.00000000000E+00  0.00000000000E+00  0.39268995520E+03  0.10798873420E+04  0.10059578870E+04 0.  0.
       24    2    3    3    0    0 -0.13686948177E+03  0.13462050593E+03 -0.29476191474E+03  0.36173199136E+03  0.84317919404E+02 0.  0.
      -24    2    3    3    0    0  0.13686948177E+03 -0.13462050593E+03  0.68745186994E+03  0.71815535063E+03  0.79379458880E+02 0.  0.
      -13    1    4    4    0    0 -0.14053603089E+03  0.97587843865E+02 -0.25675558665E+03  0.30854042607E+03  0.00000000000E+00 0.  1.
       14    1    4    4    0    0  0.36665491150E+01  0.37032662069E+02 -0.38006328096E+02  0.53191565287E+02  0.00000000000E+00 0. -1.
        3    1    5    5  501    0  0.10604196799E+03 -0.49305734113E+02  0.39658821830E+03  0.41347088082E+03  0.00000000000E+00 0. -1.
       -4    1    5    5    0  501  0.30827513785E+02 -0.85314771821E+02  0.29086365164E+03  0.30468446981E+03  0.14200000000E+01 0.  1.
</event>
<event>
 9   1  0.7335000E-04  0.1002113E+04  0.7818608E-02  0.9306231E-01
       21   -1    0    0  503  502  0.00000000000E+00  0.00000000000E+00  0.11305508654E+04  0.11305508654E+04  0.00000000000E+00 0.  1.
       21   -1    0    0  502  503 -0.00000000000E+00 -0.00000000000E+00 -0.22206643103E+03  0.22206643103E+03  0.00000000000E+00 0. -1.
       39    2    1    2    0    0 -0.71054273576E-14  0.00000000000E+00  0.90848443432E+03  0.13526172964E+04  0.10021125601E+04 0.  0.
       24    2    3    3    0    0  0.41464234630E+02 -0.43192818384E+03  0.77431318699E+03  0.89121690866E+03  0.80158767381E+02 0.  0.
      -24    2    3    3    0    0 -0.41464234630E+02  0.43192818384E+03  0.13417124733E+03  0.46140038773E+03  0.81284410795E+02 0.  0.
      -13    1    4    4    0    0  0.29729879471E+02 -0.42205606485E+03  0.76186255156E+03  0.87146413298E+03  0.00000000000E+00 0.  1.
       14    1    4    4    0    0  0.11734355159E+02 -0.98721189881E+01  0.12450635436E+02  0.19752775680E+02  0.00000000000E+00 0. -1.
        1    1    5    5  501    0 -0.58032883012E+02  0.21720574898E+03  0.50994409474E+02  0.23053542612E+03  0.00000000000E+00 0. -1.
       -2    1    5    5    0  501  0.16568648382E+02  0.21472243486E+03  0.83176837857E+02  0.23086496160E+03  0.00000000000E+00 0.  1.
</event>
<event>
 9   1  0.7335000E-04  0.9882213E+03  0.7818608E-02  0.9321559E-01
       21   -1    0    0  503  502  0.00000000000E+00  0.00000000000E+00  0.15712693331E+04  0.15712693331E+04  0.00000000000E+00 0.  1.
       21   -1    0    0  502  503 -0.00000000000E+00 -0.00000000000E+00 -0.15538094334E+03  0.15538094334E+03  0.00000000000E+00 0. -1.
       39    2    1    2    0    0  0.00000000000E+00  0.00000000000E+00  0.14158883898E+04  0.17266502765E+04  0.98822125301E+03 0.  0.
       24    2    3    3    0    0  0.31064823500E+03 -0.14306596071E+03  0.10096201512E+03  0.36558398392E+03  0.80548903002E+02 0.  0.
      -24    2    3    3    0    0 -0.31064823500E+03  0.14306596071E+03  0.13149263747E+04  0.13610662925E+04  0.80621876061E+02 0.  0.
      -13    1    4    4    0    0  0.24538359807E+02  0.91429365680E+01  0.14495597215E+00  0.26186740984E+02  0.00000000000E+00 0.  1.
       14    1    4    4    0    0  0.28610987520E+03 -0.15220889728E+03  0.10081705915E+03  0.33939724293E+03  0.00000000000E+00 0. -1.
        3    1    5    5  501    0 -0.16879416079E+03  0.33439965288E+02  0.65213139085E+03  0.67445166686E+03  0.00000000000E+00 0. -1.
       -4    1    5    5    0  501 -0.14185407421E+03  0.10962599542E+03  0.66279498381E+03  0.68661462569E+03  0.14200000000E+01 0.  1.
</event>
<event>
 9   1  0.7335000E-04  0.9737655E+03  0.7818608E-02  0.9337796E-01
       21   -1    0    0  503  502  0.00000000000E+00  0.00000000000E+00  0.70474921565E+03  0.70474921565E+03  0.00000000000E+00 0. -1.
       21   -1    0    0  502  503 -0.00000000000E+00 -0.00000000000E+00 -0.33636760090E+03  0.33636760090E+03  0.00000000000E+00 0.  1.
       39    2    1    2    0    0  0.00000000000E+00  0.00000000000E+00  0.36838161475E+03  0.10411168166E+04  0.97376548081E+03 0.  0.
       24    2    3    3    0    0 -0.21609287929E+02  0.11456383264E+03 -0.31410013214E+03  0.34434094140E+03  0.79498162527E+02 0.  0.
      -24    2    3    3    0    0  0.21609287929E+02 -0.11456383264E+03  0.68248174688E+03  0.69677587515E+03  0.78252490602E+02 0.  0.
      -13    1    4    4    0    0  0.18456552308E+02  0.94320400033E+02 -0.22035661965E+03  0.24040387270E+03  0.00000000000E+00 0.  1.
       14    1    4    4    0    0 -0.40065840237E+02  0.20243432607E+02 -0.93743512485E+02  0.10393706870E+03  0.00000000000E+00 0. -1.
        1    1    5    5  501    0  0.23649145236E+02 -0.85199737404E+02  0.63341968573E+03  0.63956139314E+03  0.00000000000E+00 0. -1.
       -2    1    5    5    0  501 -0.20398573065E+01 -0.29364095236E+02  0.49062061150E+02  0.57214482005E+02  0.00000000000E+00 0.  1.
</event>
<event>
 9   1  0.7335000E-04  0.9987175E+03  0.7818608E-02  0.9309953E-01
       21   -1    0    0  503  502  0.00000000000E+00  0.00000000000E+00  0.31653339049E+03  0.31653339049E+03  0.00000000000E+00 0.  1.
       21   -1    0    0  502  503 -0.00000000000E+00 -0.00000000000E+00 -0.78778150531E+03  0.78778150531E+03  0.00000000000E+00 0. -1.
       39    2    1    2    0    0  0.00000000000E+00 -0.56843418861E-13 -0.47124811481E+03  0.11043148958E+04  0.99871747926E+03 0.  0.
       24    2    3    3    0    0  0.17895839690E+03 -0.29941553440E+03  0.14687477842E+03  0.38952429741E+03  0.92093472506E+02 0.  0.
      -24    2    3    3    0    0 -0.17895839690E+03  0.29941553440E+03 -0.61812289324E+03  0.71479059839E+03  0.84698986693E+02 0.  0.
      -13    1    4    4    0    0  0.17156603689E+03 -0.30528880801E+03  0.13750633103E+03  0.37622354045E+03  0.00000000000E+00 0.  1.
       14    1    4    4    0    0  0.73923600081E+01  0.58732736129E+01  0.93684473863E+01  0.13300756965E+02  0.00000000000E+00 0. -1.
        1    1    5    5  501    0 -0.18673042949E+03  0.29041916370E+03 -0.60790779909E+03  0.69911618214E+03  0.00000000000E+00 0. -1.
       -2    1    5    5    0  501  0.77720325874E+01  0.89963707022E+01 -0.10215094145E+02  0.15674416249E+02  0.00000000000E+00 0.  1.
</event>
<event>
 9   1  0.7335000E-04  0.1001710E+04  0.7818608E-02  0.9306672E-01
       21   -1    0    0  503  502  0.00000000000E+00  0.00000000000E+00  0.18908778870E+03  0.18908778870E+03  0.00000000000E+00 0. -1.
       21   -1    0    0  502  503 -0.00000000000E+00 -0.00000000000E+00 -0.13266614854E+04  0.13266614854E+04  0.00000000000E+00 0.  1.
       39    2    1    2    0    0 -0.56843418861E-13 -0.14210854715E-13 -0.11375736967E+04  0.15157492741E+04  0.10017095121E+04 0.  0.
       24    2    3    3    0    0 -0.23275217288E+03 -0.52816255171E+02  0.86396685237E+02  0.26615075943E+03  0.80054411107E+02 0.  0.
      -24    2    3    3    0    0  0.23275217288E+03  0.52816255171E+02 -0.12239703820E+04  0.12495985147E+04  0.80186165906E+02 0.  0.
      -13    1    4    4    0    0 -0.82756367342E+02 -0.47507873502E+02  0.62757537599E+02  0.11421087035E+03  0.00000000000E+00 0.  1.
       14    1    4    4    0    0 -0.14999580554E+03 -0.53083816696E+01  0.23639147639E+02  0.15193988909E+03  0.00000000000E+00 0. -1.
        1    1    5    5  501    0  0.44176008589E+02 -0.48070515588E+01 -0.39535855054E+03  0.39784797469E+03  0.00000000000E+00 0. -1.
       -2    1    5    5    0  501  0.18857616429E+03  0.57623306730E+02 -0.82861183143E+03  0.85175054001E+03  0.00000000000E+00 0.  1.
</event>
<event>
 9   1  0.7335000E-04  0.9970943E+03  0.7818608E-02  0.9311737E-01
       21   -1    0    0  503  502  0.00000000000E+00  0.00000000000E+00  0.86797886292E+03  0.86797886292E+03  0.00000000000E+00 0. -1.
       21   -1    0    0  502  503 -0.00000000000E+00 -0.00000000000E+00 -0.28635406148E+03  0.28635406148E+03  0.00000000000E+00 0.  1.
       39    2    1    2    0    0 -0.14210854715E-13 -0.14210854715E-13  0.58162480144E+03  0.11543329244E+04  0.99709432388E+03 0.  0.
       24    2    3    3    0    0  0.11249713070E+03 -0.71850418714E+02  0.83897890645E+03  0.85336248334E+03  0.80770263247E+02 0.  0.
      -24    2    3    3    0    0 -0.11249713070E+03  0.71850418714E+02 -0.25735410501E+03  0.30097044106E+03  0.80833062157E+02 0.  0.
      -13    1    4    4    0    0 -0.50248910608E+01 -0.23716953399E+02  0.72821738402E+02  0.76751214926E+02  0.00000000000E+00 0.  1.
       14    1    4    4    0    0  0.11752202176E+03 -0.48133465315E+02  0.76615716805E+03  0.77661126842E+03  0.00000000000E+00 0. -1.
        1    1    5    5  501    0 -0.12540496020E+03  0.67187560102E+02 -0.23230930075E+03  0.27241179029E+03  0.00000000000E+00 0. -1.
       -2    1    5    5    0  501  0.12907829501E+02  0.46628586116E+01 -0.25044804269E+02  0.28558650769E+02  0.00000000000E+00 0.  1.
</event>
<event>
 9   1  0.7335000E-04  0.1007899E+04  0.7818608E-02  0.9299924E-01
       -1   -1    0    0    0  501 -0.00000000000E+00  0.00000000000E+00  0.15622855453E+03  0.15622855453E+03  0.00000000000E+00 0.  1.
        1   -1    0    0  501    0  0.00000000000E+00 -0.00000000000E+00 -0.16255996756E+04  0.16255996756E+04  0.00000000000E+00 0. -1.
       39    2    1    2    0    0  0.00000000000E+00  0.00000000000E+00 -0.14693711211E+04  0.17818282301E+04  0.10078989782E+04 0.  0.
       24    2    3    3    0    0  0.39662316646E+03  0.28251208034E+03 -0.55493671738E+03  0.74272028278E+03  0.80966946607E+02 0.  0.
      -24    2    3    3    0    0 -0.39662316646E+03 -0.28251208034E+03 -0.91443440371E+03  0.10391079474E+04  0.80199974263E+02 0.  0.
      -13    1    4    4    0    0  0.63878224072E+02  0.76372954726E+02 -0.14528521132E+03  0.17612793178E+03  0.00000000000E+00 0.  1.
       14    1    4    4    0    0  0.33274494239E+03  0.20613912561E+03 -0.40965150605E+03  0.56659235100E+03  0.00000000000E+00 0. -1.
        1    1    5    5  502    0 -0.82752368475E+02 -0.77933192246E+02 -0.28171173010E+03  0.30378123019E+03  0.00000000000E+00 0. -1.
       -2    1    5    5    0  502 -0.31387079799E+03 -0.20457888809E+03 -0.63272267361E+03  0.73532671717E+03  0.00000000000E+00 0.  1.
</event>
<event>
 9   1  0.7335000E-04  0.9927824E+03  0.7818608E-02  0.9316497E-01
       21   -1    0    0  503  502  0.00000000000E+00  0.00000000000E+00  0.75151994090E+03  0.75151994090E+03  0.00000000000E+00 0.  1.
       21   -1    0    0  502  503 -0.00000000000E+00 -0.00000000000E+00 -0.32787447194E+03  0.32787447194E+03  0.00000000000E+00 0. -1.
       39    2    1    2    0    0 -0.35527136788E-14  0.00000000000E+00  0.42364546896E+03  0.10793944128E+04  0.99278236039E+03 0.  0.
       24    2    3    3    0    0  0.19292167571E+02 -0.37950967511E+03 -0.12374064929E+03  0.40702038711E+03  0.77162594600E+02 0.  0.
      -24    2    3    3    0    0 -0.19292167571E+02  0.37950967511E+03  0.54738611825E+03  0.67237402574E+03  0.89752363811E+02 0.  0.
      -13    1    4    4    0    0 -0.51072198899E+01 -0.12642696133E+03 -0.55908181372E+01  0.12665353329E+03  0.00000000000E+00 0.  1.
       14    1    4    4    0    0  0.24399387461E+02 -0.25308271377E+03 -0.11814983115E+03  0.28036685382E+03  0.00000000000E+00 0. -1.
        1    1    5    5  501    0 -0.33865325167E+02  0.50587522647E+02  0.75643752076E+02  0.97097553648E+02  0.00000000000E+00 0. -1.
       -2    1    5    5    0  501  0.14573157597E+02  0.32892215246E+03  0.47174236617E+03  0.57527647209E+03  0.00000000000E+00 0.  1.
</event>
<event>
 9   1  0.7335000E-04  0.9975720E+03  0.7818608E-02  0.9311212E-01
       21   -1    0    0  503  502  0.00000000000E+00  0.00000000000E+00  0.55758977695E+03  0.55758977695E+03  0.00000000000E+00 0. -1.
       21   -1    0    0  502  503 -0.00000000000E+00 -0.00000000000E+00 -0.44618372319E+03  0.44618372319E+03  0.00000000000E+00 0.  1.
       39    2    1    2    0    0 -0.56843418861E-13 -0.28421709430E-13  0.11140605376E+03  0.10037735001E+04  0.99757201783E+03 0.  0.
       24    2    3    3    0    0  0.25869593443E+03  0.15185462619E+03 -0.33850116405E+03  0.45706101219E+03  0.65865900258E+02 0.  0.
      -24    2    3    3    0    0 -0.25869593443E+03 -0.15185462619E+03  0.44990721782E+03  0.54671248795E+03  0.80589241516E+02 0.  0.
      -13    1    4    4    0    0  0.24963872415E+03  0.12605922634E+03 -0.31185955981E+03  0.41888758180E+03  0.00000000000E+00 0.  1.
       14    1    4    4    0    0  0.90572102803E+01  0.25795399851E+02 -0.26641604241E+02  0.38173430394E+02  0.00000000000E+00 0. -1.
        1    1    5    5  501    0 -0.22389867147E+03 -0.15238867624E+03  0.42482373272E+03  0.50381358419E+03  0.00000000000E+00 0. -1.
       -2    1    5    5    0  501 -0.34797262959E+02  0.53405005028E+00  0.25083485095E+02  0.42898903755E+02  0.00000000000E+00 0.  1.
</event>
<event>
 9   1  0.7335000E-04  0.9955778E+03  0.7818608E-02  0.9313408E-01
       -2   -1    0    0    0  501 -0.00000000000E+00  0.00000000000E+00  0.12063612743E+03  0.12063612743E+03  0.00000000000E+00 0.  1.
        2   -1    0    0  501    0  0.00000000000E+00 -0.00000000000E+00 -0.20540595847E+04  0.20540595847E+04  0.00000000000E+00 0. -1.
       39    2    1    2    0    0  0.11368683772E-12 -0.17763568394E-14 -0.19334234573E+04  0.21746957121E+04  0.99557780973E+03 0.  0.
       24    2    3    3    0    0 -0.48754773183E+03  0.12674689335E+02 -0.10916917460E+04  0.11985991547E+04  0.83580062724E+02 0.  0.
      -24    2    3    3    0    0  0.48754773183E+03 -0.12674689335E+02 -0.84173171133E+03  0.97609655744E+03  0.79929825676E+02 0.  0.
      -13    1    4    4    0    0 -0.16110898923E+03  0.16017904536E+02 -0.27564574265E+03  0.31967679790E+03  0.00000000000E+00 0.  1.
       14    1    4    4    0    0 -0.32643874261E+03 -0.33432152007E+01 -0.81604600331E+03  0.87892235680E+03  0.00000000000E+00 0. -1.
        3    1    5    5  502    0  0.93541123878E+02 -0.20111294028E+02 -0.11689472818E+03  0.15105887421E+03  0.00000000000E+00 0. -1.
       -4    1    5    5    0  502  0.39400660796E+03  0.74366046926E+01 -0.72483698315E+03  0.82503768323E+03  0.14200000000E+01 0.  1.
</event>
<event>
 9   1  0.7335000E-04  0.1001133E+04  0.7818608E-02  0.9307303E-01
       21   -1    0    0  503  502  0.00000000000E+00  0.00000000000E+00  0.87708059319E+03  0.87708059319E+03  0.00000000000E+00 0.  1.
       21   -1    0    0  502  503 -0.00000000000E+00 -0.00000000000E+00 -0.28568273486E+03  0.28568273486E+03  0.00000000000E+00 0. -1.
       39    2    1    2    0    0 -0.28421709430E-13  0.00000000000E+00  0.59139785833E+03  0.11627633281E+04  0.10011329234E+04 0.  0.
       24    2    3    3    0    0 -0.19141979250E+03  0.16439992616E+03  0.78905162903E+03  0.83218465538E+03  0.79119875410E+02 0.  0.
      -24    2    3    3    0    0  0.19141979250E+03 -0.16439992616E+03 -0.19765377070E+03  0.33057867267E+03  0.80909659929E+02 0.  0.
      -13    1    4    4    0    0 -0.18428069093E+03  0.17013585196E+03  0.77990262269E+03  0.81923969755E+03  0.00000000000E+00 0.  1.
       14    1    4    4    0    0 -0.71391015779E+01 -0.57359257958E+01  0.91490063490E+01  0.12944957831E+02  0.00000000000E+00 0. -1.
        3    1    5    5  501    0  0.17524553209E+03 -0.12939452454E+03 -0.13284021761E+03  0.25514792359E+03  0.00000000000E+00 0. -1.
       -4    1    5    5    0  501  0.16174260414E+02 -0.35005401615E+02 -0.64813553092E+02  0.75430749079E+02  0.14200000000E+01 0.  1.
</event>
<event>
 9   1  0.7335000E-04  0.9963585E+03  0.7818608E-02  0.9312548E-01
       21   -1    0    0  503  502  0.00000000000E+00  0.00000000000E+00  0.67611404361E+03  0.67611404361E+03  0.00000000000E+00 0. -1.
       21   -1    0    0  502  503 -0.00000000000E+00 -0.00000000000E+00 -0.36707204570E+03  0.36707204570E+03  0.00000000000E+00 0.  1.
       39    2    1    2    0    0  0.00000000000E+00 -0.56843418861E-13  0.30904199791E+03  0.10431860893E+04  0.99635849997E+03 0.  0.
       24    2    3    3    0    0 -0.20426510894E+02  0.49085295294E+03  0.17674969614E+03  0.52831788691E+03  0.80780386116E+02 0.  0.
      -24    2    3    3    0    0  0.20426510894E+02 -0.49085295294E+03  0.13229230178E+03  0.51486820241E+03  0.78956627230E+02 0.  0.
      -13    1    4    4    0    0 -0.28463140199E+02  0.14671862611E+03  0.85575883226E+02  0.17222002609E+03  0.00000000000E+00 0.  1.
       14    1    4    4    0    0  0.80366293049E+01  0.34413432683E+03  0.91173812912E+02  0.35609786081E+03  0.00000000000E+00 0. -1.
        3    1    5    5  501    0 -0.35938713551E+01 -0.17850698456E+03  0.10821018872E+02  0.17887077429E+03  0.00000000000E+00 0. -1.
       -4    1    5    5    0  501  0.24020382249E+02 -0.31234596838E+03  0.12147128290E+03  0.33599742811E+03  0.14200000000E+01 0.  1.
</event>
<event>
 9   1  0.7335000E-04  0.1002310E+04  0.7818608E-02  0.9306015E-01
        2   -1    0    0  501    0  0.00000000000E+00  0.00000000000E+00  0.10505778484E+04  0.10505778484E+04  0.00000000000E+00 0.  1.
       -2   -1    0    0    0  501 -0.00000000000E+00 -0.00000000000E+00 -0.23906493843E+03  0.23906493843E+03  0.00000000000E+00 0. -1.
       39    2    1    2    0    0  0.00000000000E+00  0.00000000000E+00  0.81151290994E+03  0.12896427868E+04  0.10023099893E+04 0.  0.
       24    2    3    3    0    0 -0.25018649630E+03  0.37439533111E+03  0.14575975550E+03  0.48095698010E+03  0.85490136851E+02 0.  0.
      -24    2    3    3    0    0  0.25018649630E+03 -0.37439533111E+03  0.66575315444E+03  0.80868580670E+03  0.89332661563E+02 0.  0.
      -13    1    4    4    0    0 -0.45540852401E+02  0.31586543182E+02  0.38726563890E+02  0.67612319131E+02  0.00000000000E+00 0.  1.
       14    1    4    4    0    0 -0.20464564390E+03  0.34280878793E+03  0.10703319161E+03  0.41334466097E+03  0.00000000000E+00 0. -1.
        3    1    5    5  502    0  0.67761456617E+02 -0.44081679980E+02  0.99095507083E+02  0.12788560919E+03  0.00000000000E+00 0. -1.
       -4    1    5    5    0  502  0.18242503968E+03 -0.33031365113E+03  0.56665764736E+03  0.68080019752E+03  0.14200000000E+01 0.  1.
</event>
<event>
 9   1  0.7335000E-04  0.1004961E+04  0.7818608E-02  0.9303121E-01
       21   -1    0    0  503  502  0.00000000000E+00  0.00000000000E+00  0.90729846647E+03  0.90729846647E+03  0.00000000000E+00 0. -1.
       21   -1    0    0  502  503 -0.00000000000E+00 -0.00000000000E+00 -0.27828373295E+03  0.27828373295E+03  0.00000000000E+00 0.  1.
       39    2    1    2    0    0  0.00000000000E+00  0.28421709430E-13  0.62901473352E+03  0.11855821994E+04  0.10049605050E+04 0.  0.
       24    2    3    3    0    0  0.14277065269E+03  0.21509926955E+03  0.81410124050E+03  0.85793252385E+03  0.81463063158E+02 0.  0.
      -24    2    3    3    0    0 -0.14277065269E+03 -0.21509926955E+03 -0.18508650698E+03  0.32764967557E+03  0.80287855908E+02 0.  0.
      -13    1    4    4    0    0  0.36288253063E+02  0.10694108334E+02  0.79858649085E+02  0.88366312004E+02  0.00000000000E+00 0.  1.
       14    1    4    4    0    0  0.10648239963E+03  0.20440516122E+03  0.73424259141E+03  0.76956621184E+03  0.00000000000E+00 0. -1.
        3    1    5    5  501    0 -0.75574004142E+02 -0.71598209271E+02 -0.36206108900E+02  0.11022076027E+03  0.00000000000E+00 0. -1.
       -4    1    5    5    0  501 -0.67196648549E+02 -0.14350106028E+03 -0.14888039808E+03  0.21742891530E+03  0.14200000000E+01 0.  1.
</event>
<event>
 9   1  0.7335000E-04  0.9998562E+03  0.7818608E-02  0.9308703E-01
       21   -1    0    0  503  502  0.00000000000E+00  0.00000000000E+00  0.62960374766E+03  0.62960374766E+03  0.00000000000E+00 0.  1.
       21   -1    0    0  502  503 -0.00000000000E+00 -0.00000000000E+00 -0.39696097295E+03  0.39696097295E+03  0.00000000000E+00 0. -1.
       39    2    1    2    0    0  0.00000000000E+00 -0.28421709430E-13  0.23264277471E+03  0.10265647206E+04  0.99985622216E+03 0.  0.
       24    2    3    3    0    0 -0.79841455486E+02  0.23779101060E+03 -0.32029859815E+03  0.41439227096E+03  0.78806976334E+02 0.  0.
      -24    2    3    3    0    0  0.79841455486E+02 -0.23779101060E+03  0.55294137286E+03  0.61217244966E+03  0.78049494365E+02 0.  0.
      -13    1    4    4    0    0 -0.30261149510E+02  0.21547758363E+02 -0.23947763257E+02  0.44198850948E+02  0.00000000000E+00 0.  1.
       14    1    4    4    0    0 -0.49580305976E+02  0.21624325223E+03 -0.29635083489E+03  0.37019342001E+03  0.00000000000E+00 0. -1.
        1    1    5    5  501    0  0.40676812771E+02 -0.28900709185E+02  0.94577333497E+02  0.10693327873E+03  0.00000000000E+00 0. -1.
       -2    1    5    5    0  501  0.39164642715E+02 -0.20889030141E+03  0.45836403936E+03  0.50523917093E+03  0.00000000000E+00 0.  1.
</event>
<event>
 9   1  0.7335000E-04  0.1000041E+04  0.7818608E-02  0.9308500E-01
       21   -1    0    0  503  502  0.00000000000E+00  0.00000000000E+00  0.55997937257E+03  0.55997937257E+03  0.00000000000E+00 0.  1.
       21   -1    0    0  502  503 -0.00000000000E+00 -0.00000000000E+00 -0.44648152535E+03  0.44648152535E+03  0.00000000000E+00 0. -1.
       39    2    1    2    0    0 -0.28421709430E-13  0.56843418861E-13  0.11349784722E+03  0.10064608979E+04  0.10000408880E+04 0.  0.
       24    2    3    3    0    0 -0.19430957407E+03  0.33157489920E+03 -0.25636616044E+03  0.46858847570E+03  0.78443782340E+02 0.  0.
      -24    2    3    3    0    0  0.19430957407E+03 -0.33157489920E+03  0.36986400766E+03  0.53787242222E+03  0.69348641431E+02 0.  0.
      -13    1    4    4    0    0 -0.27907838884E+01  0.26527485410E+01  0.54100988195E+01  0.66403854384E+01  0.00000000000E+00 0.  1.
       14    1    4    4    0    0 -0.19151879018E+03  0.32892215066E+03 -0.26177625926E+03  0.46194809026E+03  0.00000000000E+00 0. -1.
        1    1    5    5  501    0  0.92347882640E+02 -0.10339660436E+03  0.10665954424E+03  0.17491497248E+03  0.00000000000E+00 0. -1.
       -2    1    5    5    0  501  0.10196169143E+03 -0.22817829484E+03  0.26320446342E+03  0.36295744974E+03  0.00000000000E+00 0.  1.
</event>
<event>
 9   1  0.7335000E-04  0.1010319E+04  0.7818608E-02  0.9297299E-01
       21   -1    0    0  503  502  0.00000000000E+00  0.00000000000E+00  0.88653017535E+03  0.88653017535E+03  0.00000000000E+00 0.  1.
       21   -1    0    0  502  503 -0.00000000000E+00 -0.00000000000E+00 -0.28784819363E+03  0.28784819363E+03  0.00000000000E+00 0. -1.
       39    2    1    2    0    0  0.56843418861E-13  0.00000000000E+00  0.59868198172E+03  0.11743783690E+04  0.10103189785E+04 0.  0.
       24    2    3    3    0    0 -0.38216203042E+03  0.31266986679E+03  0.21686669055E+03  0.54521722309E+03  0.80127372278E+02 0.  0.
      -24    2    3    3    0    0  0.38216203042E+03 -0.31266986679E+03  0.38181529117E+03  0.62916114589E+03  0.79060532719E+02 0.  0.
      -13    1    4    4    0    0 -0.14023303916E+03  0.84945048081E+02  0.10476448971E+03  0.19456763547E+03  0.00000000000E+00 0.  1.
       14    1    4    4    0    0 -0.24192899126E+03  0.22772481871E+03  0.11210220084E+03  0.35064958763E+03  0.00000000000E+00 0. -1.
        3    1    5    5  501    0  0.31039540115E+01 -0.16809785063E+02  0.38003636110E+01  0.17511315426E+02  0.00000000000E+00 0. -1.
       -4    1    5    5    0  501  0.37905807641E+03 -0.29586008173E+03  0.37801492756E+03  0.61164983047E+03  0.14200000000E+01 0.  1.
</event>
<event>
 9   1  0.7335000E-04  0.9941819E+03  0.7818608E-02  0.9314949E-01
       21   -1    0    0  503  502  0.00000000000E+00  0.00000000000E+00  0.13422543186E+03  0.13422543186E+03  0.00000000000E+00 0. -1.
       21   -1    0    0  502  503 -0.00000000000E+00 -0.00000000000E+00 -0.18409284235E+04  0.18409284235E+04  0.00000000000E+00 0.  1.
       39    2    1    2    0    0 -0.56843418861E-13  0.00000000000E+00 -0.17067029916E+04  0.19751538554E+04  0.99418190021E+03 0.  0.
       24    2    3    3    0    0 -0.17496791631E+03 -0.25095680127E+03 -0.89703857350E+02  0.32756123764E+03  0.75209670551E+02 0.  0.
      -24    2    3    3    0    0  0.17496791631E+03  0.25095680127E+03 -0.16169991343E+04  0.16475926177E+04  0.79259988967E+02 0.  0.
      -13    1    4    4    0    0 -0.72265187902E+02 -0.57586631918E+02 -0.49914351086E+02  0.10502342597E+03  0.00000000000E+00 0.  1.
       14    1    4    4    0    0 -0.10270272840E+03 -0.19337016935E+03 -0.39789506264E+02  0.22253781167E+03  0.00000000000E+00 0. -1.
        3    1    5    5  501    0  0.11645038256E+03  0.10661635989E+03 -0.71283475981E+03  0.73011035782E+03  0.00000000000E+00 0. -1.
       -4    1    5    5    0  501  0.58517533742E+02  0.14434044138E+03 -0.90416437447E+03  0.91748225990E+03  0.14200000000E+01 0.  1.
</event>
<event>
 9   1  0.7335000E-04  0.9961465E+03  0.7818608E-02  0.9312781E-01
       21   -1    0    0  503  502  0.00000000000E+00  0.00000000000E+00  0.24744765377E+03  0.24744765377E+03  0.00000000000E+00 0. -1.
       21   -1    0    0  502  503 -0.00000000000E+00 -0.00000000000E+00 -0.10025432180E+04  0.10025432180E+04  0.00000000000E+00 0.  1.
       39    2    1    2    0    0 -0.56843418861E-13 -0.28421709430E-13 -0.75509556420E+03  0.12499908717E+04  0.99614650947E+03 0.  0.
       24    2    3    3    0    0 -0.43589459854E+03 -0.20093081300E+03 -0.24407232725E+03  0.54436911976E+03  0.79932127230E+02 0.  0.
      -24    2    3    3    0    0  0.43589459854E+03  0.20093081300E+03 -0.51102323694E+03  0.70562175197E+03  0.79874999300E+02 0.  0.
      -13    1    4    4    0    0 -0.18448871495E+03 -0.51837151010E+02 -0.12475111960E+03  0.22866136099E+03  0.00000000000E+00 0.  1.
       14    1    4    4    0    0 -0.25140588359E+03 -0.14909366199E+03 -0.11932120766E+03  0.31570775877E+03  0.00000000000E+00 0. -1.
        1    1    5    5  501    0 -0.10598921587E+01  0.45081541036E+01 -0.16339766086E+02  0.16983367762E+02  0.00000000000E+00 0. -1.
       -2    1    5    5    0  501  0.43695449070E+03  0.19642265889E+03 -0.49468347086E+03  0.68863838421E+03  0.00000000000E+00 0.  1.
</event>
<event>
 9   1  0.7335000E-04  0.1012585E+04  0.7818608E-02  0.9294849E-01
       21   -1    0    0  503  502  0.00000000000E+00  0.00000000000E+00  0.12333165517E+04  0.12333165517E+04  0.00000000000E+00 0.  1.
       21   -1    0    0  502  503 -0.00000000000E+00 -0.00000000000E+00 -0.20783953741E+03  0.20783953741E+03  0.00000000000E+00 0. -1.
       39    2    1    2    0    0 -0.28421709430E-13  0.00000000000E+00  0.10254770143E+04  0.14411560891E+04  0.10125846959E+04 0.  0.
       24    2    3    3    0    0  0.13873583493E+03  0.27839059694E+03  0.10692707706E+04  0.11167693710E+04  0.84171793784E+02 0.  0.
      -24    2    3    3    0    0 -0.13873583493E+03 -0.27839059694E+03 -0.43793756307E+02  0.32438671808E+03  0.80993168930E+02 0.  0.
      -13    1    4    4    0    0  0.85042110617E+02  0.23592604898E+03  0.89692542383E+03  0.93132619263E+03  0.00000000000E+00 0.  1.
       14    1    4    4    0    0  0.53693724316E+02  0.42464547958E+02  0.17234534674E+03  0.18544317838E+03  0.00000000000E+00 0. -1.
        1    1    5    5  501    0 -0.14108045857E+03 -0.26828487483E+03 -0.56127008027E+02  0.30827051576E+03  0.00000000000E+00 0. -1.
       -2    1    5    5    0  501  0.23446236336E+01 -0.10105722108E+02  0.12333251720E+02  0.16116202322E+02  0.00000000000E+00 0.  1.
</event>
<event>
 9   1  0.7335000E-04  0.1001992E+04  0.7818608E-02  0.9306363E-01
       21   -1    0    0  503  502  0.00000000000E+00  0.00000000000E+00  0.17250863294E+03  0.17250863294E+03  0.00000000000E+00 0. -1.
       21   -1    0    0  502  503 -0.00000000000E+00 -0.00000000000E+00 -0.14549818445E+04  0.14549818445E+04  0.00000000000E+00 0.  1.
       39    2    1    2    0    0  0.00000000000E+00  0.00000000000E+00 -0.12824732115E+04  0.16274904774E+04  0.10019918741E+04 0.  0.
       24    2    3    3    0    0 -0.29364579917E+03 -0.18005374242E+03 -0.12161245219E+04  0.12667652220E+04  0.84190672204E+02 0.  0.
      -24    2    3    3    0    0  0.29364579917E+03  0.18005374242E+03 -0.66348689631E+02  0.36072525545E+03  0.84103244729E+02 0.  0.
      -13    1    4    4    0    0 -0.10386653553E+03 -0.10922606448E+03 -0.57308721575E+03  0.59257703905E+03  0.00000000000E+00 0.  1.
       14    1    4    4    0    0 -0.18977926364E+03 -0.70827677947E+02 -0.64303730614E+03  0.67418818290E+03  0.00000000000E+00 0. -1.
        1    1    5    5  501    0  0.26868219251E+03  0.16337646553E+03 -0.84541380996E+02  0.32562130637E+03  0.00000000000E+00 0. -1.
       -2    1    5    5    0  501  0.24963606661E+02  0.16677276891E+02  0.18192691365E+02  0.35103949082E+02  0.00000000000E+00 0.  1.
</event>
<event>
 9   1  0.7335000E-04  0.9987873E+03  0.7818608E-02  0.9309876E-01
       21   -1    0    0  503  502  0.00000000000E+00  0.00000000000E+00  0.46810732683E+03  0.46810732683E+03  0.00000000000E+00 0.  1.
       21   -1    0    0  502  503 -0.00000000000E+00 -0.00000000000E+00 -0.53277103771E+03  0.53277103771E+03  0.00000000000E+00 0. -1.
       39    2    1    2    0    0  0.00000000000E+00  0.00000000000E+00 -0.64663710887E+02  0.10008783645E+04  0.99878731725E+03 0.  0.
       24    2    3    3    0    0 -0.96267047995E+01 -0.45011995418E+03  0.16927000608E+03  0.48722115288E+03  0.77662540874E+02 0.  0.
      -24    2    3    3    0    0  0.96267047995E+01  0.45011995418E+03 -0.23393371697E+03  0.51365721166E+03  0.80113048599E+02 0.  0.
      -13    1    4    4    0    0  0.18402492547E+02 -0.38782761423E+03  0.15017061471E+03  0.41629331440E+03  0.00000000000E+00 0.  1.
       14    1    4    4    0    0 -0.28029197346E+02 -0.62292339952E+02  0.19099391376E+02  0.70927838480E+02  0.00000000000E+00 0. -1.
        3    1    5    5  501    0  0.11724597180E+02  0.45295213667E+03 -0.22981421774E+03  0.50805283088E+03  0.00000000000E+00 0. -1.
       -4    1    5    5    0  501 -0.20978923804E+01 -0.28321824819E+01 -0.41194992253E+01  0.56043807791E+01  0.14200000000E+01 0.  1.
</event>
<event>
 9   1  0.7335000E-04  0.1004046E+04  0.7818608E-02  0.9304118E-01
       21   -1    0    0  503  502  0.00000000000E+00  0.00000000000E+00  0.85950470258E+03  0.85950470258E+03  0.00000000000E+00 0. -1.
       21   -1    0    0  502  503 -0.00000000000E+00 -0.00000000000E+00 -0.29322359997E+03  0.29322359997E+03  0.00000000000E+00 0.  1.
       39    2    1    2    0    0  0.00000000000E+00  0.14210854715E-13  0.56628110261E+03  0.11527283025E+04  0.10040459413E+04 0.  0.
       24    2    3    3    0    0  0.26054304987E+03 -0.12684413660E+03 -0.17848149233E+03  0.34966617012E+03  0.80241333480E+02 0.  0.
      -24    2    3    3    0    0 -0.26054304987E+03  0.12684413660E+03  0.74476259494E+03  0.80306213243E+03  0.79153963197E+02 0.  0.
      -13    1    4    4    0    0  0.62824990590E+02  0.26207602953E+01 -0.52119670377E+02  0.81671952759E+02  0.00000000000E+00 0.  1.
       14    1    4    4    0    0  0.19771805928E+03 -0.12946489689E+03 -0.12636182195E+03  0.26799421736E+03  0.00000000000E+00 0. -1.
        3    1    5    5  501    0 -0.26516340189E+03  0.11784115581E+03  0.71835942831E+03  0.77475056370E+03  0.00000000000E+00 0. -1.
       -4    1    5    5    0  501  0.46203520220E+01  0.90029807851E+01  0.26403166627E+02  0.28311568726E+02  0.14200000000E+01 0. -1.
</event>
<event>
 9   1  0.7335000E-04  0.1000187E+04  0.7818608E-02  0.9308339E-01
       21   -1    0    0  503  502  0.00000000000E+00  0.00000000000E+00  0.16019735723E+03  0.16019735723E+03  0.00000000000E+00 0. -1.
       21   -1    0    0  502  503 -0.00000000000E+00 -0.00000000000E+00 -0.15611602741E+04  0.15611602741E+04  0.00000000000E+00 0.  1.
       39    2    1    2    0    0  0.00000000000E+00  0.00000000000E+00 -0.14009629168E+04  0.17213576313E+04  0.10001874826E+04 0.  0.
       24    2    3    3    0    0 -0.24261059433E+03 -0.26143825280E+03 -0.11324031326E+03  0.38232627107E+03  0.78359099643E+02 0.  0.
      -24    2    3    3    0    0  0.24261059433E+03  0.26143825280E+03 -0.12877226036E+04  0.13390313602E+04  0.86980568874E+02 0.  0.
      -13    1    4    4    0    0 -0.21046012862E+03 -0.20668042321E+03 -0.12003954997E+03  0.31846468663E+03  0.00000000000E+00 0.  1.
       14    1    4    4    0    0 -0.32150465706E+02 -0.54757829595E+02  0.67992367104E+01  0.63861584438E+02  0.00000000000E+00 0. -1.
        1    1    5    5  501    0 -0.35151690885E+01  0.23208018118E+02 -0.11167826947E+03  0.11411837885E+03  0.00000000000E+00 0. -1.
       -2    1    5    5    0  501  0.24612576341E+03  0.23823023469E+03 -0.11760443341E+04  0.12249129814E+04  0.00000000000E+00 0.  1.
</event>
<event>
 9   1  0.7335000E-04  0.1006882E+04  0.7818608E-02  0.9301029E-01
       21   -1    0    0  503  502  0.00000000000E+00  0.00000000000E+00  0.53224463791E+03  0.53224463791E+03  0.00000000000E+00 0.  1.
       21   -1    0    0  502  503 -0.00000000000E+00 -0.00000000000E+00 -0.47619636532E+03  0.47619636532E+03  0.00000000000E+00 0. -1.
       39    2    1    2    0    0  0.28421709430E-13  0.00000000000E+00  0.56048272589E+02  0.10084410032E+04  0.10068822414E+04 0.  0.
       24    2    3    3    0    0  0.16699811315E+03 -0.23843832650E+03 -0.37541334951E+03  0.48164725648E+03  0.79420975484E+02 0.  0.
      -24    2    3    3    0    0 -0.16699811315E+03  0.23843832650E+03  0.43146162210E+03  0.52679374675E+03  0.81309992820E+02 0.  0.
      -13    1    4    4    0    0  0.14339602023E+03 -0.14079510495E+03 -0.23961002941E+03  0.31272775123E+03  0.00000000000E+00 0.  1.
       14    1    4    4    0    0  0.23602092926E+02 -0.97643221550E+02 -0.13580332010E+03  0.16891950526E+03  0.00000000000E+00 0. -1.
        3    1    5    5  501    0 -0.42424337413E+02  0.67058473179E+02  0.61254370962E+02  0.10024350948E+03  0.00000000000E+00 0. -1.
       -4    1    5    5    0  501 -0.12457377574E+03  0.17137985332E+03  0.37020725114E+03  0.42655023728E+03  0.14200000000E+01 0.  1.
</event>
<event>
 9   1  0.7335000E-04  0.9126979E+03  0.7818608E-02  0.9409846E-01
       21   -1    0    0  503  502  0.00000000000E+00  0.00000000000E+00  0.22956457942E+04  0.22956457942E+04  0.00000000000E+00 0.  1.
       21   -1    0    0  502  503 -0.00000000000E+00 -0.00000000000E+00 -0.90717113402E+02  0.90717113402E+02  0.00000000000E+00 0. -1.
       39    2    1    2    0    0 -0.17763568394E-14  0.00000000000E+00  0.22049286808E+04  0.23863629076E+04  0.91269789052E+03 0.  0.
       24    2    3    3    0    0 -0.10424106875E+02 -0.78772723752E+02 -0.52686530162E+02  0.12579134707E+03  0.82059664431E+02 0.  0.
      -24    2    3    3    0    0  0.10424106875E+02  0.78772723752E+02  0.22576152109E+04  0.22605715605E+04  0.83925773805E+02 0.  0.
      -13    1    4    4    0    0 -0.20173013309E+02  0.85946902385E+01  0.23838931709E+01  0.22056792897E+02  0.00000000000E+00 0.  1.
       14    1    4    4    0    0  0.97489064345E+01 -0.87367413990E+02 -0.55070423332E+02  0.10373455418E+03  0.00000000000E+00 0. -1.
        1    1    5    5  501    0 -0.12330077867E+02 -0.12788707696E+02  0.19757645438E+03  0.19837347905E+03  0.00000000000E+00 0. -1.
       -2    1    5    5    0  501  0.22754184741E+02  0.91561431448E+02  0.20600387566E+04  0.20621980815E+04  0.00000000000E+00 0.  1.
</event>
<event>
 9   1  0.7335000E-04  0.1000110E+04  0.7818608E-02  0.9308425E-01
       -1   -1    0    0    0  501 -0.00000000000E+00  0.00000000000E+00  0.30638970317E+03  0.30638970317E+03  0.00000000000E+00 0. -1.
        1   -1    0    0  501    0  0.00000000000E+00 -0.00000000000E+00 -0.81613309910E+03  0.81613309910E+03  0.00000000000E+00 0.  1.
       39    2    1    2    0    0  0.00000000000E+00  0.00000000000E+00 -0.50974339593E+03  0.11225228023E+04  0.10001095500E+04 0.  0.
       24    2    3    3    0    0  0.32868943668E+03 -0.31496688142E+03 -0.47039368020E+03  0.65950091884E+03  0.80189559111E+02 0.  0.
      -24    2    3    3    0    0 -0.32868943668E+03  0.31496688142E+03 -0.39349715727E+02  0.46302188343E+03  0.74833028947E+02 0.  0.
      -13    1    4    4    0    0  0.25592716715E+03 -0.23749929012E+03 -0.40495533575E+03  0.53469005194E+03  0.00000000000E+00 0.  1.
       14    1    4    4    0    0  0.72762269536E+02 -0.77467591304E+02 -0.65438344449E+02  0.12481086689E+03  0.00000000000E+00 0. -1.
        1    1    5    5  502    0 -0.30446606769E+03  0.27203188277E+03 -0.16334032766E+02  0.40861685262E+03  0.00000000000E+00 0. -1.
       -2    1    5    5    0  502 -0.24223368994E+02  0.42934998653E+02 -0.23015682961E+02  0.54405030805E+02  0.00000000000E+00 0.  1.
</event>
<event>
 8   1  0.7335000E-04  0.1171898E+04  0.7818608E-02  0.9137816E-01
       21   -1    0    0  503  502  0.00000000000E+00  0.00000000000E+00  0.64406487472E+03  0.64406487472E+03  0.00000000000E+00 0. -1.
       21   -1    0    0  502  503 -0.00000000000E+00 -0.00000000000E+00 -0.53307747001E+03  0.53307747001E+03  0.00000000000E+00 0.  1.
       24    2    1    2    0    0 -0.17495029318E+03  0.17613198103E+03 -0.47168628909E+03  0.53872722616E+03  0.78160022223E+02 0.  0.
      -24    2    1    2    0    0  0.17495029318E+03 -0.17613198103E+03  0.58267369380E+03  0.63841511856E+03  0.80219388755E+02 0.  0.
      -13    1    3    3    0    0 -0.16592572695E+03  0.18078540598E+03 -0.46699847295E+03  0.52754363195E+03  0.00000000000E+00 0.  1.
       14    1    3    3    0    0 -0.90245662301E+01 -0.46534249460E+01 -0.46878161394E+01  0.11183594213E+02  0.00000000000E+00 0. -1.
        3    1    4    4  501    0  0.12825133772E+03 -0.91183202602E+02  0.42641103521E+03  0.45452079492E+03  0.00000000000E+00 0. -1.
       -4    1    4    4    0  501  0.46698955465E+02 -0.84948778429E+02  0.15626265858E+03  0.18389432363E+03  0.14200000000E+01 0.  1.
</event>
<event>
 9   1  0.7335000E-04  0.1001869E+04  0.7818608E-02  0.9306497E-01
       21   -1    0    0  503  502  0.00000000000E+00  0.00000000000E+00  0.20757357944E+03  0.20757357944E+03  0.00000000000E+00 0. -1.
       21   -1    0    0  502  503 -0.00000000000E+00 -0.00000000000E+00 -0.12088983239E+04  0.12088983239E+04  0.00000000000E+00 0.  1.
       39    2    1    2    0    0  0.00000000000E+00  0.00000000000E+00 -0.10013247445E+04  0.14164719034E+04  0.10018689580E+04 0.  0.
       24    2    3    3    0    0  0.18394988737E+03  0.13559450462E+03 -0.11208938493E+04  0.11466969907E+04  0.79293986088E+02 0.  0.
      -24    2    3    3    0    0 -0.18394988737E+03 -0.13559450462E+03  0.11956910485E+03  0.26977491267E+03  0.79109430079E+02 0.  0.
      -13    1    4    4    0    0  0.92866018714E+02  0.54624428857E+02 -0.70942014708E+03  0.71755478588E+03  0.00000000000E+00 0.  1.
       14    1    4    4    0    0  0.91083868652E+02  0.80970075762E+02 -0.41147370226E+03  0.42914220481E+03  0.00000000000E+00 0. -1.
        3    1    5    5  501    0 -0.18262783226E+03 -0.11422366454E+03  0.12298975387E+03  0.24804525840E+03  0.00000000000E+00 0. -1.
       -4    1    5    5    0  501 -0.13220551081E+01 -0.21370840078E+02 -0.34206490133E+01  0.21729654277E+02  0.14200000000E+01 0.  1.
</event>
<event>
 9   1  0.7335000E-04  0.1008648E+04  0.7818608E-02  0.9299111E-01
       21   -1    0    0  503  502  0.00000000000E+00  0.00000000000E+00  0.38206957037E+03  0.38206957037E+03  0.00000000000E+00 0. -1.
       21   -1    0    0  502  503 -0.00000000000E+00 -0.00000000000E+00 -0.66569706181E+03  0.66569706181E+03  0.00000000000E+00 0.  1.
       39    2    1    2    0    0 -0.56843418861E-13  0.00000000000E+00 -0.28362749144E+03  0.10477666322E+04  0.10086477887E+04 0.  0.
       24    2    3    3    0    0  0.22793554333E+03 -0.56838827041E+02  0.31428008309E+03  0.40054911810E+03  0.80513112068E+02 0.  0.
      -24    2    3    3    0    0 -0.22793554333E+03  0.56838827041E+02 -0.59790757453E+03  0.64721751408E+03  0.78814837968E+02 0.  0.
      -13    1    4    4    0    0  0.14814761510E+03 -0.38966366111E+02  0.13779219580E+03  0.20604073085E+03  0.00000000000E+00 0.  1.
       14    1    4    4    0    0  0.79787928234E+02 -0.17872460930E+02  0.17648788729E+03  0.19450838725E+03  0.00000000000E+00 0. -1.
        3    1    5    5  501    0 -0.40341552420E+02 -0.48822068054E+01 -0.47826777890E+02  0.62758883660E+02  0.00000000000E+00 0. -1.
       -4    1    5    5    0  501 -0.18759399091E+03  0.61721033847E+02 -0.55008079664E+03  0.58445863042E+03  0.14200000000E+01 0.  1.
</event>
<event>
 9   1  0.7335000E-04  0.9664771E+03  0.7818608E-02  0.9346096E-01
       21   -1    0    0  503  502  0.00000000000E+00  0.00000000000E+00  0.10477259284E+04  0.10477259284E+04  0.00000000000E+00 0.  1.
       21   -1    0    0  502  503 -0.00000000000E+00 -0.00000000000E+00 -0.22288223369E+03  0.22288223369E+03  0.00000000000E+00 0. -1.
       39    2    1    2    0    0  0.28421709430E-13  0.00000000000E+00  0.82484369475E+03  0.12706081621E+04  0.96647709797E+03 0.  0.
       24    2    3    3    0    0 -0.19327292773E+03 -0.32946255467E+03  0.78760595282E+03  0.87874720560E+03  0.77288517378E+02 0.  0.
      -24    2    3    3    0    0  0.19327292773E+03  0.32946255467E+03  0.37237741936E+02  0.39186095653E+03  0.79172977096E+02 0.  0.
      -13    1    4    4    0    0 -0.13819835532E+03 -0.29013529181E+03  0.66922999196E+03  0.74239211681E+03  0.00000000000E+00 0.  1.
       14    1    4    4    0    0 -0.55074572410E+02 -0.39327262866E+02  0.11837596086E+03  0.13635508879E+03  0.00000000000E+00 0. -1.
        1    1    5    5  501    0  0.20100172509E+03  0.31447852993E+03  0.35778876486E+02  0.37493808459E+03  0.00000000000E+00 0. -1.
       -2    1    5    5    0  501 -0.77287973600E+01  0.14984024748E+02  0.14588654506E+01  0.16922871940E+02  0.00000000000E+00 0.  1.
</event>
<event>
 9   1  0.7335000E-04  0.1004432E+04  0.7818608E-02  0.9303697E-01
       21   -1    0    0  503  502  0.00000000000E+00  0.00000000000E+00  0.17459486927E+03  0.17459486927E+03  0.00000000000E+00 0. -1.
       21   -1    0    0  502  503 -0.00000000000E+00 -0.00000000000E+00 -0.14446063096E+04  0.14446063096E+04  0.00000000000E+00 0.  1.
       39    2    1    2    0    0  0.28421709430E-13  0.28421709430E-13 -0.12700114403E+04  0.16192011788E+04  0.10044318788E+04 0.  0.
       24    2    3    3    0    0 -0.20155597394E+03 -0.15185820016E+03 -0.13231313621E+04  0.13491471739E+04  0.76392224451E+02 0.  0.
      -24    2    3    3    0    0  0.20155597394E+03  0.15185820016E+03  0.53119921795E+02  0.27005400492E+03  0.80135609402E+02 0.  0.
      -13    1    4    4    0    0 -0.14316929258E+03 -0.14664409273E+03 -0.10126076351E+04  0.10331389833E+04  0.00000000000E+00 0.  1.
       14    1    4    4    0    0 -0.58386681367E+02 -0.52141074244E+01 -0.31052372703E+03  0.31600819060E+03  0.00000000000E+00 0. -1.
        3    1    5    5  501    0  0.15756901687E+03  0.15282924088E+03  0.53882728764E+02  0.22602681347E+03  0.00000000000E+00 0. -1.
       -4    1    5    5    0  501  0.43986957072E+02 -0.97104072942E+00 -0.76280696930E+00  0.44027191451E+02  0.14200000000E+01 0.  1.
</event>
<event>
 9   1  0.7335000E-04  0.1004081E+04  0.7818608E-02  0.9304080E-01
       21   -1    0    0  503  502  0.00000000000E+00  0.00000000000E+00  0.86549625567E+03  0.86549625567E+03  0.00000000000E+00 0. -1.
       21   -1    0    0  502  503 -0.00000000000E+00 -0.00000000000E+00 -0.29121386983E+03  0.29121386983E+03  0.00000000000E+00 0.  1.
       39    2    1    2    0    0  0.00000000000E+00  0.00000000000E+00  0.57428238584E+03  0.11567101255E+04  0.10040807018E+04 0.  0.
       24    2    3    3    0    0 -0.18865735455E+02  0.85493522967E+02  0.84918801665E+03  0.85752944519E+03  0.81064192462E+02 0.  0.
      -24    2    3    3    0    0  0.18865735455E+02 -0.85493522967E+02 -0.27490563081E+03  0.29918068032E+03  0.79189110239E+02 0.  0.
      -13    1    4    4    0    0  0.45789089383E+01  0.58277343637E+02  0.23041840556E+03  0.23771801953E+03  0.00000000000E+00 0.  1.
       14    1    4    4    0    0 -0.23444644394E+02  0.27216179330E+02  0.61876961109E+03  0.61981142566E+03  0.00000000000E+00 0. -1.
        1    1    5    5  501    0  0.21287921772E+02 -0.81647535233E+02 -0.13498883153E+03  0.15919007589E+03  0.00000000000E+00 0. -1.
       -2    1    5    5    0  501 -0.24221863165E+01 -0.38459877338E+01 -0.13991679928E+03  0.13999060443E+03  0.00000000000E+00 0.  1.
</event>
<event>
 9   1  0.7335000E-04  0.1001907E+04  0.7818608E-02  0.9306455E-01
        1   -1    0    0  501    0  0.00000000000E+00  0.00000000000E+00  0.27467740495E+03  0.27467740495E+03  0.00000000000E+00 0. -1.
       -1   -1    0    0    0  501 -0.00000000000E+00 -0.00000000000E+00 -0.91363403412E+03  0.91363403412E+03  0.00000000000E+00 0.  1.
       39    2    1    2    0    0  0.00000000000E+00  0.00000000000E+00 -0.63895662917E+03  0.11883114391E+04  0.10019074320E+04 0.  0.
       24    2    3    3    0    0  0.20092435090E+02  0.48172304105E+03 -0.18921204380E+03  0.52419944380E+03  0.80765494728E+02 0.  0.
      -24    2    3    3    0    0 -0.20092435090E+02 -0.48172304105E+03 -0.44974458537E+03  0.66411199527E+03  0.79459146487E+02 0.  0.
      -13    1    4    4    0    0  0.97202453168E+01  0.13961090281E+02 -0.20948352045E+02  0.26985712224E+02  0.00000000000E+00 0.  1.
       14    1    4    4    0    0  0.10372189773E+02  0.46776195077E+03 -0.16826369176E+03  0.49721373158E+03  0.00000000000E+00 0. -1.
        3    1    5    5  502    0 -0.33958425498E+02 -0.97801567434E+02 -0.79100218540E+02  0.13028877860E+03  0.00000000000E+00 0. -1.
       -4    1    5    5    0  502  0.13865990409E+02 -0.38392147361E+03 -0.37064436683E+03  0.53382321667E+03  0.14200000000E+01 0.  1.
</event>
<event>
 8   1  0.7335000E-04  0.1279218E+04  0.7818608E-02  0.9046210E-01
       21   -1    0    0  503  502  0.00000000000E+00  0.00000000000E+00  0.18871983746E+03  0.18871983746E+03  0.00000000000E+00 0. -1.
       21   -1    0    0  502  503 -0.00000000000E+00 -0.00000000000E+00 -0.21677626380E+04  0.21677626380E+04  0.00000000000E+00 0.  1.
       24    2    1    2    0    0 -0.31064427551E+03 -0.33383280521E+03 -0.17594269996E+03  0.49500905524E+03  0.78319367722E+02 0.  0.
      -24    2    1    2    0    0  0.31064427551E+03  0.33383280521E+03 -0.18031001006E+04  0.18614734203E+04  0.77260040012E+02 0.  0.
      -13    1    3    3    0    0 -0.11366580415E+03 -0.77336515109E+02 -0.72732579957E+02  0.15553417563E+03  0.00000000000E+00 0.  1.
       14    1    3    3    0    0 -0.19697847136E+03 -0.25649629010E+03 -0.10321012000E+03  0.33947487961E+03  0.00000000000E+00 0. -1.
        3    1    4    4  501    0  0.73765497731E+02  0.76624027260E+02 -0.30192153723E+03  0.32010811432E+03  0.00000000000E+00 0. -1.
       -4    1    4    4    0  501  0.23687877777E+03  0.25720877795E+03 -0.15011785634E+04  0.15413653060E+04  0.14200000000E+01 0.  1.
</event>
<event>
 9   1  0.7335000E-04  0.1001471E+04  0.7818608E-02  0.9306933E-01
       21   -1    0    0  503  502  0.00000000000E+00  0.00000000000E+00  0.23243527509E+03  0.23243527509E+03  0.00000000000E+00 0. -1.
       21   -1    0    0  502  503 -0.00000000000E+00 -0.00000000000E+00 -0.10787346850E+04  0.10787346850E+04  0.00000000000E+00 0.  1.
       39    2    1    2    0    0  0.00000000000E+00 -0.56843418861E-13 -0.84629940991E+03  0.13111699601E+04  0.10014709047E+04 0.  0.
       24    2    3    3    0    0  0.37997340676E+03 -0.15822952194E+03 -0.78215460278E+03  0.88715129015E+03  0.76519392991E+02 0.  0.
      -24    2    3    3    0    0 -0.37997340676E+03  0.15822952194E+03 -0.64144807130E+02  0.42401866993E+03  0.79125878895E+02 0.  0.
      -13    1    4    4    0    0  0.25112329330E+03 -0.82548287265E+02 -0.56209988798E+03  0.62115490196E+03  0.00000000000E+00 0.  1.
       14    1    4    4    0    0  0.12885011346E+03 -0.75681234678E+02 -0.22005471480E+03  0.26599638818E+03  0.00000000000E+00 0. -1.
        1    1    5    5  501    0 -0.32586296281E+03  0.14788595880E+03 -0.80017331655E+02  0.36668747007E+03  0.00000000000E+00 0. -1.
       -2    1    5    5    0  501 -0.54110443954E+02  0.10343563147E+02  0.15872524525E+02  0.57331199867E+02  0.00000000000E+00 0.  1.
</event>
<event>
 9   1  0.7335000E-04  0.1006337E+04  0.7818608E-02  0.9301622E-01
       21   -1    0    0  503  502  0.00000000000E+00  0.00000000000E+00  0.37540365137E+03  0.37540365137E+03  0.00000000000E+00 0.  1.
       21   -1    0    0  502  503 -0.00000000000E+00 -0.00000000000E+00 -0.67441674821E+03  0.67441674821E+03  0.00000000000E+00 0. -1.
       39    2    1    2    0    0  0.00000000000E+00  0.00000000000E+00 -0.29901309684E+03  0.10498203996E+04  0.10063369412E+04 0.  0.
       24    2    3    3    0    0 -0.33480249432E+02 -0.32191658940E+02  0.36637019093E+03  0.37817183144E+03  0.81422277581E+02 0.  0.
      -24    2    3    3    0    0  0.33480249432E+02  0.32191658940E+02 -0.66538328777E+03  0.67164856814E+03  0.78864754057E+02 0.  0.
      -13    1    4    4    0    0  0.18686047603E+02 -0.36647869590E+02  0.17487972293E+03  0.17965286586E+03  0.00000000000E+00 0.  1.
       14    1    4    4    0    0 -0.52166297036E+02  0.44562106496E+01  0.19149046800E+03  0.19851896558E+03  0.00000000000E+00 0. -1.
        1    1    5    5  501    0  0.37645026001E+02  0.29537146619E+02 -0.66497344347E+03  0.66669278648E+03  0.00000000000E+00 0. -1.
       -2    1    5    5    0  501 -0.41647765682E+01  0.26545123208E+01 -0.40984429311E+00  0.49557816607E+01  0.00000000000E+00 0.  1.
</event>
<event>
 9   1  0.7335000E-04  0.9924900E+03  0.7818608E-02  0.9316820E-01
       21   -1    0    0  503  502  0.00000000000E+00  0.00000000000E+00  0.12857528285E+04  0.12857528285E+04  0.00000000000E+00 0.  1.
       21   -1    0    0  502  503 -0.00000000000E+00 -0.00000000000E+00 -0.19152910845E+03  0.19152910845E+03  0.00000000000E+00 0. -1.
       39    2    1    2    0    0 -0.71054273576E-14  0.00000000000E+00  0.10942237200E+04  0.14772819369E+04  0.99248998570E+03 0.  0.
       24    2    3    3    0    0 -0.41221226102E+02  0.37508874300E+03  0.81853092646E+02  0.39393123139E+03  0.78045702562E+02 0.  0.
      -24    2    3    3    0    0  0.41221226102E+02 -0.37508874300E+03  0.10123706274E+04  0.10833507055E+04  0.79772861313E+02 0.  0.
      -13    1    4    4    0    0  0.71926756387E+01  0.42397144710E+02  0.32997596683E+02  0.54204186640E+02  0.00000000000E+00 0.  1.
       14    1    4    4    0    0 -0.48413901740E+02  0.33269159829E+03  0.48855495963E+02  0.33972704476E+03  0.00000000000E+00 0. -1.
        1    1    5    5  501    0  0.63229502475E+01 -0.21031766334E+03  0.45929369810E+03  0.50519718954E+03  0.00000000000E+00 0. -1.
       -2    1    5    5    0  501  0.34898275854E+02 -0.16477107966E+03  0.55307692929E+03  0.57815351600E+03  0.00000000000E+00 0.  1.
</event>
<event>
 9   1  0.7335000E-04  0.1006455E+04  0.7818608E-02  0.9301493E-01
       21   -1    0    0  503  502  0.00000000000E+00  0.00000000000E+00  0.85694590004E+03  0.85694590004E+03  0.00000000000E+00 0. -1.
       21   -1    0    0  502  503 -0.00000000000E+00 -0.00000000000E+00 -0.29551215397E+03  0.29551215397E+03  0.00000000000E+00 0.  1.
       39    2    1    2    0    0  0.00000000000E+00  0.00000000000E+00  0.56143374607E+03  0.11524580540E+04  0.10064550238E+04 0.  0.
       24    2    3    3    0    0  0.13522045229E+03  0.54385680961E+02 -0.26308911171E+03  0.31110915243E+03  0.79565388288E+02 0.  0.
      -24    2    3    3    0    0 -0.13522045229E+03 -0.54385680961E+02  0.82452285778E+03  0.84134890157E+03  0.82387245113E+02 0.  0.
      -13    1    4    4    0    0  0.15938848088E+02  0.40460614244E+02 -0.95491379544E+02  0.10492717356E+03  0.00000000000E+00 0.  1.
       14    1    4    4    0    0  0.11928160421E+03  0.13925066717E+02 -0.16759773217E+03  0.20618197888E+03  0.00000000000E+00 0. -1.
        3    1    5    5  501    0 -0.94808042881E+02 -0.43260989185E+02  0.73660322078E+03  0.74393842692E+03  0.00000000000E+00 0. -1.
       -4    1    5    5    0  501 -0.40412409413E+02 -0.11124691777E+02  0.87919637000E+02  0.97410474652E+02  0.14200000000E+01 0.  1.
</event>
<event>
 9   1  0.7335000E-04  0.1000546E+04  0.7818608E-02  0.9307946E-01
       21   -1    0    0  503  502  0.00000000000E+00  0.00000000000E+00  0.28313015188E+03  0.28313015188E+03  0.00000000000E+00 0.  1.
       21   -1    0    0  502  503 -0.00000000000E+00 -0.00000000000E+00 -0.88395008765E+03  0.88395008765E+03  0.00000000000E+00 0. -1.
       39    2    1    2    0    0  0.56843418861E-13 -0.71054273576E-14 -0.60081993577E+03  0.11670802395E+04  0.10005456963E+04 0.  0.
       24    2    3    3    0    0 -0.41965795168E+03  0.41579638582E+02 -0.60495933543E+00  0.42912132311E+03  0.79391946804E+02 0.  0.
      -24    2    3    3    0    0  0.41965795168E+03 -0.41579638582E+02 -0.60021497644E+03  0.73795891643E+03  0.80521311744E+02 0.  0.
      -13    1    4    4    0    0 -0.40442504822E+03  0.28456010982E+02 -0.12761158988E+02  0.40562570353E+03  0.00000000000E+00 0.  1.
       14    1    4    4    0    0 -0.15232903463E+02  0.13123627601E+02  0.12156199653E+02  0.23495619577E+02  0.00000000000E+00 0. -1.
        3    1    5    5  501    0  0.37379174754E+03 -0.11877818430E+02 -0.50898933891E+03  0.63161024392E+03  0.00000000000E+00 0. -1.
       -4    1    5    5    0  501  0.45866204145E+02 -0.29701820152E+02 -0.91225637526E+02  0.10634867251E+03  0.14200000000E+01 0.  1.
</event>
<event>
 9   1  0.7335000E-04  0.9980679E+03  0.7818608E-02  0.9310666E-01
        2   -1    0    0  501    0  0.00000000000E+00  0.00000000000E+00  0.10582613167E+04  0.10582613167E+04  0.00000000000E+00 0. -1.
       -2   -1    0    0    0  501 -0.00000000000E+00 -0.00000000000E+00 -0.23532457039E+03  0.23532457039E+03  0.00000000000E+00 0.  1.
       39    2    1    2    0    0 -0.56843418861E-13  0.00000000000E+00  0.82293674632E+03  0.12935858871E+04  0.99806791294E+03 0.  0.
       24    2    3    3    0    0 -0.30507678532E+03  0.36739138919E+03  0.56843196606E+03  0.74662995649E+03  0.79329150406E+02 0.  0.
      -24    2    3    3    0    0  0.30507678532E+03 -0.36739138919E+03  0.25450478026E+03  0.54695593060E+03  0.79623043464E+02 0.  0.
      -13    1    4    4    0    0 -0.22504082074E+03  0.31806235262E+03  0.44490375426E+03  0.59139359289E+03  0.00000000000E+00 0.  1.
       14    1    4    4    0    0 -0.80035964582E+02  0.49329036565E+02  0.12352821180E+03  0.15523636361E+03  0.00000000000E+00 0. -1.
        1    1    5    5  502    0  0.21061194670E+03 -0.30499003810E+03  0.18701789234E+03  0.41515299287E+03  0.00000000000E+00 0. -1.
       -2    1    5    5    0  502  0.94464838619E+02 -0.62401351090E+02  0.67486887917E+02  0.13180293773E+03  0.00000000000E+00 0.  1.
</event>
<event>
 9   1  0.7335000E-04  0.1055197E+04  0.7818608E-02  0.9249995E-01
       21   -1    0    0  503  502  0.00000000000E+00  0.00000000000E+00  0.12002867746E+04  0.12002867746E+04  0.00000000000E+00 0.  1.
       21   -1    0    0  502  503 -0.00000000000E+00 -0.00000000000E+00 -0.23191128438E+03  0.23191128438E+03  0.00000000000E+00 0. -1.
       39    2    1    2    0    0  0.28421709430E-13 -0.56843418861E-13  0.96837549018E+03  0.14321980589E+04  0.10551967542E+04 0.  0.
       24    2    3    3    0    0  0.20328649399E+03 -0.36144174339E+03  0.55225086665E+02  0.42603077108E+03  0.80541139824E+02 0.  0.
      -24    2    3    3    0    0 -0.20328649399E+03  0.36144174339E+03  0.91315040351E+03  0.10061672878E+04  0.81014931955E+02 0.  0.
      -13    1    4    4    0    0  0.75056975700E+02 -0.67892312693E+02  0.14733506327E+01  0.10121801463E+03  0.00000000000E+00 0.  1.
       14    1    4    4    0    0  0.12822951830E+03 -0.29354943070E+03  0.53751736032E+02  0.32481275645E+03  0.00000000000E+00 0. -1.
        1    1    5    5  501    0 -0.12938059897E+03  0.19141046872E+03  0.58980648395E+03  0.63344218003E+03  0.00000000000E+00 0. -1.
       -2    1    5    5    0  501 -0.73905895027E+02  0.17003127467E+03  0.32334391956E+03  0.37272510782E+03  0.00000000000E+00 0.  1.
</event>
<event>
 9   1  0.7335000E-04  0.1020409E+04  0.7818608E-02  0.9286440E-01
       21   -1    0    0  503  502  0.00000000000E+00  0.00000000000E+00  0.83321250958E+03  0.83321250958E+03  0.00000000000E+00 0. -1.
       21   -1    0    0  502  503 -0.00000000000E+00 -0.00000000000E+00 -0.31241549951E+03  0.31241549951E+03  0.00000000000E+00 0.  1.
       39    2    1    2    0    0 -0.56843418861E-13  0.56843418861E-13  0.52079701006E+03  0.11456280091E+04  0.10204087463E+04 0.  0.
       24    2    3    3    0    0 -0.34918624696E+03  0.36288275320E+03  0.27515294900E+03  0.57965690432E+03  0.81719359726E+02 0.  0.
      -24    2    3    3    0    0  0.34918624696E+03 -0.36288275320E+03  0.24564406107E+03  0.56597110477E+03  0.79795733318E+02 0.  0.
      -13    1    4    4    0    0 -0.13242988448E+03  0.16642584857E+03  0.15609238810E+03  0.26381825373E+03  0.00000000000E+00 0.  1.
       14    1    4    4    0    0 -0.21675636248E+03  0.19645690462E+03  0.11906056090E+03  0.31583865059E+03  0.00000000000E+00 0. -1.
        3    1    5    5  501    0  0.10891265208E+03 -0.13082616034E+03  0.44134132263E+02  0.17585582630E+03  0.00000000000E+00 0. -1.
       -4    1    5    5    0  501  0.24027359488E+03 -0.23205659285E+03  0.20150992881E+03  0.39011527847E+03  0.14200000000E+01 0.  1.
</event>
<event>
 9   1  0.7335000E-04  0.1012359E+04  0.7818608E-02  0.9295092E-01
       21   -1    0    0  503  502  0.00000000000E+00  0.00000000000E+00  0.19590744831E+04  0.19590744831E+04  0.00000000000E+00 0.  1.
       21   -1    0    0  502  503 -0.00000000000E+00 -0.00000000000E+00 -0.13078515875E+03  0.13078515875E+03  0.00000000000E+00 0. -1.
       39    2    1    2    0    0 -0.56843418861E-13 -0.11368683772E-12  0.18282893244E+04  0.20898596419E+04  0.10123593577E+04 0.  0.
       24    2    3    3    0    0 -0.31643531727E+03 -0.34366648387E+03  0.54834030707E+03  0.72479983264E+03  0.80123298054E+02 0.  0.
      -24    2    3    3    0    0  0.31643531727E+03  0.34366648387E+03  0.12799490173E+04  0.13650598092E+04  0.82950791056E+02 0.  0.
      -13    1    4    4    0    0 -0.12503865341E+03 -0.92134243396E+02  0.21729817489E+03  0.26709900873E+03  0.00000000000E+00 0.  1.
       14    1    4    4    0    0 -0.19139666386E+03 -0.25153224048E+03  0.33104213218E+03  0.45770082392E+03  0.00000000000E+00 0. -1.
        1    1    5    5  501    0  0.28219124817E+03  0.33541841076E+03  0.11603937973E+04  0.12404237887E+04  0.00000000000E+00 0. -1.
       -2    1    5    5    0  501  0.34244069097E+02  0.82480731160E+01  0.11955522002E+03  0.12463602052E+03  0.00000000000E+00 0.  1.
</event>
<event>
 9   1  0.7335000E-04  0.1076076E+04  0.7818608E-02  0.9228829E-01
       21   -1    0    0  503  502  0.00000000000E+00  0.00000000000E+00  0.15614133455E+03  0.15614133455E+03  0.00000000000E+00 0. -1.
       21   -1    0    0  502  503 -0.00000000000E+00 -0.00000000000E+00 -0.18539911405E+04  0.18539911405E+04  0.00000000000E+00 0.  1.
       39    2    1    2    0    0  0.00000000000E+00 -0.28421709430E-13 -0.16978498060E+04  0.20101324751E+04  0.10760755567E+04 0.  0.
       24    2    3    3    0    0  0.33247526501E+03  0.15819569760E+03 -0.15663008250E+04  0.16110614165E+04  0.81577771629E+02 0.  0.
      -24    2    3    3    0    0 -0.33247526501E+03 -0.15819569760E+03 -0.13154898100E+03  0.39907105858E+03  0.79918050623E+02 0.  0.
      -13    1    4    4    0    0  0.30014053111E+03  0.16489249543E+03 -0.14659235916E+04  0.15053922578E+04  0.00000000000E+00 0.  1.
       14    1    4    4    0    0  0.32334733896E+02 -0.66967978374E+01 -0.10037723341E+03  0.10566915872E+03  0.00000000000E+00 0. -1.
        1    1    5    5  501    0 -0.24001952121E+03 -0.14353249085E+03 -0.74383511470E+02  0.28938530245E+03  0.00000000000E+00 0. -1.
       -2    1    5    5    0  501 -0.92455743793E+02 -0.14663206746E+02 -0.57165469525E+02  0.10968575613E+03  0.00000000000E+00 0.  1.
</event>
<event>
 9   1  0.7335000E-04  0.1001017E+04  0.7818608E-02  0.9307430E-01
       21   -1    0    0  503  502  0.00000000000E+00  0.00000000000E+00  0.45831345034E+03  0.45831345034E+03  0.00000000000E+00 0.  1.
       21   -1    0    0  502  503 -0.00000000000E+00 -0.00000000000E+00 -0.54658799198E+03  0.54658799198E+03  0.00000000000E+00 0. -1.
       39    2    1    2    0    0  0.28421709430E-13  0.00000000000E+00 -0.88274541644E+02  0.10049014423E+04  0.10010167402E+04 0.  0.
       24    2    3    3    0    0  0.16740438375E+03  0.31316873329E+03 -0.38831670651E+03  0.53282334157E+03  0.83737479990E+02 0.  0.
      -24    2    3    3    0    0 -0.16740438375E+03 -0.31316873329E+03  0.30004216487E+03  0.47207810075E+03  0.82058206780E+02 0.  0.
      -13    1    4    4    0    0  0.60495024426E+01  0.48089106198E+01 -0.38887577401E+02  0.39648023624E+02  0.00000000000E+00 0.  1.
       14    1    4    4    0    0  0.16135488130E+03  0.30835982267E+03 -0.34942912911E+03  0.49317531794E+03  0.00000000000E+00 0. -1.
        3    1    5    5  501    0 -0.11730127643E+03 -0.13288572342E+03  0.15117201536E+03  0.23296176332E+03  0.00000000000E+00 0. -1.
       -4    1    5    5    0  501 -0.50103107313E+02 -0.18028300987E+03  0.14887014951E+03  0.23911633743E+03  0.14200000000E+01 0.  1.
</event>
<event>
 9   1  0.7335000E-04  0.1000871E+04  0.7818608E-02  0.9307591E-01
       21   -1    0    0  503  502  0.00000000000E+00  0.00000000000E+00  0.12220790320E+03  0.12220790320E+03  0.00000000000E+00 0.  1.
       21   -1    0    0  502  503 -0.00000000000E+00 -0.00000000000E+00 -0.20492575347E+04  0.20492575347E+04  0.00000000000E+00 0. -1.
       39    2    1    2    0    0  0.00000000000E+00  0.71054273576E-14 -0.19270496315E+04  0.21714654379E+04  0.10008705539E+04 0.  0.
       24    2    3    3    0    0  0.13521379598E+03 -0.50325639523E+02 -0.19884360864E+04  0.19952801932E+04  0.80309021998E+02 0.  0.
      -24    2    3    3    0    0 -0.13521379598E+03  0.50325639523E+02  0.61386454955E+02  0.17618524466E+03  0.80358589878E+02 0.  0.
      -13    1    4    4    0    0  0.11117757008E+02  0.89687472545E+01 -0.50827909022E+02  0.52796962827E+02  0.00000000000E+00 0.  1.
       14    1    4    4    0    0  0.12409603897E+03 -0.59294386777E+02 -0.19376081774E+04  0.19424832304E+04  0.00000000000E+00 0. -1.
        3    1    5    5  501    0  0.82806549595E+01  0.14642872536E+02  0.10366005704E+02  0.19759479672E+02  0.00000000000E+00 0. -1.
       -4    1    5    5    0  501 -0.14349445094E+03  0.35682766987E+02  0.51020449250E+02  0.15642576499E+03  0.14200000000E+01 0.  1.
</event>
<event>
 9   1  0.7335000E-04  0.9943618E+03  0.7818608E-02  0.9314750E-01
       21   -1    0    0  503  502  0.00000000000E+00  0.00000000000E+00  0.24182799105E+04  0.24182799105E+04  0.00000000000E+00 0.  1.
       21   -1    0    0  502  503 -0.00000000000E+00 -0.00000000000E+00 -0.10221680717E+03  0.10221680717E+03  0.00000000000E+00 0. -1.
       39    2    1    2    0    0  0.00000000000E+00 -0.28421709430E-13  0.23160631034E+04  0.25204967177E+04  0.99436180798E+03 0.  0.
       24    2    3    3    0    0 -0.41580051538E+03 -0.23215701583E+03  0.14534267282E+04  0.15318660318E+04  0.85891422107E+02 0.  0.
      -24    2    3    3    0    0  0.41580051538E+03  0.23215701583E+03  0.86263637515E+03  0.98863068593E+03  0.80387616322E+02 0.  0.
      -13    1    4    4    0    0 -0.21037568532E+01 -0.23614751032E+01 -0.17833160014E+00  0.31676741815E+01  0.00000000000E+00 0.  1.
       14    1    4    4    0    0 -0.41369675853E+03 -0.22979554072E+03  0.14536050598E+04  0.15286983576E+04  0.00000000000E+00 0. -1.
        1    1    5    5  501    0  0.13698105661E+01  0.97975490378E+01  0.38372964679E+02  0.39627676773E+02  0.00000000000E+00 0. -1.
       -2    1    5    5    0  501  0.41443070481E+03  0.22235946679E+03  0.82426341047E+03  0.94900300916E+03  0.00000000000E+00 0.  1.
</event>
<event>
 9   1  0.7335000E-04  0.1019823E+04  0.7818608E-02  0.9287066E-01
       21   -1    0    0  503  502  0.00000000000E+00  0.00000000000E+00  0.16810818432E+03  0.16810818432E+03  0.00000000000E+00 0. -1.
       21   -1    0    0  502  503 -0.00000000000E+00 -0.00000000000E+00 -0.15466817138E+04  0.15466817138E+04  0.00000000000E+00 0.  1.
       39    2    1    2    0    0 -0.56843418861E-13  0.00000000000E+00 -0.13785735295E+04  0.17147898981E+04  0.10198232291E+04 0.  0.
       24    2    3    3    0    0 -0.22229038474E+03 -0.16401891386E+02  0.69788520959E+02  0.24713689726E+03  0.80772341435E+02 0.  0.
      -24    2    3    3    0    0  0.22229038474E+03  0.16401891386E+02 -0.14483620505E+04  0.14676530009E+04  0.81059636038E+02 0.  0.
      -13    1    4    4    0    0 -0.11710929554E+02 -0.95379328970E+01 -0.13810881513E+02  0.20466032423E+02  0.00000000000E+00 0.  1.
       14    1    4    4    0    0 -0.21057945519E+03 -0.68639584895E+01  0.83599402472E+02  0.22667086484E+03  0.00000000000E+00 0. -1.
        1    1    5    5  501    0  0.20015249684E+01 -0.58836369343E+00 -0.19200548508E+03  0.19201681847E+03  0.00000000000E+00 0. -1.
       -2    1    5    5    0  501  0.22028885977E+03  0.16990255080E+02 -0.12563565654E+04  0.12756361824E+04  0.00000000000E+00 0.  1.
</event>
<event>
 9   1  0.7335000E-04  0.9936285E+03  0.7818608E-02  0.9315561E-01
       21   -1    0    0  503  502  0.00000000000E+00  0.00000000000E+00  0.75855369433E+03  0.75855369433E+03  0.00000000000E+00 0.  1.
       21   -1    0    0  502  503 -0.00000000000E+00 -0.00000000000E+00 -0.32538819525E+03  0.32538819525E+03  0.00000000000E+00 0. -1.
       39    2    1    2    0    0 -0.14210854715E-13  0.00000000000E+00  0.43316549908E+03  0.10839418896E+04  0.99362853743E+03 0.  0.
       24    2    3    3    0    0 -0.11274765476E+03 -0.19932115438E+03  0.68960868430E+03  0.73084304638E+03  0.78297284410E+02 0.  0.
      -24    2    3    3    0    0  0.11274765476E+03  0.19932115438E+03 -0.25644318521E+03  0.35309884320E+03  0.80465704440E+02 0.  0.
      -13    1    4    4    0    0 -0.60289252367E+01 -0.69518947611E+02  0.26914771497E+03  0.27804626321E+03  0.00000000000E+00 0.  1.
       14    1    4    4    0    0 -0.10671872952E+03 -0.12980220677E+03  0.42046096933E+03  0.45279678316E+03  0.00000000000E+00 0. -1.
        1    1    5    5  501    0  0.26994466691E+02  0.20108142099E+02 -0.82264471069E+02  0.88884654529E+02  0.00000000000E+00 0. -1.
       -2    1    5    5    0  501  0.85753188070E+02  0.17921301228E+03 -0.17417871414E+03  0.26421418867E+03  0.00000000000E+00 0.  1.
</event>
<event>
 9   1  0.7335000E-04  0.9978659E+03  0.7818608E-02  0.9310889E-01
       21   -1    0    0  503  502  0.00000000000E+00  0.00000000000E+00  0.72842318661E+03  0.72842318661E+03  0.00000000000E+00 0. -1.
       21   -1    0    0  502  503 -0.00000000000E+00 -0.00000000000E+00 -0.34174376838E+03  0.34174376838E+03  0.00000000000E+00 0.  1.
       39    2    1    2    0    0  0.00000000000E+00 -0.56843418861E-13  0.38667941823E+03  0.10701669550E+04  0.99786589233E+03 0.  0.
       24    2    3    3    0    0  0.13448795855E+03 -0.44674642253E+03  0.36266953451E+03  0.59612945837E+03  0.78560567984E+02 0.  0.
      -24    2    3    3    0    0 -0.13448795855E+03  0.44674642253E+03  0.24009883717E+02  0.47403749662E+03  0.80409555732E+02 0.  0.
      -13    1    4    4    0    0 -0.40840778142E+01 -0.93390763032E+02  0.67263277311E+02  0.11516450315E+03  0.00000000000E+00 0.  1.
       14    1    4    4    0    0  0.13857203636E+03 -0.35335565949E+03  0.29540625720E+03  0.48096495522E+03  0.00000000000E+00 0. -1.
        3    1    5    5  501    0  0.64508429838E+01  0.25792416126E+02 -0.10919639441E+02  0.28741966362E+02  0.00000000000E+00 0. -1.
       -4    1    5    5    0  501 -0.14093880153E+03  0.42095400640E+03  0.34929523157E+02  0.44529553026E+03  0.14200000000E+01 0.  1.
</event>
<event>
 9   1  0.7335000E-04  0.1002977E+04  0.7818608E-02  0.9305286E-01
       21   -1    0    0  503  502  0.00000000000E+00  0.00000000000E+00  0.71631229716E+03  0.71631229716E+03  0.00000000000E+00 0. -1.
       21   -1    0    0  502  503 -0.00000000000E+00 -0.00000000000E+00 -0.35109096230E+03  0.35109096230E+03  0.00000000000E+00 0.  1.
       39    2    1    2    0    0  0.28421709430E-13 -0.71054273576E-14  0.36522133486E+03  0.10674032595E+04  0.10029771158E+04 0.  0.
       24    2    3    3    0    0 -0.23743673321E+03  0.40748610159E+02  0.64295924774E+03  0.69125932890E+03  0.80038828304E+02 0.  0.
      -24    2    3    3    0    0  0.23743673321E+03 -0.40748610159E+02 -0.27773791288E+03  0.37614393056E+03  0.79430829902E+02 0.  0.
      -13    1    4    4    0    0 -0.55838514139E+02 -0.11937151591E+02  0.87360980041E+02  0.10436654676E+03  0.00000000000E+00 0.  1.
       14    1    4    4    0    0 -0.18159821907E+03  0.52685761750E+02  0.55559826770E+03  0.58689278214E+03  0.00000000000E+00 0. -1.
        1    1    5    5  501    0  0.79914308286E+01  0.15479006314E+02 -0.19944408146E+02  0.26480974669E+02  0.00000000000E+00 0. -1.
       -2    1    5    5    0  501  0.22944530238E+03 -0.56227616473E+02 -0.25779350474E+03  0.34966295589E+03  0.00000000000E+00 0.  1.
</event>
<event>
 9   1  0.7335000E-04  0.1003804E+04  0.7818608E-02  0.9304382E-01
       21   -1    0    0  503  502  0.00000000000E+00  0.00000000000E+00  0.37925503728E+03  0.37925503728E+03  0.00000000000E+00 0.  1.
       21   -1    0    0  502  503 -0.00000000000E+00 -0.00000000000E+00 -0.66421211150E+03  0.66421211150E+03  0.00000000000E+00 0. -1.
       39    2    1    2    0    0  0.88817841970E-15 -0.35527136788E-14 -0.28495707422E+03  0.10434671488E+04  0.10038043417E+04 0.  0.
       24    2    3    3    0    0 -0.83958036384E+00  0.21052129529E+02 -0.65691007348E+03  0.66221436040E+03  0.80951327505E+02 0.  0.
      -24    2    3    3    0    0  0.83958036384E+00 -0.21052129529E+02  0.37195299926E+03  0.38125278838E+03  0.80998505748E+02 0.  0.
      -13    1    4    4    0    0  0.45383096133E+01 -0.30980659235E+02 -0.23790147595E+03  0.23995314076E+03  0.00000000000E+00 0.  1.
       14    1    4    4    0    0 -0.53778899772E+01  0.52032788764E+02 -0.41900859753E+03  0.42226121964E+03  0.00000000000E+00 0. -1.
        1    1    5    5  501    0  0.14609942349E+02  0.31645171435E+01  0.94592712791E+01  0.17690177990E+02  0.00000000000E+00 0. -1.
       -2    1    5    5    0  501 -0.13770361985E+02 -0.24216646673E+02  0.36249372799E+03  0.36356261039E+03  0.00000000000E+00 0.  1.
</event>
<event>
 9   1  0.7335000E-04  0.9893538E+03  0.7818608E-02  0.9320299E-01
       21   -1    0    0  503  502  0.00000000000E+00  0.00000000000E+00  0.27107391328E+03  0.27107391328E+03  0.00000000000E+00 0. -1.
       21   -1    0    0  502  503 -0.00000000000E+00 -0.00000000000E+00 -0.90272522756E+03  0.90272522756E+03  0.00000000000E+00 0.  1.
       39    2    1    2    0    0  0.00000000000E+00 -0.56843418861E-13 -0.63165131429E+03  0.11737991408E+04  0.98935384984E+03 0.  0.
       24    2    3    3    0    0  0.35353449190E+03  0.29269110487E+03 -0.11904732939E+03  0.48113693165E+03  0.81644108990E+02 0.  0.
      -24    2    3    3    0    0 -0.35353449190E+03 -0.29269110487E+03 -0.51260398490E+03  0.69266220919E+03  0.79770739480E+02 0.  0.
      -13    1    4    4    0    0  0.85870109457E+02  0.31581866542E+02 -0.12633758327E+02  0.92361798607E+02  0.00000000000E+00 0.  1.
       14    1    4    4    0    0  0.26766438244E+03  0.26110923833E+03 -0.10641357106E+03  0.38877513304E+03  0.00000000000E+00 0. -1.
        3    1    5    5  501    0 -0.67984281557E+01 -0.72317621211E+01  0.14655046097E+01  0.10033180579E+02  0.00000000000E+00 0. -1.
       -4    1    5    5    0  501 -0.34673606374E+03 -0.28545934275E+03 -0.51406948951E+03  0.68262902861E+03  0.14200000000E+01 0.  1.
</event>
<event>
 9   1  0.7335000E-04  0.9977766E+03  0.7818608E-02  0.9310987E-01
        2   -1    0    0  501    0  0.00000000000E+00  0.00000000000E+00  0.12374475696E+04  0.12374475696E+04  0.00000000000E+00 0. -1.
       -2   -1    0    0    0  501 -0.00000000000E+00 -0.00000000000E+00 -0.20113136401E+03  0.20113136401E+03  0.00000000000E+00 0.  1.
       39    2    1    2    0    0  0.28421709430E-13  0.71054273576E-14  0.10363162056E+04  0.14385789336E+04  0.99777656330E+03 0.  0.
       24    2    3    3    0    0 -0.21124948106E+03 -0.56777618615E+02 -0.11850263777E+03  0.26062681077E+03  0.77675080375E+02 0.  0.
      -24    2    3    3    0    0  0.21124948106E+03  0.56777618615E+02  0.11548188434E+04  0.11779521229E+04  0.78195917306E+02 0.  0.
      -13    1    4    4    0    0 -0.19718534335E+03 -0.27426304525E+02 -0.95727851219E+02  0.22090288208E+03  0.00000000000E+00 0.  1.
       14    1    4    4    0    0 -0.14064137709E+02 -0.29351314090E+02 -0.22774786551E+02  0.39723928692E+02  0.00000000000E+00 0. -1.
        3    1    5    5  502    0  0.14862883856E+03  0.23289070545E+02  0.59854329034E+03  0.61716041908E+03  0.00000000000E+00 0. -1.
       -4    1    5    5    0  502  0.62620642503E+02  0.33488548070E+02  0.55627555305E+03  0.56079170379E+03  0.14200000000E+01 0.  1.
</event>
<event>
 9   1  0.7335000E-04  0.9991009E+03  0.7818608E-02  0.9309531E-01
        2   -1    0    0  501    0  0.00000000000E+00  0.00000000000E+00  0.23744042726E+03  0.23744042726E+03  0.00000000000E+00 0. -1.
       -2   -1    0    0    0  501 -0.00000000000E+00 -0.00000000000E+00 -0.10510032251E+04  0.10510032251E+04  0.00000000000E+00 0.  1.
       39    2    1    2    0    0  0.00000000000E+00  0.00000000000E+00 -0.81356279782E+03  0.12884436523E+04  0.99910090544E+03 0.  0.
       24    2    3    3    0    0  0.41683962780E+03 -0.26005103973E+03 -0.46091080847E+03  0.67840932256E+03  0.80116271759E+02 0.  0.
      -24    2    3    3    0    0 -0.41683962780E+03  0.26005103973E+03 -0.35265198935E+03  0.61003432978E+03  0.79978993186E+02 0.  0.
      -13    1    4    4    0    0  0.27479935086E+03 -0.15865124130E+03 -0.34592719198E+03  0.46941508471E+03  0.00000000000E+00 0.  1.
       14    1    4    4    0    0  0.14204027693E+03 -0.10139979842E+03 -0.11498361649E+03  0.20899423785E+03  0.00000000000E+00 0. -1.
        3    1    5    5  502    0 -0.18124301951E+02  0.10761022112E+02  0.18263329657E+01  0.21157159787E+02  0.00000000000E+00 0. -1.
       -4    1    5    5    0  502 -0.39871532584E+03  0.24929001761E+03 -0.35447832231E+03  0.58887716999E+03  0.14200000000E+01 0.  1.
</event>
<event>
 9   1  0.7335000E-04  0.1008016E+04  0.7818608E-02  0.9299796E-01
       21   -1    0    0  503  502  0.00000000000E+00  0.00000000000E+00  0.27967979771E+03  0.27967979771E+03  0.00000000000E+00 0. -1.
       21   -1    0    0  502  503 -0.00000000000E+00 -0.00000000000E+00 -0.90826766167E+03  0.90826766167E+03  0.00000000000E+00 0.  1.
       39    2    1    2    0    0  0.00000000000E+00  0.00000000000E+00 -0.62858786395E+03  0.11879474594E+04  0.10080161028E+04 0.  0.
       24    2    3    3    0    0  0.25137877085E+02  0.34192401920E+03  0.11074802768E+03  0.36905165012E+03  0.79937769838E+02 0.  0.
      -24    2    3    3    0    0 -0.25137877085E+02 -0.34192401920E+03 -0.73933589163E+03  0.81889580926E+03  0.80180034957E+02 0.  0.
      -13    1    4    4    0    0 -0.19633148085E+02  0.23499372826E+03  0.66989238075E+02  0.24514296001E+03  0.00000000000E+00 0.  1.
       14    1    4    4    0    0  0.44771025170E+02  0.10693029094E+03  0.43758789601E+02  0.12390869010E+03  0.00000000000E+00 0. -1.
        3    1    5    5  501    0 -0.41806958105E+02 -0.10907014474E+03 -0.20844300136E+03  0.23894058474E+03  0.00000000000E+00 0. -1.
       -4    1    5    5    0  501  0.16669081020E+02 -0.23285387446E+03 -0.53089289027E+03  0.57995522452E+03  0.14200000000E+01 0.  1.
</event>
<event>
 9   1  0.7335000E-04  0.9955348E+03  0.7818608E-02  0.9313456E-01
       21   -1    0    0  503  502  0.00000000000E+00  0.00000000000E+00  0.28549585110E+03  0.28549585110E+03  0.00000000000E+00 0. -1.
       21   -1    0    0  502  503 -0.00000000000E+00 -0.00000000000E+00 -0.86786685128E+03  0.86786685128E+03  0.00000000000E+00 0.  1.
       39    2    1    2    0    0 -0.71054273576E-14  0.00000000000E+00 -0.58237100018E+03  0.11533627024E+04  0.99553480169E+03 0.  0.
       24    2    3    3    0    0  0.37800222994E+02 -0.19269706463E+03  0.23046242348E+03  0.31330237294E+03  0.80525975189E+02 0.  0.
      -24    2    3    3    0    0 -0.37800222994E+02  0.19269706463E+03 -0.81283342366E+03  0.84006032943E+03  0.80263110376E+02 0.  0.
      -13    1    4    4    0    0  0.18470224499E+02 -0.76279885535E+02  0.37190073617E+02  0.86849707576E+02  0.00000000000E+00 0.  1.
       14    1    4    4    0    0  0.19329998495E+02 -0.11641717909E+03  0.19327234987E+03  0.22645266537E+03  0.00000000000E+00 0. -1.
        1    1    5    5  501    0 -0.59272346836E+02  0.17346801931E+03 -0.70157150492E+03  0.72512546593E+03  0.00000000000E+00 0. -1.
       -2    1    5    5    0  501  0.21472123842E+02  0.19229045316E+02 -0.11126191875E+03  0.11493486351E+03  0.00000000000E+00 0.  1.
</event>
<event>
 9   1  0.7335000E-04  0.9662090E+03  0.7818608E-02  0.9346403E-01
       21   -1    0    0  503  502  0.00000000000E+00  0.00000000000E+00  0.31358663695E+03  0.31358663695E+03  0.00000000000E+00 0. -1.
       21   -1    0    0  502  503 -0.00000000000E+00 -0.00000000000E+00 -0.74425982056E+03  0.74425982056E+03  0.00000000000E+00 0.  1.
       39    2    1    2    0    0  0.28421709430E-13  0.56843418861E-13 -0.43067318360E+03  0.10578464575E+04  0.96620895079E+03 0.  0.
       24    2    3    3    0    0  0.13048737055E+03 -0.42451714778E+03 -0.26769472731E+02  0.45210295728E+03  0.80241614363E+02 0.  0.
      -24    2    3    3    0    0 -0.13048737055E+03  0.42451714778E+03 -0.40390371087E+03  0.60574350023E+03  0.80902520246E+02 0.  0.
      -13    1    4    4    0    0  0.97675226706E+02 -0.18446422093E+03 -0.20558810320E+02  0.20973832124E+03  0.00000000000E+00 0.  1.
       14    1    4    4    0    0  0.32812143843E+02 -0.24005292685E+03 -0.62106624111E+01  0.24236463604E+03  0.00000000000E+00 0. -1.
        3    1    5    5  501    0 -0.46185697108E+01  0.66641284909E+02 -0.97007558635E+02  0.11778309927E+03  0.00000000000E+00 0. -1.
       -4    1    5    5    0  501 -0.12586880084E+03  0.35787586287E+03 -0.30689615224E+03  0.48796040096E+03  0.14200000000E+01 0.  1.
</event>
<event>
 9   1  0.7335000E-04  0.1002778E+04  0.7818608E-02  0.9305504E-01
       21   -1    0    0  503  502  0.00000000000E+00  0.00000000000E+00  0.13809425475E+04  0.13809425475E+04  0.00000000000E+00 0. -1.
       21   -1    0    0  502  503 -0.00000000000E+00 -0.00000000000E+00 -0.18204282295E+03  0.18204282295E+03  0.00000000000E+00 0.  1.
       39    2    1    2    0    0  0.00000000000E+00  0.28421709430E-13  0.11988997246E+04  0.15629853705E+04  0.10027775021E+04 0.  0.
       24    2    3    3    0    0 -0.43817047997E+03  0.22944462894E+03  0.58025348093E+03  0.76667261846E+03  0.80340490994E+02 0.  0.
      -24    2    3    3    0    0  0.43817047997E+03 -0.22944462894E+03  0.61864624362E+03  0.79631275199E+03  0.82174308425E+02 0.  0.
      -13    1    4    4    0    0 -0.83694599377E+01  0.22404653054E+02  0.24444896632E+02  0.34198966497E+02  0.00000000000E+00 0.  1.
       14    1    4    4    0    0 -0.42980102004E+03  0.20703997589E+03  0.55580858430E+03  0.73247365196E+03  0.00000000000E+00 0. -1.
        3    1    5    5  501    0  0.12343247639E+03 -0.50181828721E+02  0.22407210441E+03  0.26069541641E+03  0.00000000000E+00 0. -1.
       -4    1    5    5    0  501  0.31473800358E+03 -0.17926280022E+03  0.39457413922E+03  0.53561733559E+03  0.14200000000E+01 0.  1.
</event>
<event>
 9   1  0.7335000E-04  0.1008042E+04  0.7818608E-02  0.9299768E-01
       21   -1    0    0  503  502  0.00000000000E+00  0.00000000000E+00  0.45574091475E+03  0.45574091475E+03  0.00000000000E+00 0.  1.
       21   -1    0    0  502  503 -0.00000000000E+00 -0.00000000000E+00 -0.55741607825E+03  0.55741607825E+03  0.00000000000E+00 0. -1.
       39    2    1    2    0    0  0.00000000000E+00  0.00000000000E+00 -0.10167516351E+03  0.10131569930E+04  0.10080422876E+04 0.  0.
       24    2    3    3    0    0  0.43025326578E+03 -0.23811797239E+03  0.25718917822E+02  0.49893171337E+03  0.80332747917E+02 0.  0.
      -24    2    3    3    0    0 -0.43025326578E+03  0.23811797239E+03 -0.12739408133E+03  0.51422527963E+03  0.79877060289E+02 0.  0.
      -13    1    4    4    0    0  0.20247041870E+03 -0.96828577498E+02  0.49526117158E+02  0.22983228701E+03  0.00000000000E+00 0.  1.
       14    1    4    4    0    0  0.22778284708E+03 -0.14128939489E+03 -0.23807199336E+02  0.26909942637E+03  0.00000000000E+00 0. -1.
        1    1    5    5  501    0 -0.15795571699E+03  0.13208008432E+03 -0.57161787987E+02  0.21368815412E+03  0.00000000000E+00 0. -1.
       -2    1    5    5    0  501 -0.27229754878E+03  0.10603788808E+03 -0.70232293341E+02  0.30053712551E+03  0.00000000000E+00 0.  1.
</event>
<event>
 9   1  0.7335000E-04  0.9976592E+03  0.7818608E-02  0.9311116E-01
       21   -1    0    0  503  502  0.00000000000E+00  0.00000000000E+00  0.14884420864E+04  0.14884420864E+04  0.00000000000E+00 0.  1.
       21   -1    0    0  502  503 -0.00000000000E+00 -0.00000000000E+00 -0.16717545155E+03  0.16717545155E+03  0.00000000000E+00 0. -1.
       39    2    1    2    0    0  0.00000000000E+00  0.00000000000E+00  0.13212666348E+04  0.16556175379E+04  0.99765921615E+03 0.  0.
       24    2    3    3    0    0  0.23197744584E+03  0.10561928335E+02 -0.62303172028E+02  0.25043941406E+03  0.70093688440E+02 0.  0.
      -24    2    3    3    0    0 -0.23197744584E+03 -0.10561928335E+02  0.13835698069E+04  0.14051781239E+04  0.79593087829E+02 0.  0.
      -13    1    4    4    0    0  0.13574500810E+03  0.40389351496E+02 -0.41289511775E+02  0.14752230584E+03  0.00000000000E+00 0.  1.
       14    1    4    4    0    0  0.96232437746E+02 -0.29827423161E+02 -0.21013660254E+02  0.10291710822E+03  0.00000000000E+00 0. -1.
        1    1    5    5  501    0 -0.10623064467E+03 -0.82359897782E+01  0.41425721970E+03  0.42774037157E+03  0.00000000000E+00 0. -1.
       -2    1    5    5    0  501 -0.12574680117E+03 -0.23259385571E+01  0.96931258716E+03  0.97743775230E+03  0.00000000000E+00 0.  1.
</event>
<event>
 9   1  0.7335000E-04  0.9860495E+03  0.7818608E-02  0.9323979E-01
       -1   -1    0    0    0  501 -0.00000000000E+00  0.00000000000E+00  0.84204110408E+02  0.84204110408E+02  0.00000000000E+00 0.  1.
        1   -1    0    0  501    0  0.00000000000E+00 -0.00000000000E+00 -0.28867164015E+04  0.28867164015E+04  0.00000000000E+00 0. -1.
       39    2    1    2    0    0  0.56843418861E-13 -0.71054273576E-14 -0.28025122911E+04  0.29709205119E+04  0.98604946446E+03 0.  0.
       24    2    3    3    0    0  0.44048443179E+03  0.57710136722E+02 -0.80335978015E+03  0.92141527062E+03  0.79133874182E+02 0.  0.
      -24    2    3    3    0    0 -0.44048443179E+03 -0.57710136722E+02 -0.19991525109E+04  0.20495052413E+04  0.80647241253E+02 0.  0.
      -13    1    4    4    0    0  0.43989441930E+03  0.57749019945E+02 -0.77470281428E+03  0.89275220519E+03  0.00000000000E+00 0.  1.
       14    1    4    4    0    0  0.59001249466E+00 -0.38883223025E-01 -0.28656965871E+02  0.28663065425E+02  0.00000000000E+00 0. -1.
        1    1    5    5  502    0 -0.37768075477E+03 -0.71976951468E+02 -0.16261850909E+04  0.16710180681E+04  0.00000000000E+00 0. -1.
       -2    1    5    5    0  502 -0.62803677019E+02  0.14266814745E+02 -0.37296742000E+03  0.37848717314E+03  0.00000000000E+00 0.  1.
</event>
<event>
 9   1  0.7335000E-04  0.9918533E+03  0.7818608E-02  0.9317525E-01
       21   -1    0    0  503  502  0.00000000000E+00  0.00000000000E+00  0.23101073706E+03  0.23101073706E+03  0.00000000000E+00 0. -1.
       21   -1    0    0  502  503 -0.00000000000E+00 -0.00000000000E+00 -0.10646398892E+04  0.10646398892E+04  0.00000000000E+00 0.  1.
       39    2    1    2    0    0  0.56843418861E-13 -0.14210854715E-13 -0.83362915216E+03  0.12956506263E+04  0.99185330673E+03 0.  0.
       24    2    3    3    0    0  0.47359642056E+03  0.12215730821E+03 -0.40241709304E+03  0.63852378735E+03  0.80976124351E+02 0.  0.
      -24    2    3    3    0    0 -0.47359642056E+03 -0.12215730821E+03 -0.43121205912E+03  0.65712683894E+03  0.81583484916E+02 0.  0.
      -13    1    4    4    0    0  0.36236009364E+02 -0.10031514970E+02 -0.43576593980E+02  0.57555184042E+02  0.00000000000E+00 0.  1.
       14    1    4    4    0    0  0.43736041120E+03  0.13218882318E+03 -0.35884049906E+03  0.58096860330E+03  0.00000000000E+00 0. -1.
        1    1    5    5  501    0 -0.68651340901E+02  0.10517149755E+02 -0.52979566289E+02  0.87352455550E+02  0.00000000000E+00 0. -1.
       -2    1    5    5    0  501 -0.40494507966E+03 -0.13267445797E+03 -0.37823249283E+03  0.56977438339E+03  0.00000000000E+00 0.  1.
</event>
<event>
 9   1  0.7335000E-04  0.1003000E+04  0.7818608E-02  0.9305260E-01
       21   -1    0    0  503  502  0.00000000000E+00  0.00000000000E+00  0.30796979213E+04  0.30796979213E+04  0.00000000000E+00 0. -1.
       21   -1    0    0  502  503 -0.00000000000E+00 -0.00000000000E+00 -0.81664659101E+02  0.81664659101E+02  0.00000000000E+00 0.  1.
       39    2    1    2    0    0  0.00000000000E+00  0.28421709430E-13  0.29980332622E+04  0.31613625804E+04  0.10030004604E+04 0.  0.
       24    2    3    3    0    0 -0.29357260821E+03  0.23857210090E+03  0.25029265505E+04  0.25324249507E+04  0.73710854539E+02 0.  0.
      -24    2    3    3    0    0  0.29357260821E+03 -0.23857210090E+03  0.49510671168E+03  0.62893762968E+03  0.85617535985E+02 0.  0.
      -13    1    4    4    0    0  0.38665992373E+01  0.84508865674E+01  0.66392917405E+02  0.67040193578E+02  0.00000000000E+00 0.  1.
       14    1    4    4    0    0 -0.29743920745E+03  0.23012121433E+03  0.24365336331E+04  0.24653847571E+04  0.00000000000E+00 0. -1.
        1    1    5    5  501    0  0.27623328832E+02 -0.28514121793E+02  0.10459531985E+03  0.11187620109E+03  0.00000000000E+00 0. -1.
       -2    1    5    5    0  501  0.26594927938E+03 -0.21005797911E+03  0.39051139183E+03  0.51706142859E+03  0.00000000000E+00 0.  1.
</event>
<event>
 9   1  0.7335000E-04  0.9939236E+03  0.7818608E-02  0.9315235E-01
       21   -1    0    0  503  502  0.00000000000E+00  0.00000000000E+00  0.65701022525E+03  0.65701022525E+03  0.00000000000E+00 0.  1.
       21   -1    0    0  502  503 -0.00000000000E+00 -0.00000000000E+00 -0.37590133032E+03  0.37590133032E+03  0.00000000000E+00 0. -1.
       39    2    1    2    0    0  0.00000000000E+00  0.28421709430E-13  0.28110889493E+03  0.10329115556E+04  0.99392357394E+03 0.  0.
       24    2    3    3    0    0  0.38104681850E+03  0.77075868057E+02 -0.16974877682E+03  0.43171899478E+03  0.80182765624E+02 0.  0.
      -24    2    3    3    0    0 -0.38104681850E+03 -0.77075868057E+02  0.45085767175E+03  0.60119256079E+03  0.83800284329E+02 0.  0.
      -13    1    4    4    0    0  0.72503715921E+02 -0.12602986487E+02 -0.15084856899E+02  0.75121082250E+02  0.00000000000E+00 0.  1.
       14    1    4    4    0    0  0.30854310258E+03  0.89678854544E+02 -0.15466391992E+03  0.35659791253E+03  0.00000000000E+00 0. -1.
        3    1    5    5  501    0 -0.78774556437E+02  0.17333920998E+02  0.10202770337E+03  0.13005978553E+03  0.00000000000E+00 0. -1.
       -4    1    5    5    0  501 -0.30227226206E+03 -0.94409789056E+02  0.34882996838E+03  0.47113277526E+03  0.14200000000E+01 0.  1.
</event>
<event>
 9   1  0.7335000E-04  0.9700786E+03  0.7818608E-02  0.9341985E-01
       21   -1    0    0  503  502  0.00000000000E+00  0.00000000000E+00  0.24656516032E+03  0.24656516032E+03  0.00000000000E+00 0.  1.
       21   -1    0    0  502  503 -0.00000000000E+00 -0.00000000000E+00 -0.95416208770E+03  0.95416208770E+03  0.00000000000E+00 0. -1.
       39    2    1    2    0    0  0.00000000000E+00  0.00000000000E+00 -0.70759692738E+03  0.12007272480E+04  0.97007861150E+03 0.  0.
       24    2    3    3    0    0  0.95042409510E+02 -0.29029259316E+03  0.10171483667E+03  0.33198630596E+03  0.81031784507E+02 0.  0.
      -24    2    3    3    0    0 -0.95042409510E+02  0.29029259316E+03 -0.80931176405E+03  0.86874094206E+03  0.80140150549E+02 0.  0.
      -13    1    4    4    0    0  0.10423107215E+03 -0.27825321545E+03  0.10719614655E+03  0.31587969568E+03  0.00000000000E+00 0.  1.
       14    1    4    4    0    0 -0.91886626367E+01 -0.12039377707E+02 -0.54813098843E+01  0.16106610279E+02  0.00000000000E+00 0. -1.
        1    1    5    5  501    0 -0.10864297918E+03  0.25488376195E+03 -0.73037603916E+03  0.78116463541E+03  0.00000000000E+00 0. -1.
       -2    1    5    5    0  501  0.13600569669E+02  0.35408831204E+02 -0.78935724886E+02  0.87576306647E+02  0.00000000000E+00 0.  1.
</event>
<event>
 9   1  0.7335000E-04  0.9760074E+03  0.7818608E-02  0.9335258E-01
       21   -1    0    0  503  502  0.00000000000E+00  0.00000000000E+00  0.60327131314E+03  0.60327131314E+03  0.00000000000E+00 0. -1.
       21   -1    0    0  502  503 -0.00000000000E+00 -0.00000000000E+00 -0.39476034366E+03  0.39476034366E+03  0.00000000000E+00 0.  1.
       39    2    1    2    0    0  0.00000000000E+00  0.00000000000E+00  0.20851096947E+03  0.99803165680E+03  0.97600735837E+03 0.  0.
       24    2    3    3    0    0  0.28111793049E+03 -0.37771456255E+03  0.20678053414E+03  0.52047496141E+03  0.80252193377E+02 0.  0.
      -24    2    3    3    0    0 -0.28111793049E+03  0.37771456255E+03  0.17304353306E+01  0.47755669540E+03  0.79761026219E+02 0.  0.
      -13    1    4    4    0    0  0.21791541011E+03 -0.26846094508E+03  0.11492354581E+03  0.36437045212E+03  0.00000000000E+00 0.  1.
       14    1    4    4    0    0  0.63202520383E+02 -0.10925361747E+03  0.91856988337E+02  0.15610450929E+03  0.00000000000E+00 0. -1.
        3    1    5    5  501    0 -0.21499108767E+03  0.24745352331E+03  0.28477054836E+02  0.32903701407E+03  0.00000000000E+00 0. -1.
       -4    1    5    5    0  501 -0.66126842819E+02  0.13026103924E+03 -0.26746619506E+02  0.14851968133E+03  0.14200000000E+01 0.  1.
</event>
<event>
 9   1  0.7335000E-04  0.1005166E+04  0.7818608E-02  0.9302897E-01
       21   -1    0    0  503  502  0.00000000000E+00  0.00000000000E+00  0.22339406579E+04  0.22339406579E+04  0.00000000000E+00 0.  1.
       21   -1    0    0  502  503 -0.00000000000E+00 -0.00000000000E+00 -0.11306906735E+03  0.11306906735E+03  0.00000000000E+00 0. -1.
       39    2    1    2    0    0  0.00000000000E+00  0.00000000000E+00  0.21208715906E+04  0.23470097253E+04  0.10051658305E+04 0.  0.
       24    2    3    3    0    0  0.23331411014E+03  0.19976287522E+03  0.19696343161E+04  0.19950813683E+04  0.80929888583E+02 0.  0.
      -24    2    3    3    0    0 -0.23331411014E+03 -0.19976287522E+03  0.15123727453E+03  0.35192835698E+03  0.81487268518E+02 0.  0.
      -13    1    4    4    0    0  0.22775669537E+03  0.20019204341E+03  0.19635642084E+04  0.19868402973E+04  0.00000000000E+00 0.  1.
       14    1    4    4    0    0  0.55574147691E+01 -0.42916818532E+00  0.60701076934E+01  0.82410710261E+01  0.00000000000E+00 0. -1.
        3    1    5    5  501    0 -0.18201617792E+03 -0.19230865383E+03  0.13711867545E+03  0.29818457123E+03  0.00000000000E+00 0. -1.
       -4    1    5    5    0  501 -0.51297932221E+02 -0.74542213941E+01  0.14118599081E+02  0.53743785750E+02  0.14200000000E+01 0.  1.
</event>
<event>
 9   1  0.7335000E-04  0.9918415E+03  0.7818608E-02  0.9317538E-01
        1   -1    0    0  501    0  0.00000000000E+00  0.00000000000E+00  0.13281631030E+04  0.13281631030E+04  0.00000000000E+00 0. -1.
       -1   -1    0    0    0  501 -0.00000000000E+00 -0.00000000000E+00 -0.18517109027E+03  0.18517109027E+03  0.00000000000E+00 0.  1.
       39    2    1    2    0    0  0.28421709430E-13  0.00000000000E+00  0.11429920128E+04  0.15133341933E+04  0.99184153944E+03 0.  0.
       24    2    3    3    0    0  0.23537425516E+03 -0.35440106708E+03  0.20198892579E+03  0.47769281398E+03  0.79935862120E+02 0.  0.
      -24    2    3    3    0    0 -0.23537425516E+03  0.35440106708E+03  0.94100308696E+03  0.10356413793E+04  0.77878755252E+02 0.  0.
      -13    1    4    4    0    0  0.77257182805E+02 -0.85378335434E+02  0.21272817428E+02  0.11709254980E+03  0.00000000000E+00 0.  1.
       14    1    4    4    0    0  0.15811707235E+03 -0.26902273164E+03  0.18071610836E+03  0.36060026419E+03  0.00000000000E+00 0. -1.
        1    1    5    5  502    0 -0.10612446591E+03  0.97450307867E+02  0.34442519346E+03  0.37334659320E+03  0.00000000000E+00 0. -1.
       -2    1    5    5    0  502 -0.12924978925E+03  0.25695075921E+03  0.59657789351E+03  0.66229478610E+03  0.00000000000E+00 0.  1.
</event>
<event>
 9   1  0.7335000E-04  0.1004163E+04  0.7818608E-02  0.9303991E-01
       21   -1    0    0  503  502  0.00000000000E+00  0.00000000000E+00  0.30502056355E+03  0.30502056355E+03  0.00000000000E+00 0.  1.
       21   -1    0    0  502  503 -0.00000000000E+00 -0.00000000000E+00 -0.82645539383E+03  0.82645539383E+03  0.00000000000E+00 0. -1.
       39    2    1    2    0    0 -0.56843418861E-13  0.00000000000E+00 -0.52143483027E+03  0.11314759574E+04  0.10041631142E+04 0.  0.
       24    2    3    3    0    0 -0.18801146093E+03 -0.17869084201E+03  0.21639252883E+03  0.34525365451E+03  0.71383702322E+02 0.  0.
      -24    2    3    3    0    0  0.18801146093E+03  0.17869084201E+03 -0.73782735911E+03  0.78622230287E+03  0.80483359928E+02 0.  0.
      -13    1    4    4    0    0 -0.15951384579E+03 -0.17897120361E+03  0.18474157273E+03  0.30266286097E+03  0.00000000000E+00 0.  1.
       14    1    4    4    0    0 -0.28497615144E+02  0.28036159929E+00  0.31650956105E+02  0.42590793534E+02  0.00000000000E+00 0. -1.
        1    1    5    5  501    0  0.18859349444E+03  0.15115363041E+03 -0.62558987981E+03  0.67065462337E+03  0.00000000000E+00 0. -1.
       -2    1    5    5    0  501 -0.58203350648E+00  0.27537211603E+02 -0.11223747930E+03  0.11556767950E+03  0.00000000000E+00 0.  1.
</event>
<event>
 9   1  0.7335000E-04  0.1137064E+04  0.7818608E-02  0.9169801E-01
       21   -1    0    0  503  502  0.00000000000E+00  0.00000000000E+00  0.10661924968E+04  0.10661924968E+04  0.00000000000E+00 0. -1.
       21   -1    0    0  502  503 -0.00000000000E+00 -0.00000000000E+00 -0.30316169324E+03  0.30316169324E+03  0.00000000000E+00 0.  1.
       39    2    1    2    0    0  0.56843418861E-13 -0.56843418861E-13  0.76303080356E+03  0.13693541900E+04  0.11370641541E+04 0.  0.
       24    2    3    3    0    0  0.34979851418E+03 -0.32761815017E+03  0.26431804096E+02  0.48654994344E+03  0.79621318460E+02 0.  0.
      -24    2    3    3    0    0 -0.34979851418E+03  0.32761815017E+03  0.73659899946E+03  0.88280424659E+03  0.84098745203E+02 0.  0.
      -13    1    4    4    0    0  0.31256028537E+03 -0.25365176338E+03  0.30101739892E+02  0.40365735941E+03  0.00000000000E+00 0.  1.
       14    1    4    4    0    0  0.37238228806E+02 -0.73966386791E+02 -0.36699357966E+01  0.82892584037E+02  0.00000000000E+00 0. -1.
        3    1    5    5  501    0 -0.30434609651E+03  0.29708941633E+03  0.59839440134E+03  0.73414203484E+03  0.00000000000E+00 0. -1.
       -4    1    5    5    0  501 -0.45452417676E+02  0.30528733837E+02  0.13820459812E+03  0.14866221175E+03  0.14200000000E+01 0.  1.
</event>
<event>
 9   1  0.7335000E-04  0.9986304E+03  0.7818608E-02  0.9310048E-01
       21   -1    0    0  503  502  0.00000000000E+00  0.00000000000E+00  0.20582973151E+03  0.20582973151E+03  0.00000000000E+00 0. -1.
       21   -1    0    0  502  503 -0.00000000000E+00 -0.00000000000E+00 -0.12112714555E+04  0.12112714555E+04  0.00000000000E+00 0.  1.
       39    2    1    2    0    0  0.00000000000E+00  0.00000000000E+00 -0.10054417240E+04  0.14171011870E+04  0.99863041907E+03 0.  0.
       24    2    3    3    0    0 -0.98278200241E+02 -0.38619890918E+02 -0.11859836752E+04  0.11928384881E+04  0.71807242691E+02 0.  0.
      -24    2    3    3    0    0  0.98278200241E+02  0.38619890918E+02  0.18054195124E+03  0.22426269893E+03  0.80921328209E+02 0.  0.
      -13    1    4    4    0    0 -0.92782252004E+02 -0.12745083492E+02 -0.10587571316E+04  0.10628911737E+04  0.00000000000E+00 0.  1.
       14    1    4    4    0    0 -0.54959482370E+01 -0.25874807426E+02 -0.12722654368E+03  0.12994731442E+03  0.00000000000E+00 0. -1.
        1    1    5    5  501    0  0.44295520492E+02 -0.78915065515E+01  0.12814899449E+03  0.13581801722E+03  0.00000000000E+00 0. -1.
       -2    1    5    5    0  501  0.53982679749E+02  0.46511397469E+02  0.52392956745E+02  0.88444681716E+02  0.00000000000E+00 0.  1.
</event>
<event>
 9   1  0.7335000E-04  0.9973494E+03  0.7818608E-02  0.9311457E-01
       21   -1    0    0  503  502  0.00000000000E+00  0.00000000000E+00  0.21374416414E+03  0.21374416414E+03  0.00000000000E+00 0. -1.
       21   -1    0    0  502  503 -0.00000000000E+00 -0.00000000000E+00 -0.11634304264E+04  0.11634304264E+04  0.00000000000E+00 0.  1.
       39    2    1    2    0    0  0.00000000000E+00  0.71054273576E-14 -0.94968626222E+03  0.13771745905E+04  0.99734941523E+03 0.  0.
       24    2    3    3    0    0  0.22414441310E+03  0.59891621702E+02 -0.10741250729E+04  0.11018937536E+04  0.81224673704E+02 0.  0.
      -24    2    3    3    0    0 -0.22414441310E+03 -0.59891621702E+02  0.12443881068E+03  0.27528083694E+03  0.80416399508E+02 0.  0.
      -13    1    4    4    0    0  0.20048387566E+03  0.69183882827E+02 -0.83868428636E+03  0.86508469309E+03  0.00000000000E+00 0.  1.
       14    1    4    4    0    0  0.23660537438E+02 -0.92922611251E+01 -0.23544078654E+03  0.23680906046E+03  0.00000000000E+00 0. -1.
        1    1    5    5  501    0 -0.22163487269E+03 -0.65693578881E+02  0.10326292231E+03  0.25318154400E+03  0.00000000000E+00 0. -1.
       -2    1    5    5    0  501 -0.25095404078E+01  0.58019571791E+01  0.21175888370E+02  0.22099292939E+02  0.00000000000E+00 0.  1.
</event>
<event>
 9   1  0.7335000E-04  0.1002421E+04  0.7818608E-02  0.9305894E-01
       21   -1    0    0  503  502  0.00000000000E+00  0.00000000000E+00  0.59761400522E+03  0.59761400522E+03  0.00000000000E+00 0. -1.
       21   -1    0    0  502  503 -0.00000000000E+00 -0.00000000000E+00 -0.42035808585E+03  0.42035808585E+03  0.00000000000E+00 0.  1.
       39    2    1    2    0    0  0.14210854715E-13  0.00000000000E+00  0.17725591937E+03  0.10179720911E+04  0.10024208284E+04 0.  0.
       24    2    3    3    0    0  0.11880252401E+03  0.40382180113E+03  0.35231800486E+03  0.55492900071E+03  0.81437905798E+02 0.  0.
      -24    2    3    3    0    0 -0.11880252401E+03 -0.40382180113E+03 -0.17506208549E+03  0.46304309036E+03  0.81093051312E+02 0.  0.
      -13    1    4    4    0    0  0.57177399543E+02  0.28875127409E+03  0.27714849610E+03  0.40429919886E+03  0.00000000000E+00 0.  1.
       14    1    4    4    0    0  0.61625124465E+02  0.11507052704E+03  0.75169508766E+02  0.15062980186E+03  0.00000000000E+00 0. -1.
        3    1    5    5  501    0 -0.74163404418E+02 -0.13192335815E+03 -0.42034862265E+02  0.15706976993E+03  0.00000000000E+00 0. -1.
       -4    1    5    5    0  501 -0.44639119590E+02 -0.27189844298E+03 -0.13302722323E+03  0.30597332042E+03  0.14200000000E+01 0.  1.
</event>
<event>
 9   1  0.7335000E-04  0.9929525E+03  0.7818608E-02  0.9316308E-01
       21   -1    0    0  503  502  0.00000000000E+00  0.00000000000E+00  0.15822261940E+04  0.15822261940E+04  0.00000000000E+00 0.  1.
       21   -1    0    0  502  503 -0.00000000000E+00 -0.00000000000E+00 -0.15578598241E+03  0.15578598241E+03  0.00000000000E+00 0. -1.
       39    2    1    2    0    0  0.00000000000E+00 -0.14210854715E-13  0.14264402116E+04  0.17380121765E+04  0.99295249037E+03 0.  0.
       24    2    3    3    0    0 -0.32560699103E+03  0.11376098933E+03  0.13228501397E+04  0.13694727003E+04  0.81003145679E+02 0.  0.
      -24    2    3    3    0    0  0.32560699103E+03 -0.11376098933E+03  0.10359007196E+03  0.36853947613E+03  0.78287720357E+02 0.  0.
      -13    1    4    4    0    0 -0.27081286061E+03  0.12242850453E+03  0.11584002901E+04  0.11959178803E+04  0.00000000000E+00 0.  1.
       14    1    4    4    0    0 -0.54794130419E+02 -0.86675152002E+01  0.16444984955E+03  0.17355482006E+03  0.00000000000E+00 0. -1.
        3    1    5    5  501    0  0.16024903515E+03 -0.25680319193E+02  0.20503334698E+02  0.16358367520E+03  0.00000000000E+00 0. -1.
       -4    1    5    5    0  501  0.16535795588E+03 -0.88080670134E+02  0.83086737266E+02  0.20495580093E+03  0.14200000000E+01 0.  1.
</event>
<event>
 8   1  0.7335000E-04  0.1258962E+04  0.7818608E-02  0.9062757E-01
       21   -1    0    0  503  502  0.00000000000E+00  0.00000000000E+00  0.56364367820E+03  0.56364367820E+03  0.00000000000E+00 0.  1.
       21   -1    0    0  502  503 -0.00000000000E+00 -0.00000000000E+00 -0.70300866782E+03  0.70300866782E+03  0.00000000000E+00 0. -1.
       24    2    1    2    0    0  0.43680146849E+03 -0.30580686292E+03 -0.39656270537E+03  0.66933215379E+03  0.80188481171E+02 0.  0.
      -24    2    1    2    0    0 -0.43680146849E+03  0.30580686292E+03  0.25719771576E+03  0.59732019223E+03  0.79544872702E+02 0.  0.
      -13    1    3    3    0    0  0.41893797161E+02 -0.27486005261E+02 -0.11214514612E+02  0.51345263304E+02  0.00000000000E+00 0.  1.
       14    1    3    3    0    0  0.39490767133E+03 -0.27832085766E+03 -0.38534819076E+03  0.61798689048E+03  0.00000000000E+00 0. -1.
        3    1    4    4  501    0 -0.28884206663E+03  0.15712073511E+03  0.16993640021E+03  0.37012841686E+03  0.00000000000E+00 0. -1.
       -4    1    4    4    0  501 -0.14795940187E+03  0.14868612781E+03  0.87261315545E+02  0.22719177537E+03  0.14200000000E+01 0.  1.
</event>
<event>
 9   1  0.7335000E-04  0.9911465E+03  0.7818608E-02  0.9318309E-01
       21   -1    0    0  503  502  0.00000000000E+00  0.00000000000E+00  0.88269450605E+03  0.88269450605E+03  0.00000000000E+00 0. -1.
       21   -1    0    0  502  503 -0.00000000000E+00 -0.00000000000E+00 -0.27823084306E+03  0.27823084306E+03  0.00000000000E+00 0.  1.
       39    2    1    2    0    0  0.28421709430E-13  0.00000000000E+00  0.60446366299E+03  0.11609253491E+04  0.99114648076E+03 0.  0.
       24    2    3    3    0    0 -0.19767087479E+03 -0.13831330603E+03 -0.19595538447E+03  0.32106730620E+03  0.80506875750E+02 0.  0.
      -24    2    3    3    0    0  0.19767087479E+03  0.13831330603E+03  0.80041904747E+03  0.83985804291E+03  0.80539029854E+02 0.  0.
      -13    1    4    4    0    0 -0.32376632858E+02 -0.61203180831E+02 -0.33959455102E+02  0.77118871165E+02  0.00000000000E+00 0.  1.
       14    1    4    4    0    0 -0.16529424193E+03 -0.77110125195E+02 -0.16199592937E+03  0.24394843503E+03  0.00000000000E+00 0. -1.
        1    1    5    5  501    0  0.12014449942E+03  0.81840657558E+02  0.34373913722E+03  0.37321466802E+03  0.00000000000E+00 0. -1.
       -2    1    5    5    0  501  0.77526375362E+02  0.56472648468E+02  0.45667991025E+03  0.46664337489E+03  0.00000000000E+00 0.  1.
</event>
<event>
 9   1  0.7335000E-04  0.1001127E+04  0.7818608E-02  0.9307309E-01
       21   -1    0    0  503  502  0.00000000000E+00  0.00000000000E+00  0.33451883229E+03  0.33451883229E+03  0.00000000000E+00 0. -1.
       21   -1    0    0  502  503 -0.00000000000E+00 -0.00000000000E+00 -0.74902773135E+03  0.74902773135E+03  0.00000000000E+00 0.  1.
       39    2    1    2    0    0  0.56843418861E-13  0.00000000000E+00 -0.41450889905E+03  0.10835465636E+04  0.10011271289E+04 0.  0.
       24    2    3    3    0    0  0.30334412860E+03 -0.49940164953E+02  0.21050970740E+03  0.38130191287E+03  0.81025498587E+02 0.  0.
      -24    2    3    3    0    0 -0.30334412860E+03  0.49940164953E+02 -0.62501860645E+03  0.70224465076E+03  0.89373433881E+02 0.  0.
      -13    1    4    4    0    0  0.21236278730E+03 -0.16601873272E+02  0.10311907456E+03  0.23665823283E+03  0.00000000000E+00 0.  1.
       14    1    4    4    0    0  0.90981341298E+02 -0.33338291681E+02  0.10739063284E+03  0.14464368005E+03  0.00000000000E+00 0. -1.
        3    1    5    5  501    0 -0.47230977407E+02  0.26394828278E+01 -0.40299292406E+02  0.62143101506E+02  0.00000000000E+00 0. -1.
       -4    1    5    5    0  501 -0.25611315119E+03  0.47300682125E+02 -0.58471931405E+03  0.64010154926E+03  0.14200000000E+01 0.  1.
</event>
<event>
 9   1  0.7335000E-04  0.1008811E+04  0.7818608E-02  0.9298934E-01
       21   -1    0    0  503  502  0.00000000000E+00  0.00000000000E+00  0.87404546809E+03  0.87404546809E+03  0.00000000000E+00 0. -1.
       21   -1    0    0  502  503 -0.00000000000E+00 -0.00000000000E+00 -0.29108869224E+03  0.29108869224E+03  0.00000000000E+00 0.  1.
       39    2    1    2    0    0  0.00000000000E+00  0.00000000000E+00  0.58295677585E+03  0.11651341603E+04  0.10088106904E+04 0.  0.
       24    2    3    3    0    0 -0.71722862853E+02  0.86960126922E+02  0.85180236180E+03  0.86280821841E+03  0.78514492071E+02 0.  0.
      -24    2    3    3    0    0  0.71722862853E+02 -0.86960126922E+02 -0.26884558595E+03  0.30232594191E+03  0.80104889613E+02 0.  0.
      -13    1    4    4    0    0 -0.55705212163E+01  0.33772332205E+02  0.48949824959E+03  0.49069352705E+03  0.00000000000E+00 0.  1.
       14    1    4    4    0    0 -0.66152341636E+02  0.53187794717E+02  0.36230411220E+03  0.37211469137E+03  0.00000000000E+00 0. -1.
        1    1    5    5  501    0  0.62569494930E+02 -0.88837749207E+02 -0.16196575103E+03  0.19503843695E+03  0.00000000000E+00 0. -1.
       -2    1    5    5    0  501  0.91533679226E+01  0.18776222851E+01 -0.10687983492E+03  0.10728750497E+03  0.00000000000E+00 0.  1.
</event>
<event>
 9   1  0.7335000E-04  0.9988213E+03  0.7818608E-02  0.9309839E-01
       21   -1    0    0  503  502  0.00000000000E+00  0.00000000000E+00  0.76956893187E+03  0.76956893187E+03  0.00000000000E+00 0.  1.
       21   -1    0    0  502  503 -0.00000000000E+00 -0.00000000000E+00 -0.32409181657E+03  0.32409181657E+03  0.00000000000E+00 0. -1.
       39    2    1    2    0    0  0.00000000000E+00  0.00000000000E+00  0.44547711530E+03  0.10936607484E+04  0.99882129154E+03 0.  0.
       24    2    3    3    0    0  0.61150564966E+02 -0.11032619324E+03  0.74424899266E+03  0.75915517199E+03  0.80614834732E+02 0.  0.
      -24    2    3    3    0    0 -0.61150564966E+02  0.11032619324E+03 -0.29877187736E+03  0.33450557646E+03  0.81963927880E+02 0.  0.
      -13    1    4    4    0    0  0.26161340195E+02 -0.10393778492E+03  0.64227306923E+03  0.65115449343E+03  0.00000000000E+00 0.  1.
       14    1    4    4    0    0  0.34989224771E+02 -0.63884083206E+01  0.10197592342E+03  0.10800067856E+03  0.00000000000E+00 0. -1.
        3    1    5    5  501    0 -0.78622246136E+02  0.10612999839E+03 -0.26958278003E+03  0.30019978253E+03  0.00000000000E+00 0. -1.
       -4    1    5    5    0  501  0.17471681170E+02  0.41961948515E+01 -0.29189097328E+02  0.34305793927E+02  0.14200000000E+01 0.  1.
</event>
<event>
 8   1  0.7335000E-04  0.1390500E+04  0.7818608E-02  0.8960724E-01
       21   -1    0    0  503  502  0.00000000000E+00  0.00000000000E+00  0.78023217173E+03  0.78023217173E+03  0.00000000000E+00 0. -1.
       21   -1    0    0  502  503 -0.00000000000E+00 -0.00000000000E+00 -0.61952426942E+03  0.61952426942E+03  0.00000000000E+00 0.  1.
       24    2    1    2    0    0 -0.60611016413E+03 -0.19588983854E+03 -0.18755552788E+03  0.66946900305E+03  0.85260249303E+02 0.  0.
      -24    2    1    2    0    0  0.60611016413E+03  0.19588983854E+03  0.34826343019E+03  0.73028743809E+03  0.79309302917E+02 0.  0.
      -13    1    3    3    0    0 -0.36984269645E+03 -0.14557616187E+03 -0.15087627928E+03  0.42513490879E+03  0.00000000000E+00 0.  1.
       14    1    3    3    0    0 -0.23626746768E+03 -0.50313676671E+02 -0.36679248602E+02  0.24433409427E+03  0.00000000000E+00 0. -1.
        1    1    4    4  501    0  0.55209796937E+03  0.19465809477E+03  0.33565383835E+03  0.67480918847E+03  0.00000000000E+00 0. -1.
       -2    1    4    4    0  501  0.54012194761E+02  0.12317437712E+01  0.12609591840E+02  0.55478249629E+02  0.00000000000E+00 0.  1.
</event>
<event>
 9   1  0.7335000E-04  0.9983827E+03  0.7818608E-02  0.9310320E-01
       21   -1    0    0  503  502  0.00000000000E+00  0.00000000000E+00  0.12372723512E+03  0.12372723512E+03  0.00000000000E+00 0.  1.
       21   -1    0    0  502  503 -0.00000000000E+00 -0.00000000000E+00 -0.20140433415E+04  0.20140433415E+04  0.00000000000E+00 0. -1.
       39    2    1    2    0    0  0.00000000000E+00  0.00000000000E+00 -0.18903161064E+04  0.21377705767E+04  0.99838272031E+03 0.  0.
       24    2    3    3    0    0 -0.15870409290E+03  0.41558977232E+03 -0.48680269340E+03  0.66332830575E+03  0.71594210225E+02 0.  0.
      -24    2    3    3    0    0  0.15870409290E+03 -0.41558977232E+03 -0.14035134130E+04  0.14744422709E+04  0.78919337001E+02 0.  0.
      -13    1    4    4    0    0 -0.10277897279E+03  0.28381717609E+03 -0.37678297691E+03  0.48278475368E+03  0.00000000000E+00 0.  1.
       14    1    4    4    0    0 -0.55925120104E+02  0.13177259624E+03 -0.11001971649E+03  0.18054355207E+03  0.00000000000E+00 0. -1.
        3    1    5    5  501    0  0.95384599734E+02 -0.14765232687E+03 -0.50726615014E+03  0.53685973827E+03  0.00000000000E+00 0. -1.
       -4    1    5    5    0  501  0.63319493164E+02 -0.26793744546E+03 -0.89624726289E+03  0.93758253265E+03  0.14200000000E+01 0.  1.
</event>
<event>
 9   1  0.7335000E-04  0.9996951E+03  0.7818608E-02  0.9308879E-01
       21   -1    0    0  503  502  0.00000000000E+00  0.00000000000E+00  0.95851114471E+03  0.95851114471E+03  0.00000000000E+00 0. -1.
       21   -1    0    0  502  503 -0.00000000000E+00 -0.00000000000E+00 -0.26066213317E+03  0.26066213317E+03  0.00000000000E+00 0.  1.
       39    2    1    2    0    0  0.00000000000E+00  0.00000000000E+00  0.69784901154E+03  0.12191732779E+04  0.99969507280E+03 0.  0.
       24    2    3    3    0    0  0.45772134355E+02  0.18109563954E+02 -0.24952479023E+03  0.26689361379E+03  0.80910664006E+02 0.  0.
      -24    2    3    3    0    0 -0.45772134355E+02 -0.18109563954E+02  0.94737380177E+03  0.95227966410E+03  0.83044528846E+02 0.  0.
      -13    1    4    4    0    0  0.62642908614E+02  0.11713697555E+02 -0.23570007742E+03  0.24416361565E+03  0.00000000000E+00 0.  1.
       14    1    4    4    0    0 -0.16870774258E+02  0.63958663985E+01 -0.13824712809E+02  0.22729998137E+02  0.00000000000E+00 0. -1.
        3    1    5    5  501    0 -0.63372939119E+02 -0.33420398838E+02  0.77971789927E+03  0.78300258934E+03  0.00000000000E+00 0. -1.
       -4    1    5    5    0  501  0.17600804764E+02  0.15310834884E+02  0.16765590250E+03  0.16927707475E+03  0.14200000000E+01 0.  1.
</event>
<event>
 9   1  0.7335000E-04  0.9907445E+03  0.7818608E-02  0.9318755E-01
       21   -1    0    0  503  502  0.00000000000E+00  0.00000000000E+00  0.14636136675E+04  0.14636136675E+04  0.00000000000E+00 0. -1.
       21   -1    0    0  502  503 -0.00000000000E+00 -0.00000000000E+00 -0.16766286113E+03  0.16766286113E+03  0.00000000000E+00 0.  1.
       39    2    1    2    0    0 -0.11368683772E-12  0.00000000000E+00  0.12959508064E+04  0.16312765286E+04  0.99074447781E+03 0.  0.
       24    2    3    3    0    0  0.28711580393E+03 -0.25818087621E+03  0.11406929915E+04  0.12070115994E+04  0.81262848063E+02 0.  0.
      -24    2    3    3    0    0 -0.28711580393E+03  0.25818087621E+03  0.15525781490E+03  0.42426492927E+03  0.82479642460E+02 0.  0.
      -13    1    4    4    0    0  0.60542452370E+02 -0.68000809533E+02  0.38175982639E+03  0.39246664021E+03  0.00000000000E+00 0.  1.
       14    1    4    4    0    0  0.22657335156E+03 -0.19018006667E+03  0.75893316508E+03  0.81454495914E+03  0.00000000000E+00 0. -1.
        1    1    5    5  501    0 -0.60849906354E+01  0.24345112557E+01  0.19810126119E+02  0.20866122134E+02  0.00000000000E+00 0. -1.
       -2    1    5    5    0  501 -0.28103081329E+03  0.25574636495E+03  0.13544768878E+03  0.40339880714E+03  0.00000000000E+00 0.  1.
</event>
<event>
 9   1  0.7335000E-04  0.9968637E+03  0.7818608E-02  0.9311991E-01
        2   -1    0    0  501    0  0.00000000000E+00  0.00000000000E+00  0.30914129438E+03  0.30914129438E+03  0.00000000000E+00 0. -1.
       -2   -1    0    0    0  501 -0.00000000000E+00 -0.00000000000E+00 -0.80362699318E+03  0.80362699318E+03  0.00000000000E+00 0.  1.
       39    2    1    2    0    0  0.28421709430E-13 -0.56843418861E-13 -0.49448569880E+03  0.11127682876E+04  0.99686365942E+03 0.  0.
       24    2    3    3    0    0 -0.21090381854E+03  0.41108956403E+03 -0.43525531540E+03  0.63990519324E+03  0.80971701389E+02 0.  0.
      -24    2    3    3    0    0  0.21090381854E+03 -0.41108956403E+03 -0.59230383407E+02  0.47286309432E+03  0.81340133514E+02 0.  0.
      -13    1    4    4    0    0 -0.13827036566E+03  0.34106277671E+03 -0.33471600495E+03  0.49747091940E+03  0.00000000000E+00 0.  1.
       14    1    4    4    0    0 -0.72633452885E+02  0.70026787318E+02 -0.10053931044E+03  0.14243427384E+03  0.00000000000E+00 0. -1.
        1    1    5    5  502    0  0.19452951101E+03 -0.37043554830E+03 -0.77245204226E+02  0.42547743498E+03  0.00000000000E+00 0. -1.
       -2    1    5    5    0  502  0.16374307532E+02 -0.40654015725E+02  0.18014820820E+02  0.47385659338E+02  0.00000000000E+00 0.  1.
</event>
<event>
 9   1  0.7335000E-04  0.9974564E+03  0.7818608E-02  0.9311339E-01
       21   -1    0    0  503  502  0.00000000000E+00  0.00000000000E+00  0.14792296828E+04  0.14792296828E+04  0.00000000000E+00 0.  1.
       21   -1    0    0  502  503 -0.00000000000E+00 -0.00000000000E+00 -0.16814819545E+03  0.16814819545E+03  0.00000000000E+00 0. -1.
       39    2    1    2    0    0  0.00000000000E+00  0.00000000000E+00  0.13110814874E+04  0.16473778783E+04  0.99745636862E+03 0.  0.
       24    2    3    3    0    0 -0.30112419917E+03 -0.10215231299E+03  0.34186350275E+02  0.32932914940E+03  0.78600914270E+02 0.  0.
      -24    2    3    3    0    0  0.30112419917E+03  0.10215231299E+03  0.12768951371E+04  0.13180487289E+04  0.75368310254E+02 0.  0.
      -13    1    4    4    0    0 -0.11852883065E+03 -0.11391987695E+01  0.19625943068E+02  0.12014807160E+03  0.00000000000E+00 0.  1.
       14    1    4    4    0    0 -0.18259536852E+03 -0.10101311422E+03  0.14560407208E+02  0.20918107779E+03  0.00000000000E+00 0. -1.
        1    1    5    5  501    0  0.10810707810E+03  0.73150930045E+01  0.34281003882E+03  0.35952659657E+03  0.00000000000E+00 0. -1.
       -2    1    5    5    0  501  0.19301712107E+03  0.94837219983E+02  0.93408509826E+03  0.95852213230E+03  0.00000000000E+00 0.  1.
</event>
<event>
 9   1  0.7335000E-04  0.1003460E+04  0.7818608E-02  0.9304758E-01
       21   -1    0    0  503  502  0.00000000000E+00  0.00000000000E+00  0.35263946223E+03  0.35263946223E+03  0.00000000000E+00 0. -1.
       21   -1    0    0  502  503 -0.00000000000E+00 -0.00000000000E+00 -0.71385432457E+03  0.71385432457E+03  0.00000000000E+00 0.  1.
       39    2    1    2    0    0  0.00000000000E+00  0.00000000000E+00 -0.36121486234E+03  0.10664937868E+04  0.10034604230E+04 0.  0.
       24    2    3    3    0    0  0.20022094204E+03 -0.13641160238E+01  0.30117254374E+03  0.37015254688E+03  0.78852523214E+02 0.  0.
      -24    2    3    3    0    0 -0.20022094204E+03  0.13641160238E+01 -0.66238740608E+03  0.69634123992E+03  0.77741624833E+02 0.  0.
      -13    1    4    4    0    0  0.12475195235E+03  0.27382673899E+02  0.13766516382E+03  0.18778859862E+03  0.00000000000E+00 0.  1.
       14    1    4    4    0    0  0.75468989699E+02 -0.28746789923E+02  0.16350737992E+03  0.18236394826E+03  0.00000000000E+00 0. -1.
        1    1    5    5  501    0 -0.21720259150E+02  0.17400227140E+02 -0.17186728575E+03  0.17410600643E+03  0.00000000000E+00 0. -1.
       -2    1    5    5    0  501 -0.17850068289E+03 -0.16036111116E+02 -0.49052012033E+03  0.52223523349E+03  0.00000000000E+00 0.  1.
</event>
<event>
 9   1  0.7335000E-04  0.1006341E+04  0.7818608E-02  0.9301618E-01
       21   -1    0    0  503  502  0.00000000000E+00  0.00000000000E+00  0.24972697725E+04  0.24972697725E+04  0.00000000000E+00 0. -1.
       21   -1    0    0  502  503 -0.00000000000E+00 -0.00000000000E+00 -0.10138283984E+03  0.10138283984E+03  0.00000000000E+00 0.  1.
       39    2    1    2    0    0  0.00000000000E+00  0.00000000000E+00  0.23958869327E+04  0.25986526124E+04  0.10063405018E+04 0.  0.
       24    2    3    3    0    0  0.79327048126E+02 -0.83537837376E+02 -0.50419277367E+02  0.14831448856E+03  0.78636716297E+02 0.  0.
      -24    2    3    3    0    0 -0.79327048126E+02  0.83537837376E+02  0.24463062100E+04  0.24503381238E+04  0.80445613892E+02 0.  0.
      -13    1    4    4    0    0  0.90148731082E+02 -0.47980760547E+02 -0.33492230044E+02  0.10747407395E+03  0.00000000000E+00 0.  1.
       14    1    4    4    0    0 -0.10821682956E+02 -0.35557076829E+02 -0.16927047323E+02  0.40840414613E+02  0.00000000000E+00 0. -1.
        3    1    5    5  501    0 -0.13636355449E+02  0.20138347050E+02  0.13552084723E+04  0.13554266880E+04  0.00000000000E+00 0. -1.
       -4    1    5    5    0  501 -0.65690692677E+02  0.63399490327E+02  0.10910977378E+04  0.10949114358E+04  0.14200000000E+01 0.  1.
</event>
<event>
 9   1  0.7335000E-04  0.9960759E+03  0.7818608E-02  0.9312859E-01
       21   -1    0    0  503  502  0.00000000000E+00  0.00000000000E+00  0.53935759175E+03  0.53935759175E+03  0.00000000000E+00 0.  1.
       21   -1    0    0  502  503 -0.00000000000E+00 -0.00000000000E+00 -0.45988379745E+03  0.45988379745E+03  0.00000000000E+00 0. -1.
       39    2    1    2    0    0  0.56843418861E-13  0.14210854715E-13  0.79473794303E+02  0.99924138920E+03  0.99607593581E+03 0.  0.
       24    2    3    3    0    0  0.35226363764E+03  0.12727092474E+03  0.35919805767E+03  0.52506024912E+03  0.79859012540E+02 0.  0.
      -24    2    3    3    0    0 -0.35226363764E+03 -0.12727092474E+03 -0.27972426337E+03  0.47418114008E+03  0.79464025804E+02 0.  0.
      -13    1    4    4    0    0  0.21648666516E+03  0.91502160256E+02  0.27329615652E+03  0.36045791806E+03  0.00000000000E+00 0.  1.
       14    1    4    4    0    0  0.13577697248E+03  0.35768764488E+02  0.85901901146E+02  0.16460233106E+03  0.00000000000E+00 0. -1.
        3    1    5    5  501    0 -0.31439500303E+03 -0.13701411575E+03 -0.25996413530E+03  0.43034688042E+03  0.00000000000E+00 0. -1.
       -4    1    5    5    0  501 -0.37868634610E+02  0.97431910048E+01 -0.19760128066E+02  0.43834259654E+02  0.14200000000E+01 0.  1.
</event>
<event>
 9   1  0.7335000E-04  0.1022495E+04  0.7818608E-02  0.9284212E-01
       21   -1    0    0  503  502  0.00000000000E+00  0.00000000000E+00  0.14843220790E+04  0.14843220790E+04  0.00000000000E+00 0.  1.
       21   -1    0    0  502  503 -0.00000000000E+00 -0.00000000000E+00 -0.17608965957E+03  0.17608965957E+03  0.00000000000E+00 0. -1.
       39    2    1    2    0    0 -0.56843418861E-13  0.00000000000E+00  0.13082324195E+04  0.16604117386E+04  0.10224945371E+04 0.  0.
       24    2    3    3    0    0  0.35424996341E+03  0.35011618752E+03  0.51160359314E+03  0.71746777268E+03  0.70337664082E+02 0.  0.
      -24    2    3    3    0    0 -0.35424996341E+03 -0.35011618752E+03  0.79662882634E+03  0.94294396593E+03  0.80320947361E+02 0.  0.
      -13    1    4    4    0    0  0.15138096804E+02  0.42682578712E+02  0.46053223868E+02  0.64589967711E+02  0.00000000000E+00 0.  1.
       14    1    4    4    0    0  0.33911186661E+03  0.30743360881E+03  0.46555036927E+03  0.65287780497E+03  0.00000000000E+00 0. -1.
        1    1    5    5  501    0 -0.93632020674E+02 -0.47748503730E+02  0.15499038016E+03  0.18726690270E+03  0.00000000000E+00 0. -1.
       -2    1    5    5    0  501 -0.26061794274E+03 -0.30236768379E+03  0.64163844618E+03  0.75567706323E+03  0.00000000000E+00 0.  1.
</event>
<event>
 9   1  0.7335000E-04  0.9315979E+03  0.7818608E-02  0.9386922E-01
       21   -1    0    0  503  502  0.00000000000E+00  0.00000000000E+00  0.77635264843E+03  0.77635264843E+03  0.00000000000E+00 0.  1.
       21   -1    0    0  502  503 -0.00000000000E+00 -0.00000000000E+00 -0.27947180229E+03  0.27947180229E+03  0.00000000000E+00 0. -1.
       39    2    1    2    0    0 -0.28421709430E-13  0.00000000000E+00  0.49688084614E+03  0.10558244507E+04  0.93159792587E+03 0.  0.
       24    2    3    3    0    0 -0.23039770782E+03 -0.16598934143E+03  0.65641353308E+03  0.71999810448E+03  0.82963719902E+02 0.  0.
      -24    2    3    3    0    0  0.23039770782E+03  0.16598934143E+03 -0.15953268694E+03  0.33582634624E+03  0.81811315799E+02 0.  0.
      -13    1    4    4    0    0 -0.22643629111E+03 -0.13720202193E+03  0.56255576511E+03  0.62174494579E+03  0.00000000000E+00 0.  1.
       14    1    4    4    0    0 -0.39614167046E+01 -0.28787319494E+02  0.93857767967E+02  0.98253158695E+02  0.00000000000E+00 0. -1.
        1    1    5    5  501    0  0.16477340713E+03  0.12377062185E+03 -0.15462572928E+03  0.25764036695E+03  0.00000000000E+00 0. -1.
       -2    1    5    5    0  501  0.65624300691E+02  0.42218719574E+02 -0.49069576634E+01  0.78185979288E+02  0.00000000000E+00 0.  1.
</event>
<event>
 9   1  0.7335000E-04  0.1016595E+04  0.7818608E-02  0.9290529E-01
       21   -1    0    0  503  502  0.00000000000E+00  0.00000000000E+00  0.42683820708E+03  0.42683820708E+03  0.00000000000E+00 0. -1.
       21   -1    0    0  502  503 -0.00000000000E+00 -0.00000000000E+00 -0.60530279004E+03  0.60530279004E+03  0.00000000000E+00 0.  1.
       39    2    1    2    0    0  0.00000000000E+00  0.00000000000E+00 -0.17846458297E+03  0.10321409971E+04  0.10165950180E+04 0.  0.
       24    2    3    3    0    0  0.47640560619E+02 -0.48406730166E+03  0.36719121591E+02  0.49427472750E+03  0.79802486153E+02 0.  0.
      -24    2    3    3    0    0 -0.47640560619E+02  0.48406730166E+03 -0.21518370456E+03  0.53786626962E+03  0.80033253945E+02 0.  0.
      -13    1    4    4    0    0 -0.43962675346E+01 -0.28548757021E+03  0.43835899554E+02  0.28886686554E+03  0.00000000000E+00 0.  1.
       14    1    4    4    0    0  0.52036828154E+02 -0.19857973145E+03 -0.71167779630E+01  0.20540786196E+03  0.00000000000E+00 0. -1.
        3    1    5    5  501    0 -0.70037581186E+02  0.34935851567E+03 -0.15963920084E+03  0.39043733133E+03  0.00000000000E+00 0. -1.
       -4    1    5    5    0  501  0.22397020567E+02  0.13470878599E+03 -0.55544503721E+02  0.14742893830E+03  0.14200000000E+01 0.  1.
</event>
<event>
 9   1  0.7335000E-04  0.9922711E+03  0.7818608E-02  0.9317063E-01
       21   -1    0    0  503  502  0.00000000000E+00  0.00000000000E+00  0.22076255566E+03  0.22076255566E+03  0.00000000000E+00 0.  1.
       21   -1    0    0  502  503 -0.00000000000E+00 -0.00000000000E+00 -0.11150009685E+04  0.11150009685E+04  0.00000000000E+00 0. -1.
       39    2    1    2    0    0  0.71054273576E-14  0.00000000000E+00 -0.89423841283E+03  0.13357635242E+04  0.99227105847E+03 0.  0.
       24    2    3    3    0    0 -0.46846627741E+02  0.61432701193E+02  0.20330788814E+03  0.23238264952E+03  0.81847511331E+02 0.  0.
      -24    2    3    3    0    0  0.46846627741E+02 -0.61432701193E+02 -0.10975463010E+04  0.11033808746E+04  0.82902885616E+02 0.  0.
      -13    1    4    4    0    0 -0.69836030697E+02  0.54324771531E+02  0.15856544942E+03  0.18157988252E+03  0.00000000000E+00 0.  1.
       14    1    4    4    0    0  0.22989402956E+02  0.71079296619E+01  0.44742438712E+02  0.50802766994E+02  0.00000000000E+00 0. -1.
        3    1    5    5  501    0  0.50483948003E+02 -0.79827023744E+02 -0.92881422884E+03  0.93360422794E+03  0.00000000000E+00 0. -1.
       -4    1    5    5    0  501 -0.36373202618E+01  0.18394322551E+02 -0.16873207212E+03  0.16977664670E+03  0.14200000000E+01 0.  1.
</event>
<event>
 9   1  0.7335000E-04  0.1000043E+04  0.7818608E-02  0.9308498E-01
       -1   -1    0    0    0  501 -0.00000000000E+00  0.00000000000E+00  0.11628375755E+04  0.11628375755E+04  0.00000000000E+00 0.  1.
        1   -1    0    0  501    0  0.00000000000E+00 -0.00000000000E+00 -0.21500971271E+03  0.21500971271E+03  0.00000000000E+00 0. -1.
       39    2    1    2    0    0  0.00000000000E+00  0.00000000000E+00  0.94782786275E+03  0.13778472882E+04  0.10000427451E+04 0.  0.
       24    2    3    3    0    0 -0.32537237672E+03  0.64975675427E+02  0.97722593082E+03  0.10353136021E+04  0.82551273997E+02 0.  0.
      -24    2    3    3    0    0  0.32537237672E+03 -0.64975675427E+02 -0.29398068066E+02  0.34253368610E+03  0.79850220895E+02 0.  0.
      -13    1    4    4    0    0 -0.13026651954E+03  0.29306133885E+02  0.52103357390E+03  0.53787005933E+03  0.00000000000E+00 0.  1.
       14    1    4    4    0    0 -0.19510585718E+03  0.35669541542E+02  0.45619235691E+03  0.49744354273E+03  0.00000000000E+00 0. -1.
        1    1    5    5  502    0  0.31727292539E+03 -0.48896932346E+02 -0.18637056464E+02  0.32155926211E+03  0.00000000000E+00 0. -1.
       -2    1    5    5    0  502  0.80994513365E+01 -0.16078743082E+02 -0.10761011602E+02  0.20974423990E+02  0.00000000000E+00 0.  1.
</event>
<event>
 9   1  0.7335000E-04  0.9969610E+03  0.7818608E-02  0.9311884E-01
       21   -1    0    0  503  502  0.00000000000E+00  0.00000000000E+00  0.59617687645E+03  0.59617687645E+03  0.00000000000E+00 0.  1.
       21   -1    0    0  502  503 -0.00000000000E+00 -0.00000000000E+00 -0.41679376866E+03  0.41679376866E+03  0.00000000000E+00 0. -1.
       39    2    1    2    0    0  0.00000000000E+00 -0.14210854715E-13  0.17938310779E+03  0.10129706451E+04  0.99696099647E+03 0.  0.
       24    2    3    3    0    0  0.25598148523E+03 -0.81890000241E+02 -0.33028977678E+03  0.43105896176E+03  0.66992528998E+02 0.  0.
      -24    2    3    3    0    0 -0.25598148523E+03  0.81890000241E+02  0.50967288458E+03  0.58191168335E+03  0.81377300434E+02 0.  0.
      -13    1    4    4    0    0 -0.12817220668E+01  0.61407584260E+00  0.22143982853E+01  0.26312469217E+01  0.00000000000E+00 0.  1.
       14    1    4    4    0    0  0.25726320730E+03 -0.82504076084E+02 -0.33250417507E+03  0.42842771483E+03  0.00000000000E+00 0. -1.
        1    1    5    5  501    0 -0.84713200716E+02  0.22275350902E+02  0.94451367851E+02  0.12881606469E+03  0.00000000000E+00 0. -1.
       -2    1    5    5    0  501 -0.17126828451E+03  0.59614649339E+02  0.41522151673E+03  0.45309561866E+03  0.00000000000E+00 0.  1.
</event>
<event>
 9   1  0.7335000E-04  0.1019786E+04  0.7818608E-02  0.9287106E-01
       21   -1    0    0  503  502  0.00000000000E+00  0.00000000000E+00  0.34931774756E+03  0.34931774756E+03  0.00000000000E+00 0.  1.
       21   -1    0    0  502  503 -0.00000000000E+00 -0.00000000000E+00 -0.74428149666E+03  0.74428149666E+03  0.00000000000E+00 0. -1.
       39    2    1    2    0    0  0.00000000000E+00 -0.28421709430E-13 -0.39496374910E+03  0.10935992442E+04  0.10197857343E+04 0.  0.
       24    2    3    3    0    0  0.28007715543E+03 -0.25153940796E+03 -0.55624728130E+03  0.67637198602E+03  0.79704069904E+02 0.  0.
      -24    2    3    3    0    0 -0.28007715543E+03  0.25153940796E+03  0.16128353221E+03  0.41722725821E+03  0.79692662649E+02 0.  0.
      -13    1    4    4    0    0  0.74906134396E+02 -0.37907124834E+02 -0.82867384035E+02  0.11796135986E+03  0.00000000000E+00 0.  1.
       14    1    4    4    0    0  0.20517102104E+03 -0.21363228312E+03 -0.47337989727E+03  0.55841062616E+03  0.00000000000E+00 0. -1.
        1    1    5    5  501    0 -0.11098293927E+03  0.11753438881E+03  0.29247064683E+02  0.16427701043E+03  0.00000000000E+00 0. -1.
       -2    1    5    5    0  501 -0.16909421616E+03  0.13400501914E+03  0.13203646752E+03  0.25295024778E+03  0.00000000000E+00 0.  1.
</event>
<event>
 9   1  0.7335000E-04  0.9965853E+03  0.7818608E-02  0.9312298E-01
       21   -1    0    0  503  502  0.00000000000E+00  0.00000000000E+00  0.88914426438E+02  0.88914426438E+02  0.00000000000E+00 0.  1.
       21   -1    0    0  502  503 -0.00000000000E+00 -0.00000000000E+00 -0.27925228304E+04  0.27925228304E+04  0.00000000000E+00 0. -1.
       39    2    1    2    0    0  0.56843418861E-13 -0.56843418861E-13 -0.27036084039E+04  0.28814372568E+04  0.99658530147E+03 0.  0.
       24    2    3    3    0    0  0.36898174593E+03 -0.31480036345E+03 -0.11188898024E+04  0.12222343978E+04  0.81827475154E+02 0.  0.
      -24    2    3    3    0    0 -0.36898174593E+03  0.31480036345E+03 -0.15847186015E+04  0.16592028590E+04  0.79839110121E+02 0.  0.
      -13    1    4    4    0    0  0.33337094478E+03 -0.30869079615E+03 -0.10094582971E+04  0.11069924336E+04  0.00000000000E+00 0.  1.
       14    1    4    4    0    0  0.35610801148E+02 -0.61095673021E+01 -0.10943150528E+03  0.11524196423E+03  0.00000000000E+00 0. -1.
        3    1    5    5  501    0 -0.20581598513E+03  0.20577620325E+03 -0.10508662241E+04  0.10904237188E+04  0.00000000000E+00 0. -1.
       -4    1    5    5    0  501 -0.16316576080E+03  0.10902416020E+03 -0.53385237745E+03  0.56877914019E+03  0.14200000000E+01 0.  1.
</event>
<event>
 9   1  0.7335000E-04  0.9961589E+03  0.7818608E-02  0.9312768E-01
       21   -1    0    0  503  502  0.00000000000E+00  0.00000000000E+00  0.32030813536E+03  0.32030813536E+03  0.00000000000E+00 0. -1.
       21   -1    0    0  502  503 -0.00000000000E+00 -0.00000000000E+00 -0.77451395356E+03  0.77451395356E+03  0.00000000000E+00 0.  1.
       39    2    1    2    0    0  0.56843418861E-13  0.28421709430E-13 -0.45420581819E+03  0.10948220889E+04  0.99615886339E+03 0.  0.
       24    2    3    3    0    0  0.41830086843E+03  0.21803108113E+03 -0.74953980101E+02  0.48422060026E+03  0.79613577451E+02 0.  0.
      -24    2    3    3    0    0 -0.41830086843E+03 -0.21803108113E+03 -0.37925183809E+03  0.61060148866E+03  0.80554654700E+02 0.  0.
      -13    1    4    4    0    0  0.81187426204E+02  0.26058869284E+02  0.13482537742E+02  0.86326367154E+02  0.00000000000E+00 0.  1.
       14    1    4    4    0    0  0.33711344222E+03  0.19197221185E+03 -0.88436517843E+02  0.39789423310E+03  0.00000000000E+00 0. -1.
        1    1    5    5  501    0 -0.17801713904E+02 -0.25767334726E+02 -0.44158953249E+02  0.54137507413E+02  0.00000000000E+00 0. -1.
       -2    1    5    5    0  501 -0.40049915452E+03 -0.19226374640E+03 -0.33509288484E+03  0.55646398125E+03  0.00000000000E+00 0.  1.
</event>
<event>
 9   1  0.7335000E-04  0.1002109E+04  0.7818608E-02  0.9306234E-01
       21   -1    0    0  503  502  0.00000000000E+00  0.00000000000E+00  0.12390565537E+04  0.12390565537E+04  0.00000000000E+00 0. -1.
       21   -1    0    0  502  503 -0.00000000000E+00 -0.00000000000E+00 -0.20261856402E+03  0.20261856402E+03  0.00000000000E+00 0.  1.
       39    2    1    2    0    0  0.11368683772E-12  0.00000000000E+00  0.10364379896E+04  0.14416751177E+04  0.10021094943E+04 0.  0.
       24    2    3    3    0    0  0.47872237503E+03  0.70329785994E+01  0.34012850529E+03  0.59264805479E+03  0.79496802401E+02 0.  0.
      -24    2    3    3    0    0 -0.47872237503E+03 -0.70329785994E+01  0.69630948436E+03  0.84902706289E+03  0.82313306107E+02 0.  0.
      -13    1    4    4    0    0  0.41612601671E+03  0.27027953563E+02  0.27130513922E+03  0.49749155834E+03  0.00000000000E+00 0.  1.
       14    1    4    4    0    0  0.62596358328E+02 -0.19994974964E+02  0.68823366068E+02  0.95156496450E+02  0.00000000000E+00 0. -1.
        1    1    5    5  501    0 -0.40021739922E+03 -0.36103602100E+02  0.58614199302E+03  0.71066157396E+03  0.00000000000E+00 0. -1.
       -2    1    5    5    0  501 -0.78504975812E+02  0.29070623500E+02  0.11016749134E+03  0.13836548893E+03  0.00000000000E+00 0.  1.
</event>
<event>
 9   1  0.7335000E-04  0.9808581E+03  0.7818608E-02  0.9329792E-01
       21   -1    0    0  503  502  0.00000000000E+00  0.00000000000E+00  0.50059745893E+03  0.50059745893E+03  0.00000000000E+00 0. -1.
       21   -1    0    0  502  503 -0.00000000000E+00 -0.00000000000E+00 -0.48046714027E+03  0.48046714027E+03  0.00000000000E+00 0.  1.
       39    2    1    2    0    0  0.00000000000E+00 -0.14210854715E-13  0.20130318657E+02  0.98106459919E+03  0.98085805194E+03 0.  0.
       24    2    3    3    0    0  0.19045569923E+03 -0.80800892766E+02 -0.42752840318E+03  0.48153683997E+03  0.79341257100E+02 0.  0.
      -24    2    3    3    0    0 -0.19045569923E+03  0.80800892766E+02  0.44765872184E+03  0.49952775922E+03  0.79545542645E+02 0.  0.
      -13    1    4    4    0    0  0.63309243674E+02 -0.49166928857E+02 -0.23793855202E+03  0.25107807902E+03  0.00000000000E+00 0.  1.
       14    1    4    4    0    0  0.12714645556E+03 -0.31633963909E+02 -0.18958985116E+03  0.23045876095E+03  0.00000000000E+00 0. -1.
        3    1    5    5  501    0 -0.19801082964E+03  0.77827105480E+02  0.42235730803E+03  0.47291758547E+03  0.00000000000E+00 0. -1.
       -4    1    5    5    0  501  0.75551304093E+01  0.29737872861E+01  0.25301413812E+02  0.26610173754E+02  0.14200000000E+01 0.  1.
</event>
<event>
 9   1  0.7335000E-04  0.9981063E+03  0.7818608E-02  0.9310624E-01
       21   -1    0    0  503  502  0.00000000000E+00  0.00000000000E+00  0.42564707972E+03  0.42564707972E+03  0.00000000000E+00 0.  1.
       21   -1    0    0  502  503 -0.00000000000E+00 -0.00000000000E+00 -0.58511870354E+03  0.58511870354E+03  0.00000000000E+00 0. -1.
       39    2    1    2    0    0  0.00000000000E+00  0.00000000000E+00 -0.15947162382E+03  0.10107657833E+04  0.99810634193E+03 0.  0.
       24    2    3    3    0    0 -0.26766479318E+03 -0.33774534976E+03  0.16221613132E+03  0.46696968208E+03  0.77654670994E+02 0.  0.
      -24    2    3    3    0    0  0.26766479318E+03  0.33774534976E+03 -0.32168775513E+03  0.54379610118E+03  0.80714466260E+02 0.  0.
      -13    1    4    4    0    0 -0.86965735033E+01 -0.39602830535E+02  0.30274382261E+02  0.50601905086E+02  0.00000000000E+00 0.  1.
       14    1    4    4    0    0 -0.25896821968E+03 -0.29814251922E+03  0.13194174906E+03  0.41636777699E+03  0.00000000000E+00 0. -1.
        1    1    5    5  501    0  0.90397932004E+01  0.52851903296E+02 -0.42013712252E+02  0.68118966230E+02  0.00000000000E+00 0. -1.
       -2    1    5    5    0  501  0.25862499998E+03  0.28489344646E+03 -0.27967404288E+03  0.47567713495E+03  0.00000000000E+00 0.  1.
</event>
<event>
 9   1  0.7335000E-04  0.1002692E+04  0.7818608E-02  0.9305597E-01
       21   -1    0    0  503  502  0.00000000000E+00  0.00000000000E+00  0.51953930678E+03  0.51953930678E+03  0.00000000000E+00 0.  1.
       21   -1    0    0  502  503 -0.00000000000E+00 -0.00000000000E+00 -0.48378990342E+03  0.48378990342E+03  0.00000000000E+00 0. -1.
       39    2    1    2    0    0  0.00000000000E+00  0.56843418861E-13  0.35749403357E+02  0.10033292102E+04  0.10026921183E+04 0.  0.
       24    2    3    3    0    0  0.18149706917E+03  0.31095388906E+03 -0.32180654074E+03  0.48980320572E+03  0.81940365110E+02 0.  0.
      -24    2    3    3    0    0 -0.18149706917E+03 -0.31095388906E+03  0.35755594410E+03  0.51352600447E+03  0.78925261275E+02 0.  0.
      -13    1    4    4    0    0  0.16315798697E+03  0.27834607619E+03 -0.24759232875E+03  0.40669279327E+03  0.00000000000E+00 0.  1.
       14    1    4    4    0    0  0.18339082197E+02  0.32607812866E+02 -0.74214211996E+02  0.83110412452E+02  0.00000000000E+00 0. -1.
        3    1    5    5  501    0 -0.72653224188E+01 -0.33066970720E+02  0.92549545678E+01  0.35097915131E+02  0.00000000000E+00 0. -1.
       -4    1    5    5    0  501 -0.17423174675E+03 -0.27788691834E+03  0.34830098953E+03  0.47842808934E+03  0.14200000000E+01 0.  1.
</event>
<event>
 9   1  0.7335000E-04  0.1002631E+04  0.7818608E-02  0.9305664E-01
       21   -1    0    0  503  502  0.00000000000E+00  0.00000000000E+00  0.20038888379E+03  0.20038888379E+03  0.00000000000E+00 0.  1.
       21   -1    0    0  502  503 -0.00000000000E+00 -0.00000000000E+00 -0.12541469641E+04  0.12541469641E+04  0.00000000000E+00 0. -1.
       39    2    1    2    0    0  0.00000000000E+00  0.00000000000E+00 -0.10537580804E+04  0.14545358479E+04  0.10026307600E+04 0.  0.
       24    2    3    3    0    0 -0.39501694115E+03 -0.29419796901E+03 -0.59275718316E+03  0.77476029857E+03  0.79382701457E+02 0.  0.
      -24    2    3    3    0    0  0.39501694115E+03  0.29419796901E+03 -0.46100089720E+03  0.67977554935E+03  0.83559209611E+02 0.  0.
      -13    1    4    4    0    0 -0.20673390393E+03 -0.13360318905E+03 -0.23942411561E+03  0.34338407985E+03  0.00000000000E+00 0.  1.
       14    1    4    4    0    0 -0.18828303722E+03 -0.16059477996E+03 -0.35333306755E+03  0.43137621872E+03  0.00000000000E+00 0. -1.
        1    1    5    5  501    0  0.37420894026E+03  0.29735129842E+03 -0.43456292445E+03  0.64598379311E+03  0.00000000000E+00 0. -1.
       -2    1    5    5    0  501  0.20808000890E+02 -0.31533294081E+01 -0.26437972747E+02  0.33791756248E+02  0.00000000000E+00 0.  1.
</event>
<event>
 9   1  0.7335000E-04  0.9944659E+03  0.7818608E-02  0.9314635E-01
       21   -1    0    0  503  502  0.00000000000E+00  0.00000000000E+00  0.26547405922E+04  0.26547405922E+04  0.00000000000E+00 0.  1.
       21   -1    0    0  502  503 -0.00000000000E+00 -0.00000000000E+00 -0.93131734676E+02  0.93131734676E+02  0.00000000000E+00 0. -1.
       39    2    1    2    0    0  0.00000000000E+00 -0.11368683772E-12  0.25616088575E+04  0.27478723268E+04  0.99446587969E+03 0.  0.
       24    2    3    3    0    0 -0.31546084888E+03 -0.32218021357E+03  0.74747312994E+03  0.87662962645E+03  0.80298099604E+02 0.  0.
      -24    2    3    3    0    0  0.31546084888E+03  0.32218021357E+03  0.18141357276E+04  0.18712427004E+04  0.84529099139E+02 0.  0.
      -13    1    4    4    0    0 -0.25633207979E+02 -0.17596397402E+02  0.21856619368E+02  0.38005346506E+02  0.00000000000E+00 0.  1.
       14    1    4    4    0    0 -0.28982764090E+03 -0.30458381616E+03  0.72561651057E+03  0.83862427994E+03  0.00000000000E+00 0. -1.
        3    1    5    5  501    0  0.23203755398E+03  0.23648923352E+03  0.11656598603E+04  0.12118298123E+04  0.00000000000E+00 0. -1.
       -4    1    5    5    0  501  0.83423294902E+02  0.85690980043E+02  0.64847586727E+03  0.65941288813E+03  0.14200000000E+01 0.  1.
</event>
<event>
 9   1  0.7335000E-04  0.9980833E+03  0.7818608E-02  0.9310649E-01
       21   -1    0    0  503  502  0.00000000000E+00  0.00000000000E+00  0.18503649624E+03  0.18503649624E+03  0.00000000000E+00 0.  1.
       21   -1    0    0  502  503 -0.00000000000E+00 -0.00000000000E+00 -0.13459105939E+04  0.13459105939E+04  0.00000000000E+00 0. -1.
       39    2    1    2    0    0  0.56843418861E-13 -0.28421709430E-13 -0.11608740977E+04  0.15309470902E+04  0.99808332429E+03 0.  0.
       24    2    3    3    0    0 -0.32880467159E+03  0.17534234051E+03 -0.86438983074E+02  0.39084211175E+03  0.80177366434E+02 0.  0.
      -24    2    3    3    0    0  0.32880467159E+03 -0.17534234051E+03 -0.10744351146E+04  0.11401049784E+04  0.81062308622E+02 0.  0.
      -13    1    4    4    0    0 -0.29692032353E+03  0.16701805560E+03 -0.54596678274E+02  0.34501812518E+03  0.00000000000E+00 0.  1.
       14    1    4    4    0    0 -0.31884348057E+02  0.83242849059E+01 -0.31842304801E+02  0.45823986571E+02  0.00000000000E+00 0. -1.
        3    1    5    5  501    0  0.32815126979E+03 -0.17997133268E+03 -0.10697711916E+04  0.11333504925E+04  0.00000000000E+00 0. -1.
       -4    1    5    5    0  501  0.65340180254E+00  0.46289921738E+01 -0.46639230429E+01  0.67544859620E+01  0.14200000000E+01 0.  1.
</event>
<event>
 9   1  0.7335000E-04  0.1000127E+04  0.7818608E-02  0.9308405E-01
       21   -1    0    0  503  502  0.00000000000E+00  0.00000000000E+00  0.38684856593E+03  0.38684856593E+03  0.00000000000E+00 0. -1.
       21   -1    0    0  502  503 -0.00000000000E+00 -0.00000000000E+00 -0.64641208801E+03  0.64641208801E+03  0.00000000000E+00 0.  1.
       39    2    1    2    0    0  0.00000000000E+00  0.00000000000E+00 -0.25956352208E+03  0.10332606539E+04  0.10001271704E+04 0.  0.
       24    2    3    3    0    0  0.19839625489E+03 -0.38759662087E+03 -0.36990209027E+03  0.57686206917E+03  0.79687364093E+02 0.  0.
      -24    2    3    3    0    0 -0.19839625489E+03  0.38759662087E+03  0.11033856819E+03  0.45639858476E+03  0.80826072986E+02 0.  0.
      -13    1    4    4    0    0  0.15121166156E+03 -0.33981850410E+03 -0.33775266527E+03  0.50241262446E+03  0.00000000000E+00 0.  1.
       14    1    4    4    0    0  0.47184593332E+02 -0.47778116776E+02 -0.32149425008E+02  0.74449444719E+02  0.00000000000E+00 0. -1.
        1    1    5    5  501    0 -0.11687730160E+03  0.24191691046E+03  0.10766424894E+03  0.28944029729E+03  0.00000000000E+00 0. -1.
       -2    1    5    5    0  501 -0.81518953285E+02  0.14567971041E+03  0.26743192512E+01  0.16695828747E+03  0.00000000000E+00 0.  1.
</event>
<event>
 9   1  0.7335000E-04  0.1031026E+04  0.7818608E-02  0.9275156E-01
       21   -1    0    0  503  502  0.00000000000E+00  0.00000000000E+00  0.79267350208E+03  0.79267350208E+03  0.00000000000E+00 0.  1.
       21   -1    0    0  502  503 -0.00000000000E+00 -0.00000000000E+00 -0.33526216896E+03  0.33526216896E+03  0.00000000000E+00 0. -1.
       39    2    1    2    0    0  0.00000000000E+00  0.71054273576E-14  0.45741133312E+03  0.11279356710E+04  0.10310255818E+04 0.  0.
       24    2    3    3    0    0 -0.38568345034E+03 -0.60701567289E+02  0.58618343442E+03  0.70931507007E+03  0.84145384318E+02 0.  0.
      -24    2    3    3    0    0  0.38568345034E+03  0.60701567289E+02 -0.12877210130E+03  0.41862060097E+03  0.78895813261E+02 0.  0.
      -13    1    4    4    0    0 -0.17753765962E+03 -0.69088359151E+02  0.29903364009E+03  0.35456161645E+03  0.00000000000E+00 0.  1.
       14    1    4    4    0    0 -0.20814579072E+03  0.83867918618E+01  0.28714979434E+03  0.35475345362E+03  0.00000000000E+00 0. -1.
        3    1    5    5  501    0  0.25772660188E+03  0.32172964666E+01 -0.91024636613E+02  0.27334746530E+03  0.00000000000E+00 0. -1.
       -4    1    5    5    0  501  0.12795684846E+03  0.57484270822E+02 -0.37747464689E+02  0.14527313568E+03  0.14200000000E+01 0.  1.
</event>
<event>
 9   1  0.7335000E-04  0.9702061E+03  0.7818608E-02  0.9341840E-01
       21   -1    0    0  503  502  0.00000000000E+00  0.00000000000E+00  0.13721109696E+04  0.13721109696E+04  0.00000000000E+00 0.  1.
       21   -1    0    0  502  503 -0.00000000000E+00 -0.00000000000E+00 -0.17150577636E+03  0.17150577636E+03  0.00000000000E+00 0. -1.
       39    2    1    2    0    0  0.28421709430E-13  0.11368683772E-12  0.12006051933E+04  0.15436167460E+04  0.97020607521E+03 0.  0.
       24    2    3    3    0    0 -0.14773126186E+03  0.44981113539E+03  0.49070361492E+03  0.68646688271E+03  0.79323137299E+02 0.  0.
      -24    2    3    3    0    0  0.14773126186E+03 -0.44981113539E+03  0.70990157835E+03  0.85714986327E+03  0.81185306067E+02 0.  0.
      -13    1    4    4    0    0 -0.69760223579E+02  0.23329696397E+03  0.30801986147E+03  0.39264512890E+03  0.00000000000E+00 0.  1.
       14    1    4    4    0    0 -0.77971038277E+02  0.21651417142E+03  0.18268375346E+03  0.29382175381E+03  0.00000000000E+00 0. -1.
        1    1    5    5  501    0 -0.44285376174E+01 -0.69289093635E+01  0.21524351076E+01  0.85002768948E+01  0.00000000000E+00 0. -1.
       -2    1    5    5    0  501  0.15215979947E+03 -0.44288222602E+03  0.70774914324E+03  0.84864958638E+03  0.00000000000E+00 0.  1.
</event>
<event>
 9   1  0.7335000E-04  0.9955992E+03  0.7818608E-02  0.9313385E-01
       21   -1    0    0  503  502  0.00000000000E+00  0.00000000000E+00  0.11152111249E+04  0.11152111249E+04  0.00000000000E+00 0.  1.
       21   -1    0    0  502  503 -0.00000000000E+00 -0.00000000000E+00 -0.22220408334E+03  0.22220408334E+03  0.00000000000E+00 0. -1.
       39    2    1    2    0    0  0.56843418861E-13  0.00000000000E+00  0.89300704159E+03  0.13374152083E+04  0.99559924819E+03 0.  0.
       24    2    3    3    0    0 -0.35079496726E+03 -0.32994032735E+03  0.58319706547E+03  0.75900988668E+03  0.63713909335E+02 0.  0.
      -24    2    3    3    0    0  0.35079496726E+03  0.32994032735E+03  0.30980997612E+03  0.57840532159E+03  0.81564490309E+02 0.  0.
      -13    1    4    4    0    0 -0.21675263445E+03 -0.23201206520E+03  0.41688289893E+03  0.52402543293E+03  0.00000000000E+00 0.  1.
       14    1    4    4    0    0 -0.13404233281E+03 -0.97928262150E+02  0.16631416654E+03  0.23498445375E+03  0.00000000000E+00 0. -1.
        1    1    5    5  501    0  0.22367985979E+03  0.23895464470E+03  0.17069696864E+03  0.36914693145E+03  0.00000000000E+00 0. -1.
       -2    1    5    5    0  501  0.12711510747E+03  0.90985682654E+02  0.13911300748E+03  0.20925839014E+03  0.00000000000E+00 0.  1.
</event>
<event>
 9   1  0.7335000E-04  0.1004630E+04  0.7818608E-02  0.9303481E-01
       21   -1    0    0  503  502  0.00000000000E+00  0.00000000000E+00  0.26478610460E+03  0.26478610460E+03  0.00000000000E+00 0.  1.
       21   -1    0    0  502  503 -0.00000000000E+00 -0.00000000000E+00 -0.95292139551E+03  0.95292139551E+03  0.00000000000E+00 0. -1.
       39    2    1    2    0    0  0.28421709430E-13  0.00000000000E+00 -0.68813529091E+03  0.12177075001E+04  0.10046299703E+04 0.  0.
       24    2    3    3    0    0 -0.17303573447E+03 -0.41950942644E+02 -0.90488339785E+03  0.92592994650E+03  0.82650197377E+02 0.  0.
      -24    2    3    3    0    0  0.17303573447E+03  0.41950942644E+02  0.21674810694E+03  0.29177755361E+03  0.80331512711E+02 0.  0.
      -13    1    4    4    0    0 -0.41928598606E+02  0.77677414133E+01 -0.96865142868E+02  0.10583572691E+03  0.00000000000E+00 0.  1.
       14    1    4    4    0    0 -0.13110713586E+03 -0.49718684058E+02 -0.80801825498E+03  0.82009421959E+03  0.00000000000E+00 0. -1.
        1    1    5    5  501    0  0.43721577194E+02 -0.48755004678E+01  0.12848286302E+02  0.45830396878E+02  0.00000000000E+00 0. -1.
       -2    1    5    5    0  501  0.12931415728E+03  0.46826443112E+02  0.20389982064E+03  0.24594715673E+03  0.00000000000E+00 0.  1.
</event>
<event>
 9   1  0.7335000E-04  0.1005338E+04  0.7818608E-02  0.9302709E-01
       21   -1    0    0  503  502  0.00000000000E+00  0.00000000000E+00  0.71863277479E+03  0.71863277479E+03  0.00000000000E+00 0. -1.
       21   -1    0    0  502  503 -0.00000000000E+00 -0.00000000000E+00 -0.35160672529E+03  0.35160672529E+03  0.00000000000E+00 0.  1.
       39    2    1    2    0    0  0.00000000000E+00  0.00000000000E+00  0.36702604950E+03  0.10702395001E+04  0.10053379862E+04 0.  0.
       24    2    3    3    0    0  0.34035937250E+03 -0.15502359616E+03  0.53089708709E+03  0.65461130129E+03  0.82385805111E+02 0.  0.
      -24    2    3    3    0    0 -0.34035937250E+03  0.15502359616E+03 -0.16387103759E+03  0.41562819880E+03  0.77564585086E+02 0.  0.
      -13    1    4    4    0    0  0.20138562824E+03 -0.13097171295E+03  0.36364415553E+03  0.43582890301E+03  0.00000000000E+00 0.  1.
       14    1    4    4    0    0  0.13897374426E+03 -0.24051883213E+02  0.16725293157E+03  0.21878239828E+03  0.00000000000E+00 0. -1.
        1    1    5    5  501    0 -0.87583090548E+02  0.71056090775E+01 -0.52068140692E+02  0.10213901657E+03  0.00000000000E+00 0. -1.
       -2    1    5    5    0  501 -0.25277628195E+03  0.14791798708E+03 -0.11180289690E+03  0.31348918223E+03  0.00000000000E+00 0.  1.
</event>
<event>
 9   1  0.7335000E-04  0.9948945E+03  0.7818608E-02  0.9314162E-01
       21   -1    0    0  503  502  0.00000000000E+00  0.00000000000E+00  0.11456376714E+04  0.11456376714E+04  0.00000000000E+00 0. -1.
       21   -1    0    0  502  503 -0.00000000000E+00 -0.00000000000E+00 -0.21599655027E+03  0.21599655027E+03  0.00000000000E+00 0.  1.
       39    2    1    2    0    0  0.56843418861E-13  0.00000000000E+00  0.92964112111E+03  0.13616342216E+04  0.99489453687E+03 0.  0.
       24    2    3    3    0    0 -0.47577837100E+03 -0.10931672532E+03  0.53244065301E+03  0.72710236011E+03  0.82882979886E+02 0.  0.
      -24    2    3    3    0    0  0.47577837100E+03  0.10931672532E+03  0.39720046810E+03  0.63453186153E+03  0.80915182134E+02 0.  0.
      -13    1    4    4    0    0 -0.41345692932E+01  0.11922640870E+01  0.25746964224E+02  0.26104067186E+02  0.00000000000E+00 0.  1.
       14    1    4    4    0    0 -0.47164380170E+03 -0.11050898941E+03  0.50669368879E+03  0.70099829292E+03  0.00000000000E+00 0. -1.
        3    1    5    5  501    0  0.26915553401E+02  0.26111998361E+02  0.20977671080E+02  0.42969130282E+02  0.00000000000E+00 0. -1.
       -4    1    5    5    0  501  0.44886281760E+03  0.83204726960E+02  0.37622279702E+03  0.59156273125E+03  0.14200000000E+01 0.  1.
</event>
<event>
 9   1  0.7335000E-04  0.1017775E+04  0.7818608E-02  0.9289261E-01
       21   -1    0    0  503  502  0.00000000000E+00  0.00000000000E+00  0.79483144526E+03  0.79483144526E+03  0.00000000000E+00 0. -1.
       21   -1    0    0  502  503 -0.00000000000E+00 -0.00000000000E+00 -0.32581334444E+03  0.32581334444E+03  0.00000000000E+00 0.  1.
       39    2    1    2    0    0 -0.35527136788E-14 -0.28421709430E-13  0.46901810082E+03  0.11206447897E+04  0.10177754005E+04 0.  0.
       24    2    3    3    0    0 -0.18533675991E+02 -0.23988784368E+03 -0.25131714189E+03  0.35698278379E+03  0.79917003333E+02 0.  0.
      -24    2    3    3    0    0  0.18533675991E+02  0.23988784368E+03  0.72033524272E+03  0.76366200591E+03  0.80044504404E+02 0.  0.
      -13    1    4    4    0    0  0.23993142407E+02 -0.17009240010E+03 -0.16815019352E+03  0.24037800032E+03  0.00000000000E+00 0.  1.
       14    1    4    4    0    0 -0.42526818398E+02 -0.69795443579E+02 -0.83166948371E+02  0.11660478347E+03  0.00000000000E+00 0. -1.
        1    1    5    5  501    0 -0.21973137881E+02  0.17103426674E+03  0.52614550278E+03  0.55368278760E+03  0.00000000000E+00 0. -1.
       -2    1    5    5    0  501  0.40506813872E+02  0.68853576937E+02  0.19418973994E+03  0.20997921831E+03  0.00000000000E+00 0.  1.
</event>
<event>
 9   1  0.7335000E-04  0.1002123E+04  0.7818608E-02  0.9306219E-01
       21   -1    0    0  503  502  0.00000000000E+00  0.00000000000E+00  0.11099931570E+04  0.11099931570E+04  0.00000000000E+00 0.  1.
       21   -1    0    0  502  503 -0.00000000000E+00 -0.00000000000E+00 -0.22618396734E+03  0.22618396734E+03  0.00000000000E+00 0. -1.
       39    2    1    2    0    0 -0.14210854715E-13  0.14210854715E-13  0.88380918966E+03  0.13361771243E+04  0.10021230583E+04 0.  0.
       24    2    3    3    0    0  0.11991433304E+03 -0.12127880062E+03  0.10612062068E+04  0.10777801274E+04  0.79770889134E+02 0.  0.
      -24    2    3    3    0    0 -0.11991433304E+03  0.12127880062E+03 -0.17739701717E+03  0.25839699698E+03  0.78811874747E+02 0.  0.
      -13    1    4    4    0    0  0.86496391467E+02 -0.12700252906E+03  0.83042653818E+03  0.84452324032E+03  0.00000000000E+00 0.  1.
       14    1    4    4    0    0  0.33417941576E+02  0.57237284438E+01  0.23077966866E+03  0.23325688704E+03  0.00000000000E+00 0. -1.
        3    1    5    5  501    0 -0.12580501209E+03  0.94572731747E+02 -0.16595436340E+03  0.22871762806E+03  0.00000000000E+00 0. -1.
       -4    1    5    5    0  501  0.58906790428E+01  0.26706068873E+02 -0.11442653771E+02  0.29679368921E+02  0.14200000000E+01 0.  1.
</event>
<event>
 9   1  0.7335000E-04  0.9899301E+03  0.7818608E-02  0.9319659E-01
       21   -1    0    0  503  502  0.00000000000E+00  0.00000000000E+00  0.48726556960E+03  0.48726556960E+03  0.00000000000E+00 0.  1.
       21   -1    0    0  502  503 -0.00000000000E+00 -0.00000000000E+00 -0.50278621867E+03  0.50278621867E+03  0.00000000000E+00 0. -1.
       39    2    1    2    0    0  0.00000000000E+00  0.28421709430E-13 -0.15520649068E+02  0.99005178827E+03  0.98993012527E+03 0.  0.
       24    2    3    3    0    0 -0.42367336499E+03  0.22021573541E+03  0.95960118647E+02  0.49327991796E+03  0.78247317945E+02 0.  0.
      -24    2    3    3    0    0  0.42367336499E+03 -0.22021573541E+03 -0.11148076772E+03  0.49677187032E+03  0.79751108104E+02 0.  0.
      -13    1    4    4    0    0 -0.26289284201E+03  0.15331119697E+03  0.96072350600E+02  0.31913455790E+03  0.00000000000E+00 0.  1.
       14    1    4    4    0    0 -0.16078052298E+03  0.66904538444E+02 -0.11223195298E+00  0.17414536006E+03  0.00000000000E+00 0. -1.
        3    1    5    5  501    0  0.26241817878E+03 -0.10394117089E+03 -0.92660052799E+02  0.29707398564E+03  0.00000000000E+00 0. -1.
       -4    1    5    5    0  501  0.16125518621E+03 -0.11627456452E+03 -0.18820714917E+02  0.19969788467E+03  0.14200000000E+01 0.  1.
</event>
<event>
 8   1  0.7335000E-04  0.1428328E+04  0.7818608E-02  0.8933565E-01
       -2   -1    0    0    0  501 -0.00000000000E+00  0.00000000000E+00  0.51468434004E+03  0.51468434004E+03  0.00000000000E+00 0. -1.
        2   -1    0    0  501    0  0.00000000000E+00 -0.00000000000E+00 -0.99095731681E+03  0.99095731681E+03  0.00000000000E+00 0.  1.
       24    2    1    2    0    0  0.55479936049E+03 -0.43886952878E+03 -0.17789308974E+03  0.73389839164E+03  0.80945068939E+02 0.  0.
      -24    2    1    2    0    0 -0.55479936049E+03  0.43886952878E+03 -0.29837988703E+03  0.77174326521E+03  0.78411202707E+02 0.  0.
      -13    1    3    3    0    0  0.34321346917E+03 -0.32036932227E+03 -0.11769494243E+03  0.48402901519E+03  0.00000000000E+00 0.  1.
       14    1    3    3    0    0  0.21158589133E+03 -0.11850020651E+03 -0.60198147311E+02  0.24986937645E+03  0.00000000000E+00 0. -1.
        1    1    4    4  502    0 -0.24563053604E+03  0.17883047841E+03 -0.16828932825E+03  0.34732693280E+03  0.00000000000E+00 0. -1.
       -2    1    4    4    0  502 -0.30916882445E+03  0.26003905037E+03 -0.13009055878E+03  0.42441633241E+03  0.00000000000E+00 0.  1.
</event>
<event>
 9   1  0.7335000E-04  0.1010834E+04  0.7818608E-02  0.9296741E-01
       21   -1    0    0  503  502  0.00000000000E+00  0.00000000000E+00  0.72645464197E+03  0.72645464197E+03  0.00000000000E+00 0. -1.
       21   -1    0    0  502  503 -0.00000000000E+00 -0.00000000000E+00 -0.35163429690E+03  0.35163429690E+03  0.00000000000E+00 0.  1.
       39    2    1    2    0    0  0.28421709430E-13 -0.56843418861E-13  0.37482034506E+03  0.10780889389E+04  0.10108340462E+04 0.  0.
       24    2    3    3    0    0  0.15065824030E+03  0.45291532581E+03  0.34241614092E+03  0.59311891537E+03  0.81920915999E+02 0.  0.
      -24    2    3    3    0    0 -0.15065824030E+03 -0.45291532581E+03  0.32404204142E+02  0.48497002350E+03  0.79471337767E+02 0.  0.
      -13    1    4    4    0    0  0.78727017830E+02  0.11888466180E+03  0.10316457361E+03  0.17599555505E+03  0.00000000000E+00 0.  1.
       14    1    4    4    0    0  0.71931222471E+02  0.33403066401E+03  0.23925156731E+03  0.41712336032E+03  0.00000000000E+00 0. -1.
        1    1    5    5  501    0 -0.59883943138E+02 -0.26792734682E+03  0.46418034711E+02  0.27843452330E+03  0.00000000000E+00 0. -1.
       -2    1    5    5    0  501 -0.90774297163E+02 -0.18498797899E+03 -0.14013830569E+02  0.20653550020E+03  0.00000000000E+00 0.  1.
</event>
<event>
 9   1  0.7335000E-04  0.1000295E+04  0.7818608E-02  0.9308221E-01
        2   -1    0    0  501    0  0.00000000000E+00  0.00000000000E+00  0.17199924601E+04  0.17199924601E+04  0.00000000000E+00 0. -1.
       -2   -1    0    0    0  501 -0.00000000000E+00 -0.00000000000E+00 -0.14543532053E+03  0.14543532053E+03  0.00000000000E+00 0.  1.
       39    2    1    2    0    0  0.56843418861E-13  0.00000000000E+00  0.15745571396E+04  0.18654277806E+04  0.10002952659E+04 0.  0.
       24    2    3    3    0    0 -0.34610914601E+03 -0.25614638242E+03  0.33736113331E+03  0.55297913208E+03  0.81060940451E+02 0.  0.
      -24    2    3    3    0    0  0.34610914601E+03  0.25614638242E+03  0.12371960063E+04  0.13124486486E+04  0.80405142968E+02 0.  0.
      -13    1    4    4    0    0 -0.25732136224E+03 -0.23098009034E+03  0.26197680201E+03  0.43381785393E+03  0.00000000000E+00 0.  1.
       14    1    4    4    0    0 -0.88787783767E+02 -0.25166292079E+02  0.75384331301E+02  0.11916127814E+03  0.00000000000E+00 0. -1.
        3    1    5    5  502    0  0.34264667734E+03  0.23250411141E+03  0.11678843922E+04  0.12391201963E+04  0.00000000000E+00 0. -1.
       -4    1    5    5    0  502  0.34624686650E+01  0.23642271013E+02  0.69311614033E+02  0.73328452239E+02  0.14200000000E+01 0.  1.
</event>
<event>
 9   1  0.7335000E-04  0.1000698E+04  0.7818608E-02  0.9307780E-01
       21   -1    0    0  503  502  0.00000000000E+00  0.00000000000E+00  0.13755696813E+04  0.13755696813E+04  0.00000000000E+00 0.  1.
       21   -1    0    0  502  503 -0.00000000000E+00 -0.00000000000E+00 -0.18199662518E+03  0.18199662518E+03  0.00000000000E+00 0. -1.
       39    2    1    2    0    0 -0.56843418861E-13  0.00000000000E+00  0.11935730562E+04  0.15575663065E+04  0.10006978359E+04 0.  0.
       24    2    3    3    0    0 -0.20220110024E+03  0.15509443456E+03  0.12550446152E+04  0.12832130992E+04  0.80989525629E+02 0.  0.
      -24    2    3    3    0    0  0.20220110024E+03 -0.15509443456E+03 -0.61471559062E+02  0.27435320729E+03  0.80940479404E+02 0.  0.
      -13    1    4    4    0    0 -0.16538801620E+03  0.10128017817E+03  0.10589748470E+04  0.10765865488E+04  0.00000000000E+00 0.  1.
       14    1    4    4    0    0 -0.36813084042E+02  0.53814256388E+02  0.19606976821E+03  0.20662655046E+03  0.00000000000E+00 0. -1.
        1    1    5    5  501    0  0.16267734417E+03 -0.15756312767E+03 -0.42434626265E+02  0.23041431165E+03  0.00000000000E+00 0. -1.
       -2    1    5    5    0  501  0.39523756069E+02  0.24686931093E+01 -0.19036932797E+02  0.43938895637E+02  0.00000000000E+00 0.  1.
</event>
<event>
 9   1  0.7335000E-04  0.1008019E+04  0.7818608E-02  0.9299793E-01
       21   -1    0    0  503  502  0.00000000000E+00  0.00000000000E+00  0.47283705695E+03  0.47283705695E+03  0.00000000000E+00 0. -1.
       21   -1    0    0  502  503 -0.00000000000E+00 -0.00000000000E+00 -0.53723683106E+03  0.53723683106E+03  0.00000000000E+00 0.  1.
       39    2    1    2    0    0 -0.11368683772E-12  0.17763568394E-14 -0.64399774109E+02  0.10100738880E+04  0.10080188135E+04 0.  0.
       24    2    3    3    0    0  0.48268419976E+03 -0.10898943021E+02  0.86643135715E+02  0.49654533122E+03  0.77119448466E+02 0.  0.
      -24    2    3    3    0    0 -0.48268419976E+03  0.10898943021E+02 -0.15104290982E+03  0.51352855679E+03  0.88288132704E+02 0.  0.
      -13    1    4    4    0    0  0.23593497986E+02  0.12468736314E+02  0.16933236712E+02  0.31604699619E+02  0.00000000000E+00 0.  1.
       14    1    4    4    0    0  0.45909070178E+03 -0.23367679335E+02  0.69709899002E+02  0.46494063160E+03  0.00000000000E+00 0. -1.
        3    1    5    5  501    0 -0.44062550146E+02  0.34667714766E+01 -0.43148362348E+02  0.61768179536E+02  0.00000000000E+00 0. -1.
       -4    1    5    5    0  501 -0.43862164962E+03  0.74321715444E+01 -0.10789454748E+03  0.45176037726E+03  0.14200000000E+01 0.  1.
</event>
<event>
 9   1  0.7335000E-04  0.9850962E+03  0.7818608E-02  0.9325044E-01
       21   -1    0    0  503  502  0.00000000000E+00  0.00000000000E+00  0.25281304026E+04  0.25281304026E+04  0.00000000000E+00 0. -1.
       21   -1    0    0  502  503 -0.00000000000E+00 -0.00000000000E+00 -0.95961680387E+02  0.95961680387E+02  0.00000000000E+00 0.  1.
       39    2    1    2    0    0  0.00000000000E+00 -0.11368683772E-12  0.24321687222E+04  0.26240920830E+04  0.98509622204E+03 0.  0.
       24    2    3    3    0    0 -0.46175366971E+02 -0.38305427205E+03  0.20005608620E+04  0.20390802990E+04  0.82109459647E+02 0.  0.
      -24    2    3    3    0    0  0.46175366971E+02  0.38305427205E+03  0.43160786023E+03  0.58501178400E+03  0.84206309476E+02 0.  0.
      -13    1    4    4    0    0  0.21376113444E+02 -0.15379682882E+03  0.75715774388E+03  0.77291542351E+03  0.00000000000E+00 0.  1.
       14    1    4    4    0    0 -0.67551480414E+02 -0.22925744323E+03  0.12434031181E+04  0.12661648755E+04  0.00000000000E+00 0. -1.
        3    1    5    5  501    0 -0.22910129561E+02  0.83011390565E+02  0.78574918890E+02  0.11657522412E+03  0.00000000000E+00 0. -1.
       -4    1    5    5    0  501  0.69085496532E+02  0.30004288149E+03  0.35303294134E+03  0.46843655988E+03  0.14200000000E+01 0.  1.
</event>
<event>
 9   1  0.7335000E-04  0.1003905E+04  0.7818608E-02  0.9304272E-01
       21   -1    0    0  503  502  0.00000000000E+00  0.00000000000E+00  0.16093675596E+04  0.16093675596E+04  0.00000000000E+00 0. -1.
       21   -1    0    0  502  503 -0.00000000000E+00 -0.00000000000E+00 -0.15655624455E+03  0.15655624455E+03  0.00000000000E+00 0.  1.
       39    2    1    2    0    0  0.00000000000E+00  0.00000000000E+00  0.14528113150E+04  0.17659238041E+04  0.10039054562E+04 0.  0.
       24    2    3    3    0    0  0.23572554455E+03  0.10899615027E+03  0.14691698791E+04  0.14940816932E+04  0.79832820275E+02 0.  0.
      -24    2    3    3    0    0 -0.23572554455E+03 -0.10899615027E+03 -0.16358564113E+02  0.27184211088E+03  0.78637379773E+02 0.  0.
      -13    1    4    4    0    0  0.81056489227E+02  0.69263821684E+02  0.44875314682E+03  0.46124507393E+03  0.00000000000E+00 0.  1.
       14    1    4    4    0    0  0.15466905533E+03  0.39732328581E+02  0.10204167323E+04  0.10328366193E+04  0.00000000000E+00 0. -1.
        1    1    5    5  501    0 -0.11530757368E+03 -0.71271149168E+02 -0.44272726113E+02  0.14260255092E+03  0.00000000000E+00 0. -1.
       -2    1    5    5    0  501 -0.12041797087E+03 -0.37725001097E+02  0.27914162000E+02  0.12923955995E+03  0.00000000000E+00 0.  1.
</event>
<event>
 9   1  0.7335000E-04  0.1001627E+04  0.7818608E-02  0.9306762E-01
       21   -1    0    0  503  502  0.00000000000E+00  0.00000000000E+00  0.59781755584E+03  0.59781755584E+03  0.00000000000E+00 0. -1.
       21   -1    0    0  502  503 -0.00000000000E+00 -0.00000000000E+00 -0.41955009157E+03  0.41955009157E+03  0.00000000000E+00 0.  1.
       39    2    1    2    0    0  0.28421709430E-13  0.56843418861E-13  0.17826746427E+03  0.10173676474E+04  0.10016274962E+04 0.  0.
       24    2    3    3    0    0  0.11437827767E+03  0.25970453767E+03 -0.32169272798E+03  0.43693960543E+03  0.83073282511E+02 0.  0.
      -24    2    3    3    0    0 -0.11437827767E+03 -0.25970453767E+03  0.49996019226E+03  0.58042804198E+03  0.80047990509E+02 0.  0.
      -13    1    4    4    0    0  0.10696853883E+03  0.18937504870E+03 -0.19631536661E+03  0.29299300424E+03  0.00000000000E+00 0.  1.
       14    1    4    4    0    0  0.74097388472E+01  0.70329488973E+02 -0.12537736137E+03  0.14394660119E+03  0.00000000000E+00 0. -1.
        1    1    5    5  501    0 -0.12415228573E+03 -0.21199478753E+03  0.40444735205E+03  0.47321584987E+03  0.00000000000E+00 0. -1.
       -2    1    5    5    0  501  0.97740080520E+01 -0.47709750141E+02  0.95512840213E+02  0.10721219211E+03  0.00000000000E+00 0.  1.
</event>
<event>
 9   1  0.7335000E-04  0.1006409E+04  0.7818608E-02  0.9301543E-01
       21   -1    0    0  503  502  0.00000000000E+00  0.00000000000E+00  0.11052931901E+04  0.11052931901E+04  0.00000000000E+00 0. -1.
       21   -1    0    0  502  503 -0.00000000000E+00 -0.00000000000E+00 -0.22909300177E+03  0.22909300177E+03  0.00000000000E+00 0.  1.
       39    2    1    2    0    0  0.00000000000E+00  0.00000000000E+00  0.87620018831E+03  0.13343861918E+04  0.10064093297E+04 0.  0.
       24    2    3    3    0    0 -0.34962311261E+03 -0.34986892150E+03  0.37591128815E+03  0.62632933487E+03  0.79589924378E+02 0.  0.
      -24    2    3    3    0    0  0.34962311261E+03  0.34986892150E+03  0.50028890016E+03  0.70805685698E+03  0.80068383217E+02 0.  0.
      -13    1    4    4    0    0 -0.78503683864E+02 -0.12810894111E+03  0.10058255565E+03  0.18080812945E+03  0.00000000000E+00 0.  1.
       14    1    4    4    0    0 -0.27111942874E+03 -0.22175998039E+03  0.27532873250E+03  0.44552120542E+03  0.00000000000E+00 0. -1.
        3    1    5    5  501    0  0.23388130776E+03  0.19893863924E+03  0.26569544512E+03  0.40604324629E+03  0.00000000000E+00 0. -1.
       -4    1    5    5    0  501  0.11574180485E+03  0.15093028226E+03  0.23459345504E+03  0.30201361068E+03  0.14200000000E+01 0.  1.
</event>
<event>
 9   1  0.7335000E-04  0.1008824E+04  0.7818608E-02  0.9298919E-01
       21   -1    0    0  503  502  0.00000000000E+00  0.00000000000E+00  0.84080705576E+03  0.84080705576E+03  0.00000000000E+00 0. -1.
       21   -1    0    0  502  503 -0.00000000000E+00 -0.00000000000E+00 -0.30260413020E+03  0.30260413020E+03  0.00000000000E+00 0.  1.
       39    2    1    2    0    0 -0.17763568394E-14 -0.56843418861E-13  0.53820292556E+03  0.11434111860E+04  0.10088244402E+04 0.  0.
       24    2    3    3    0    0  0.60670880970E-01 -0.26139168210E+03  0.75034041289E+03  0.79854136445E+03  0.79573616057E+02 0.  0.
      -24    2    3    3    0    0 -0.60670880970E-01  0.26139168210E+03 -0.21213748733E+03  0.34486982152E+03  0.74881674054E+02 0.  0.
      -13    1    4    4    0    0 -0.29244731999E+02 -0.82522598163E+02  0.18133134385E+03  0.20136109311E+03  0.00000000000E+00 0.  1.
       14    1    4    4    0    0  0.29305402880E+02 -0.17886908394E+03  0.56900906904E+03  0.59718027133E+03  0.00000000000E+00 0. -1.
        3    1    5    5  501    0 -0.10083725117E+02  0.16015933658E+02  0.20082933849E+01  0.19032206532E+02  0.00000000000E+00 0. -1.
       -4    1    5    5    0  501  0.10023054236E+02  0.24537574844E+03 -0.21414578072E+03  0.32583761498E+03  0.14200000000E+01 0.  1.
</event>
<event>
 9   1  0.7335000E-04  0.1003682E+04  0.7818608E-02  0.9304516E-01
       21   -1    0    0  503  502  0.00000000000E+00  0.00000000000E+00  0.13946109799E+03  0.13946109799E+03  0.00000000000E+00 0. -1.
       21   -1    0    0  502  503 -0.00000000000E+00 -0.00000000000E+00 -0.18058390632E+04  0.18058390632E+04  0.00000000000E+00 0.  1.
       39    2    1    2    0    0  0.00000000000E+00  0.56843418861E-13 -0.16663779652E+04  0.19453001612E+04  0.10036818192E+04 0.  0.
       24    2    3    3    0    0 -0.34750513287E+02  0.48672162188E+03 -0.66723444113E+03  0.83043617469E+03  0.79478962162E+02 0.  0.
      -24    2    3    3    0    0  0.34750513287E+02 -0.48672162188E+03 -0.99914352403E+03  0.11148639865E+04  0.80798461054E+02 0.  0.
      -13    1    4    4    0    0  0.18393742312E+02  0.71178854234E+02 -0.12778646679E+03  0.14742503228E+03  0.00000000000E+00 0.  1.
       14    1    4    4    0    0 -0.53144255599E+02  0.41554276765E+03 -0.53944797434E+03  0.68301114241E+03  0.00000000000E+00 0. -1.
        1    1    5    5  501    0  0.84868245261E+01 -0.17691564320E+02 -0.16240910104E+02  0.25471254379E+02  0.00000000000E+00 0. -1.
       -2    1    5    5    0  501  0.26263688761E+02 -0.46903005756E+03 -0.98290261393E+03  0.10893927321E+04  0.00000000000E+00 0.  1.
</event>
<event>
 9   1  0.7335000E-04  0.9784493E+03  0.7818608E-02  0.9332502E-01
       21   -1    0    0  503  502  0.00000000000E+00  0.00000000000E+00  0.13133197559E+04  0.13133197559E+04  0.00000000000E+00 0. -1.
       21   -1    0    0  502  503 -0.00000000000E+00 -0.00000000000E+00 -0.18224103994E+03  0.18224103994E+03  0.00000000000E+00 0.  1.
       39    2    1    2    0    0  0.56843418861E-13  0.35527136788E-14  0.11310787159E+04  0.14955607958E+04  0.97844929982E+03 0.  0.
       24    2    3    3    0    0 -0.47215641524E+03 -0.22650146940E+02  0.41627667460E+03  0.63492899255E+03  0.80024034822E+02 0.  0.
      -24    2    3    3    0    0  0.47215641524E+03  0.22650146940E+02  0.71480204133E+03  0.86063180326E+03  0.79375266224E+02 0.  0.
      -13    1    4    4    0    0 -0.31607048197E+03 -0.20358297343E+02  0.22746121943E+03  0.38994052904E+03  0.00000000000E+00 0.  1.
       14    1    4    4    0    0 -0.15608593327E+03 -0.22918495969E+01  0.18881545517E+03  0.24498846351E+03  0.00000000000E+00 0. -1.
        1    1    5    5  501    0  0.18331014505E+03 -0.24294089893E+02  0.31335742591E+03  0.36384844160E+03  0.00000000000E+00 0. -1.
       -2    1    5    5    0  501  0.28884627019E+03  0.46944236833E+02  0.40144461543E+03  0.49678336167E+03  0.00000000000E+00 0.  1.
</event>
<event>
 9   1  0.7335000E-04  0.1007299E+04  0.7818608E-02  0.9300575E-01
       21   -1    0    0  503  502  0.00000000000E+00  0.00000000000E+00  0.25948652719E+03  0.25948652719E+03  0.00000000000E+00 0.  1.
       21   -1    0    0  502  503 -0.00000000000E+00 -0.00000000000E+00 -0.97755706940E+03  0.97755706940E+03  0.00000000000E+00 0. -1.
       39    2    1    2    0    0  0.00000000000E+00  0.00000000000E+00 -0.71807054221E+03  0.12370435966E+04  0.10072991394E+04 0.  0.
       24    2    3    3    0    0 -0.38796377154E+03 -0.31112971737E+03 -0.34489792092E+03  0.61058799029E+03  0.80904443469E+02 0.  0.
      -24    2    3    3    0    0  0.38796377154E+03  0.31112971737E+03 -0.37317262130E+03  0.62645560631E+03  0.76623967084E+02 0.  0.
      -13    1    4    4    0    0 -0.34304713076E+03 -0.27892856125E+03 -0.33435497551E+03  0.55432456724E+03  0.00000000000E+00 0.  1.
       14    1    4    4    0    0 -0.44916640782E+02 -0.32201156120E+02 -0.10542945403E+02  0.56263423042E+02  0.00000000000E+00 0. -1.
        1    1    5    5  501    0  0.15582417441E+03  0.14374718287E+03 -0.11584295753E+03  0.24158645807E+03  0.00000000000E+00 0. -1.
       -2    1    5    5    0  501  0.23213959713E+03  0.16738253450E+03 -0.25732966377E+03  0.38486914824E+03  0.00000000000E+00 0.  1.
</event>
<event>
 9   1  0.7335000E-04  0.9998479E+03  0.7818608E-02  0.9308712E-01
       21   -1    0    0  503  502  0.00000000000E+00  0.00000000000E+00  0.83071196985E+03  0.83071196985E+03  0.00000000000E+00 0.  1.
       21   -1    0    0  502  503 -0.00000000000E+00 -0.00000000000E+00 -0.30085514969E+03  0.30085514969E+03  0.00000000000E+00 0. -1.
       39    2    1    2    0    0  0.00000000000E+00  0.00000000000E+00  0.52985682016E+03  0.11315671195E+04  0.99984793651E+03 0.  0.
       24    2    3    3    0    0 -0.25978793716E+01 -0.28736175547E+03 -0.19007405836E+03  0.35215572272E+03  0.72814681877E+02 0.  0.
      -24    2    3    3    0    0  0.25978793716E+01  0.28736175547E+03  0.71993087852E+03  0.77941139682E+03  0.81228862825E+02 0.  0.
      -13    1    4    4    0    0  0.18665010950E+02 -0.12055589011E+03 -0.44866619730E+02  0.12998122495E+03  0.00000000000E+00 0.  1.
       14    1    4    4    0    0 -0.21262890322E+02 -0.16680586536E+03 -0.14520743863E+03  0.22217449776E+03  0.00000000000E+00 0. -1.
        3    1    5    5  501    0  0.25011443395E+02  0.59682510469E+02  0.22573569262E+03  0.23482797380E+03  0.00000000000E+00 0. -1.
       -4    1    5    5    0  501 -0.22413564023E+02  0.22767924500E+03  0.49419518590E+03  0.54458342302E+03  0.14200000000E+01 0.  1.
</event>
<event>
 9   1  0.7335000E-04  0.9925646E+03  0.7818608E-02  0.9316738E-01
       21   -1    0    0  503  502  0.00000000000E+00  0.00000000000E+00  0.98544763225E+02  0.98544763225E+02  0.00000000000E+00 0.  1.
       21   -1    0    0  502  503 -0.00000000000E+00 -0.00000000000E+00 -0.24993321764E+04  0.24993321764E+04  0.00000000000E+00 0. -1.
       39    2    1    2    0    0  0.00000000000E+00  0.00000000000E+00 -0.24007874131E+04  0.25978769396E+04  0.99256455214E+03 0.  0.
       24    2    3    3    0    0  0.52792196145E+02 -0.45471082207E+03 -0.74479053988E+03  0.87792694941E+03  0.80584319297E+02 0.  0.
      -24    2    3    3    0    0 -0.52792196145E+02  0.45471082207E+03 -0.16559968733E+04  0.17199499902E+04  0.79708072346E+02 0.  0.
      -13    1    4    4    0    0 -0.93210742896E+01 -0.11733225161E+03 -0.14283178858E+03  0.18508014351E+03  0.00000000000E+00 0.  1.
       14    1    4    4    0    0  0.62113270434E+02 -0.33737857047E+03 -0.60195875131E+03  0.69284680590E+03  0.00000000000E+00 0. -1.
        3    1    5    5  501    0 -0.48958209430E+02  0.14475673399E+03 -0.62139027968E+03  0.63990413187E+03  0.00000000000E+00 0. -1.
       -4    1    5    5    0  501 -0.38339867142E+01  0.30995408809E+03 -0.10346065936E+04  0.10800458583E+04  0.14200000000E+01 0.  1.
</event>
<event>
 9   1  0.7335000E-04  0.9538666E+03  0.7818608E-02  0.9360643E-01
       21   -1    0    0  503  502  0.00000000000E+00  0.00000000000E+00  0.21623110372E+04  0.21623110372E+04  0.00000000000E+00 0.  1.
       21   -1    0    0  502  503 -0.00000000000E+00 -0.00000000000E+00 -0.10519548764E+03  0.10519548764E+03  0.00000000000E+00 0. -1.
       39    2    1    2    0    0  0.56843418861E-13  0.14210854715E-13  0.20571155496E+04  0.22675065248E+04  0.95386658184E+03 0.  0.
       24    2    3    3    0    0 -0.39441141010E+03  0.93413491968E+02  0.46242661049E+03  0.62013379735E+03  0.80256561263E+02 0.  0.
      -24    2    3    3    0    0  0.39441141010E+03 -0.93413491968E+02  0.15946889391E+04  0.16473727275E+04  0.80731963751E+02 0.  0.
      -13    1    4    4    0    0 -0.93348539270E+02  0.24359965860E+02  0.16616262214E+03  0.19213894638E+03  0.00000000000E+00 0.  1.
       14    1    4    4    0    0 -0.30106287083E+03  0.69053526108E+02  0.29626398835E+03  0.42799485097E+03  0.00000000000E+00 0. -1.
        3    1    5    5  501    0  0.90986491307E+02  0.51148026214E+01  0.27659227976E+03  0.29121811761E+03  0.00000000000E+00 0. -1.
       -4    1    5    5    0  501  0.30342491880E+03 -0.98528294589E+02  0.13180966593E+04  0.13561546099E+04  0.14200000000E+01 0.  1.
</event>
<event>
 9   1  0.7335000E-04  0.1005794E+04  0.7818608E-02  0.9302212E-01
        2   -1    0    0  501    0  0.00000000000E+00  0.00000000000E+00  0.26509989427E+04  0.26509989427E+04  0.00000000000E+00 0.  1.
       -2   -1    0    0    0  501 -0.00000000000E+00 -0.00000000000E+00 -0.95400098865E+02  0.95400098865E+02  0.00000000000E+00 0. -1.
       39    2    1    2    0    0  0.00000000000E+00  0.00000000000E+00  0.25555988438E+04  0.27463990416E+04  0.10057943353E+04 0.  0.
       24    2    3    3    0    0 -0.12949994640E+03  0.47770227901E+03  0.11695658173E+04  0.12725335591E+04  0.80546599593E+02 0.  0.
      -24    2    3    3    0    0  0.12949994640E+03 -0.47770227901E+03  0.13860330266E+04  0.14738654824E+04  0.78880961512E+02 0.  0.
      -13    1    4    4    0    0 -0.71952154918E+02  0.36750928659E+03  0.81832690400E+03  0.89994394833E+03  0.00000000000E+00 0.  1.
       14    1    4    4    0    0 -0.57547791481E+02  0.11019299242E+03  0.35123891327E+03  0.37258961080E+03  0.00000000000E+00 0. -1.
        3    1    5    5  502    0  0.12922851785E+03 -0.43730110391E+03  0.12054891212E+04  0.12888507620E+04  0.00000000000E+00 0. -1.
       -4    1    5    5    0  502  0.27142854826E+00 -0.40401175093E+02  0.18054390531E+03  0.18501472040E+03  0.14200000000E+01 0.  1.
</event>
<event>
 9   1  0.7335000E-04  0.9911470E+03  0.7818608E-02  0.9318308E-01
        1   -1    0    0  501    0  0.00000000000E+00  0.00000000000E+00  0.22632942642E+04  0.22632942642E+04  0.00000000000E+00 0.  1.
       -1   -1    0    0    0  501 -0.00000000000E+00 -0.00000000000E+00 -0.10851134736E+03  0.10851134736E+03  0.00000000000E+00 0. -1.
       39    2    1    2    0    0 -0.56843418861E-13 -0.28421709430E-13  0.21547829168E+04  0.23718056115E+04  0.99114703265E+03 0.  0.
       24    2    3    3    0    0 -0.41417356707E+03 -0.25588575327E+03  0.97266202505E+03  0.10908712130E+04  0.83134384669E+02 0.  0.
      -24    2    3    3    0    0  0.41417356707E+03  0.25588575327E+03  0.11821208918E+04  0.12809343986E+04  0.79786391852E+02 0.  0.
      -13    1    4    4    0    0 -0.12308061436E+03 -0.38044057812E+02  0.21867485786E+03  0.25380086963E+03  0.00000000000E+00 0.  1.
       14    1    4    4    0    0 -0.29109295270E+03 -0.21784169546E+03  0.75398716719E+03  0.83707034333E+03  0.00000000000E+00 0. -1.
        1    1    5    5  502    0  0.29071671029E+03  0.20334525772E+03  0.77674150151E+03  0.85392790073E+03  0.00000000000E+00 0. -1.
       -2    1    5    5    0  502  0.12345685677E+03  0.52540495550E+02  0.40537939026E+03  0.42700649785E+03  0.00000000000E+00 0.  1.
</event>
<event>
 9   1  0.7335000E-04  0.1003018E+04  0.7818608E-02  0.9305241E-01
       21   -1    0    0  503  502  0.00000000000E+00  0.00000000000E+00  0.55641660083E+03  0.55641660083E+03  0.00000000000E+00 0. -1.
       21   -1    0    0  502  503 -0.00000000000E+00 -0.00000000000E+00 -0.45201941564E+03  0.45201941564E+03  0.00000000000E+00 0.  1.
       39    2    1    2    0    0 -0.71054273576E-14  0.00000000000E+00  0.10439718519E+03  0.10084360165E+04  0.10030176604E+04 0.  0.
       24    2    3    3    0    0  0.27260926121E+02 -0.28850308138E+03 -0.35253433067E+03  0.46139133700E+03  0.68002393381E+02 0.  0.
      -24    2    3    3    0    0 -0.27260926121E+02  0.28850308138E+03  0.45693151586E+03  0.54704467946E+03  0.80587127296E+02 0.  0.
      -13    1    4    4    0    0 -0.12808682920E+02 -0.14238936041E+03 -0.20491795070E+03  0.24986027863E+03  0.00000000000E+00 0.  1.
       14    1    4    4    0    0  0.40069609041E+02 -0.14611372097E+03 -0.14761637997E+03  0.21153105838E+03  0.00000000000E+00 0. -1.
        3    1    5    5  501    0 -0.45355984597E+02  0.13042101284E+03  0.17069553706E+03  0.21955357502E+03  0.00000000000E+00 0. -1.
       -4    1    5    5    0  501  0.18095058476E+02  0.15808206853E+03  0.28623597880E+03  0.32749110445E+03  0.14200000000E+01 0.  1.
</event>
<event>
 9   1  0.7335000E-04  0.9972156E+03  0.7818608E-02  0.9311604E-01
       21   -1    0    0  503  502  0.00000000000E+00  0.00000000000E+00  0.50368505330E+03  0.50368505330E+03  0.00000000000E+00 0. -1.
       21   -1    0    0  502  503 -0.00000000000E+00 -0.00000000000E+00 -0.49358173427E+03  0.49358173427E+03  0.00000000000E+00 0.  1.
       39    2    1    2    0    0  0.00000000000E+00  0.00000000000E+00  0.10103319022E+02  0.99726678757E+03  0.99721560785E+03 0.  0.
       24    2    3    3    0    0 -0.47004263930E+03 -0.13876454198E+03  0.51683208676E+02  0.49906097394E+03  0.78708454295E+02 0.  0.
      -24    2    3    3    0    0  0.47004263930E+03  0.13876454198E+03 -0.41579889654E+02  0.49820581363E+03  0.79274615391E+02 0.  0.
      -13    1    4    4    0    0 -0.29602841380E+03 -0.83495147576E+02 -0.58392122382E+01  0.30763347972E+03  0.00000000000E+00 0.  1.
       14    1    4    4    0    0 -0.17401422550E+03 -0.55269394407E+02  0.57522420914E+02  0.19142749421E+03  0.00000000000E+00 0. -1.
        1    1    5    5  501    0  0.18115514568E+03  0.28913986121E+02  0.14773879768E+02  0.18404204119E+03  0.00000000000E+00 0. -1.
       -2    1    5    5    0  501  0.28888749362E+03  0.10985055586E+03 -0.56353769422E+02  0.31416377245E+03  0.00000000000E+00 0.  1.
</event>
<event>
 9   1  0.7335000E-04  0.9998150E+03  0.7818608E-02  0.9308748E-01
       21   -1    0    0  503  502  0.00000000000E+00  0.00000000000E+00  0.41606201975E+03  0.41606201975E+03  0.00000000000E+00 0.  1.
       21   -1    0    0  502  503 -0.00000000000E+00 -0.00000000000E+00 -0.60064963963E+03  0.60064963963E+03  0.00000000000E+00 0. -1.
       39    2    1    2    0    0  0.00000000000E+00  0.00000000000E+00 -0.18458761988E+03  0.10167116594E+04  0.99981498734E+03 0.  0.
       24    2    3    3    0    0 -0.22116656217E+03  0.34719465629E+03  0.18348947227E+03  0.45880055329E+03  0.85853268350E+02 0.  0.
      -24    2    3    3    0    0  0.22116656217E+03 -0.34719465629E+03 -0.36807709215E+03  0.55791110609E+03  0.79531622361E+02 0.  0.
      -13    1    4    4    0    0 -0.73591153438E+02  0.51117871182E+02  0.35220972266E+02  0.96276744367E+02  0.00000000000E+00 0.  1.
       14    1    4    4    0    0 -0.14757540873E+03  0.29607678511E+03  0.14826850000E+03  0.36252380892E+03  0.00000000000E+00 0. -1.
        1    1    5    5  501    0  0.17388666989E+03 -0.31399592501E+03 -0.33686177743E+03  0.49224574349E+03  0.00000000000E+00 0. -1.
       -2    1    5    5    0  501  0.47279892282E+02 -0.33198731280E+02 -0.31215314718E+02  0.65665362602E+02  0.00000000000E+00 0.  1.
</event>
<event>
 9   1  0.7335000E-04  0.1000125E+04  0.7818608E-02  0.9308408E-01
       21   -1    0    0  503  502  0.00000000000E+00  0.00000000000E+00  0.63824876861E+03  0.63824876861E+03  0.00000000000E+00 0.  1.
       21   -1    0    0  502  503 -0.00000000000E+00 -0.00000000000E+00 -0.39179480260E+03  0.39179480260E+03  0.00000000000E+00 0. -1.
       39    2    1    2    0    0  0.00000000000E+00  0.00000000000E+00  0.24645396601E+03  0.10300435712E+04  0.10001250928E+04 0.  0.
       24    2    3    3    0    0 -0.75565535912E+02  0.41989397531E+03  0.37871990333E+03  0.57608545667E+03  0.80153524471E+02 0.  0.
      -24    2    3    3    0    0  0.75565535912E+02 -0.41989397531E+03 -0.13226593732E+03  0.45395811455E+03  0.81009819558E+02 0.  0.
      -13    1    4    4    0    0 -0.55097421863E+02  0.25360024283E+03  0.17834132274E+03  0.31488797445E+03  0.00000000000E+00 0.  1.
       14    1    4    4    0    0 -0.20468114048E+02  0.16629373248E+03  0.20037858059E+03  0.26119748221E+03  0.00000000000E+00 0. -1.
        1    1    5    5  501    0  0.82763181478E+02 -0.23785999286E+03 -0.84162916891E+02  0.26553816485E+03  0.00000000000E+00 0. -1.
       -2    1    5    5    0  501 -0.71976455665E+01 -0.18203398245E+03 -0.48103020429E+02  0.18841994969E+03  0.00000000000E+00 0.  1.
</event>
<event>
 9   1  0.7335000E-04  0.1009300E+04  0.7818608E-02  0.9298403E-01
       21   -1    0    0  503  502  0.00000000000E+00  0.00000000000E+00  0.14067087608E+04  0.14067087608E+04  0.00000000000E+00 0.  1.
       21   -1    0    0  502  503 -0.00000000000E+00 -0.00000000000E+00 -0.18104073870E+03  0.18104073870E+03  0.00000000000E+00 0. -1.
       39    2    1    2    0    0  0.56843418861E-13  0.14210854715E-13  0.12256680221E+04  0.15877494995E+04  0.10092999419E+04 0.  0.
       24    2    3    3    0    0 -0.42360378984E+03 -0.11790076106E+03  0.98140114247E+03  0.10783247471E+04  0.79342911188E+02 0.  0.
      -24    2    3    3    0    0  0.42360378984E+03  0.11790076106E+03  0.24426687961E+03  0.50942475238E+03  0.80662938440E+02 0.  0.
      -13    1    4    4    0    0 -0.35422273933E+03 -0.67180821685E+02  0.80829832443E+03  0.88506112395E+03  0.00000000000E+00 0.  1.
       14    1    4    4    0    0 -0.69381050511E+02 -0.50719939377E+02  0.17310281804E+03  0.19326362316E+03  0.00000000000E+00 0. -1.
        1    1    5    5  501    0  0.19437026955E+03  0.84111595746E+02  0.14870885974E+03  0.25878347550E+03  0.00000000000E+00 0. -1.
       -2    1    5    5    0  501  0.22923352029E+03  0.33789165316E+02  0.95558019868E+02  0.25064127688E+03  0.00000000000E+00 0.  1.
</event>
<event>
 9   1  0.7335000E-04  0.1060318E+04  0.7818608E-02  0.9244756E-01
       21   -1    0    0  503  502  0.00000000000E+00  0.00000000000E+00  0.57262267595E+03  0.57262267595E+03  0.00000000000E+00 0. -1.
       21   -1    0    0  502  503 -0.00000000000E+00 -0.00000000000E+00 -0.49084436245E+03  0.49084436245E+03  0.00000000000E+00 0.  1.
       39    2    1    2    0    0  0.00000000000E+00  0.00000000000E+00  0.81778313498E+02  0.10634670384E+04  0.10603180887E+04 0.  0.
       24    2    3    3    0    0  0.19234984979E+03  0.73297880728E+02 -0.44235233051E+03  0.49467620196E+03  0.81596056525E+02 0.  0.
      -24    2    3    3    0    0 -0.19234984979E+03 -0.73297880728E+02  0.52413064401E+03  0.56879083644E+03  0.80243626530E+02 0.  0.
      -13    1    4    4    0    0  0.17863313907E+03  0.55382343920E+02 -0.43009658891E+03  0.46899901725E+03  0.00000000000E+00 0.  1.
       14    1    4    4    0    0  0.13716710724E+02  0.17915536808E+02 -0.12255741600E+02  0.25677184705E+02  0.00000000000E+00 0. -1.
        1    1    5    5  501    0 -0.14397128312E+03 -0.49788352854E+02  0.46273734647E+03  0.48716779682E+03  0.00000000000E+00 0. -1.
       -2    1    5    5    0  501 -0.48378566672E+02 -0.23509527874E+02  0.61393297535E+02  0.81623039617E+02  0.00000000000E+00 0.  1.
</event>
<event>
 9   1  0.7335000E-04  0.9878496E+03  0.7818608E-02  0.9321972E-01
       21   -1    0    0  503  502  0.00000000000E+00  0.00000000000E+00  0.23386025222E+03  0.23386025222E+03  0.00000000000E+00 0.  1.
       21   -1    0    0  502  503 -0.00000000000E+00 -0.00000000000E+00 -0.10431943909E+04  0.10431943909E+04  0.00000000000E+00 0. -1.
       39    2    1    2    0    0  0.71054273576E-14  0.56843418861E-13 -0.80933413872E+03  0.12770546432E+04  0.98784959053E+03 0.  0.
       24    2    3    3    0    0 -0.47291759789E+02 -0.47327009512E+03 -0.54226476588E+03  0.72568501924E+03  0.79665408800E+02 0.  0.
      -24    2    3    3    0    0  0.47291759789E+02  0.47327009512E+03 -0.26706937284E+03  0.55136962391E+03  0.80382328785E+02 0.  0.
      -13    1    4    4    0    0  0.21917720921E+01 -0.18305737557E+01  0.23279204193E+01  0.36843016512E+01  0.00000000000E+00 0.  1.
       14    1    4    4    0    0 -0.49483531881E+02 -0.47143952137E+03 -0.54459268630E+03  0.72200071759E+03  0.00000000000E+00 0. -1.
        3    1    5    5  501    0  0.22984410009E+02  0.34981948538E+03 -0.23323672577E+03  0.42107163963E+03  0.00000000000E+00 0. -1.
       -4    1    5    5    0  501  0.24307349780E+02  0.12345060975E+03 -0.33832647071E+02  0.13029798428E+03  0.14200000000E+01 0.  1.
</event>
<event>
 9   1  0.7335000E-04  0.9093578E+03  0.7818608E-02  0.9413959E-01
       21   -1    0    0  503  502  0.00000000000E+00  0.00000000000E+00  0.67478060082E+03  0.67478060082E+03  0.00000000000E+00 0.  1.
       21   -1    0    0  502  503 -0.00000000000E+00 -0.00000000000E+00 -0.30637057687E+03  0.30637057687E+03  0.00000000000E+00 0. -1.
       39    2    1    2    0    0  0.00000000000E+00  0.00000000000E+00  0.36841002396E+03  0.98115117769E+03  0.90935784361E+03 0.  0.
       24    2    3    3    0    0 -0.40376486011E+03  0.37642612488E+00  0.39241626736E+03  0.56879106134E+03  0.80663130474E+02 0.  0.
      -24    2    3    3    0    0  0.40376486011E+03 -0.37642612488E+00 -0.24006243398E+02  0.41236011635E+03  0.80239403494E+02 0.  0.
      -13    1    4    4    0    0 -0.24323051161E+03 -0.31655951293E+02  0.26706193235E+03  0.36260895844E+03  0.00000000000E+00 0.  1.
       14    1    4    4    0    0 -0.16053434850E+03  0.32032377418E+02  0.12535433501E+03  0.20618210290E+03  0.00000000000E+00 0. -1.
        1    1    5    5  501    0  0.34134067971E+03 -0.97383361890E+01 -0.47989494006E+02  0.34483515823E+03  0.00000000000E+00 0. -1.
       -2    1    5    5    0  501  0.62424180404E+02  0.93619100641E+01  0.23983250607E+02  0.67524958118E+02  0.00000000000E+00 0.  1.
</event>
<event>
 9   1  0.7335000E-04  0.1000246E+04  0.7818608E-02  0.9308275E-01
       21   -1    0    0  503  502  0.00000000000E+00  0.00000000000E+00  0.41468075155E+03  0.41468075155E+03  0.00000000000E+00 0.  1.
       21   -1    0    0  502  503 -0.00000000000E+00 -0.00000000000E+00 -0.60317041910E+03  0.60317041910E+03  0.00000000000E+00 0. -1.
       39    2    1    2    0    0 -0.14210854715E-13  0.00000000000E+00 -0.18848966755E+03  0.10178511706E+04  0.10002462951E+04 0.  0.
       24    2    3    3    0    0  0.10168288583E+03  0.65432919207E+02  0.39274506977E+03  0.41884215699E+03  0.80988804538E+02 0.  0.
      -24    2    3    3    0    0 -0.10168288583E+03 -0.65432919207E+02 -0.58123473732E+03  0.59900901365E+03  0.79731439073E+02 0.  0.
      -13    1    4    4    0    0  0.10438204752E+03  0.73634507963E+02  0.30495488332E+03  0.33062839181E+03  0.00000000000E+00 0.  1.
       14    1    4    4    0    0 -0.26991616889E+01 -0.82015887552E+01  0.87790186445E+02  0.88213765184E+02  0.00000000000E+00 0. -1.
        3    1    5    5  501    0 -0.10357160499E+03 -0.66638914592E+02 -0.58297122445E+03  0.59583829252E+03  0.00000000000E+00 0. -1.
       -4    1    5    5    0  501  0.18887191542E+01  0.12059953844E+01  0.17364871301E+01  0.31707211268E+01  0.14200000000E+01 0.  1.
</event>
<event>
 9   1  0.7335000E-04  0.9937469E+03  0.7818608E-02  0.9315430E-01
        2   -1    0    0  501    0  0.00000000000E+00  0.00000000000E+00  0.89144970241E+03  0.89144970241E+03  0.00000000000E+00 0.  1.
       -2   -1    0    0    0  501 -0.00000000000E+00 -0.00000000000E+00 -0.27694577515E+03  0.27694577515E+03  0.00000000000E+00 0. -1.
       39    2    1    2    0    0 -0.28421709430E-13 -0.56843418861E-13  0.61450392725E+03  0.11683954776E+04  0.99374690710E+03 0.  0.
       24    2    3    3    0    0  0.16856131177E+03  0.45324652392E+03  0.21190066517E+03  0.53393112598E+03  0.79594146281E+02 0.  0.
      -24    2    3    3    0    0 -0.16856131177E+03 -0.45324652392E+03  0.40260326208E+03  0.63446435158E+03  0.81303748421E+02 0.  0.
      -13    1    4    4    0    0  0.14153581575E+03  0.34159700033E+03  0.19435303087E+03  0.41772478785E+03  0.00000000000E+00 0.  1.
       14    1    4    4    0    0  0.27025496022E+02  0.11164952359E+03  0.17547634298E+02  0.11620633813E+03  0.00000000000E+00 0. -1.
        1    1    5    5  502    0 -0.15255073543E+02 -0.14576872516E+03  0.12917413327E+03  0.19536426288E+03  0.00000000000E+00 0. -1.
       -2    1    5    5    0  502 -0.15330623823E+03 -0.30747779876E+03  0.27342912881E+03  0.43910008869E+03  0.00000000000E+00 0.  1.
</event>
<event>
 9   1  0.7335000E-04  0.9467744E+03  0.7818608E-02  0.9368929E-01
       21   -1    0    0  503  502  0.00000000000E+00  0.00000000000E+00  0.53371295253E+03  0.53371295253E+03  0.00000000000E+00 0.  1.
       21   -1    0    0  502  503 -0.00000000000E+00 -0.00000000000E+00 -0.41988010205E+03  0.41988010205E+03  0.00000000000E+00 0. -1.
       39    2    1    2    0    0  0.00000000000E+00  0.00000000000E+00  0.11383285048E+03  0.95359305459E+03  0.94677441659E+03 0.  0.
       24    2    3    3    0    0  0.17933709695E+03 -0.40208637570E+02  0.48890611475E+03  0.52857901441E+03  0.81166843939E+02 0.  0.
      -24    2    3    3    0    0 -0.17933709695E+03  0.40208637570E+02 -0.37507326427E+03  0.42501404017E+03  0.78603129035E+02 0.  0.
      -13    1    4    4    0    0  0.79977161360E+02 -0.16838284776E+02  0.32799600269E+03  0.33802551968E+03  0.00000000000E+00 0.  1.
       14    1    4    4    0    0  0.99359935595E+02 -0.23370352793E+02  0.16091011206E+03  0.19055349473E+03  0.00000000000E+00 0. -1.
        1    1    5    5  501    0 -0.76137190104E+02  0.25936731132E+02 -0.24786041755E+03  0.26058467400E+03  0.00000000000E+00 0. -1.
       -2    1    5    5    0  501 -0.10319990685E+03  0.14271906438E+02 -0.12721284672E+03  0.16442936617E+03  0.00000000000E+00 0.  1.
</event>
<event>
 9   1  0.7335000E-04  0.9795485E+03  0.7818608E-02  0.9331265E-01
       21   -1    0    0  503  502  0.00000000000E+00  0.00000000000E+00  0.25069077709E+03  0.25069077709E+03  0.00000000000E+00 0. -1.
       21   -1    0    0  502  503 -0.00000000000E+00 -0.00000000000E+00 -0.95687123399E+03  0.95687123399E+03  0.00000000000E+00 0.  1.
       39    2    1    2    0    0  0.35527136788E-14 -0.56843418861E-13 -0.70618045690E+03  0.12075620111E+04  0.97954845358E+03 0.  0.
       24    2    3    3    0    0 -0.21208884966E+02  0.33368010023E+03 -0.78330213085E+03  0.85530855294E+03  0.78729069957E+02 0.  0.
      -24    2    3    3    0    0  0.21208884966E+02 -0.33368010023E+03  0.77121673948E+02  0.35225345814E+03  0.79639940279E+02 0.  0.
      -13    1    4    4    0    0 -0.32682084213E+02  0.30702720804E+03 -0.66020797674E+03  0.72884044732E+03  0.00000000000E+00 0.  1.
       14    1    4    4    0    0  0.11473199247E+02  0.26652892187E+02 -0.12309415411E+03  0.12646810562E+03  0.00000000000E+00 0. -1.
        3    1    5    5  501    0  0.41080249921E+02 -0.27977007226E+03  0.44745603685E+02  0.28628840234E+03  0.00000000000E+00 0. -1.
       -4    1    5    5    0  501 -0.19871364956E+02 -0.53910027976E+02  0.32376070262E+02  0.65965055804E+02  0.14200000000E+01 0.  1.
</event>
<event>
 9   1  0.7335000E-04  0.1001490E+04  0.7818608E-02  0.9306912E-01
       21   -1    0    0  503  502  0.00000000000E+00  0.00000000000E+00  0.56075974241E+03  0.56075974241E+03  0.00000000000E+00 0.  1.
       21   -1    0    0  502  503 -0.00000000000E+00 -0.00000000000E+00 -0.44715319334E+03  0.44715319334E+03  0.00000000000E+00 0. -1.
       39    2    1    2    0    0  0.00000000000E+00  0.56843418861E-13  0.11360654907E+03  0.10079129358E+04  0.10014899091E+04 0.  0.
       24    2    3    3    0    0 -0.40531767695E+02  0.28984352634E+03 -0.34481010368E+03  0.45825798478E+03  0.73853091046E+02 0.  0.
      -24    2    3    3    0    0  0.40531767695E+02 -0.28984352634E+03  0.45841665275E+03  0.54965495098E+03  0.79515053047E+02 0.  0.
      -13    1    4    4    0    0 -0.37149754595E+02  0.16810311734E+03 -0.14910203921E+03  0.22775025889E+03  0.00000000000E+00 0.  1.
       14    1    4    4    0    0 -0.33820130999E+01  0.12174040899E+03 -0.19570806447E+03  0.23050772588E+03  0.00000000000E+00 0. -1.
        1    1    5    5  501    0  0.25423451988E+02 -0.20446456933E+02  0.63073737666E+02  0.71012012331E+02  0.00000000000E+00 0. -1.
       -2    1    5    5    0  501  0.15108315706E+02 -0.26939706940E+03  0.39534291509E+03  0.47864293865E+03  0.00000000000E+00 0.  1.
</event>
<event>
 9   1  0.7335000E-04  0.1005733E+04  0.7818608E-02  0.9302280E-01
       21   -1    0    0  503  502  0.00000000000E+00  0.00000000000E+00  0.74169492855E+03  0.74169492855E+03  0.00000000000E+00 0.  1.
       21   -1    0    0  502  503 -0.00000000000E+00 -0.00000000000E+00 -0.34094141230E+03  0.34094141230E+03  0.00000000000E+00 0. -1.
       39    2    1    2    0    0 -0.56843418861E-13 -0.28421709430E-13  0.40075351625E+03  0.10826363408E+04  0.10057326015E+04 0.  0.
       24    2    3    3    0    0 -0.23398246724E+03 -0.22897983104E+03 -0.20161482160E+03  0.39239443361E+03  0.78391946284E+02 0.  0.
      -24    2    3    3    0    0  0.23398246724E+03  0.22897983104E+03  0.60236833785E+03  0.69024190723E+03  0.80041976843E+02 0.  0.
      -13    1    4    4    0    0 -0.50474645831E+02 -0.98092079142E+02 -0.52834596396E+02  0.12231614954E+03  0.00000000000E+00 0.  1.
       14    1    4    4    0    0 -0.18350782141E+03 -0.13088775190E+03 -0.14878022521E+03  0.27007828407E+03  0.00000000000E+00 0. -1.
        3    1    5    5  501    0  0.40754158543E+02  0.17464080628E+02  0.13456968160E+03  0.14168590176E+03  0.00000000000E+00 0. -1.
       -4    1    5    5    0  501  0.19322830869E+03  0.21151575041E+03  0.46779865625E+03  0.54855600548E+03  0.14200000000E+01 0.  1.
</event>
<event>
 9   1  0.7335000E-04  0.1003460E+04  0.7818608E-02  0.9304758E-01
       21   -1    0    0  503  502  0.00000000000E+00  0.00000000000E+00  0.41114992202E+03  0.41114992202E+03  0.00000000000E+00 0.  1.
       21   -1    0    0  502  503 -0.00000000000E+00 -0.00000000000E+00 -0.61226539239E+03  0.61226539239E+03  0.00000000000E+00 0. -1.
       39    2    1    2    0    0 -0.71054273576E-14  0.00000000000E+00 -0.20111547038E+03  0.10234153144E+04  0.10034597517E+04 0.  0.
       24    2    3    3    0    0  0.55577457439E+02 -0.21799903306E+03 -0.55037435461E+03  0.60018138822E+03  0.81812812938E+02 0.  0.
      -24    2    3    3    0    0 -0.55577457439E+02  0.21799903306E+03  0.34925888424E+03  0.42323392619E+03  0.80825465453E+02 0.  0.
      -13    1    4    4    0    0  0.13818505568E+02 -0.64754160114E+02 -0.80753487093E+02  0.10442786039E+03  0.00000000000E+00 0.  1.
       14    1    4    4    0    0  0.41758951871E+02 -0.15324487295E+03 -0.46962086752E+03  0.49575352783E+03  0.00000000000E+00 0. -1.
        1    1    5    5  501    0  0.50408617006E+01  0.96196101219E+02  0.97472611550E+02  0.13704017724E+03  0.00000000000E+00 0. -1.
       -2    1    5    5    0  501 -0.60618319139E+02  0.12180293184E+03  0.25178627269E+03  0.28619374894E+03  0.00000000000E+00 0.  1.
</event>
<event>
 9   1  0.7335000E-04  0.1052959E+04  0.7818608E-02  0.9252294E-01
       21   -1    0    0  503  502  0.00000000000E+00  0.00000000000E+00  0.26462152113E+03  0.26462152113E+03  0.00000000000E+00 0.  1.
       21   -1    0    0  502  503 -0.00000000000E+00 -0.00000000000E+00 -0.10474610074E+04  0.10474610074E+04  0.00000000000E+00 0. -1.
       39    2    1    2    0    0  0.56843418861E-13  0.00000000000E+00 -0.78283948625E+03  0.13120825285E+04  0.10529591162E+04 0.  0.
       24    2    3    3    0    0  0.32487423218E+03 -0.18704838486E+03 -0.84030037876E+03  0.92453472640E+03  0.90163012237E+02 0.  0.
      -24    2    3    3    0    0 -0.32487423218E+03  0.18704838486E+03  0.57460892504E+02  0.38754780211E+03  0.79757004344E+02 0.  0.
      -13    1    4    4    0    0  0.28610755039E+03 -0.14048813088E+03 -0.63538894605E+03  0.71085410463E+03  0.00000000000E+00 0.  1.
       14    1    4    4    0    0  0.38766681791E+02 -0.46560253980E+02 -0.20491143270E+03  0.21368062177E+03  0.00000000000E+00 0. -1.
        3    1    5    5  501    0 -0.15360222045E+03  0.56279332862E+02 -0.34114216975E+01  0.16362348008E+03  0.00000000000E+00 0. -1.
       -4    1    5    5    0  501 -0.17127201172E+03  0.13076905200E+03  0.60872314201E+02  0.22392432203E+03  0.14200000000E+01 0.  1.
</event>
<event>
 9   1  0.7335000E-04  0.9882342E+03  0.7818608E-02  0.9321544E-01
        1   -1    0    0  501    0  0.00000000000E+00  0.00000000000E+00  0.19460115068E+03  0.19460115068E+03  0.00000000000E+00 0. -1.
       -1   -1    0    0    0  501 -0.00000000000E+00 -0.00000000000E+00 -0.12546263277E+04  0.12546263277E+04  0.00000000000E+00 0.  1.
       39    2    1    2    0    0  0.00000000000E+00  0.00000000000E+00 -0.10600251770E+04  0.14492274784E+04  0.98823423750E+03 0.  0.
       24    2    3    3    0    0 -0.90296399748E+02  0.46517827525E+03 -0.35853128277E+03  0.59897631644E+03  0.75390180745E+02 0.  0.
      -24    2    3    3    0    0  0.90296399748E+02 -0.46517827525E+03 -0.70149389424E+03  0.85025116193E+03  0.79303764979E+02 0.  0.
      -13    1    4    4    0    0 -0.70974798901E+02  0.43273854022E+03 -0.30791384441E+03  0.53582739931E+03  0.00000000000E+00 0.  1.
       14    1    4    4    0    0 -0.19321600847E+02  0.32439735037E+02 -0.50617438366E+02  0.63148917135E+02  0.00000000000E+00 0. -1.
        1    1    5    5  502    0 -0.10851079668E+02 -0.12259823178E+03 -0.16991161822E+03  0.20980474345E+03  0.00000000000E+00 0. -1.
       -2    1    5    5    0  502  0.10114747942E+03 -0.34258004347E+03 -0.53158227602E+03  0.64044641848E+03  0.00000000000E+00 0.  1.
</event>
<event>
 9   1  0.7335000E-04  0.1007139E+04  0.7818608E-02  0.9300749E-01
       21   -1    0    0  503  502  0.00000000000E+00  0.00000000000E+00  0.66615947134E+03  0.66615947134E+03  0.00000000000E+00 0. -1.
       21   -1    0    0  502  503 -0.00000000000E+00 -0.00000000000E+00 -0.38066309387E+03  0.38066309387E+03  0.00000000000E+00 0.  1.
       39    2    1    2    0    0  0.28421709430E-13  0.00000000000E+00  0.28549637747E+03  0.10468225652E+04  0.10071391669E+04 0.  0.
       24    2    3    3    0    0 -0.15761374253E+03 -0.34905580103E+03 -0.18674623193E+03  0.43353938122E+03  0.80001224098E+02 0.  0.
      -24    2    3    3    0    0  0.15761374253E+03  0.34905580103E+03  0.47224260940E+03  0.61328318399E+03  0.80132000876E+02 0.  0.
      -13    1    4    4    0    0 -0.14978031431E+03 -0.26838156150E+03 -0.12565818770E+03  0.33204334844E+03  0.00000000000E+00 0.  1.
       14    1    4    4    0    0 -0.78334282250E+01 -0.80674239530E+02 -0.61088044228E+02  0.10149603277E+03  0.00000000000E+00 0. -1.
        3    1    5    5  501    0  0.11865483086E+03  0.26696997874E+03  0.40876601302E+03  0.50243565940E+03  0.00000000000E+00 0. -1.
       -4    1    5    5    0  501  0.38958911669E+02  0.82085822294E+02  0.63476596373E+02  0.11084752459E+03  0.14200000000E+01 0.  1.
</event>
<event>
 9   1  0.7335000E-04  0.9996596E+03  0.7818608E-02  0.9308918E-01
       21   -1    0    0  503  502  0.00000000000E+00  0.00000000000E+00  0.67572214865E+03  0.67572214865E+03  0.00000000000E+00 0.  1.
       21   -1    0    0  502  503 -0.00000000000E+00 -0.00000000000E+00 -0.36972273267E+03  0.36972273267E+03  0.00000000000E+00 0. -1.
       39    2    1    2    0    0  0.00000000000E+00  0.28421709430E-13  0.30599941598E+03  0.10454448813E+04  0.99965962072E+03 0.  0.
       24    2    3    3    0    0 -0.32057053520E+03  0.19902439800E+03  0.48589625219E+03  0.62027103908E+03  0.79150584318E+02 0.  0.
      -24    2    3    3    0    0  0.32057053520E+03 -0.19902439800E+03 -0.17989683620E+03  0.42517384224E+03  0.77677187195E+02 0.  0.
      -13    1    4    4    0    0 -0.25852119562E+03  0.13791488689E+03  0.41477749230E+03  0.50783274090E+03  0.00000000000E+00 0.  1.
       14    1    4    4    0    0 -0.62049339579E+02  0.61109511112E+02  0.71118759888E+02  0.11243829818E+03  0.00000000000E+00 0. -1.
        1    1    5    5  501    0  0.23740949306E+03 -0.16854881125E+03 -0.10608761421E+03  0.30988151131E+03  0.00000000000E+00 0. -1.
       -2    1    5    5    0  501  0.83161042143E+02 -0.30475586753E+02 -0.73809221998E+02  0.11529233093E+03  0.00000000000E+00 0.  1.
</event>
<event>
 9   1  0.7335000E-04  0.9853737E+03  0.7818608E-02  0.9324734E-01
       21   -1    0    0  503  502  0.00000000000E+00  0.00000000000E+00  0.20962531275E+04  0.20962531275E+04  0.00000000000E+00 0. -1.
       21   -1    0    0  502  503 -0.00000000000E+00 -0.00000000000E+00 -0.11579724404E+03  0.11579724404E+03  0.00000000000E+00 0.  1.
       39    2    1    2    0    0 -0.28421709430E-13  0.28421709430E-13  0.19804558835E+04  0.22120503715E+04  0.98537370572E+03 0.  0.
       24    2    3    3    0    0 -0.19954505162E+03  0.15048969600E+03  0.19258539575E+04  0.19434783453E+04  0.75691722153E+02 0.  0.
      -24    2    3    3    0    0  0.19954505162E+03 -0.15048969600E+03  0.54601926009E+02  0.26857202629E+03  0.81756875893E+02 0.  0.
      -13    1    4    4    0    0 -0.16215685327E+02 -0.16205636923E+01  0.50727658096E+02  0.53281047036E+02  0.00000000000E+00 0.  1.
       14    1    4    4    0    0 -0.18332936629E+03  0.15211025969E+03  0.18751262994E+04  0.18901972982E+04  0.00000000000E+00 0. -1.
        1    1    5    5  501    0  0.17862027034E+02 -0.53481013353E+02  0.19378012548E+02  0.59621960462E+02  0.00000000000E+00 0. -1.
       -2    1    5    5    0  501  0.18168302459E+03 -0.97008682642E+02  0.35223913461E+02  0.20895006583E+03  0.00000000000E+00 0.  1.
</event>
<event>
 9   1  0.7335000E-04  0.9970966E+03  0.7818608E-02  0.9311735E-01
       21   -1    0    0  503  502  0.00000000000E+00  0.00000000000E+00  0.92975665047E+03  0.92975665047E+03  0.00000000000E+00 0.  1.
       21   -1    0    0  502  503 -0.00000000000E+00 -0.00000000000E+00 -0.26732845520E+03  0.26732845520E+03  0.00000000000E+00 0. -1.
       39    2    1    2    0    0 -0.17053025658E-12  0.71054273576E-14  0.66242819528E+03  0.11970851057E+04  0.99709660331E+03 0.  0.
       24    2    3    3    0    0 -0.44434896725E+03  0.47079940729E+02  0.83137364771E+02  0.46117082542E+03  0.78129272843E+02 0.  0.
      -24    2    3    3    0    0  0.44434896725E+03 -0.47079940729E+02  0.57929083051E+03  0.73591428026E+03  0.79557752972E+02 0.  0.
      -13    1    4    4    0    0 -0.33474132236E+03  0.13637343322E+02  0.88294886562E+02  0.34645882442E+03  0.00000000000E+00 0.  1.
       14    1    4    4    0    0 -0.10960764490E+03  0.33442597408E+02 -0.51575217909E+01  0.11471200099E+03  0.00000000000E+00 0. -1.
        1    1    5    5  501    0  0.85523466811E+02 -0.39990689980E+02  0.10626238287E+03  0.14214504097E+03  0.00000000000E+00 0. -1.
       -2    1    5    5    0  501  0.35882550044E+03 -0.70892507494E+01  0.47302844763E+03  0.59376923928E+03  0.00000000000E+00 0.  1.
</event>
<event>
 9   1  0.7335000E-04  0.1000147E+04  0.7818608E-02  0.9308383E-01
       21   -1    0    0  503  502  0.00000000000E+00  0.00000000000E+00  0.27920274338E+03  0.27920274338E+03  0.00000000000E+00 0. -1.
       21   -1    0    0  502  503 -0.00000000000E+00 -0.00000000000E+00 -0.89567014816E+03  0.89567014816E+03  0.00000000000E+00 0.  1.
       39    2    1    2    0    0  0.00000000000E+00  0.56843418861E-13 -0.61646740479E+03  0.11748728915E+04  0.10001471142E+04 0.  0.
       24    2    3    3    0    0 -0.85622572609E+02  0.35843967604E+03 -0.69266591876E+03  0.79024567661E+03  0.94297020625E+02 0.  0.
      -24    2    3    3    0    0  0.85622572609E+02 -0.35843967604E+03  0.76198513970E+02  0.38462721493E+03  0.79508833690E+02 0.  0.
      -13    1    4    4    0    0 -0.70799192041E+02  0.10902223155E+03 -0.25744547059E+03  0.28840343773E+03  0.00000000000E+00 0.  1.
       14    1    4    4    0    0 -0.14823380568E+02  0.24941744449E+03 -0.43522044816E+03  0.50184223888E+03  0.00000000000E+00 0. -1.
        3    1    5    5  501    0  0.21275688134E+02 -0.82846416830E+02  0.53100722625E+02  0.10067706010E+03  0.00000000000E+00 0. -1.
       -4    1    5    5    0  501  0.64346884474E+02 -0.27559325921E+03  0.23097791345E+02  0.28395015483E+03  0.14200000000E+01 0.  1.
</event>
<event>
 9   1  0.7335000E-04  0.1015688E+04  0.7818608E-02  0.9291503E-01
       21   -1    0    0  503  502  0.00000000000E+00  0.00000000000E+00  0.19915823891E+03  0.19915823891E+03  0.00000000000E+00 0.  1.
       21   -1    0    0  502  503 -0.00000000000E+00 -0.00000000000E+00 -0.12949790864E+04  0.12949790864E+04  0.00000000000E+00 0. -1.
       39    2    1    2    0    0  0.00000000000E+00  0.00000000000E+00 -0.10958208475E+04  0.14941373253E+04  0.10156884449E+04 0.  0.
       24    2    3    3    0    0  0.31828971598E+03  0.31925157062E+03 -0.87152163086E+03  0.98442474841E+03  0.79449503381E+02 0.  0.
      -24    2    3    3    0    0 -0.31828971598E+03 -0.31925157062E+03 -0.22429921660E+03  0.50971257687E+03  0.79163525792E+02 0.  0.
      -13    1    4    4    0    0  0.37487374141E+02  0.41384137722E+02 -0.17476923580E+03  0.18347271147E+03  0.00000000000E+00 0.  1.
       14    1    4    4    0    0  0.28080234184E+03  0.27786743290E+03 -0.69675239506E+03  0.80095203694E+03  0.00000000000E+00 0. -1.
        3    1    5    5  501    0 -0.13317928852E+03 -0.11524528821E+03 -0.12865513759E+03  0.21810626716E+03  0.00000000000E+00 0. -1.
       -4    1    5    5    0  501 -0.18511042746E+03 -0.20400628241E+03 -0.95644079003E+02  0.29160630971E+03  0.14200000000E+01 0.  1.
</event>
<event>
 9   1  0.7335000E-04  0.9891507E+03  0.7818608E-02  0.9320525E-01
        2   -1    0    0  501    0  0.00000000000E+00  0.00000000000E+00  0.10919642090E+04  0.10919642090E+04  0.00000000000E+00 0.  1.
       -2   -1    0    0    0  501 -0.00000000000E+00 -0.00000000000E+00 -0.22400441183E+03  0.22400441183E+03  0.00000000000E+00 0. -1.
       39    2    1    2    0    0 -0.28421709430E-13 -0.56843418861E-13  0.86795979716E+03  0.13159686208E+04  0.98915074761E+03 0.  0.
       24    2    3    3    0    0 -0.14282515667E+03 -0.29907080211E+03  0.91023316567E+03  0.97210782982E+03  0.81405447324E+02 0.  0.
      -24    2    3    3    0    0  0.14282515667E+03  0.29907080211E+03 -0.42273368512E+02  0.34386079100E+03  0.81307046725E+02 0.  0.
      -13    1    4    4    0    0 -0.15049870809E+03 -0.29553120291E+03  0.89760113254E+03  0.95690978999E+03  0.00000000000E+00 0.  1.
       14    1    4    4    0    0  0.76735514142E+01 -0.35395992045E+01  0.12632033126E+02  0.15198039832E+02  0.00000000000E+00 0. -1.
        1    1    5    5  502    0  0.99855226546E+02  0.19877282479E+03  0.10419775014E+02  0.22268873760E+03  0.00000000000E+00 0. -1.
       -2    1    5    5    0  502  0.42969930128E+02  0.10029797732E+03 -0.52693143526E+02  0.12117205340E+03  0.00000000000E+00 0.  1.
</event>
<event>
 9   1  0.7335000E-04  0.1044992E+04  0.7818608E-02  0.9260530E-01
       -1   -1    0    0    0  501 -0.00000000000E+00  0.00000000000E+00  0.15197603362E+03  0.15197603362E+03  0.00000000000E+00 0. -1.
        1   -1    0    0  501    0  0.00000000000E+00 -0.00000000000E+00 -0.17963480074E+04  0.17963480074E+04  0.00000000000E+00 0.  1.
       39    2    1    2    0    0  0.00000000000E+00  0.14210854715E-13 -0.16443719738E+04  0.19483240410E+04  0.10449915696E+04 0.  0.
       24    2    3    3    0    0 -0.15568157857E+03 -0.11714004057E+03 -0.17121152926E+04  0.17249353189E+04  0.78131530807E+02 0.  0.
      -24    2    3    3    0    0  0.15568157857E+03  0.11714004057E+03  0.67743318839E+02  0.22338872213E+03  0.85760252526E+02 0.  0.
      -13    1    4    4    0    0 -0.75511487318E+02 -0.60115012196E+02 -0.11692754350E+04  0.11732522501E+04  0.00000000000E+00 0.  1.
       14    1    4    4    0    0 -0.80170091252E+02 -0.57025028379E+02 -0.54283985756E+03  0.55168306875E+03  0.00000000000E+00 0. -1.
        3    1    5    5  502    0  0.14582758228E+03  0.12449806721E+03  0.44173801007E+02  0.19676579273E+03  0.00000000000E+00 0. -1.
       -4    1    5    5    0  502  0.98539962946E+01 -0.73580266363E+01  0.23569517832E+02  0.26622929399E+02  0.14200000000E+01 0.  1.
</event>
<event>
 9   1  0.7335000E-04  0.9998458E+03  0.7818608E-02  0.9308714E-01
       21   -1    0    0  503  502  0.00000000000E+00  0.00000000000E+00  0.39416081768E+03  0.39416081768E+03  0.00000000000E+00 0.  1.
       21   -1    0    0  502  503 -0.00000000000E+00 -0.00000000000E+00 -0.63406330979E+03  0.63406330979E+03  0.00000000000E+00 0. -1.
       39    2    1    2    0    0  0.00000000000E+00  0.00000000000E+00 -0.23990249211E+03  0.10282241275E+04  0.99984581340E+03 0.  0.
       24    2    3    3    0    0 -0.10631477768E+02  0.29827125304E+03 -0.52411548668E+03  0.60842343516E+03  0.80020399735E+02 0.  0.
      -24    2    3    3    0    0  0.10631477768E+02 -0.29827125304E+03  0.28421299456E+03  0.41980069230E+03  0.79855032847E+02 0.  0.
      -13    1    4    4    0    0 -0.27762075964E+01 -0.41470829363E+01 -0.19003473389E+02  0.19647840246E+02  0.00000000000E+00 0.  1.
       14    1    4    4    0    0 -0.78552701721E+01  0.30241833597E+03 -0.50511201329E+03  0.58877559492E+03  0.00000000000E+00 0. -1.
        1    1    5    5  501    0 -0.34689135493E+01 -0.66431769915E+01 -0.48638425086E+01  0.89343229012E+01  0.00000000000E+00 0. -1.
       -2    1    5    5    0  501  0.14100391318E+02 -0.29162807604E+03  0.28907683707E+03  0.41086636940E+03  0.00000000000E+00 0.  1.
</event>
<event>
 9   1  0.7335000E-04  0.9975856E+03  0.7818608E-02  0.9311197E-01
       21   -1    0    0  503  502  0.00000000000E+00  0.00000000000E+00  0.27598052953E+03  0.27598052953E+03  0.00000000000E+00 0.  1.
       21   -1    0    0  502  503 -0.00000000000E+00 -0.00000000000E+00 -0.90149201379E+03  0.90149201379E+03  0.00000000000E+00 0. -1.
       39    2    1    2    0    0  0.00000000000E+00  0.00000000000E+00 -0.62551148425E+03  0.11774725433E+04  0.99758557194E+03 0.  0.
       24    2    3    3    0    0 -0.19075604085E+03  0.19899381869E+03  0.16811129835E+03  0.33349495787E+03  0.83492941594E+02 0.  0.
      -24    2    3    3    0    0  0.19075604085E+03 -0.19899381869E+03 -0.79362278260E+03  0.84397758545E+03  0.80465127087E+02 0.  0.
      -13    1    4    4    0    0 -0.17347692094E+03  0.13931655029E+03  0.10907900984E+03  0.24779340926E+03  0.00000000000E+00 0.  1.
       14    1    4    4    0    0 -0.17279119909E+02  0.59677268392E+02  0.59032288508E+02  0.85701548610E+02  0.00000000000E+00 0. -1.
        3    1    5    5  501    0  0.74116660129E+02 -0.36151729228E+02 -0.16944994372E+03  0.18845028591E+03  0.00000000000E+00 0. -1.
       -4    1    5    5    0  501  0.11663938072E+03 -0.16284208946E+03 -0.62417283888E+03  0.65552729953E+03  0.14200000000E+01 0.  1.
</event>
<event>
 9   1  0.7335000E-04  0.1003785E+04  0.7818608E-02  0.9304404E-01
       21   -1    0    0  503  502  0.00000000000E+00  0.00000000000E+00  0.91056711707E+03  0.91056711707E+03  0.00000000000E+00 0. -1.
       21   -1    0    0  502  503 -0.00000000000E+00 -0.00000000000E+00 -0.27663626152E+03  0.27663626152E+03  0.00000000000E+00 0.  1.
       39    2    1    2    0    0  0.00000000000E+00  0.00000000000E+00  0.63393085555E+03  0.11872033786E+04  0.10037846046E+04 0.  0.
       24    2    3    3    0    0 -0.15050420087E+03  0.43913266403E+03  0.52144114434E+03  0.70279983495E+03  0.80856229802E+02 0.  0.
      -24    2    3    3    0    0  0.15050420087E+03 -0.43913266403E+03  0.11248971121E+03  0.48440354364E+03  0.80646431207E+02 0.  0.
      -13    1    4    4    0    0 -0.14240216612E+03  0.41064229420E+03  0.51223672805E+03  0.67178265553E+03  0.00000000000E+00 0.  1.
       14    1    4    4    0    0 -0.81020347539E+01  0.28490369827E+02  0.92044162853E+01  0.31017179420E+02  0.00000000000E+00 0. -1.
        1    1    5    5  501    0  0.12389440746E+03 -0.33872770524E+03  0.52562256270E+02  0.36448466810E+03  0.00000000000E+00 0. -1.
       -2    1    5    5    0  501  0.26609793416E+02 -0.10040495879E+03  0.59927454943E+02  0.11991887554E+03  0.00000000000E+00 0.  1.
</event>
<event>
 9   1  0.7335000E-04  0.1014651E+04  0.7818608E-02  0.9292620E-01
       21   -1    0    0  503  502  0.00000000000E+00  0.00000000000E+00  0.72611331295E+03  0.72611331295E+03  0.00000000000E+00 0. -1.
       21   -1    0    0  502  503 -0.00000000000E+00 -0.00000000000E+00 -0.35446158361E+03  0.35446158361E+03  0.00000000000E+00 0.  1.
       39    2    1    2    0    0  0.00000000000E+00  0.00000000000E+00  0.37165172934E+03  0.10805748966E+04  0.10146512205E+04 0.  0.
       24    2    3    3    0    0  0.75985358936E+02 -0.33781274050E+03  0.57143674356E+03  0.67287185596E+03  0.79532133367E+02 0.  0.
      -24    2    3    3    0    0 -0.75985358936E+02  0.33781274050E+03 -0.19978501422E+03  0.40770304061E+03  0.80103027396E+02 0.  0.
      -13    1    4    4    0    0  0.55028668863E+01 -0.11805008191E+02  0.23363093639E+01  0.13232464011E+02  0.00000000000E+00 0.  1.
       14    1    4    4    0    0  0.70482492050E+02 -0.32600773231E+03  0.56910043420E+03  0.65963939195E+03  0.00000000000E+00 0. -1.
        3    1    5    5  501    0 -0.34537159360E+02  0.16735572380E+03 -0.14444324331E+03  0.22375121051E+03  0.00000000000E+00 0. -1.
       -4    1    5    5    0  501 -0.41448199576E+02  0.17045701670E+03 -0.55341770910E+02  0.18395183010E+03  0.14200000000E+01 0.  1.
</event>
<event>
 9   1  0.7335000E-04  0.1001377E+04  0.7818608E-02  0.9307036E-01
       21   -1    0    0  503  502  0.00000000000E+00  0.00000000000E+00  0.11590820089E+04  0.11590820089E+04  0.00000000000E+00 0. -1.
       21   -1    0    0  502  503 -0.00000000000E+00 -0.00000000000E+00 -0.21628240419E+03  0.21628240419E+03  0.00000000000E+00 0.  1.
       39    2    1    2    0    0  0.00000000000E+00 -0.56843418861E-13  0.94279960473E+03  0.13753644131E+04  0.10013771388E+04 0.  0.
       24    2    3    3    0    0  0.20864850516E+03 -0.27436101039E+03  0.95737291413E+03  0.10207071360E+04  0.80448729635E+02 0.  0.
      -24    2    3    3    0    0 -0.20864850516E+03  0.27436101039E+03 -0.14573309398E+02  0.35465727709E+03  0.82226760342E+02 0.  0.
      -13    1    4    4    0    0  0.24127660098E+02 -0.30569142700E+02  0.20348612798E+03  0.20717919960E+03  0.00000000000E+00 0.  1.
       14    1    4    4    0    0  0.18452084506E+03 -0.24379186769E+03  0.75388678615E+03  0.81352793643E+03  0.00000000000E+00 0. -1.
        1    1    5    5  501    0 -0.31018506938E+02  0.30276341145E+02 -0.29467321911E+02  0.52413048627E+02  0.00000000000E+00 0. -1.
       -2    1    5    5    0  501 -0.17762999822E+03  0.24408466925E+03  0.14894012513E+02  0.30224422846E+03  0.00000000000E+00 0.  1.
</event>
<event>
 9   1  0.7335000E-04  0.9922925E+03  0.7818608E-02  0.9317039E-01
       21   -1    0    0  503  502  0.00000000000E+00  0.00000000000E+00  0.34789815691E+03  0.34789815691E+03  0.00000000000E+00 0.  1.
       21   -1    0    0  502  503 -0.00000000000E+00 -0.00000000000E+00 -0.70756658144E+03  0.70756658144E+03  0.00000000000E+00 0. -1.
       39    2    1    2    0    0  0.00000000000E+00  0.00000000000E+00 -0.35966842454E+03  0.10554647383E+04  0.99229251649E+03 0.  0.
       24    2    3    3    0    0 -0.45768596626E+03 -0.17338956627E+03 -0.18890587730E+03  0.53088702889E+03  0.81334012318E+02 0.  0.
      -24    2    3    3    0    0  0.45768596626E+03  0.17338956627E+03 -0.17076254724E+03  0.52457770946E+03  0.80508013966E+02 0.  0.
      -13    1    4    4    0    0 -0.22542520750E+03 -0.62248007927E+02 -0.53222634186E+02  0.23984158826E+03  0.00000000000E+00 0.  1.
       14    1    4    4    0    0 -0.23226075876E+03 -0.11114155835E+03 -0.13568324311E+03  0.29104544064E+03  0.00000000000E+00 0. -1.
        3    1    5    5  501    0  0.41206188081E+03  0.17227879706E+03 -0.17275908758E+03  0.47887438841E+03  0.00000000000E+00 0. -1.
       -4    1    5    5    0  501  0.45624085454E+02  0.11107692180E+01  0.19965403378E+01  0.45703321051E+02  0.14200000000E+01 0.  1.
</event>
<event>
 9   1  0.7335000E-04  0.9980680E+03  0.7818608E-02  0.9310666E-01
       21   -1    0    0  503  502  0.00000000000E+00  0.00000000000E+00  0.52671285085E+03  0.52671285085E+03  0.00000000000E+00 0.  1.
       21   -1    0    0  502  503 -0.00000000000E+00 -0.00000000000E+00 -0.47280964883E+03  0.47280964883E+03  0.00000000000E+00 0. -1.
       39    2    1    2    0    0  0.28421709430E-13  0.00000000000E+00  0.53903202014E+02  0.99952249968E+03  0.99806796972E+03 0.  0.
       24    2    3    3    0    0  0.24161951070E+03 -0.37227044291E+03 -0.18620224904E+03  0.48840135568E+03  0.83062242154E+02 0.  0.
      -24    2    3    3    0    0 -0.24161951070E+03  0.37227044291E+03  0.24010545105E+03  0.51112114400E+03  0.81418214238E+02 0.  0.
      -13    1    4    4    0    0  0.36087519297E+02 -0.11228273694E+03 -0.70303827227E+02  0.13730386079E+03  0.00000000000E+00 0.  1.
       14    1    4    4    0    0  0.20553199140E+03 -0.25998770596E+03 -0.11589842181E+03  0.35109749489E+03  0.00000000000E+00 0. -1.
        3    1    5    5  501    0 -0.11495976666E+03  0.11289105666E+03  0.10577339456E+03  0.19273855250E+03  0.00000000000E+00 0. -1.
       -4    1    5    5    0  501 -0.12665974404E+03  0.25937938624E+03  0.13433205649E+03  0.31838259150E+03  0.14200000000E+01 0.  1.
</event>
<event>
 9   1  0.7335000E-04  0.8483863E+03  0.7818608E-02  0.9492505E-01
       21   -1    0    0  503  502  0.00000000000E+00  0.00000000000E+00  0.23664443109E+03  0.23664443109E+03  0.00000000000E+00 0.  1.
       21   -1    0    0  502  503 -0.00000000000E+00 -0.00000000000E+00 -0.76038051929E+03  0.76038051929E+03  0.00000000000E+00 0. -1.
       39    2    1    2    0    0  0.00000000000E+00  0.00000000000E+00 -0.52373608820E+03  0.99702495039E+03  0.84838626911E+03 0.  0.
       24    2    3    3    0    0  0.28083303288E+03  0.70138776721E+02  0.90526329680E+02  0.31326936988E+03  0.78460444694E+02 0.  0.
      -24    2    3    3    0    0 -0.28083303288E+03 -0.70138776721E+02 -0.61426241788E+03  0.68375558051E+03  0.80104528569E+02 0.  0.
      -13    1    4    4    0    0  0.24554238997E+03  0.31552753159E+02  0.72506470334E+02  0.25796090739E+03  0.00000000000E+00 0.  1.
       14    1    4    4    0    0  0.35290642913E+02  0.38586023562E+02  0.18019859346E+02  0.55308462484E+02  0.00000000000E+00 0. -1.
        1    1    5    5  501    0 -0.17032809424E+03 -0.63234332354E+02 -0.45362442508E+03  0.48865668880E+03  0.00000000000E+00 0. -1.
       -2    1    5    5    0  501 -0.11050493864E+03 -0.69044443669E+01 -0.16063799280E+03  0.19509889171E+03  0.00000000000E+00 0.  1.
</event>
<event>
 9   1  0.7335000E-04  0.1000135E+04  0.7818608E-02  0.9308396E-01
       21   -1    0    0  503  502  0.00000000000E+00  0.00000000000E+00  0.76408709587E+03  0.76408709587E+03  0.00000000000E+00 0.  1.
       21   -1    0    0  502  503 -0.00000000000E+00 -0.00000000000E+00 -0.32727639105E+03  0.32727639105E+03  0.00000000000E+00 0. -1.
       39    2    1    2    0    0  0.00000000000E+00  0.14210854715E-13  0.43681070482E+03  0.10913634869E+04  0.10001353252E+04 0.  0.
       24    2    3    3    0    0  0.12152896511E+03  0.10206272645E+03 -0.29158274153E+03  0.34160546734E+03  0.80546326234E+02 0.  0.
      -24    2    3    3    0    0 -0.12152896511E+03 -0.10206272645E+03  0.72839344634E+03  0.74975801958E+03  0.79962402195E+02 0.  0.
      -13    1    4    4    0    0  0.34933050620E+02  0.20561307266E+01 -0.22056603179E+02  0.41364712534E+02  0.00000000000E+00 0.  1.
       14    1    4    4    0    0  0.86595914485E+02  0.10000659572E+03 -0.26952613835E+03  0.30024075481E+03  0.00000000000E+00 0. -1.
        3    1    5    5  501    0 -0.23486942009E+02  0.34098319105E+01  0.40409328245E+02  0.46863388778E+02  0.00000000000E+00 0. -1.
       -4    1    5    5    0  501 -0.98042023096E+02 -0.10547255836E+03  0.68798411810E+03  0.70289463080E+03  0.14200000000E+01 0.  1.
</event>
<event>
 9   1  0.7335000E-04  0.1000855E+04  0.7818608E-02  0.9307607E-01
       21   -1    0    0  503  502  0.00000000000E+00  0.00000000000E+00  0.35923492741E+03  0.35923492741E+03  0.00000000000E+00 0. -1.
       21   -1    0    0  502  503 -0.00000000000E+00 -0.00000000000E+00 -0.69711433015E+03  0.69711433015E+03  0.00000000000E+00 0.  1.
       39    2    1    2    0    0  0.00000000000E+00  0.00000000000E+00 -0.33787940274E+03  0.10563492576E+04  0.10008552658E+04 0.  0.
       24    2    3    3    0    0  0.40614868171E+03  0.60153904056E+02  0.12137872201E+03  0.43499869423E+03  0.76914406911E+02 0.  0.
      -24    2    3    3    0    0 -0.40614868171E+03 -0.60153904056E+02 -0.45925812476E+03  0.62135056333E+03  0.81137251431E+02 0.  0.
      -13    1    4    4    0    0  0.16161663006E+03  0.29143001062E+02  0.10042543016E+02  0.16452994346E+03  0.00000000000E+00 0.  1.
       14    1    4    4    0    0  0.24453205165E+03  0.31010902994E+02  0.11133617900E+03  0.27046875077E+03  0.00000000000E+00 0. -1.
        3    1    5    5  501    0 -0.10991170035E+02 -0.15267669523E+02 -0.98364458556E+01  0.21228829889E+02  0.00000000000E+00 0. -1.
       -4    1    5    5    0  501 -0.39515751168E+03 -0.44886234533E+02 -0.44942167890E+03  0.60012173344E+03  0.14200000000E+01 0.  1.
</event>
<event>
 9   1  0.7335000E-04  0.9974181E+03  0.7818608E-02  0.9311381E-01
       21   -1    0    0  503  502  0.00000000000E+00  0.00000000000E+00  0.15249354624E+03  0.15249354624E+03  0.00000000000E+00 0. -1.
       21   -1    0    0  502  503 -0.00000000000E+00 -0.00000000000E+00 -0.16309588617E+04  0.16309588617E+04  0.00000000000E+00 0.  1.
       39    2    1    2    0    0  0.00000000000E+00  0.00000000000E+00 -0.14784653155E+04  0.17834524079E+04  0.99741806799E+03 0.  0.
       24    2    3    3    0    0 -0.14998356601E+02  0.22105105671E+03  0.45845065109E+02  0.24105427284E+03  0.83167734644E+02 0.  0.
      -24    2    3    3    0    0  0.14998356601E+02 -0.22105105671E+03 -0.15243103806E+04  0.15423981351E+04  0.79883355450E+02 0.  0.
      -13    1    4    4    0    0 -0.20350668320E+01 -0.72138970021E+01 -0.13107314477E+01  0.76091933801E+01  0.00000000000E+00 0.  1.
       14    1    4    4    0    0 -0.12963289769E+02  0.22826495371E+03  0.47155796557E+02  0.23344507946E+03  0.00000000000E+00 0. -1.
        1    1    5    5  501    0  0.15222484574E+02 -0.89634927821E+02 -0.38780643071E+03  0.39832144309E+03  0.00000000000E+00 0. -1.
       -2    1    5    5    0  501 -0.22412797329E+00 -0.13141612889E+03 -0.11365039499E+04  0.11440766920E+04  0.00000000000E+00 0.  1.
</event>
<event>
 9   1  0.7335000E-04  0.9966195E+03  0.7818608E-02  0.9312260E-01
       21   -1    0    0  503  502  0.00000000000E+00  0.00000000000E+00  0.22844314680E+03  0.22844314680E+03  0.00000000000E+00 0.  1.
       21   -1    0    0  502  503 -0.00000000000E+00 -0.00000000000E+00 -0.10869777020E+04  0.10869777020E+04  0.00000000000E+00 0. -1.
       39    2    1    2    0    0  0.00000000000E+00 -0.14210854715E-13 -0.85853455523E+03  0.13154208488E+04  0.99661949962E+03 0.  0.
       24    2    3    3    0    0 -0.17291121005E+03  0.95207686507E+02 -0.10239114200E+04  0.10458977108E+04  0.80898920805E+02 0.  0.
      -24    2    3    3    0    0  0.17291121005E+03 -0.95207686507E+02  0.16537686476E+03  0.26952313801E+03  0.79563964190E+02 0.  0.
      -13    1    4    4    0    0  0.38762484314E+01  0.12537303775E+02 -0.26490073633E+02  0.29562362708E+02  0.00000000000E+00 0.  1.
       14    1    4    4    0    0 -0.17678745848E+03  0.82670382732E+02 -0.99742134636E+03  0.10163353481E+04  0.00000000000E+00 0. -1.
        3    1    5    5  501    0  0.22518255963E+02 -0.47015565912E+02  0.23343756059E+02  0.57118002737E+02  0.00000000000E+00 0. -1.
       -4    1    5    5    0  501  0.15039295408E+03 -0.48192120594E+02  0.14203310870E+03  0.21240513527E+03  0.14200000000E+01 0.  1.
</event>
<event>
 9   1  0.7335000E-04  0.1001974E+04  0.7818608E-02  0.9306383E-01
       21   -1    0    0  503  502  0.00000000000E+00  0.00000000000E+00  0.28346957292E+03  0.28346957292E+03  0.00000000000E+00 0. -1.
       21   -1    0    0  502  503 -0.00000000000E+00 -0.00000000000E+00 -0.88541352232E+03  0.88541352232E+03  0.00000000000E+00 0.  1.
       39    2    1    2    0    0  0.00000000000E+00  0.00000000000E+00 -0.60194394940E+03  0.11688830952E+04  0.10019736384E+04 0.  0.
       24    2    3    3    0    0 -0.20305516974E+01  0.63455605654E+02  0.27128560138E+03  0.28971002601E+03  0.79405822387E+02 0.  0.
      -24    2    3    3    0    0  0.20305516974E+01 -0.63455605654E+02 -0.87322955078E+03  0.87917306923E+03  0.79904319504E+02 0.  0.
      -13    1    4    4    0    0  0.13609631492E+02  0.61710391893E+02  0.10405701144E+03  0.12174258157E+03  0.00000000000E+00 0.  1.
       14    1    4    4    0    0 -0.15640183189E+02  0.17452137607E+01  0.16722858993E+03  0.16796744444E+03  0.00000000000E+00 0. -1.
        3    1    5    5  501    0  0.25785287734E+02 -0.46936229772E+02 -0.27063329138E+03  0.27588089664E+03  0.00000000000E+00 0. -1.
       -4    1    5    5    0  501 -0.23754736036E+02 -0.16519375882E+02 -0.60259625940E+03  0.60329217259E+03  0.14200000000E+01 0.  1.
</event>
<event>
 9   1  0.7335000E-04  0.1000157E+04  0.7818608E-02  0.9308373E-01
       21   -1    0    0  503  502  0.00000000000E+00  0.00000000000E+00  0.53862960130E+03  0.53862960130E+03  0.00000000000E+00 0. -1.
       21   -1    0    0  502  503 -0.00000000000E+00 -0.00000000000E+00 -0.46428642147E+03  0.46428642147E+03  0.00000000000E+00 0.  1.
       39    2    1    2    0    0  0.56843418861E-13 -0.28421709430E-13  0.74343179826E+02  0.10029160228E+04  0.10001568079E+04 0.  0.
       24    2    3    3    0    0  0.25560815172E+03 -0.21305009389E+03 -0.32808175155E+03  0.47436224044E+03  0.81584494419E+02 0.  0.
      -24    2    3    3    0    0 -0.25560815172E+03  0.21305009389E+03  0.40242493137E+03  0.52855378232E+03  0.81837678876E+02 0.  0.
      -13    1    4    4    0    0  0.10743918573E+03 -0.12920709367E+03 -0.20055998055E+03  0.26165235998E+03  0.00000000000E+00 0.  1.
       14    1    4    4    0    0  0.14816896599E+03 -0.83843000220E+02 -0.12752177099E+03  0.21270988046E+03  0.00000000000E+00 0. -1.
        3    1    5    5  501    0 -0.25082255707E+03  0.17915440196E+03  0.36708223158E+03  0.47933038670E+03  0.00000000000E+00 0. -1.
       -4    1    5    5    0  501 -0.47855946524E+01  0.33895691929E+02  0.35342699794E+02  0.49223395619E+02  0.14200000000E+01 0.  1.
</event>
<event>
 9   1  0.7335000E-04  0.9961631E+03  0.7818608E-02  0.9312763E-01
       21   -1    0    0  503  502  0.00000000000E+00  0.00000000000E+00  0.21163001603E+03  0.21163001603E+03  0.00000000000E+00 0.  1.
       21   -1    0    0  502  503 -0.00000000000E+00 -0.00000000000E+00 -0.11722591304E+04  0.11722591304E+04  0.00000000000E+00 0. -1.
       39    2    1    2    0    0  0.28421709430E-13  0.56843418861E-13 -0.96062911438E+03  0.13838891464E+04  0.99616307612E+03 0.  0.
       24    2    3    3    0    0 -0.17096983258E+03 -0.33089605745E+03 -0.92597082503E+03  0.10012060504E+04  0.79175135372E+02 0.  0.
      -24    2    3    3    0    0  0.17096983258E+03  0.33089605745E+03 -0.34658289342E+02  0.38268309603E+03  0.80760575026E+02 0.  0.
      -13    1    4    4    0    0 -0.11046372630E+02 -0.68399640179E+02 -0.23390865630E+03  0.24395448882E+03  0.00000000000E+00 0.  1.
       14    1    4    4    0    0 -0.15992345995E+03 -0.26249641727E+03 -0.69206216873E+03  0.75725156158E+03  0.00000000000E+00 0. -1.
        3    1    5    5  501    0  0.14359523075E+03  0.19880837096E+03 -0.35358534462E+02  0.24777930627E+03  0.00000000000E+00 0. -1.
       -4    1    5    5    0  501  0.27374601832E+02  0.13208768649E+03  0.70024512018E+00  0.13490378976E+03  0.14200000000E+01 0.  1.
</event>
<event>
 9   1  0.7335000E-04  0.1006698E+04  0.7818608E-02  0.9301229E-01
       21   -1    0    0  503  502  0.00000000000E+00  0.00000000000E+00  0.20986678027E+03  0.20986678027E+03  0.00000000000E+00 0. -1.
       21   -1    0    0  502  503 -0.00000000000E+00 -0.00000000000E+00 -0.12072421618E+04  0.12072421618E+04  0.00000000000E+00 0.  1.
       39    2    1    2    0    0  0.00000000000E+00  0.00000000000E+00 -0.99737538154E+03  0.14171089421E+04  0.10066976219E+04 0.  0.
       24    2    3    3    0    0  0.22191516600E+02  0.38524695491E+03 -0.57127748993E+02  0.39744710723E+03  0.76111389861E+02 0.  0.
      -24    2    3    3    0    0 -0.22191516600E+02 -0.38524695491E+03 -0.94024763255E+03  0.10196618348E+04  0.82079030499E+02 0.  0.
      -13    1    4    4    0    0  0.26530619339E+02  0.14983751296E+03 -0.55555313400E+02  0.16199242853E+03  0.00000000000E+00 0.  1.
       14    1    4    4    0    0 -0.43391027397E+01  0.23540944195E+03 -0.15724355929E+01  0.23545467870E+03  0.00000000000E+00 0. -1.
        1    1    5    5  501    0 -0.66547200342E+01 -0.28121069236E+01 -0.41358675839E+01  0.83245807554E+01  0.00000000000E+00 0. -1.
       -2    1    5    5    0  501 -0.15536796565E+02 -0.38243484798E+03 -0.93611176497E+03  0.10113372541E+04  0.00000000000E+00 0.  1.
</event>
<event>
 9   1  0.7335000E-04  0.1000869E+04  0.7818608E-02  0.9307592E-01
       21   -1    0    0  503  502  0.00000000000E+00  0.00000000000E+00  0.10966596529E+04  0.10966596529E+04  0.00000000000E+00 0. -1.
       21   -1    0    0  502  503 -0.00000000000E+00 -0.00000000000E+00 -0.22836156152E+03  0.22836156152E+03  0.00000000000E+00 0.  1.
       39    2    1    2    0    0  0.00000000000E+00  0.56843418861E-13  0.86829809141E+03  0.13250212145E+04  0.10008694436E+04 0.  0.
       24    2    3    3    0    0 -0.21357440781E+03  0.15351874541E+03 -0.12166238648E+03  0.29753268668E+03  0.67393846125E+02 0.  0.
      -24    2    3    3    0    0  0.21357440781E+03 -0.15351874541E+03  0.98996047789E+03  0.10274885278E+04  0.80801572148E+02 0.  0.
      -13    1    4    4    0    0 -0.21191525972E+03  0.15557729252E+03 -0.12670949085E+03  0.29183499845E+03  0.00000000000E+00 0.  1.
       14    1    4    4    0    0 -0.16591480908E+01 -0.20585471067E+01  0.50471043748E+01  0.56976882283E+01  0.00000000000E+00 0. -1.
        3    1    5    5  501    0  0.10225139747E+03 -0.26833091829E+02  0.34423801393E+03  0.36010439227E+03  0.00000000000E+00 0. -1.
       -4    1    5    5    0  501  0.11132301035E+03 -0.12668565358E+03  0.64572246397E+03  0.66738413551E+03  0.14200000000E+01 0.  1.
</event>
<event>
 9   1  0.7335000E-04  0.1005132E+04  0.7818608E-02  0.9302934E-01
       21   -1    0    0  503  502  0.00000000000E+00  0.00000000000E+00  0.35031513945E+03  0.35031513945E+03  0.00000000000E+00 0.  1.
       21   -1    0    0  502  503 -0.00000000000E+00 -0.00000000000E+00 -0.72098644094E+03  0.72098644094E+03  0.00000000000E+00 0. -1.
       39    2    1    2    0    0 -0.28421709430E-13  0.00000000000E+00 -0.37067130149E+03  0.10713015804E+04  0.10051317637E+04 0.  0.
       24    2    3    3    0    0 -0.21976941768E+03  0.42098313051E+02 -0.65727437132E+03  0.69881774800E+03  0.79156685220E+02 0.  0.
      -24    2    3    3    0    0  0.21976941768E+03 -0.42098313051E+02  0.28660306983E+03  0.37248383240E+03  0.80820918415E+02 0.  0.
      -13    1    4    4    0    0 -0.10172388692E+02  0.10865344360E+02 -0.12543360269E+03  0.12631358551E+03  0.00000000000E+00 0.  1.
       14    1    4    4    0    0 -0.20959702899E+03  0.31232968690E+02 -0.53184076863E+03  0.57250416249E+03  0.00000000000E+00 0. -1.
        1    1    5    5  501    0  0.36053736557E+02 -0.77555951013E+01  0.92247590223E+01  0.38014699184E+02  0.00000000000E+00 0. -1.
       -2    1    5    5    0  501  0.18371568113E+03 -0.34342717949E+02  0.27737831081E+03  0.33446913322E+03  0.00000000000E+00 0.  1.
</event>
<event>
 9   1  0.7335000E-04  0.9893060E+03  0.7818608E-02  0.9320352E-01
       21   -1    0    0  503  502  0.00000000000E+00  0.00000000000E+00  0.22687633236E+04  0.22687633236E+04  0.00000000000E+00 0. -1.
       21   -1    0    0  502  503 -0.00000000000E+00 -0.00000000000E+00 -0.10784799375E+03  0.10784799375E+03  0.00000000000E+00 0.  1.
       39    2    1    2    0    0  0.56843418861E-13  0.71054273576E-14  0.21609153299E+04  0.23766113174E+04  0.98930596427E+03 0.  0.
       24    2    3    3    0    0 -0.47507774028E+03 -0.41489752020E+02  0.83168726393E+03  0.96202596390E+03  0.79812225903E+02 0.  0.
      -24    2    3    3    0    0  0.47507774028E+03  0.41489752020E+02  0.13292280659E+04  0.14145853535E+04  0.82366328772E+02 0.  0.
      -13    1    4    4    0    0 -0.37408826858E+03 -0.63182535322E+02  0.62962726074E+03  0.73509492783E+03  0.00000000000E+00 0.  1.
       14    1    4    4    0    0 -0.10098947170E+03  0.21692783302E+02  0.20206000319E+03  0.22693103607E+03  0.00000000000E+00 0. -1.
        3    1    5    5  501    0  0.38476946955E+03  0.64030427595E+02  0.11038033958E+04  0.11706961078E+04  0.00000000000E+00 0. -1.
       -4    1    5    5    0  501  0.90308270726E+02 -0.22540675575E+02  0.22542467014E+03  0.24388924561E+03  0.14200000000E+01 0.  1.
</event>
<event>
 8   1  0.7335000E-04  0.1789677E+04  0.7818608E-02  0.8711808E-01
       -1   -1    0    0    0  501 -0.00000000000E+00  0.00000000000E+00  0.56829563266E+03  0.56829563266E+03  0.00000000000E+00 0.  1.
        1   -1    0    0  501    0  0.00000000000E+00 -0.00000000000E+00 -0.14090131517E+04  0.14090131517E+04  0.00000000000E+00 0. -1.
       24    2    1    2    0    0  0.23280223652E+03  0.35435328454E+03 -0.12865658427E+04  0.13569325685E+04  0.79064507416E+02 0.  0.
      -24    2    1    2    0    0 -0.23280223652E+03 -0.35435328454E+03  0.44584832361E+03  0.62037621587E+03  0.79515973002E+02 0.  0.
      -13    1    3    3    0    0  0.65021344668E+02  0.95037357977E+02 -0.24832333849E+03  0.27372313587E+03  0.00000000000E+00 0.  1.
       14    1    3    3    0    0  0.16778089186E+03  0.25931592656E+03 -0.10382425042E+04  0.10832094327E+04  0.00000000000E+00 0. -1.
        1    1    4    4  502    0 -0.12997663401E+03 -0.13978108628E+03  0.23232593800E+03  0.30067926256E+03  0.00000000000E+00 0. -1.
       -2    1    4    4    0  502 -0.10282560252E+03 -0.21457219826E+03  0.21352238561E+03  0.31969695331E+03  0.00000000000E+00 0.  1.
</event>
<event>
 9   1  0.7335000E-04  0.9651224E+03  0.7818608E-02  0.9347647E-01
       21   -1    0    0  503  502  0.00000000000E+00  0.00000000000E+00  0.69133213641E+03  0.69133213641E+03  0.00000000000E+00 0. -1.
       21   -1    0    0  502  503 -0.00000000000E+00 -0.00000000000E+00 -0.33683561910E+03  0.33683561910E+03  0.00000000000E+00 0.  1.
       39    2    1    2    0    0  0.56843418861E-13  0.00000000000E+00  0.35449651731E+03  0.10281677555E+04  0.96512235116E+03 0.  0.
       24    2    3    3    0    0 -0.20411710449E+03  0.22727067821E+03 -0.21123703526E+03  0.38017756062E+03  0.81228929642E+02 0.  0.
      -24    2    3    3    0    0  0.20411710449E+03 -0.22727067821E+03  0.56573355257E+03  0.64799019490E+03  0.80753245538E+02 0.  0.
      -13    1    4    4    0    0 -0.94259705281E+02  0.11958050073E+03 -0.15252197436E+03  0.21551645147E+03  0.00000000000E+00 0.  1.
       14    1    4    4    0    0 -0.10985739921E+03  0.10769017748E+03 -0.58715060902E+02  0.16466110914E+03  0.00000000000E+00 0. -1.
        1    1    5    5  501    0  0.17968481857E+03 -0.21665587292E+03  0.46287029495E+03  0.54173361650E+03  0.00000000000E+00 0. -1.
       -2    1    5    5    0  501  0.24432285924E+02 -0.10614805296E+02  0.10286325762E+03  0.10625657840E+03  0.00000000000E+00 0.  1.
</event>
<event>
 8   1  0.7335000E-04  0.1418366E+04  0.7818608E-02  0.8940630E-01
       21   -1    0    0  503  502  0.00000000000E+00  0.00000000000E+00  0.39509205650E+03  0.39509205650E+03  0.00000000000E+00 0. -1.
       21   -1    0    0  502  503 -0.00000000000E+00 -0.00000000000E+00 -0.12729710978E+04  0.12729710978E+04  0.00000000000E+00 0.  1.
       24    2    1    2    0    0  0.40128062308E+03  0.28950273778E+03 -0.10290092840E+04  0.11445297961E+04  0.79059306786E+02 0.  0.
      -24    2    1    2    0    0 -0.40128062308E+03 -0.28950273778E+03  0.15113024265E+03  0.52353335823E+03  0.80055313923E+02 0.  0.
      -13    1    3    3    0    0  0.32190049698E+03  0.25862998955E+03 -0.89622399350E+03  0.98677598672E+03  0.00000000000E+00 0.  1.
       14    1    3    3    0    0  0.79380126102E+02  0.30872748235E+02 -0.13278529048E+03  0.15775380937E+03  0.00000000000E+00 0. -1.
        1    1    4    4  501    0 -0.17663704601E+03 -0.14244799748E+03  0.10904487633E+03  0.25175953421E+03  0.00000000000E+00 0. -1.
       -2    1    4    4    0  501 -0.22464357707E+03 -0.14705474030E+03  0.42085366321E+02  0.27177382402E+03  0.00000000000E+00 0.  1.
</event>
<event>
 9   1  0.7335000E-04  0.9991807E+03  0.7818608E-02  0.9309444E-01
       21   -1    0    0  503  502  0.00000000000E+00  0.00000000000E+00  0.77810353922E+03  0.77810353922E+03  0.00000000000E+00 0. -1.
       21   -1    0    0  502  503 -0.00000000000E+00 -0.00000000000E+00 -0.32076773737E+03  0.32076773737E+03  0.00000000000E+00 0.  1.
       39    2    1    2    0    0  0.00000000000E+00  0.00000000000E+00  0.45733580185E+03  0.10988712766E+04  0.99918068779E+03 0.  0.
       24    2    3    3    0    0 -0.25793254070E+03 -0.77642622107E+02  0.68379023578E+03  0.73895918605E+03  0.77032589080E+02 0.  0.
      -24    2    3    3    0    0  0.25793254070E+03  0.77642622107E+02 -0.22645443393E+03  0.35991209053E+03  0.75481984244E+02 0.  0.
      -13    1    4    4    0    0 -0.20734946629E+02 -0.84218164430E+01  0.17756960276E+02  0.28568770400E+02  0.00000000000E+00 0.  1.
       14    1    4    4    0    0 -0.23719759407E+03 -0.69220805664E+02  0.66603327551E+03  0.71039041565E+03  0.00000000000E+00 0. -1.
        3    1    5    5  501    0  0.17260106673E+03  0.14495374198E+02 -0.13137842712E+03  0.21739718310E+03  0.00000000000E+00 0. -1.
       -4    1    5    5    0  501  0.85331473973E+02  0.63147247909E+02 -0.95076006806E+02  0.14251490743E+03  0.14200000000E+01 0.  1.
</event>
<event>
 9   1  0.7335000E-04  0.9953301E+03  0.7818608E-02  0.9313681E-01
       21   -1    0    0  503  502  0.00000000000E+00  0.00000000000E+00  0.34404320139E+03  0.34404320139E+03  0.00000000000E+00 0. -1.
       21   -1    0    0  502  503 -0.00000000000E+00 -0.00000000000E+00 -0.71988205005E+03  0.71988205005E+03  0.00000000000E+00 0.  1.
       39    2    1    2    0    0 -0.71054273576E-14 -0.71054273576E-14 -0.37583884865E+03  0.10639252514E+04  0.99533014648E+03 0.  0.
       24    2    3    3    0    0  0.16507052897E+02  0.48601188832E+02  0.33413621473E+03  0.34752025611E+03  0.80552840210E+02 0.  0.
      -24    2    3    3    0    0 -0.16507052897E+02 -0.48601188832E+02 -0.70997506338E+03  0.71640499533E+03  0.80851520454E+02 0.  0.
      -13    1    4    4    0    0  0.14385266099E+01  0.37232841860E+02  0.48012652459E+02  0.60774737087E+02  0.00000000000E+00 0.  1.
       14    1    4    4    0    0  0.15068526287E+02  0.11368346972E+02  0.28612356227E+03  0.28674551903E+03  0.00000000000E+00 0. -1.
        3    1    5    5  501    0  0.76531920384E+01  0.80508567784E+01 -0.14795894917E+02  0.18501517496E+02  0.00000000000E+00 0. -1.
       -4    1    5    5    0  501 -0.24160244936E+02 -0.56652045610E+02 -0.69517916846E+03  0.69790347783E+03  0.14200000000E+01 0.  1.
</event>
<event>
 9   1  0.7335000E-04  0.1002232E+04  0.7818608E-02  0.9306100E-01
       21   -1    0    0  503  502  0.00000000000E+00  0.00000000000E+00  0.46796971814E+03  0.46796971814E+03  0.00000000000E+00 0.  1.
       21   -1    0    0  502  503 -0.00000000000E+00 -0.00000000000E+00 -0.53661040028E+03  0.53661040028E+03  0.00000000000E+00 0. -1.
       39    2    1    2    0    0  0.56843418861E-13  0.28421709430E-13 -0.68640682134E+02  0.10045801184E+04  0.10022323439E+04 0.  0.
       24    2    3    3    0    0  0.37519246837E+03 -0.15032318611E+03 -0.32030682722E+03  0.52175982380E+03  0.79185867186E+02 0.  0.
      -24    2    3    3    0    0 -0.37519246837E+03  0.15032318611E+03  0.25166614509E+03  0.48282029462E+03  0.80082081110E+02 0.  0.
      -13    1    4    4    0    0  0.10681846517E+03 -0.44013577010E+02 -0.13957398193E+03  0.18118574970E+03  0.00000000000E+00 0.  1.
       14    1    4    4    0    0  0.26837400320E+03 -0.10630960910E+03 -0.18073284529E+03  0.34057407410E+03  0.00000000000E+00 0. -1.
        1    1    5    5  501    0 -0.10109642978E+03  0.42808544852E+02  0.28648162706E+02  0.11346266722E+03  0.00000000000E+00 0. -1.
       -2    1    5    5    0  501 -0.27409603859E+03  0.10751464126E+03  0.22301798238E+03  0.36935762740E+03  0.00000000000E+00 0.  1.
</event>
<event>
 9   1  0.7335000E-04  0.1005390E+04  0.7818608E-02  0.9302653E-01
       21   -1    0    0  503  502  0.00000000000E+00  0.00000000000E+00  0.39001250141E+03  0.39001250141E+03  0.00000000000E+00 0.  1.
       21   -1    0    0  502  503 -0.00000000000E+00 -0.00000000000E+00 -0.64793351487E+03  0.64793351487E+03  0.00000000000E+00 0. -1.
       39    2    1    2    0    0 -0.28421709430E-13  0.00000000000E+00 -0.25792101346E+03  0.10379460163E+04  0.10053898167E+04 0.  0.
       24    2    3    3    0    0 -0.19685426388E+03  0.15806626497E+03 -0.57003604193E+03  0.62848603858E+03  0.79479973951E+02 0.  0.
      -24    2    3    3    0    0  0.19685426388E+03 -0.15806626497E+03  0.31211502847E+03  0.40945997770E+03  0.80654429577E+02 0.  0.
      -13    1    4    4    0    0 -0.45508207392E+02  0.60691662815E+02 -0.10256144610E+03  0.12756694360E+03  0.00000000000E+00 0.  1.
       14    1    4    4    0    0 -0.15134605648E+03  0.97374602157E+02 -0.46747459583E+03  0.50091909497E+03  0.00000000000E+00 0. -1.
        3    1    5    5  501    0 -0.39419012937E+01 -0.11382164957E+02  0.35566174959E+02  0.37550566789E+02  0.00000000000E+00 0. -1.
       -4    1    5    5    0  501  0.20079616517E+03 -0.14668410001E+03  0.27654885351E+03  0.37190941091E+03  0.14200000000E+01 0.  1.
</event>
<event>
 9   1  0.7335000E-04  0.9979404E+03  0.7818608E-02  0.9310807E-01
       21   -1    0    0  503  502  0.00000000000E+00  0.00000000000E+00  0.32321379037E+03  0.32321379037E+03  0.00000000000E+00 0. -1.
       21   -1    0    0  502  503 -0.00000000000E+00 -0.00000000000E+00 -0.77029907260E+03  0.77029907260E+03  0.00000000000E+00 0.  1.
       39    2    1    2    0    0  0.00000000000E+00  0.00000000000E+00 -0.44708528223E+03  0.10935128630E+04  0.99794044507E+03 0.  0.
       24    2    3    3    0    0  0.34958253378E+03 -0.34573289149E+03 -0.19250853877E+03  0.53411004936E+03  0.80466310645E+02 0.  0.
      -24    2    3    3    0    0 -0.34958253378E+03  0.34573289149E+03 -0.25457674346E+03  0.55940281362E+03  0.79893738123E+02 0.  0.
      -13    1    4    4    0    0  0.24905358966E+03 -0.28187941839E+03 -0.17057753427E+03  0.41301379182E+03  0.00000000000E+00 0.  1.
       14    1    4    4    0    0  0.10052894412E+03 -0.63853473097E+02 -0.21931004499E+02  0.12109625754E+03  0.00000000000E+00 0. -1.
        3    1    5    5  501    0 -0.21108517741E+03  0.17137665106E+03 -0.10660714191E+03  0.29204792648E+03  0.00000000000E+00 0. -1.
       -4    1    5    5    0  501 -0.13849735637E+03  0.17435624042E+03 -0.14796960154E+03  0.26735488714E+03  0.14200000000E+01 0.  1.
</event>
<event>
 9   1  0.7335000E-04  0.1004062E+04  0.7818608E-02  0.9304101E-01
       -2   -1    0    0    0  501 -0.00000000000E+00  0.00000000000E+00  0.42821974825E+03  0.42821974825E+03  0.00000000000E+00 0. -1.
        2   -1    0    0  501    0  0.00000000000E+00 -0.00000000000E+00 -0.58856455725E+03  0.58856455725E+03  0.00000000000E+00 0.  1.
       39    2    1    2    0    0  0.00000000000E+00 -0.56843418861E-13 -0.16034480900E+03  0.10167843055E+04  0.10040616844E+04 0.  0.
       24    2    3    3    0    0  0.37163692854E+03  0.31694557704E+03  0.38784580316E+01  0.49538035590E+03  0.82572084368E+02 0.  0.
      -24    2    3    3    0    0 -0.37163692854E+03 -0.31694557704E+03 -0.16422326703E+03  0.52140394959E+03  0.79525415797E+02 0.  0.
      -13    1    4    4    0    0  0.14506902743E+03  0.16817158448E+03  0.25065470622E+02  0.22350611258E+03  0.00000000000E+00 0.  1.
       14    1    4    4    0    0  0.22656790111E+03  0.14877399256E+03 -0.21187012590E+02  0.27187424332E+03  0.00000000000E+00 0. -1.
        3    1    5    5  502    0 -0.34699195607E+03 -0.31596898430E+03 -0.16251559118E+03  0.49663984334E+03  0.00000000000E+00 0. -1.
       -4    1    5    5    0  502 -0.24644972475E+02 -0.97659273297E+00 -0.17076758512E+01  0.24764106252E+02  0.14200000000E+01 0.  1.
</event>
<event>
 9   1  0.7335000E-04  0.1013706E+04  0.7818608E-02  0.9293639E-01
       21   -1    0    0  503  502  0.00000000000E+00  0.00000000000E+00  0.24022118080E+04  0.24022118080E+04  0.00000000000E+00 0. -1.
       21   -1    0    0  502  503 -0.00000000000E+00 -0.00000000000E+00 -0.10694309187E+03  0.10694309187E+03  0.00000000000E+00 0.  1.
       39    2    1    2    0    0  0.00000000000E+00  0.28421709430E-13  0.22952687161E+04  0.25091548998E+04  0.10137059891E+04 0.  0.
       24    2    3    3    0    0 -0.18405791106E+03 -0.21055122481E+03  0.21751208838E+04  0.21944342616E+04  0.78624019292E+02 0.  0.
      -24    2    3    3    0    0  0.18405791106E+03  0.21055122481E+03  0.12014783235E+03  0.31472063829E+03  0.80027780521E+02 0.  0.
      -13    1    4    4    0    0  0.73248186256E+00 -0.28798123590E+02  0.14498970306E+03  0.14782382232E+03  0.00000000000E+00 0.  1.
       14    1    4    4    0    0 -0.18479039292E+03 -0.18175310122E+03  0.20301311807E+04  0.20466104392E+04  0.00000000000E+00 0. -1.
        1    1    5    5  501    0  0.11329319632E+03  0.71753252465E+02  0.42714386947E+02  0.14074230502E+03  0.00000000000E+00 0. -1.
       -2    1    5    5    0  501  0.70764714746E+02  0.13879797235E+03  0.77433445400E+02  0.17397833327E+03  0.00000000000E+00 0.  1.
</event>
<event>
 8   1  0.7335000E-04  0.8056608E+03  0.7818608E-02  0.9551859E-01
       21   -1    0    0  503  502  0.00000000000E+00  0.00000000000E+00  0.13998670401E+03  0.13998670401E+03  0.00000000000E+00 0.  1.
       21   -1    0    0  502  503 -0.00000000000E+00 -0.00000000000E+00 -0.11591982035E+04  0.11591982035E+04  0.00000000000E+00 0. -1.
       24    2    1    2    0    0  0.64084270275E+02 -0.38816242767E+03 -0.53556200527E+03  0.67025498426E+03  0.87396902053E+02 0.  0.
      -24    2    1    2    0    0 -0.64084270275E+02  0.38816242767E+03 -0.48364949424E+03  0.62892992327E+03  0.82819992552E+02 0.  0.
      -13    1    3    3    0    0  0.72953898180E+02 -0.20847911399E+03 -0.25982861963E+03  0.34102305466E+03  0.00000000000E+00 0.  1.
       14    1    3    3    0    0 -0.88696279053E+01 -0.17968331368E+03 -0.27573338564E+03  0.32923192960E+03  0.00000000000E+00 0. -1.
        1    1    4    4  501    0 -0.77594290462E+02  0.35964586747E+03 -0.46227767095E+03  0.59081864304E+03  0.00000000000E+00 0. -1.
       -2    1    4    4    0  501  0.13510020187E+02  0.28516560191E+02 -0.21371823289E+02  0.38111280237E+02  0.00000000000E+00 0.  1.
</event>
<event>
 9   1  0.7335000E-04  0.9925035E+03  0.7818608E-02  0.9316805E-01
       21   -1    0    0  503  502  0.00000000000E+00  0.00000000000E+00  0.11252332340E+04  0.11252332340E+04  0.00000000000E+00 0.  1.
       21   -1    0    0  502  503 -0.00000000000E+00 -0.00000000000E+00 -0.21885755366E+03  0.21885755366E+03  0.00000000000E+00 0. -1.
       39    2    1    2    0    0 -0.28421709430E-13  0.00000000000E+00  0.90637568037E+03  0.13440907877E+04  0.99250348693E+03 0.  0.
       24    2    3    3    0    0  0.18964654166E+03  0.30701079762E+03  0.45914018189E+01  0.36960920751E+03  0.79802535599E+02 0.  0.
      -24    2    3    3    0    0 -0.18964654166E+03 -0.30701079762E+03  0.90178427855E+03  0.97448158017E+03  0.78600409895E+02 0.  0.
      -13    1    4    4    0    0  0.82401930070E+02  0.10886332492E+03 -0.34764270906E+02  0.14088951743E+03  0.00000000000E+00 0.  1.
       14    1    4    4    0    0  0.10724461159E+03  0.19814747270E+03  0.39355672725E+02  0.22871969008E+03  0.00000000000E+00 0. -1.
        1    1    5    5  501    0 -0.39408861135E+02 -0.19742429628E+02  0.13398010001E+03  0.14104428050E+03  0.00000000000E+00 0. -1.
       -2    1    5    5    0  501 -0.15023768053E+03 -0.28726836799E+03  0.76780417854E+03  0.83343729967E+03  0.00000000000E+00 0.  1.
</event>
<event>
 9   1  0.7335000E-04  0.9970617E+03  0.7818608E-02  0.9311773E-01
       21   -1    0    0  503  502  0.00000000000E+00  0.00000000000E+00  0.23031690616E+03  0.23031690616E+03  0.00000000000E+00 0. -1.
       21   -1    0    0  502  503 -0.00000000000E+00 -0.00000000000E+00 -0.10790914052E+04  0.10790914052E+04  0.00000000000E+00 0.  1.
       39    2    1    2    0    0  0.00000000000E+00  0.00000000000E+00 -0.84877449900E+03  0.13094083113E+04  0.99706167091E+03 0.  0.
       24    2    3    3    0    0 -0.37784165587E+03 -0.21005169249E+03 -0.11566132642E+03  0.45456320563E+03  0.79775529195E+02 0.  0.
      -24    2    3    3    0    0  0.37784165587E+03  0.21005169249E+03 -0.73311317257E+03  0.85484510568E+03  0.80119913114E+02 0.  0.
      -13    1    4    4    0    0 -0.11540062940E+03 -0.65252412490E+02  0.19292507217E+01  0.13258546153E+03  0.00000000000E+00 0.  1.
       14    1    4    4    0    0 -0.26244102647E+03 -0.14479928000E+03 -0.11759057715E+03  0.32197774410E+03  0.00000000000E+00 0. -1.
        3    1    5    5  501    0  0.60157415808E+02  0.56713585484E+02 -0.96873081467E+02  0.12735674057E+03  0.00000000000E+00 0. -1.
       -4    1    5    5    0  501  0.31768424006E+03  0.15333810701E+03 -0.63624009111E+03  0.72748836511E+03  0.14200000000E+01 0.  1.
</event>
<event>
 9   1  0.7335000E-04  0.9991148E+03  0.7818608E-02  0.9309516E-01
       21   -1    0    0  503  502  0.00000000000E+00  0.00000000000E+00  0.50988358021E+03  0.50988358021E+03  0.00000000000E+00 0.  1.
       21   -1    0    0  502  503 -0.00000000000E+00 -0.00000000000E+00 -0.48944038738E+03  0.48944038738E+03  0.00000000000E+00 0. -1.
       39    2    1    2    0    0 -0.28421709430E-13  0.28421709430E-13  0.20443192833E+02  0.99932396759E+03  0.99911484228E+03 0.  0.
       24    2    3    3    0    0 -0.17962874942E+03  0.13861565377E+03  0.44760537474E+03  0.50828934651E+03  0.80788001511E+02 0.  0.
      -24    2    3    3    0    0  0.17962874942E+03 -0.13861565377E+03 -0.42716218190E+03  0.49103462109E+03  0.84656260048E+02 0.  0.
      -13    1    4    4    0    0 -0.15997886699E+03  0.80925460917E+02  0.31760721986E+03  0.36471429121E+03  0.00000000000E+00 0.  1.
       14    1    4    4    0    0 -0.19649882437E+02  0.57690192852E+02  0.12999815488E+03  0.14357505529E+03  0.00000000000E+00 0. -1.
        3    1    5    5  501    0  0.18806186167E+03 -0.13066516868E+03 -0.41608666948E+03  0.47494080331E+03  0.00000000000E+00 0. -1.
       -4    1    5    5    0  501 -0.84331122487E+01 -0.79504850892E+01 -0.11075512421E+02  0.16093817780E+02  0.14200000000E+01 0.  1.
</event>
<event>
 9   1  0.7335000E-04  0.9948819E+03  0.7818608E-02  0.9314176E-01
       21   -1    0    0  503  502  0.00000000000E+00  0.00000000000E+00  0.46723972277E+03  0.46723972277E+03  0.00000000000E+00 0. -1.
       21   -1    0    0  502  503 -0.00000000000E+00 -0.00000000000E+00 -0.52959428762E+03  0.52959428762E+03  0.00000000000E+00 0.  1.
       39    2    1    2    0    0  0.14210854715E-13 -0.14210854715E-13 -0.62354564852E+02  0.99683401040E+03  0.99488187868E+03 0.  0.
       24    2    3    3    0    0 -0.58616063337E+02  0.33464041177E+02 -0.51851793517E+03  0.52894847723E+03  0.79812013758E+02 0.  0.
      -24    2    3    3    0    0  0.58616063337E+02 -0.33464041177E+02  0.45616337032E+03  0.46788553317E+03  0.79222261981E+02 0.  0.
      -13    1    4    4    0    0 -0.45253324733E+02  0.18993296794E+02 -0.49833966214E+03  0.50075046438E+03  0.00000000000E+00 0.  1.
       14    1    4    4    0    0 -0.13362738604E+02  0.14470744382E+02 -0.20178273035E+02  0.28198012849E+02  0.00000000000E+00 0. -1.
        3    1    5    5  501    0  0.55659535728E+02 -0.37344041877E+02  0.45769685309E+03  0.46257861030E+03  0.00000000000E+00 0. -1.
       -4    1    5    5    0  501  0.29565276087E+01  0.38800007002E+01 -0.15334827669E+01  0.53069228684E+01  0.14200000000E+01 0.  1.
</event>
<event>
 9   1  0.7335000E-04  0.9987062E+03  0.7818608E-02  0.9309965E-01
       21   -1    0    0  503  502  0.00000000000E+00  0.00000000000E+00  0.72096571324E+03  0.72096571324E+03  0.00000000000E+00 0.  1.
       21   -1    0    0  502  503 -0.00000000000E+00 -0.00000000000E+00 -0.34586047199E+03  0.34586047199E+03  0.00000000000E+00 0. -1.
       39    2    1    2    0    0  0.71054273576E-14  0.56843418861E-13  0.37510524126E+03  0.10668261852E+04  0.99870624684E+03 0.  0.
       24    2    3    3    0    0  0.14934812786E+02 -0.42823385321E+03  0.44771167346E+03  0.62502722416E+03  0.81277344449E+02 0.  0.
      -24    2    3    3    0    0 -0.14934812786E+02  0.42823385321E+03 -0.72606432199E+02  0.44179896108E+03  0.79418803482E+02 0.  0.
      -13    1    4    4    0    0  0.47805988131E+02 -0.22741138897E+03  0.24939129407E+03  0.34087735315E+03  0.00000000000E+00 0.  1.
       14    1    4    4    0    0 -0.32871175345E+02 -0.20082246424E+03  0.19832037938E+03  0.28414987100E+03  0.00000000000E+00 0. -1.
        1    1    5    5  501    0  0.27921755067E+02  0.27343390370E+03 -0.53893714655E+02  0.28008972951E+03  0.00000000000E+00 0. -1.
       -2    1    5    5    0  501 -0.42856567853E+02  0.15479994950E+03 -0.18712717544E+02  0.16170923156E+03  0.00000000000E+00 0.  1.
</event>
<event>
 9   1  0.7335000E-04  0.1015113E+04  0.7818608E-02  0.9292122E-01
       -1   -1    0    0    0  501 -0.00000000000E+00  0.00000000000E+00  0.46976666434E+03  0.46976666434E+03  0.00000000000E+00 0.  1.
        1   -1    0    0  501    0  0.00000000000E+00 -0.00000000000E+00 -0.54838655915E+03  0.54838655915E+03  0.00000000000E+00 0. -1.
       39    2    1    2    0    0  0.56843418861E-13  0.28421709430E-13 -0.78619894809E+02  0.10181532235E+04  0.10151132442E+04 0.  0.
       24    2    3    3    0    0  0.39569382651E+03  0.12282741990E+03 -0.32209006096E+03  0.53090233714E+03  0.80343666838E+02 0.  0.
      -24    2    3    3    0    0 -0.39569382651E+03 -0.12282741990E+03  0.24347016615E+03  0.48725088634E+03  0.80470646953E+02 0.  0.
      -13    1    4    4    0    0  0.65710145815E+02 -0.16922886048E+00 -0.25495106634E+02  0.70482993436E+02  0.00000000000E+00 0.  1.
       14    1    4    4    0    0  0.32998368070E+03  0.12299664876E+03 -0.29659495432E+03  0.46041934371E+03  0.00000000000E+00 0. -1.
        3    1    5    5  502    0 -0.24169738126E+02  0.78312175978E+01  0.29902743701E+02  0.39238734574E+02  0.00000000000E+00 0. -1.
       -4    1    5    5    0  502 -0.37152408839E+03 -0.13065863750E+03  0.21356742245E+03  0.44801215177E+03  0.14200000000E+01 0.  1.
</event>
<event>
 9   1  0.7335000E-04  0.1003564E+04  0.7818608E-02  0.9304645E-01
       21   -1    0    0  503  502  0.00000000000E+00  0.00000000000E+00  0.46522641959E+03  0.46522641959E+03  0.00000000000E+00 0.  1.
       21   -1    0    0  502  503 -0.00000000000E+00 -0.00000000000E+00 -0.54120947850E+03  0.54120947850E+03  0.00000000000E+00 0. -1.
       39    2    1    2    0    0  0.00000000000E+00  0.00000000000E+00 -0.75983058906E+02  0.10064358981E+04  0.10035635464E+04 0.  0.
       24    2    3    3    0    0  0.10206246302E+03 -0.24054042537E+03 -0.45930012767E+03  0.53499929935E+03  0.83613398670E+02 0.  0.
      -24    2    3    3    0    0 -0.10206246302E+03  0.24054042537E+03  0.38331706876E+03  0.47143659874E+03  0.83928831948E+02 0.  0.
      -13    1    4    4    0    0  0.47461215156E+02 -0.28441352776E+02 -0.91413446578E+02  0.10685455398E+03  0.00000000000E+00 0.  1.
       14    1    4    4    0    0  0.54601247860E+02 -0.21209907259E+03 -0.36788668109E+03  0.42814474537E+03  0.00000000000E+00 0. -1.
        3    1    5    5  501    0 -0.83269349100E+02  0.19544646375E+03  0.24258872736E+03  0.32246301390E+03  0.00000000000E+00 0. -1.
       -4    1    5    5    0  501 -0.18793113916E+02  0.45093961614E+02  0.14072834140E+03  0.14897358484E+03  0.14200000000E+01 0.  1.
</event>
<event>
 9   1  0.7335000E-04  0.9920633E+03  0.7818608E-02  0.9317293E-01
       21   -1    0    0  503  502  0.00000000000E+00  0.00000000000E+00  0.10975798595E+04  0.10975798595E+04  0.00000000000E+00 0.  1.
       21   -1    0    0  502  503 -0.00000000000E+00 -0.00000000000E+00 -0.22417264399E+03  0.22417264399E+03  0.00000000000E+00 0. -1.
       39    2    1    2    0    0  0.00000000000E+00 -0.28421709430E-13  0.87340721553E+03  0.13217525035E+04  0.99206326229E+03 0.  0.
       24    2    3    3    0    0 -0.41619161162E+03 -0.23996904478E+03  0.55820823482E+03  0.74133190076E+03  0.84711000643E+02 0.  0.
      -24    2    3    3    0    0  0.41619161162E+03  0.23996904478E+03  0.31519898072E+03  0.58042060275E+03  0.82079708939E+02 0.  0.
      -13    1    4    4    0    0 -0.39649702480E+03 -0.20567540890E+03  0.49466526240E+03  0.66648779908E+03  0.00000000000E+00 0.  1.
       14    1    4    4    0    0 -0.19694586817E+02 -0.34293635881E+02  0.63542972419E+02  0.74844101677E+02  0.00000000000E+00 0. -1.
        3    1    5    5  501    0  0.36008485526E+03  0.18833756358E+03  0.23355757119E+03  0.46870169607E+03  0.00000000000E+00 0. -1.
       -4    1    5    5    0  501  0.56106756362E+02  0.51631481201E+02  0.81641409524E+02  0.11171890668E+03  0.14200000000E+01 0.  1.
</event>
<event>
 9   1  0.7335000E-04  0.9981232E+03  0.7818608E-02  0.9310606E-01
        2   -1    0    0  501    0  0.00000000000E+00  0.00000000000E+00  0.72464764676E+03  0.72464764676E+03  0.00000000000E+00 0.  1.
       -2   -1    0    0    0  501 -0.00000000000E+00 -0.00000000000E+00 -0.34370152934E+03  0.34370152934E+03  0.00000000000E+00 0. -1.
       39    2    1    2    0    0  0.00000000000E+00  0.00000000000E+00  0.38094611742E+03  0.10683491761E+04  0.99812324774E+03 0.  0.
       24    2    3    3    0    0 -0.28560707338E+03 -0.37792115653E+03  0.33500360130E+03  0.58550014126E+03  0.78658766903E+02 0.  0.
      -24    2    3    3    0    0  0.28560707338E+03  0.37792115653E+03  0.45942516113E+02  0.48284903484E+03  0.81465788748E+02 0.  0.
      -13    1    4    4    0    0 -0.28093366959E+03 -0.38029944413E+03  0.33615602026E+03  0.58013124711E+03  0.00000000000E+00 0.  1.
       14    1    4    4    0    0 -0.46734037951E+01  0.23782875999E+01 -0.11524189607E+01  0.53688941507E+01  0.00000000000E+00 0. -1.
        1    1    5    5  502    0  0.26168671228E+03  0.30436931751E+03  0.22490482481E+02  0.40202790777E+03  0.00000000000E+00 0. -1.
       -2    1    5    5    0  502  0.23920361102E+02  0.73551839016E+02  0.23452033632E+02  0.80821127061E+02  0.00000000000E+00 0.  1.
</event>
<event>
 9   1  0.7335000E-04  0.9984400E+03  0.7818608E-02  0.9310257E-01
       -1   -1    0    0    0  501 -0.00000000000E+00  0.00000000000E+00  0.61472782094E+03  0.61472782094E+03  0.00000000000E+00 0. -1.
        1   -1    0    0  501    0  0.00000000000E+00 -0.00000000000E+00 -0.40541616392E+03  0.40541616392E+03  0.00000000000E+00 0.  1.
       39    2    1    2    0    0  0.00000000000E+00  0.00000000000E+00  0.20931165702E+03  0.10201439849E+04  0.99843997320E+03 0.  0.
       24    2    3    3    0    0  0.28342051703E+03 -0.36043555560E+03  0.28608347266E+03  0.54672216973E+03  0.82585702921E+02 0.  0.
      -24    2    3    3    0    0 -0.28342051703E+03  0.36043555560E+03 -0.76771815637E+02  0.47342181514E+03  0.89405392200E+02 0.  0.
      -13    1    4    4    0    0  0.33441155563E+02 -0.86041256228E+02  0.35675155280E+02  0.98965273520E+02  0.00000000000E+00 0.  1.
       14    1    4    4    0    0  0.24997936147E+03 -0.27439429937E+03  0.25040831738E+03  0.44775689621E+03  0.00000000000E+00 0. -1.
        3    1    5    5  502    0 -0.85075370175E+02  0.12110262400E+03  0.16428200839E+02  0.14890785719E+03  0.00000000000E+00 0. -1.
       -4    1    5    5    0  502 -0.19834514686E+03  0.23933293160E+03 -0.93200016477E+02  0.32451395794E+03  0.14200000000E+01 0.  1.
</event>
<event>
 9   1  0.7335000E-04  0.1002770E+04  0.7818608E-02  0.9305512E-01
       -2   -1    0    0    0  501 -0.00000000000E+00  0.00000000000E+00  0.18931848221E+03  0.18931848221E+03  0.00000000000E+00 0.  1.
        2   -1    0    0  501    0  0.00000000000E+00 -0.00000000000E+00 -0.13278513205E+04  0.13278513205E+04  0.00000000000E+00 0. -1.
       39    2    1    2    0    0  0.00000000000E+00  0.00000000000E+00 -0.11385328383E+04  0.15171698027E+04  0.10027697574E+04 0.  0.
       24    2    3    3    0    0 -0.27731271865E+03  0.28061717123E+03 -0.10204904267E+04  0.10970865577E+04  0.80931225277E+02 0.  0.
      -24    2    3    3    0    0  0.27731271865E+03 -0.28061717123E+03 -0.11804241157E+03  0.42008324507E+03  0.82991452224E+02 0.  0.
      -13    1    4    4    0    0 -0.20461430907E+02  0.49148380914E+02 -0.19434378673E+03  0.20150369957E+03  0.00000000000E+00 0.  1.
       14    1    4    4    0    0 -0.25685128774E+03  0.23146879032E+03 -0.82614664000E+03  0.89558285808E+03  0.00000000000E+00 0. -1.
        1    1    5    5  502    0  0.19116380637E+03 -0.19695896171E+03 -0.41283555078E+02  0.27756218291E+03  0.00000000000E+00 0. -1.
       -2    1    5    5    0  502  0.86148912279E+02 -0.83658209526E+02 -0.76758856497E+02  0.14252106216E+03  0.00000000000E+00 0.  1.
</event>
<event>
 9   1  0.7335000E-04  0.9218952E+03  0.7818608E-02  0.9398618E-01
       21   -1    0    0  503  502  0.00000000000E+00  0.00000000000E+00  0.71607726166E+03  0.71607726166E+03  0.00000000000E+00 0.  1.
       21   -1    0    0  502  503 -0.00000000000E+00 -0.00000000000E+00 -0.29671754660E+03  0.29671754660E+03  0.00000000000E+00 0. -1.
       39    2    1    2    0    0  0.00000000000E+00  0.00000000000E+00  0.41935971506E+03  0.10127948083E+04  0.92189519634E+03 0.  0.
       24    2    3    3    0    0 -0.16742389933E+03  0.41738518478E+03  0.27722056201E+03  0.53424462239E+03  0.79529378314E+02 0.  0.
      -24    2    3    3    0    0  0.16742389933E+03 -0.41738518478E+03  0.14213915305E+03  0.47855018587E+03  0.81028310013E+02 0.  0.
      -13    1    4    4    0    0 -0.10379224782E+03  0.28050636580E+03  0.22588553708E+03  0.37480785454E+03  0.00000000000E+00 0.  1.
       14    1    4    4    0    0 -0.63631651502E+02  0.13687881899E+03  0.51335024923E+02  0.15943676785E+03  0.00000000000E+00 0. -1.
        1    1    5    5  501    0  0.80186791585E+02 -0.13941497641E+03  0.17885242321E+02  0.16182193635E+03  0.00000000000E+00 0. -1.
       -2    1    5    5    0  501  0.87237107742E+02 -0.27797020838E+03  0.12425391073E+03  0.31672824952E+03  0.00000000000E+00 0.  1.
</event>
<event>
 9   1  0.7335000E-04  0.1000950E+04  0.7818608E-02  0.9307503E-01
       21   -1    0    0  503  502  0.00000000000E+00  0.00000000000E+00  0.58212126681E+03  0.58212126681E+03  0.00000000000E+00 0.  1.
       21   -1    0    0  502  503 -0.00000000000E+00 -0.00000000000E+00 -0.43028039297E+03  0.43028039297E+03  0.00000000000E+00 0. -1.
       39    2    1    2    0    0  0.00000000000E+00 -0.28421709430E-13  0.15184087384E+03  0.10124016598E+04  0.10009502834E+04 0.  0.
       24    2    3    3    0    0 -0.98797291207E+02 -0.22358914653E+03  0.51089294053E+03  0.57117797673E+03  0.74024814915E+02 0.  0.
      -24    2    3    3    0    0  0.98797291207E+02  0.22358914653E+03 -0.35905206669E+03  0.44122368306E+03  0.77504455981E+02 0.  0.
      -13    1    4    4    0    0 -0.88151445594E+02 -0.10843184925E+03  0.27641811103E+03  0.30973394292E+03  0.00000000000E+00 0.  1.
       14    1    4    4    0    0 -0.10645845614E+02 -0.11515729728E+03  0.23447482950E+03  0.26144403381E+03  0.00000000000E+00 0. -1.
        3    1    5    5  501    0  0.70427375428E+02  0.20629986243E+03 -0.33687504903E+03  0.40125359451E+03  0.00000000000E+00 0. -1.
       -4    1    5    5    0  501  0.28369915779E+02  0.17289284102E+02 -0.22177017667E+02  0.39970088550E+02  0.14200000000E+01 0.  1.
</event>
<event>
 9   1  0.7335000E-04  0.1000459E+04  0.7818608E-02  0.9308041E-01
       21   -1    0    0  503  502  0.00000000000E+00  0.00000000000E+00  0.13940183793E+04  0.13940183793E+04  0.00000000000E+00 0.  1.
       21   -1    0    0  502  503 -0.00000000000E+00 -0.00000000000E+00 -0.17950234206E+03  0.17950234206E+03  0.00000000000E+00 0. -1.
       39    2    1    2    0    0  0.71054273576E-14 -0.35527136788E-14  0.12145160373E+04  0.15735207214E+04  0.10004590226E+04 0.  0.
       24    2    3    3    0    0 -0.50208048056E+02  0.14450119212E+02  0.13795603686E+04  0.13828165026E+04  0.79151848749E+02 0.  0.
      -24    2    3    3    0    0  0.50208048056E+02 -0.14450119212E+02 -0.16504433132E+03  0.19070421881E+03  0.79992585496E+02 0.  0.
      -13    1    4    4    0    0 -0.60907403796E+02  0.30802011357E+02  0.12421318135E+04  0.12440055939E+04  0.00000000000E+00 0.  1.
       14    1    4    4    0    0  0.10699355740E+02 -0.16351892145E+02  0.13742855514E+03  0.13881090865E+03  0.00000000000E+00 0. -1.
        3    1    5    5  501    0 -0.65924312265E+01  0.20567878292E+02 -0.78478147264E+02  0.81396052514E+02  0.00000000000E+00 0. -1.
       -4    1    5    5    0  501  0.56800479283E+02 -0.35017997504E+02 -0.86566184059E+02  0.10930816629E+03  0.14200000000E+01 0.  1.
</event>
<event>
 9   1  0.7335000E-04  0.1002023E+04  0.7818608E-02  0.9306328E-01
       21   -1    0    0  503  502  0.00000000000E+00  0.00000000000E+00  0.58546085449E+03  0.58546085449E+03  0.00000000000E+00 0.  1.
       21   -1    0    0  502  503 -0.00000000000E+00 -0.00000000000E+00 -0.42874370780E+03  0.42874370780E+03  0.00000000000E+00 0. -1.
       39    2    1    2    0    0  0.56843418861E-13  0.00000000000E+00  0.15671714669E+03  0.10142045623E+04  0.10020232682E+04 0.  0.
       24    2    3    3    0    0 -0.27514769596E+03 -0.38348115372E+01  0.49266587759E+03  0.57004790763E+03  0.80709291195E+02 0.  0.
      -24    2    3    3    0    0  0.27514769596E+03  0.38348115372E+01 -0.33594873091E+03  0.44415665465E+03  0.93234241048E+02 0.  0.
      -13    1    4    4    0    0 -0.17780073156E+03  0.29859963814E+02  0.35443613869E+03  0.39765524514E+03  0.00000000000E+00 0.  1.
       14    1    4    4    0    0 -0.97346964398E+02 -0.33694775351E+02  0.13822973890E+03  0.17239266249E+03  0.00000000000E+00 0. -1.
        1    1    5    5  501    0  0.35737742870E+02  0.32714822994E+02 -0.43542267953E+02  0.65141192862E+02  0.00000000000E+00 0. -1.
       -2    1    5    5    0  501  0.23940995309E+03 -0.28880011457E+02 -0.29240646295E+03  0.37901546179E+03  0.00000000000E+00 0.  1.
</event>
<event>
 9   1  0.7335000E-04  0.1002451E+04  0.7818608E-02  0.9305861E-01
       21   -1    0    0  503  502  0.00000000000E+00  0.00000000000E+00  0.77143473861E+03  0.77143473861E+03  0.00000000000E+00 0.  1.
       21   -1    0    0  502  503 -0.00000000000E+00 -0.00000000000E+00 -0.32566206984E+03  0.32566206984E+03  0.00000000000E+00 0. -1.
       39    2    1    2    0    0 -0.53290705182E-14  0.00000000000E+00  0.44577266877E+03  0.10970968084E+04  0.10024510636E+04 0.  0.
       24    2    3    3    0    0 -0.12458255784E+02  0.65741195500E+02 -0.31185901309E+03  0.33160359529E+03  0.90707152098E+02 0.  0.
      -24    2    3    3    0    0  0.12458255784E+02 -0.65741195500E+02  0.75763168187E+03  0.76549321315E+03  0.86585108944E+02 0.  0.
      -13    1    4    4    0    0  0.27755257719E+02 -0.77230188993E+01 -0.72417117660E+02  0.77937399765E+02  0.00000000000E+00 0.  1.
       14    1    4    4    0    0 -0.40213513503E+02  0.73464214399E+02 -0.23944189543E+03  0.25366619553E+03  0.00000000000E+00 0. -1.
        1    1    5    5  501    0  0.20003888517E+02  0.68798643416E+01  0.52648374662E+02  0.56739223150E+02  0.00000000000E+00 0. -1.
       -2    1    5    5    0  501 -0.75456327335E+01 -0.72621059841E+02  0.70498330720E+03  0.70875399000E+03  0.00000000000E+00 0.  1.
</event>
<event>
 9   1  0.7335000E-04  0.9972022E+03  0.7818608E-02  0.9311619E-01
       -1   -1    0    0    0  501 -0.00000000000E+00  0.00000000000E+00  0.12014543583E+04  0.12014543583E+04  0.00000000000E+00 0.  1.
        1   -1    0    0  501    0  0.00000000000E+00 -0.00000000000E+00 -0.20691843634E+03  0.20691843634E+03  0.00000000000E+00 0. -1.
       39    2    1    2    0    0  0.00000000000E+00 -0.35527136788E-14  0.99453592197E+03  0.14083727947E+04  0.99720220048E+03 0.  0.
       24    2    3    3    0    0 -0.21188550895E+03 -0.63067356232E+01  0.11253345032E+04  0.11480296628E+04  0.81603423962E+02 0.  0.
      -24    2    3    3    0    0  0.21188550895E+03  0.63067356232E+01 -0.13079858121E+03  0.26034313186E+03  0.75730004924E+02 0.  0.
      -13    1    4    4    0    0 -0.13983709973E+03 -0.42706512180E+02  0.74835833141E+03  0.76250800181E+03  0.00000000000E+00 0.  1.
       14    1    4    4    0    0 -0.72048409214E+02  0.36399776557E+02  0.37697617177E+03  0.38552166098E+03  0.00000000000E+00 0. -1.
        3    1    5    5  502    0  0.10123910830E+03 -0.20627328655E+02 -0.96572075058E+02  0.14142492503E+03  0.00000000000E+00 0. -1.
       -4    1    5    5    0  502  0.11064640064E+03  0.26934064279E+02 -0.34226506150E+02  0.11891820684E+03  0.14200000000E+01 0.  1.
</event>
<event>
 9   1  0.7335000E-04  0.1007906E+04  0.7818608E-02  0.9299916E-01
       21   -1    0    0  503  502  0.00000000000E+00  0.00000000000E+00  0.26044834079E+03  0.26044834079E+03  0.00000000000E+00 0. -1.
       21   -1    0    0  502  503 -0.00000000000E+00 -0.00000000000E+00 -0.97512050932E+03  0.97512050932E+03  0.00000000000E+00 0.  1.
       39    2    1    2    0    0  0.71054273576E-14  0.00000000000E+00 -0.71467216853E+03  0.12355688501E+04  0.10079057867E+04 0.  0.
       24    2    3    3    0    0  0.48086446900E+02  0.28357027407E+03 -0.85444696758E+03  0.90508165094E+03  0.79804559748E+02 0.  0.
      -24    2    3    3    0    0 -0.48086446900E+02 -0.28357027407E+03  0.13977479905E+03  0.33048719917E+03  0.83428937752E+02 0.  0.
      -13    1    4    4    0    0  0.59944252216E+02  0.15533339217E+03 -0.54620657547E+03  0.57101961366E+03  0.00000000000E+00 0.  1.
       14    1    4    4    0    0 -0.11857805316E+02  0.12823688190E+03 -0.30824039211E+03  0.33406203728E+03  0.00000000000E+00 0. -1.
        3    1    5    5  501    0 -0.20335093776E+02 -0.23401680951E+03  0.80317297592E+02  0.24825038059E+03  0.00000000000E+00 0. -1.
       -4    1    5    5    0  501 -0.27751353124E+02 -0.49553464559E+02  0.59457501458E+02  0.82236818577E+02  0.14200000000E+01 0.  1.
</event>
<event>
 9   1  0.7335000E-04  0.9855573E+03  0.7818608E-02  0.9324529E-01
       21   -1    0    0  503  502  0.00000000000E+00  0.00000000000E+00  0.17710556072E+03  0.17710556072E+03  0.00000000000E+00 0.  1.
       21   -1    0    0  502  503 -0.00000000000E+00 -0.00000000000E+00 -0.13711077739E+04  0.13711077739E+04  0.00000000000E+00 0. -1.
       39    2    1    2    0    0 -0.28421709430E-13  0.00000000000E+00 -0.11940022132E+04  0.15482133346E+04  0.98555732680E+03 0.  0.
       24    2    3    3    0    0  0.16590708124E+03  0.39342882812E+03 -0.96226813273E+03  0.10558447034E+04  0.80849712689E+02 0.  0.
      -24    2    3    3    0    0 -0.16590708124E+03 -0.39342882812E+03 -0.23173408047E+03  0.49236863122E+03  0.80092337712E+02 0.  0.
      -13    1    4    4    0    0  0.13805225663E+03  0.22809170373E+03 -0.60916876876E+03  0.66495927673E+03  0.00000000000E+00 0.  1.
       14    1    4    4    0    0  0.27854824612E+02  0.16533712438E+03 -0.35309936397E+03  0.39088542668E+03  0.00000000000E+00 0. -1.
        1    1    5    5  501    0  0.34137385894E+01 -0.63427053789E+02 -0.33335166763E+02  0.71734776131E+02  0.00000000000E+00 0. -1.
       -2    1    5    5    0  501 -0.16932081983E+03 -0.33000177433E+03 -0.19839891370E+03  0.42063385509E+03  0.00000000000E+00 0.  1.
</event>
<event>
 9   1  0.7335000E-04  0.9970493E+03  0.7818608E-02  0.9311787E-01
       -2   -1    0    0    0  501 -0.00000000000E+00  0.00000000000E+00  0.19908638486E+03  0.19908638486E+03  0.00000000000E+00 0. -1.
        2   -1    0    0  501    0  0.00000000000E+00 -0.00000000000E+00 -0.12483366667E+04  0.12483366667E+04  0.00000000000E+00 0.  1.
       39    2    1    2    0    0 -0.56843418861E-13  0.00000000000E+00 -0.10492502819E+04  0.14474230516E+04  0.99704931486E+03 0.  0.
       24    2    3    3    0    0  0.48154795878E+03 -0.55670242437E+02 -0.40223474059E+03  0.63493246532E+03  0.79742312924E+02 0.  0.
      -24    2    3    3    0    0 -0.48154795878E+03  0.55670242437E+02 -0.64701554129E+03  0.81249058628E+03  0.80772703440E+02 0.  0.
      -13    1    4    4    0    0  0.39704546248E+03 -0.75336067493E+02 -0.34047265165E+03  0.52843376961E+03  0.00000000000E+00 0.  1.
       14    1    4    4    0    0  0.84502496306E+02  0.19665825057E+02 -0.61762088944E+02  0.10649869571E+03  0.00000000000E+00 0. -1.
        1    1    5    5  502    0 -0.32964696965E+02  0.13818960732E+02 -0.21828539917E+02  0.41882216711E+02  0.00000000000E+00 0. -1.
       -2    1    5    5    0  502 -0.44858326182E+03  0.41851281705E+02 -0.62518700137E+03  0.77060836957E+03  0.00000000000E+00 0.  1.
</event>
<event>
 9   1  0.7335000E-04  0.1011721E+04  0.7818608E-02  0.9295782E-01
       21   -1    0    0  503  502  0.00000000000E+00  0.00000000000E+00  0.90063143142E+03  0.90063143142E+03  0.00000000000E+00 0.  1.
       21   -1    0    0  502  503 -0.00000000000E+00 -0.00000000000E+00 -0.28412823526E+03  0.28412823526E+03  0.00000000000E+00 0. -1.
       39    2    1    2    0    0  0.00000000000E+00  0.56843418861E-13  0.61650319616E+03  0.11847596667E+04  0.10117209481E+04 0.  0.
       24    2    3    3    0    0 -0.29275056739E+03  0.39710406089E+03  0.22382057791E+03  0.54898265870E+03  0.88835683005E+02 0.  0.
      -24    2    3    3    0    0  0.29275056739E+03 -0.39710406089E+03  0.39268261826E+03  0.63577700798E+03  0.81352537251E+02 0.  0.
      -13    1    4    4    0    0 -0.11659220651E+02  0.32162565426E+02 -0.51030764076E+01  0.34589151909E+02  0.00000000000E+00 0.  1.
       14    1    4    4    0    0 -0.28109134674E+03  0.36494149547E+03  0.22892365431E+03  0.51439350679E+03  0.00000000000E+00 0. -1.
        1    1    5    5  501    0  0.10331888538E+03 -0.96569821238E+02  0.79798636818E+02  0.16238332700E+03  0.00000000000E+00 0. -1.
       -2    1    5    5    0  501  0.18943168201E+03 -0.30053423965E+03  0.31288398144E+03  0.47339368098E+03  0.00000000000E+00 0.  1.
</event>
<event>
 9   1  0.7335000E-04  0.1075588E+04  0.7818608E-02  0.9229318E-01
       21   -1    0    0  503  502  0.00000000000E+00  0.00000000000E+00  0.32783178233E+03  0.32783178233E+03  0.00000000000E+00 0.  1.
       21   -1    0    0  502  503 -0.00000000000E+00 -0.00000000000E+00 -0.88222733855E+03  0.88222733855E+03  0.00000000000E+00 0. -1.
       39    2    1    2    0    0  0.28421709430E-13  0.00000000000E+00 -0.55439555622E+03  0.12100591209E+04  0.10755875805E+04 0.  0.
       24    2    3    3    0    0 -0.15394282731E+03 -0.19258035949E+03  0.25271549970E+03  0.36210824294E+03  0.80446670989E+02 0.  0.
      -24    2    3    3    0    0  0.15394282731E+03  0.19258035949E+03 -0.80711105592E+03  0.84795087794E+03  0.82503611272E+02 0.  0.
      -13    1    4    4    0    0 -0.13927754242E+03 -0.17210410736E+03  0.25392667512E+03  0.33689288198E+03  0.00000000000E+00 0.  1.
       14    1    4    4    0    0 -0.14665284888E+02 -0.20476252129E+02 -0.12111754215E+01  0.25215360953E+02  0.00000000000E+00 0. -1.
        1    1    5    5  501    0  0.14861374759E+03  0.19836847254E+03 -0.74061143945E+03  0.78098745260E+03  0.00000000000E+00 0. -1.
       -2    1    5    5    0  501  0.53290797254E+01 -0.57881130487E+01 -0.66499616470E+02  0.66963425345E+02  0.00000000000E+00 0.  1.
</event>
<event>
 9   1  0.7335000E-04  0.1024699E+04  0.7818608E-02  0.9281863E-01
       21   -1    0    0  503  502  0.00000000000E+00  0.00000000000E+00  0.90878659989E+03  0.90878659989E+03  0.00000000000E+00 0. -1.
       21   -1    0    0  502  503 -0.00000000000E+00 -0.00000000000E+00 -0.28884873875E+03  0.28884873875E+03  0.00000000000E+00 0.  1.
       39    2    1    2    0    0  0.14210854715E-13  0.00000000000E+00  0.61993786114E+03  0.11976353386E+04  0.10246987131E+04 0.  0.
       24    2    3    3    0    0 -0.89294552197E+02 -0.41973993572E+03 -0.32411636289E+01  0.43678443664E+03  0.81332701056E+02 0.  0.
      -24    2    3    3    0    0  0.89294552197E+02  0.41973993572E+03  0.62317902477E+03  0.76085090200E+03  0.79917879616E+02 0.  0.
      -13    1    4    4    0    0 -0.14949469505E+02 -0.15320359130E+03  0.33820428817E+02  0.15760281860E+03  0.00000000000E+00 0.  1.
       14    1    4    4    0    0 -0.74345082692E+02 -0.26653634441E+03 -0.37061592446E+02  0.27918161803E+03  0.00000000000E+00 0. -1.
        3    1    5    5  501    0  0.67325854301E+02  0.17952699192E+03  0.22841084675E+03  0.29821842062E+03  0.00000000000E+00 0. -1.
       -4    1    5    5    0  501  0.21968697896E+02  0.24021294380E+03  0.39476817801E+03  0.46263248138E+03  0.14200000000E+01 0.  1.
</event>
<event>
 9   1  0.7335000E-04  0.9957241E+03  0.7818608E-02  0.9313247E-01
       21   -1    0    0  503  502  0.00000000000E+00  0.00000000000E+00  0.11579933641E+04  0.11579933641E+04  0.00000000000E+00 0. -1.
       21   -1    0    0  502  503 -0.00000000000E+00 -0.00000000000E+00 -0.21404838852E+03  0.21404838852E+03  0.00000000000E+00 0.  1.
       39    2    1    2    0    0  0.00000000000E+00  0.00000000000E+00  0.94394497562E+03  0.13720417527E+04  0.99572408531E+03 0.  0.
       24    2    3    3    0    0  0.33268990855E+03  0.11636103727E+02 -0.24330544229E+02  0.34451024906E+03  0.85307456670E+02 0.  0.
      -24    2    3    3    0    0 -0.33268990855E+03 -0.11636103727E+02  0.96827551984E+03  0.10275315036E+04  0.86287510114E+02 0.  0.
      -13    1    4    4    0    0  0.10465989047E+02  0.17701456897E+02  0.41313387086E+01  0.20974900775E+02  0.00000000000E+00 0.  1.
       14    1    4    4    0    0  0.32222391951E+03 -0.60653531700E+01 -0.28461882937E+02  0.32353534829E+03  0.00000000000E+00 0. -1.
        1    1    5    5  501    0 -0.10457279544E+03  0.25252430074E+02  0.39626777862E+03  0.41061089506E+03  0.00000000000E+00 0. -1.
       -2    1    5    5    0  501 -0.22811711311E+03 -0.36888533801E+02  0.57200774122E+03  0.61692060854E+03  0.00000000000E+00 0.  1.
</event>
<event>
 9   1  0.7335000E-04  0.1001348E+04  0.7818608E-02  0.9307067E-01
       21   -1    0    0  503  502  0.00000000000E+00  0.00000000000E+00  0.45007795238E+03  0.45007795238E+03  0.00000000000E+00 0.  1.
       21   -1    0    0  502  503 -0.00000000000E+00 -0.00000000000E+00 -0.55695821342E+03  0.55695821342E+03  0.00000000000E+00 0. -1.
       39    2    1    2    0    0  0.00000000000E+00  0.11368683772E-12 -0.10688026105E+03  0.10070361658E+04  0.10013483155E+04 0.  0.
       24    2    3    3    0    0  0.49895547318E+02  0.30961420905E+03  0.33070089479E+03  0.46261978561E+03  0.79394333121E+02 0.  0.
      -24    2    3    3    0    0 -0.49895547318E+02 -0.30961420905E+03 -0.43758115584E+03  0.54441638019E+03  0.81002487542E+02 0.  0.
      -13    1    4    4    0    0  0.50993962765E+02  0.29631610711E+03  0.33345591212E+03  0.44899494975E+03  0.00000000000E+00 0.  1.
       14    1    4    4    0    0 -0.10984154465E+01  0.13298101944E+02 -0.27550173280E+01  0.13624835863E+02  0.00000000000E+00 0. -1.
        1    1    5    5  501    0 -0.10485689293E+02 -0.24246018821E+03 -0.29535805210E+03  0.38227381742E+03  0.00000000000E+00 0. -1.
       -2    1    5    5    0  501 -0.39409858025E+02 -0.67154020848E+02 -0.14222310374E+03  0.16214256277E+03  0.00000000000E+00 0.  1.
</event>
<event>
 9   1  0.7335000E-04  0.1010462E+04  0.7818608E-02  0.9297144E-01
       21   -1    0    0  503  502  0.00000000000E+00  0.00000000000E+00  0.24361829033E+04  0.24361829033E+04  0.00000000000E+00 0.  1.
       21   -1    0    0  502  503 -0.00000000000E+00 -0.00000000000E+00 -0.10477807649E+03  0.10477807649E+03  0.00000000000E+00 0. -1.
       39    2    1    2    0    0  0.00000000000E+00  0.56843418861E-13  0.23314048268E+04  0.25409609798E+04  0.10104623864E+04 0.  0.
       24    2    3    3    0    0  0.26873618489E+03  0.29876534386E+03  0.19069652604E+04  0.19505095002E+04  0.80566359284E+02 0.  0.
      -24    2    3    3    0    0 -0.26873618489E+03 -0.29876534386E+03  0.42443956637E+03  0.59045147955E+03  0.83690718985E+02 0.  0.
      -13    1    4    4    0    0  0.26819091498E+03  0.30127836072E+03  0.19051024894E+04  0.19473342067E+04  0.00000000000E+00 0.  1.
       14    1    4    4    0    0  0.54526990956E+00 -0.25130168588E+01  0.18627710228E+01  0.31752935124E+01  0.00000000000E+00 0. -1.
        1    1    5    5  501    0 -0.22921550149E+03 -0.22123015025E+03  0.29303387334E+03  0.43284105215E+03  0.00000000000E+00 0. -1.
       -2    1    5    5    0  501 -0.39520683398E+02 -0.77535193607E+02  0.13140569303E+03  0.15761042740E+03  0.00000000000E+00 0.  1.
</event>
<event>
 9   1  0.7335000E-04  0.9984642E+03  0.7818608E-02  0.9310231E-01
       21   -1    0    0  503  502  0.00000000000E+00  0.00000000000E+00  0.21129011158E+03  0.21129011158E+03  0.00000000000E+00 0. -1.
       21   -1    0    0  502  503 -0.00000000000E+00 -0.00000000000E+00 -0.11795757622E+04  0.11795757622E+04  0.00000000000E+00 0.  1.
       39    2    1    2    0    0  0.00000000000E+00  0.00000000000E+00 -0.96828565064E+03  0.13908658738E+04  0.99846420950E+03 0.  0.
       24    2    3    3    0    0 -0.70500498072E+02  0.43751243021E+02 -0.11608575235E+04  0.11666763248E+04  0.81602484808E+02 0.  0.
      -24    2    3    3    0    0  0.70500498072E+02 -0.43751243021E+02  0.19257187286E+03  0.22418954898E+03  0.79325507616E+02 0.  0.
      -13    1    4    4    0    0 -0.13910397069E+02  0.17782898634E+02 -0.81148057953E+03  0.81179459322E+03  0.00000000000E+00 0.  1.
       14    1    4    4    0    0 -0.56590101002E+02  0.25968344387E+02 -0.34937694397E+03  0.35488173160E+03  0.00000000000E+00 0. -1.
        3    1    5    5  501    0  0.77886093418E+02 -0.57919531548E+02  0.17681777205E+03  0.20170632166E+03  0.00000000000E+00 0. -1.
       -4    1    5    5    0  501 -0.73855953466E+01  0.14168288527E+02  0.15754100810E+02  0.22483227320E+02  0.14200000000E+01 0.  1.
</event>
<event>
 9   1  0.7335000E-04  0.9961637E+03  0.7818608E-02  0.9312762E-01
       21   -1    0    0  503  502  0.00000000000E+00  0.00000000000E+00  0.39898816133E+03  0.39898816133E+03  0.00000000000E+00 0.  1.
       21   -1    0    0  502  503 -0.00000000000E+00 -0.00000000000E+00 -0.62178670708E+03  0.62178670708E+03  0.00000000000E+00 0. -1.
       39    2    1    2    0    0  0.00000000000E+00  0.00000000000E+00 -0.22279854574E+03  0.10207748684E+04  0.99616371144E+03 0.  0.
       24    2    3    3    0    0  0.14038922156E+03  0.24753135776E+03  0.29948091869E+03  0.42066536848E+03  0.79307155888E+02 0.  0.
      -24    2    3    3    0    0 -0.14038922156E+03 -0.24753135776E+03 -0.52227946444E+03  0.60010949993E+03  0.79841507544E+02 0.  0.
      -13    1    4    4    0    0  0.10507334120E+03  0.22111127024E+03  0.28143980388E+03  0.37301335641E+03  0.00000000000E+00 0.  1.
       14    1    4    4    0    0  0.35315880364E+02  0.26420087521E+02  0.18041114817E+02  0.47652012070E+02  0.00000000000E+00 0. -1.
        1    1    5    5  501    0 -0.13515244602E+03 -0.20425455370E+03 -0.48246363065E+03  0.54107047718E+03  0.00000000000E+00 0. -1.
       -2    1    5    5    0  501 -0.52367755466E+01 -0.43276804051E+02 -0.39815833784E+02  0.59039022747E+02  0.00000000000E+00 0.  1.
</event>
<event>
 9   1  0.7335000E-04  0.1000679E+04  0.7818608E-02  0.9307800E-01
       21   -1    0    0  503  502  0.00000000000E+00  0.00000000000E+00  0.16419438517E+04  0.16419438517E+04  0.00000000000E+00 0.  1.
       21   -1    0    0  502  503 -0.00000000000E+00 -0.00000000000E+00 -0.15246551607E+03  0.15246551607E+03  0.00000000000E+00 0. -1.
       39    2    1    2    0    0  0.00000000000E+00  0.28421709430E-13  0.14894783356E+04  0.17944093678E+04  0.10006794026E+04 0.  0.
       24    2    3    3    0    0  0.22976205539E+03  0.14864649867E+03  0.14817941021E+04  0.15090793919E+04  0.81978449193E+02 0.  0.
      -24    2    3    3    0    0 -0.22976205539E+03 -0.14864649867E+03  0.76842334712E+01  0.28532997590E+03  0.80422410059E+02 0.  0.
      -13    1    4    4    0    0  0.22927192875E+03  0.14415223119E+03  0.14793590995E+04  0.15039444233E+04  0.00000000000E+00 0.  1.
       14    1    4    4    0    0  0.49012663242E+00  0.44942674774E+01  0.24350026279E+01  0.51349685561E+01  0.00000000000E+00 0. -1.
        1    1    5    5  501    0 -0.17761111905E+03 -0.94866048671E+02  0.37282745573E+02  0.20478105361E+03  0.00000000000E+00 0. -1.
       -2    1    5    5    0  501 -0.52150936335E+02 -0.53780450001E+02 -0.29598512102E+02  0.80548922287E+02  0.00000000000E+00 0.  1.
</event>
<event>
 9   1  0.7335000E-04  0.1021685E+04  0.7818608E-02  0.9285075E-01
       21   -1    0    0  503  502  0.00000000000E+00  0.00000000000E+00  0.64667223112E+03  0.64667223112E+03  0.00000000000E+00 0. -1.
       21   -1    0    0  502  503 -0.00000000000E+00 -0.00000000000E+00 -0.40354331637E+03  0.40354331637E+03  0.00000000000E+00 0.  1.
       39    2    1    2    0    0  0.00000000000E+00  0.56843418861E-13  0.24312891475E+03  0.10502155475E+04  0.10216853855E+04 0.  0.
       24    2    3    3    0    0 -0.11283037806E+03 -0.35877889905E+03  0.46724185013E+03  0.60518705317E+03  0.80519750326E+02 0.  0.
      -24    2    3    3    0    0  0.11283037806E+03  0.35877889905E+03 -0.22411293538E+03  0.44502849433E+03  0.79817042905E+02 0.  0.
      -13    1    4    4    0    0  0.11689029114E+02 -0.56208514725E+02  0.72126380909E+02  0.92185928169E+02  0.00000000000E+00 0.  1.
       14    1    4    4    0    0 -0.12451940717E+03 -0.30257038433E+03  0.39511546922E+03  0.51300112500E+03  0.00000000000E+00 0. -1.
        1    1    5    5  501    0 -0.53907535072E+01  0.82436172373E+02 -0.33699946747E+02  0.89221461261E+02  0.00000000000E+00 0. -1.
       -2    1    5    5    0  501  0.11822113156E+03  0.27634272668E+03 -0.19041298863E+03  0.35580703306E+03  0.00000000000E+00 0.  1.
</event>
<event>
 9   1  0.7335000E-04  0.1065661E+04  0.7818608E-02  0.9239323E-01
        3   -1    0    0  501    0  0.00000000000E+00  0.00000000000E+00  0.23379834845E+03  0.23379834845E+03  0.00000000000E+00 0. -1.
       -3   -1    0    0    0  501 -0.00000000000E+00 -0.00000000000E+00 -0.12143300813E+04  0.12143300813E+04  0.00000000000E+00 0.  1.
       39    2    1    2    0    0  0.00000000000E+00  0.00000000000E+00 -0.98053173287E+03  0.14481284298E+04  0.10656610483E+04 0.  0.
       24    2    3    3    0    0 -0.12311710505E+03 -0.35315382684E+03  0.13166458886E+02  0.38340945470E+03  0.83390691005E+02 0.  0.
      -24    2    3    3    0    0  0.12311710505E+03  0.35315382684E+03 -0.99369819176E+03  0.10647189751E+04  0.79466676175E+02 0.  0.
      -13    1    4    4    0    0 -0.38232075025E+02 -0.17007031132E+03 -0.30426719178E+02  0.17695024044E+03  0.00000000000E+00 0.  1.
       14    1    4    4    0    0 -0.84885030030E+02 -0.18308351552E+03  0.43593178064E+02  0.20645921426E+03  0.00000000000E+00 0. -1.
        1    1    5    5  502    0  0.80256589452E+02  0.30944424014E+03 -0.79732370611E+03  0.85902383566E+03  0.00000000000E+00 0. -1.
       -2    1    5    5    0  502  0.42860515603E+02  0.43709586696E+02 -0.19637448565E+03  0.20569513942E+03  0.00000000000E+00 0.  1.
</event>
<event>
 9   1  0.7335000E-04  0.9954460E+03  0.7818608E-02  0.9313554E-01
       21   -1    0    0  503  502  0.00000000000E+00  0.00000000000E+00  0.36328708210E+03  0.36328708210E+03  0.00000000000E+00 0.  1.
       21   -1    0    0  502  503 -0.00000000000E+00 -0.00000000000E+00 -0.68190752324E+03  0.68190752324E+03  0.00000000000E+00 0. -1.
       39    2    1    2    0    0  0.00000000000E+00  0.71054273576E-14 -0.31862044114E+03  0.10451946053E+04  0.99544601938E+03 0.  0.
       24    2    3    3    0    0 -0.10945582192E+01 -0.42726626812E+02  0.35493440587E+03  0.36549168118E+03  0.76019562248E+02 0.  0.
      -24    2    3    3    0    0  0.10945582192E+01  0.42726626812E+02 -0.67355484702E+03  0.67970292415E+03  0.80580211368E+02 0.  0.
      -13    1    4    4    0    0 -0.17454528147E+02 -0.57500746642E+02  0.30566486854E+03  0.31151566297E+03  0.00000000000E+00 0.  1.
       14    1    4    4    0    0  0.16359969928E+02  0.14774119830E+02  0.49269537332E+02  0.53976018209E+02  0.00000000000E+00 0. -1.
        3    1    5    5  501    0  0.14545635237E+02  0.46910911870E+02 -0.65240778318E+03  0.65425386870E+03  0.00000000000E+00 0. -1.
       -4    1    5    5    0  501 -0.13451077018E+02 -0.41842850584E+01 -0.21147063837E+02  0.25449055450E+02  0.14200000000E+01 0.  1.
</event>
<event>
 9   1  0.7335000E-04  0.1016696E+04  0.7818608E-02  0.9290421E-01
       21   -1    0    0  503  502  0.00000000000E+00  0.00000000000E+00  0.14393532157E+03  0.14393532157E+03  0.00000000000E+00 0.  1.
       21   -1    0    0  502  503 -0.00000000000E+00 -0.00000000000E+00 -0.17953722302E+04  0.17953722302E+04  0.00000000000E+00 0. -1.
       39    2    1    2    0    0  0.35527136788E-14  0.00000000000E+00 -0.16514369086E+04  0.19393075518E+04  0.10166955873E+04 0.  0.
       24    2    3    3    0    0  0.12430638531E+02  0.87811288212E+02 -0.17678996278E+04  0.17719423618E+04  0.80282603526E+02 0.  0.
      -24    2    3    3    0    0 -0.12430638531E+02 -0.87811288212E+02  0.11646271918E+03  0.16736518997E+03  0.81130750911E+02 0.  0.
      -13    1    4    4    0    0 -0.39539079232E+01 -0.14588465838E+02 -0.30296006530E+03  0.30333687196E+03  0.00000000000E+00 0.  1.
       14    1    4    4    0    0  0.16384546454E+02  0.10239975405E+03 -0.14649395625E+04  0.14686054898E+04  0.00000000000E+00 0. -1.
        1    1    5    5  501    0  0.34231493303E+02 -0.45094223393E+02  0.61117657532E+02  0.83310576636E+02  0.00000000000E+00 0. -1.
       -2    1    5    5    0  501 -0.46662131834E+02 -0.42717064819E+02  0.55345061648E+02  0.84054613335E+02  0.00000000000E+00 0.  1.
</event>
<event>
 9   1  0.7335000E-04  0.9982707E+03  0.7818608E-02  0.9310444E-01
       21   -1    0    0  503  502  0.00000000000E+00  0.00000000000E+00  0.17538660303E+03  0.17538660303E+03  0.00000000000E+00 0.  1.
       21   -1    0    0  502  503 -0.00000000000E+00 -0.00000000000E+00 -0.14204966017E+04  0.14204966017E+04  0.00000000000E+00 0. -1.
       39    2    1    2    0    0  0.00000000000E+00  0.71054273576E-14 -0.12451099986E+04  0.15958832047E+04  0.99827065183E+03 0.  0.
       24    2    3    3    0    0  0.40882492306E+03 -0.32245883810E+02 -0.18519127004E+03  0.45674578218E+03  0.78379131758E+02 0.  0.
      -24    2    3    3    0    0 -0.40882492306E+03  0.32245883810E+02 -0.10599187286E+04  0.11391374225E+04  0.77644970214E+02 0.  0.
      -13    1    4    4    0    0  0.24648101147E+03  0.17825857491E+02 -0.12071101834E+03  0.27503054405E+03  0.00000000000E+00 0.  1.
       14    1    4    4    0    0  0.16234391160E+03 -0.50071741302E+02 -0.64480251705E+02  0.18171523813E+03  0.00000000000E+00 0. -1.
        3    1    5    5  501    0 -0.19392602173E+03  0.53793504907E+02 -0.52654435394E+03  0.56369317873E+03  0.00000000000E+00 0. -1.
       -4    1    5    5    0  501 -0.21489890134E+03 -0.21547621097E+02 -0.53337437465E+03  0.57544424378E+03  0.14200000000E+01 0.  1.
</event>
<event>
 9   1  0.7335000E-04  0.1001553E+04  0.7818608E-02  0.9306843E-01
       21   -1    0    0  503  502  0.00000000000E+00  0.00000000000E+00  0.53198735862E+03  0.53198735862E+03  0.00000000000E+00 0. -1.
       21   -1    0    0  502  503 -0.00000000000E+00 -0.00000000000E+00 -0.47139714269E+03  0.47139714269E+03  0.00000000000E+00 0.  1.
       39    2    1    2    0    0  0.56843418861E-13 -0.71054273576E-14  0.60590215928E+02  0.10033845013E+04  0.10015534350E+04 0.  0.
       24    2    3    3    0    0 -0.27121278995E+03  0.33462213174E+02 -0.38244814202E+03  0.47671866847E+03  0.79485913118E+02 0.  0.
      -24    2    3    3    0    0  0.27121278995E+03 -0.33462213174E+02  0.44303835795E+03  0.52666583284E+03  0.80111270874E+02 0.  0.
      -13    1    4    4    0    0 -0.11395209551E+03 -0.16734239414E+02 -0.11736607304E+03  0.16443816449E+03  0.00000000000E+00 0.  1.
       14    1    4    4    0    0 -0.15726069445E+03  0.50196452588E+02 -0.26508206898E+03  0.31228050398E+03  0.00000000000E+00 0. -1.
        3    1    5    5  501    0  0.25576159475E+03 -0.28026657518E+02  0.44034884625E+03  0.51000646396E+03  0.00000000000E+00 0. -1.
       -4    1    5    5    0  501  0.15451195200E+02 -0.54355556558E+01  0.26895116977E+01  0.16659368883E+02  0.14200000000E+01 0.  1.
</event>
<event>
 9   1  0.7335000E-04  0.9818021E+03  0.7818608E-02  0.9328732E-01
        3   -1    0    0  501    0  0.00000000000E+00  0.00000000000E+00  0.78524432792E+03  0.78524432792E+03  0.00000000000E+00 0.  1.
       -3   -1    0    0    0  501 -0.00000000000E+00 -0.00000000000E+00 -0.30689025354E+03  0.30689025354E+03  0.00000000000E+00 0. -1.
       39    2    1    2    0    0  0.00000000000E+00  0.00000000000E+00  0.47835407439E+03  0.10921345815E+04  0.98180207962E+03 0.  0.
       24    2    3    3    0    0 -0.12349660311E+03 -0.22174183268E+03 -0.21953425452E+03  0.34524076798E+03  0.81086667407E+02 0.  0.
      -24    2    3    3    0    0  0.12349660311E+03  0.22174183268E+03  0.69788832891E+03  0.74689381348E+03  0.79883650671E+02 0.  0.
      -13    1    4    4    0    0 -0.91943377611E+00 -0.70950065020E+02 -0.73467457298E+02  0.10213826103E+03  0.00000000000E+00 0.  1.
       14    1    4    4    0    0 -0.12257716934E+03 -0.15079176766E+03 -0.14606679722E+03  0.24310250695E+03  0.00000000000E+00 0. -1.
        3    1    5    5  502    0  0.32211725365E+02  0.25834994656E+02  0.19835119573E+03  0.20260365013E+03  0.00000000000E+00 0. -1.
       -4    1    5    5    0  502  0.91284877747E+02  0.19590683802E+03  0.49953713318E+03  0.54429016335E+03  0.14200000000E+01 0.  1.
</event>
<event>
 9   1  0.7335000E-04  0.1014836E+04  0.7818608E-02  0.9292420E-01
       21   -1    0    0  503  502  0.00000000000E+00  0.00000000000E+00  0.77280790873E+03  0.77280790873E+03  0.00000000000E+00 0. -1.
       21   -1    0    0  502  503 -0.00000000000E+00 -0.00000000000E+00 -0.33316592124E+03  0.33316592124E+03  0.00000000000E+00 0.  1.
       39    2    1    2    0    0  0.28421709430E-13  0.00000000000E+00  0.43964198750E+03  0.11059738300E+04  0.10148364575E+04 0.  0.
       24    2    3    3    0    0 -0.24396796973E+03 -0.18288544299E+03  0.65220297937E+03  0.72426441821E+03  0.78884508470E+02 0.  0.
      -24    2    3    3    0    0  0.24396796973E+03  0.18288544299E+03 -0.21256099187E+03  0.38170941176E+03  0.86904799932E+02 0.  0.
      -13    1    4    4    0    0 -0.86595010197E+02 -0.80985411043E+02  0.34015781029E+03  0.36022863364E+03  0.00000000000E+00 0.  1.
       14    1    4    4    0    0 -0.15737295953E+03 -0.10190003194E+03  0.31204516908E+03  0.36403578457E+03  0.00000000000E+00 0. -1.
        1    1    5    5  501    0 -0.71962563031E+00  0.25834890278E+02 -0.12010788692E+02  0.28499446692E+02  0.00000000000E+00 0. -1.
       -2    1    5    5    0  501  0.24468759536E+03  0.15705055271E+03 -0.20055020318E+03  0.35320996507E+03  0.00000000000E+00 0.  1.
</event>
<event>
 9   1  0.7335000E-04  0.9956305E+03  0.7818608E-02  0.9313350E-01
       21   -1    0    0  503  502  0.00000000000E+00  0.00000000000E+00  0.60524804659E+03  0.60524804659E+03  0.00000000000E+00 0. -1.
       21   -1    0    0  502  503 -0.00000000000E+00 -0.00000000000E+00 -0.40945196225E+03  0.40945196225E+03  0.00000000000E+00 0.  1.
       39    2    1    2    0    0 -0.14210854715E-13  0.00000000000E+00  0.19579608434E+03  0.10147000088E+04  0.99563045418E+03 0.  0.
       24    2    3    3    0    0  0.10837329375E+03 -0.41256683573E+03  0.34277862906E+03  0.55680441048E+03  0.10284842367E+03 0.  0.
      -24    2    3    3    0    0 -0.10837329375E+03  0.41256683573E+03 -0.14698254472E+03  0.45789559835E+03  0.78155906964E+02 0.  0.
      -13    1    4    4    0    0  0.32689363799E+02 -0.29353767916E+03  0.20421478809E+03  0.35907748923E+03  0.00000000000E+00 0.  1.
       14    1    4    4    0    0  0.75683929952E+02 -0.11902915657E+03  0.13856384096E+03  0.19772692125E+03  0.00000000000E+00 0. -1.
        3    1    5    5  501    0 -0.16030521521E+02  0.68982655753E+01 -0.84484276213E+01  0.19389162371E+02  0.00000000000E+00 0. -1.
       -4    1    5    5    0  501 -0.92342772230E+02  0.40566857015E+03 -0.13853411710E+03  0.43850643598E+03  0.14200000000E+01 0.  1.
</event>
<event>
 9   1  0.7335000E-04  0.9791166E+03  0.7818608E-02  0.9331751E-01
       21   -1    0    0  503  502  0.00000000000E+00  0.00000000000E+00  0.17474225586E+03  0.17474225586E+03  0.00000000000E+00 0. -1.
       21   -1    0    0  502  503 -0.00000000000E+00 -0.00000000000E+00 -0.13715476818E+04  0.13715476818E+04  0.00000000000E+00 0.  1.
       39    2    1    2    0    0  0.00000000000E+00  0.00000000000E+00 -0.11968054259E+04  0.15462899376E+04  0.97911661395E+03 0.  0.
       24    2    3    3    0    0 -0.32887249522E+03  0.23322390381E+03 -0.10194317715E+04  0.10985762632E+04  0.71261224239E+02 0.  0.
      -24    2    3    3    0    0  0.32887249522E+03 -0.23322390381E+03 -0.17737365447E+03  0.44771367440E+03  0.80222275716E+02 0.  0.
      -13    1    4    4    0    0 -0.24054896572E+03  0.15997487048E+03 -0.64012087153E+03  0.70228946615E+03  0.00000000000E+00 0.  1.
       14    1    4    4    0    0 -0.88323529501E+02  0.73249033330E+02 -0.37931089992E+03  0.39628679709E+03  0.00000000000E+00 0. -1.
        1    1    5    5  501    0  0.28671437480E+03 -0.22145116169E+03 -0.13449099036E+03  0.38643702750E+03  0.00000000000E+00 0. -1.
       -2    1    5    5    0  501  0.42158120415E+02 -0.11772742120E+02 -0.42882664110E+02  0.61276646899E+02  0.00000000000E+00 0.  1.
</event>
<event>
 9   1  0.7335000E-04  0.1007802E+04  0.7818608E-02  0.9300029E-01
       21   -1    0    0  503  502  0.00000000000E+00  0.00000000000E+00  0.12135438389E+04  0.12135438389E+04  0.00000000000E+00 0.  1.
       21   -1    0    0  502  503 -0.00000000000E+00 -0.00000000000E+00 -0.20923543887E+03  0.20923543887E+03  0.00000000000E+00 0. -1.
       39    2    1    2    0    0  0.28421709430E-13  0.00000000000E+00  0.10043084000E+04  0.14227792778E+04  0.10078023174E+04 0.  0.
       24    2    3    3    0    0  0.18585792939E+03  0.39919400053E+03  0.18061737787E+03  0.48537924523E+03  0.95243658772E+02 0.  0.
      -24    2    3    3    0    0 -0.18585792939E+03 -0.39919400053E+03  0.82369102213E+03  0.93740003252E+03  0.79705087934E+02 0.  0.
      -13    1    4    4    0    0  0.18602038372E+02  0.22442609238E+01  0.14569609228E+02  0.23734912087E+02  0.00000000000E+00 0.  1.
       14    1    4    4    0    0  0.16725589102E+03  0.39694973961E+03  0.16604776864E+03  0.46164433315E+03  0.00000000000E+00 0. -1.
        1    1    5    5  501    0 -0.32246530969E+02 -0.15908645188E+03  0.30992226529E+03  0.34985732585E+03  0.00000000000E+00 0. -1.
       -2    1    5    5    0  501 -0.15361139842E+03 -0.24010754865E+03  0.51376875685E+03  0.58754270667E+03  0.00000000000E+00 0.  1.
</event>
<event>
 9   1  0.7335000E-04  0.1021888E+04  0.7818608E-02  0.9284859E-01
       21   -1    0    0  503  502  0.00000000000E+00  0.00000000000E+00  0.61680438902E+03  0.61680438902E+03  0.00000000000E+00 0. -1.
       21   -1    0    0  502  503 -0.00000000000E+00 -0.00000000000E+00 -0.42325198518E+03  0.42325198518E+03  0.00000000000E+00 0.  1.
       39    2    1    2    0    0  0.00000000000E+00  0.00000000000E+00  0.19355240384E+03  0.10400563742E+04  0.10218878258E+04 0.  0.
       24    2    3    3    0    0 -0.26646787564E+03 -0.15662570291E+03  0.50292584001E+03  0.59572230862E+03  0.80087008220E+02 0.  0.
      -24    2    3    3    0    0  0.26646787564E+03  0.15662570291E+03 -0.30937343617E+03  0.44433406557E+03  0.78639044118E+02 0.  0.
      -13    1    4    4    0    0 -0.26691260546E+01 -0.73512373175E+00  0.42891372808E+02  0.42980629382E+02  0.00000000000E+00 0.  1.
       14    1    4    4    0    0 -0.26379874959E+03 -0.15589057918E+03  0.46003446720E+03  0.55274167924E+03  0.00000000000E+00 0. -1.
        1    1    5    5  501    0  0.12698168290E+03  0.29840929968E+02 -0.12640536067E+03  0.18164015003E+03  0.00000000000E+00 0. -1.
       -2    1    5    5    0  501  0.13948619274E+03  0.12678477294E+03 -0.18296807549E+03  0.26269391554E+03  0.00000000000E+00 0.  1.
</event>
<event>
 9   1  0.7335000E-04  0.9614444E+03  0.7818608E-02  0.9351873E-01
       -2   -1    0    0    0  501 -0.00000000000E+00  0.00000000000E+00  0.88211504818E+02  0.88211504818E+02  0.00000000000E+00 0. -1.
        2   -1    0    0  501    0  0.00000000000E+00 -0.00000000000E+00 -0.26197697806E+04  0.26197697806E+04  0.00000000000E+00 0.  1.
       39    2    1    2    0    0  0.00000000000E+00  0.00000000000E+00 -0.25315582758E+04  0.27079812854E+04  0.96144440218E+03 0.  0.
       24    2    3    3    0    0 -0.36579268656E+03  0.51803691568E+02 -0.42932454714E+03  0.57198616122E+03  0.79753933133E+02 0.  0.
      -24    2    3    3    0    0  0.36579268656E+03 -0.51803691568E+02 -0.21022337286E+04  0.21359951242E+04  0.81244130528E+02 0.  0.
      -13    1    4    4    0    0 -0.24682100104E+03  0.70503904408E+02 -0.30952688948E+03  0.40211727444E+03  0.00000000000E+00 0.  1.
       14    1    4    4    0    0 -0.11897168552E+03 -0.18700212839E+02 -0.11979765766E+03  0.16986888678E+03  0.00000000000E+00 0. -1.
        3    1    5    5  502    0  0.18322463422E+03 -0.55530114523E+02 -0.91667149024E+03  0.93645153704E+03  0.00000000000E+00 0. -1.
       -4    1    5    5    0  502  0.18256805234E+03  0.37264229548E+01 -0.11855622384E+04  0.11995435871E+04  0.14200000000E+01 0.  1.
</event>
<event>
 9   1  0.7335000E-04  0.1084021E+04  0.7818608E-02  0.9220907E-01
        1   -1    0    0  501    0  0.00000000000E+00  0.00000000000E+00  0.36740555016E+03  0.36740555016E+03  0.00000000000E+00 0. -1.
       -1   -1    0    0    0  501 -0.00000000000E+00 -0.00000000000E+00 -0.79959480950E+03  0.79959480950E+03  0.00000000000E+00 0.  1.
       39    2    1    2    0    0  0.14210854715E-13  0.17763568394E-14 -0.43218925935E+03  0.11670003597E+04  0.10840213483E+04 0.  0.
       24    2    3    3    0    0 -0.12722518388E+03 -0.73979274884E+01  0.34389485876E+03  0.37624360583E+03  0.83991668018E+02 0.  0.
      -24    2    3    3    0    0  0.12722518388E+03  0.73979274884E+01 -0.77608411811E+03  0.79075675384E+03  0.82150524118E+02 0.  0.
      -13    1    4    4    0    0 -0.68129331462E+01  0.21465201300E+02  0.22558206693E+02  0.31875439042E+02  0.00000000000E+00 0.  1.
       14    1    4    4    0    0 -0.12041225073E+03 -0.28863128789E+02  0.32133665207E+03  0.34436816678E+03  0.00000000000E+00 0. -1.
        3    1    5    5  502    0 -0.71462721083E+01 -0.13408964324E+02 -0.98212458587E+02  0.99380866121E+02  0.00000000000E+00 0. -1.
       -4    1    5    5    0  502  0.13437145599E+03  0.20806891812E+02 -0.67787165952E+03  0.69137588772E+03  0.14200000000E+01 0.  1.
</event>
<event>
 9   1  0.7335000E-04  0.9981015E+03  0.7818608E-02  0.9310630E-01
       21   -1    0    0  503  502  0.00000000000E+00  0.00000000000E+00  0.14374990482E+04  0.14374990482E+04  0.00000000000E+00 0.  1.
       21   -1    0    0  502  503 -0.00000000000E+00 -0.00000000000E+00 -0.17325342322E+03  0.17325342322E+03  0.00000000000E+00 0. -1.
       39    2    1    2    0    0  0.00000000000E+00  0.00000000000E+00  0.12642456250E+04  0.16107524714E+04  0.99810145972E+03 0.  0.
       24    2    3    3    0    0  0.10702402129E+03 -0.47922814192E+02  0.14041384700E+04  0.14113525936E+04  0.80997303931E+02 0.  0.
      -24    2    3    3    0    0 -0.10702402129E+03  0.47922814192E+02 -0.13989284508E+03  0.19939987777E+03  0.80246905844E+02 0.  0.
      -13    1    4    4    0    0  0.11557798744E+03 -0.50846706517E+02  0.11243199442E+04  0.11313880836E+04  0.00000000000E+00 0.  1.
       14    1    4    4    0    0 -0.85539661456E+01  0.29238923249E+01  0.27981852583E+03  0.27996451004E+03  0.00000000000E+00 0. -1.
        1    1    5    5  501    0 -0.65634477853E+02  0.51818792205E+02 -0.13322533162E+03  0.15729609307E+03  0.00000000000E+00 0. -1.
       -2    1    5    5    0  501 -0.41389543440E+02 -0.38959780123E+01 -0.66675134580E+01  0.42103784706E+02  0.00000000000E+00 0.  1.
</event>
<event>
 9   1  0.7335000E-04  0.9991781E+03  0.7818608E-02  0.9309447E-01
       21   -1    0    0  503  502  0.00000000000E+00  0.00000000000E+00  0.24863652844E+04  0.24863652844E+04  0.00000000000E+00 0. -1.
       21   -1    0    0  502  503 -0.00000000000E+00 -0.00000000000E+00 -0.10038315938E+03  0.10038315938E+03  0.00000000000E+00 0.  1.
       39    2    1    2    0    0 -0.56843418861E-13  0.14210854715E-13  0.23859821250E+04  0.25867484437E+04  0.99917806743E+03 0.  0.
       24    2    3    3    0    0  0.17480242610E+03 -0.50652931070E+02  0.63923026237E+01  0.19898166410E+03  0.80194971897E+02 0.  0.
      -24    2    3    3    0    0 -0.17480242610E+03  0.50652931070E+02  0.23795898224E+04  0.23877667796E+04  0.76556277731E+02 0.  0.
      -13    1    4    4    0    0  0.16824906521E+03 -0.44173281340E+02 -0.16080192784E+02  0.17469287143E+03  0.00000000000E+00 0.  1.
       14    1    4    4    0    0  0.65533608954E+01 -0.64796497298E+01  0.22472495407E+02  0.24288792672E+02  0.00000000000E+00 0. -1.
        1    1    5    5  501    0 -0.17612641383E+03  0.60243167754E+02  0.23128258345E+04  0.23203045260E+04  0.00000000000E+00 0. -1.
       -2    1    5    5    0  501  0.13239877250E+01 -0.95902366843E+01  0.66763987903E+02  0.67462253623E+02  0.00000000000E+00 0.  1.
</event>
<event>
 8   1  0.7335000E-04  0.1203692E+04  0.7818608E-02  0.9109631E-01
        1   -1    0    0  501    0  0.00000000000E+00  0.00000000000E+00  0.15454238236E+04  0.15454238236E+04  0.00000000000E+00 0. -1.
       -1   -1    0    0    0  501 -0.00000000000E+00 -0.00000000000E+00 -0.23438122723E+03  0.23438122723E+03  0.00000000000E+00 0.  1.
       24    2    1    2    0    0  0.25879199424E+03 -0.38407209425E+03  0.10262616305E+03  0.48116684115E+03  0.80651905212E+02 0.  0.
      -24    2    1    2    0    0 -0.25879199424E+03  0.38407209425E+03  0.12084164333E+04  0.12986382097E+04  0.10819544106E+03 0.  0.
      -13    1    3    3    0    0  0.25657701296E+03 -0.38469877306E+03  0.93519962018E+02  0.47177419691E+03  0.00000000000E+00 0.  1.
       14    1    3    3    0    0  0.22149812817E+01  0.62667881748E+00  0.91062010363E+01  0.93926442354E+01  0.00000000000E+00 0. -1.
        3    1    4    4  502    0 -0.10808711315E+03  0.78504338476E+02  0.38487354244E+03  0.40739832948E+03  0.00000000000E+00 0. -1.
       -4    1    4    4    0  502 -0.15070488109E+03  0.30556775577E+03  0.82354289088E+03  0.89123988020E+03  0.14200000000E+01 0.  1.
</event>
<event>
 9   1  0.7335000E-04  0.9803681E+03  0.7818608E-02  0.9330343E-01
       21   -1    0    0  503  502  0.00000000000E+00  0.00000000000E+00  0.23828960461E+03  0.23828960461E+03  0.00000000000E+00 0.  1.
       21   -1    0    0  502  503 -0.00000000000E+00 -0.00000000000E+00 -0.10083546033E+04  0.10083546033E+04  0.00000000000E+00 0. -1.
       39    2    1    2    0    0 -0.14210854715E-13  0.00000000000E+00 -0.77006499868E+03  0.12466442079E+04  0.98036813437E+03 0.  0.
       24    2    3    3    0    0  0.11097018466E+03  0.46504193776E+03 -0.47613663893E+03  0.67946810370E+03  0.79952606319E+02 0.  0.
      -24    2    3    3    0    0 -0.11097018466E+03 -0.46504193776E+03 -0.29392835976E+03  0.56717610420E+03  0.81954052636E+02 0.  0.
      -13    1    4    4    0    0  0.41102600428E+02  0.78171380684E+02 -0.58657146130E+02  0.10602287165E+03  0.00000000000E+00 0.  1.
       14    1    4    4    0    0  0.69867584235E+02  0.38687055707E+03 -0.41747949280E+03  0.57344523205E+03  0.00000000000E+00 0. -1.
        3    1    5    5  501    0 -0.10962489297E+03 -0.32647445256E+03 -0.23293209486E+03  0.41576501314E+03  0.00000000000E+00 0. -1.
       -4    1    5    5    0  501 -0.13452916898E+01 -0.13856748520E+03 -0.60996264894E+02  0.15141109106E+03  0.14200000000E+01 0.  1.
</event>
<event>
 9   1  0.7335000E-04  0.9971651E+03  0.7818608E-02  0.9311660E-01
       21   -1    0    0  503  502  0.00000000000E+00  0.00000000000E+00  0.22099723520E+03  0.22099723520E+03  0.00000000000E+00 0.  1.
       21   -1    0    0  502  503 -0.00000000000E+00 -0.00000000000E+00 -0.11248309749E+04  0.11248309749E+04  0.00000000000E+00 0. -1.
       39    2    1    2    0    0  0.28421709430E-13 -0.56843418861E-13 -0.90383373966E+03  0.13458282101E+04  0.99716505256E+03 0.  0.
       24    2    3    3    0    0 -0.22780304099E+03  0.22936946357E+03 -0.95239868249E+03  0.10089456791E+04  0.80022225491E+02 0.  0.
      -24    2    3    3    0    0  0.22780304099E+03 -0.22936946357E+03  0.48564942839E+02  0.33688253099E+03  0.81404604961E+02 0.  0.
      -13    1    4    4    0    0 -0.98285118614E+01  0.92387221091E+01 -0.12023213072E+03  0.12098644093E+03  0.00000000000E+00 0.  1.
       14    1    4    4    0    0 -0.21797452913E+03  0.22013074147E+03 -0.83216655177E+03  0.88795923813E+03  0.00000000000E+00 0. -1.
        3    1    5    5  501    0  0.19453384068E+02  0.44046306167E+01  0.61642446261E+01  0.20876609743E+02  0.00000000000E+00 0. -1.
       -4    1    5    5    0  501  0.20834965693E+03 -0.23377409419E+03  0.42400698213E+02  0.31600592125E+03  0.14200000000E+01 0.  1.
</event>
<event>
 9   1  0.7335000E-04  0.1002444E+04  0.7818608E-02  0.9305869E-01
       21   -1    0    0  503  502  0.00000000000E+00  0.00000000000E+00  0.49915975907E+03  0.49915975907E+03  0.00000000000E+00 0.  1.
       21   -1    0    0  502  503 -0.00000000000E+00 -0.00000000000E+00 -0.50329259049E+03  0.50329259049E+03  0.00000000000E+00 0. -1.
       39    2    1    2    0    0 -0.11368683772E-12  0.71054273576E-14 -0.41328314265E+01  0.10024523496E+04  0.10024438303E+04 0.  0.
       24    2    3    3    0    0 -0.42336968814E+03  0.56885374342E+02  0.24777869626E+03  0.50041285164E+03  0.80875837649E+02 0.  0.
      -24    2    3    3    0    0  0.42336968814E+03 -0.56885374342E+02 -0.25191152769E+03  0.50203949792E+03  0.78143464462E+02 0.  0.
      -13    1    4    4    0    0 -0.42421994057E+03  0.61576149629E+02  0.24865786973E+03  0.49556524935E+03  0.00000000000E+00 0.  1.
       14    1    4    4    0    0  0.85025243038E+00 -0.46907752871E+01 -0.87917347187E+00  0.48476022921E+01  0.00000000000E+00 0. -1.
        3    1    5    5  501    0  0.25931193728E+03 -0.13608513429E+02 -0.18861686339E+03  0.32094266405E+03  0.00000000000E+00 0. -1.
       -4    1    5    5    0  501  0.16405775086E+03 -0.43276860913E+02 -0.63294664296E+02  0.18109683387E+03  0.14200000000E+01 0.  1.
</event>
<event>
 9   1  0.7335000E-04  0.9915402E+03  0.7818608E-02  0.9317872E-01
       21   -1    0    0  503  502  0.00000000000E+00  0.00000000000E+00  0.52943268482E+03  0.52943268482E+03  0.00000000000E+00 0.  1.
       21   -1    0    0  502  503 -0.00000000000E+00 -0.00000000000E+00 -0.46424788318E+03  0.46424788318E+03  0.00000000000E+00 0. -1.
       39    2    1    2    0    0  0.00000000000E+00  0.28421709430E-13  0.65184801637E+02  0.99368056800E+03  0.99154022251E+03 0.  0.
       24    2    3    3    0    0  0.20015442748E+03  0.20618527620E+03  0.42941744017E+03  0.52289969848E+03  0.80315588744E+02 0.  0.
      -24    2    3    3    0    0 -0.20015442748E+03 -0.20618527620E+03 -0.36423263853E+03  0.47078086951E+03  0.79969051325E+02 0.  0.
      -13    1    4    4    0    0  0.17395734899E+03  0.16225016988E+03  0.39549252016E+03  0.46151989166E+03  0.00000000000E+00 0.  1.
       14    1    4    4    0    0  0.26197078489E+02  0.43935106314E+02  0.33924920002E+02  0.61379806821E+02  0.00000000000E+00 0. -1.
        3    1    5    5  501    0 -0.10801248696E+03 -0.82470016321E+02 -0.11677580265E+03  0.17917753491E+03  0.00000000000E+00 0. -1.
       -4    1    5    5    0  501 -0.92141940519E+02 -0.12371525988E+03 -0.24745683588E+03  0.29160333461E+03  0.14200000000E+01 0.  1.
</event>
<event>
 9   1  0.7335000E-04  0.9929571E+03  0.7818608E-02  0.9316303E-01
       21   -1    0    0  503  502  0.00000000000E+00  0.00000000000E+00  0.37772943567E+03  0.37772943567E+03  0.00000000000E+00 0. -1.
       21   -1    0    0  502  503 -0.00000000000E+00 -0.00000000000E+00 -0.65255961580E+03  0.65255961580E+03  0.00000000000E+00 0.  1.
       39    2    1    2    0    0  0.00000000000E+00  0.00000000000E+00 -0.27483018012E+03  0.10302890515E+04  0.99295714997E+03 0.  0.
       24    2    3    3    0    0 -0.18262708138E+03 -0.24681659202E+03  0.25934543352E+03  0.40986969992E+03  0.80386790414E+02 0.  0.
      -24    2    3    3    0    0  0.18262708138E+03  0.24681659202E+03 -0.53417561365E+03  0.62041935155E+03  0.72838894906E+02 0.  0.
      -13    1    4    4    0    0 -0.13017726532E+02 -0.46120173752E+01  0.38238700043E+02  0.40656242931E+02  0.00000000000E+00 0.  1.
       14    1    4    4    0    0 -0.16960935485E+03 -0.24220457465E+03  0.22110673348E+03  0.36921345699E+03  0.00000000000E+00 0. -1.
        1    1    5    5  501    0 -0.66719248594E+00 -0.44161341730E+01 -0.58608000127E+01  0.73686066279E+01  0.00000000000E+00 0. -1.
       -2    1    5    5    0  501  0.18329427387E+03  0.25123272619E+03 -0.52831481363E+03  0.61305074492E+03  0.00000000000E+00 0.  1.
</event>
<event>
 9   1  0.7335000E-04  0.1012220E+04  0.7818608E-02  0.9295243E-01
       21   -1    0    0  503  502  0.00000000000E+00  0.00000000000E+00  0.12009319448E+04  0.12009319448E+04  0.00000000000E+00 0. -1.
       21   -1    0    0  502  503 -0.00000000000E+00 -0.00000000000E+00 -0.21329046345E+03  0.21329046345E+03  0.00000000000E+00 0.  1.
       39    2    1    2    0    0  0.00000000000E+00  0.00000000000E+00  0.98764148131E+03  0.14142224082E+04  0.10122199980E+04 0.  0.
       24    2    3    3    0    0 -0.27779093138E+03 -0.27825094516E+03  0.62764908233E+02  0.40638441979E+03  0.81347851244E+02 0.  0.
      -24    2    3    3    0    0  0.27779093138E+03  0.27825094516E+03  0.92487657307E+03  0.10078379884E+04  0.75824438299E+02 0.  0.
      -13    1    4    4    0    0 -0.24588735250E+03 -0.27265098356E+03  0.68510678508E+02  0.37348743222E+03  0.00000000000E+00 0.  1.
       14    1    4    4    0    0 -0.31903578878E+02 -0.55999616032E+01 -0.57457702751E+01  0.32896987571E+02  0.00000000000E+00 0. -1.
        3    1    5    5  501    0  0.23879836835E+03  0.20515405115E+03  0.77650082247E+03  0.83789401044E+03  0.00000000000E+00 0. -1.
       -4    1    5    5    0  501  0.38992563031E+02  0.73096894009E+02  0.14837575060E+03  0.16994397798E+03  0.14200000000E+01 0.  1.
</event>
<event>
 9   1  0.7335000E-04  0.1136018E+04  0.7818608E-02  0.9170780E-01
        2   -1    0    0  501    0  0.00000000000E+00  0.00000000000E+00  0.96701262942E+03  0.96701262942E+03  0.00000000000E+00 0. -1.
       -2   -1    0    0    0  501 -0.00000000000E+00 -0.00000000000E+00 -0.33364034610E+03  0.33364034610E+03  0.00000000000E+00 0.  1.
       39    2    1    2    0    0  0.00000000000E+00  0.00000000000E+00  0.63337228332E+03  0.13006529755E+04  0.11360183596E+04 0.  0.
       24    2    3    3    0    0 -0.95568104310E+01  0.54306704992E+03  0.48269844747E+03  0.73110984807E+03  0.80688694483E+02 0.  0.
      -24    2    3    3    0    0  0.95568104310E+01 -0.54306704992E+03  0.15067383585E+03  0.56954312745E+03  0.81630973840E+02 0.  0.
      -13    1    4    4    0    0  0.25437198583E+02  0.40060438862E+03  0.37266353488E+03  0.54773080750E+03  0.00000000000E+00 0.  1.
       14    1    4    4    0    0 -0.34994009014E+02  0.14246266129E+03  0.11003491259E+03  0.18337904056E+03  0.00000000000E+00 0. -1.
        3    1    5    5  502    0  0.24913352857E+02 -0.27791698593E+03  0.40310986371E+02  0.28192818561E+03  0.00000000000E+00 0. -1.
       -4    1    5    5    0  502 -0.15356542426E+02 -0.26515006399E+03  0.11036284948E+03  0.28761494185E+03  0.14200000000E+01 0.  1.
</event>
<event>
 9   1  0.7335000E-04  0.1003869E+04  0.7818608E-02  0.9304312E-01
        2   -1    0    0  501    0  0.00000000000E+00  0.00000000000E+00  0.14404021236E+04  0.14404021236E+04  0.00000000000E+00 0. -1.
       -2   -1    0    0    0  501 -0.00000000000E+00 -0.00000000000E+00 -0.17490809960E+03  0.17490809960E+03  0.00000000000E+00 0.  1.
       39    2    1    2    0    0  0.11368683772E-12  0.56843418861E-13  0.12654940240E+04  0.16153102232E+04  0.10038685135E+04 0.  0.
       24    2    3    3    0    0 -0.38309306881E+03 -0.30304156139E+03  0.49975414019E+03  0.70336861184E+03  0.79866865392E+02 0.  0.
      -24    2    3    3    0    0  0.38309306881E+03  0.30304156139E+03  0.76573988383E+03  0.91194161138E+03  0.81764574066E+02 0.  0.
      -13    1    4    4    0    0 -0.35944247724E+03 -0.28230513978E+03  0.49081921909E+03  0.67067025595E+03  0.00000000000E+00 0.  1.
       14    1    4    4    0    0 -0.23650591577E+02 -0.20736421609E+02  0.89349211008E+01  0.32698355894E+02  0.00000000000E+00 0. -1.
        3    1    5    5  502    0  0.28356177845E+03  0.20579596537E+03  0.60680937947E+03  0.70069742726E+03  0.00000000000E+00 0. -1.
       -4    1    5    5    0  502  0.99531290361E+02  0.97245596015E+02  0.15893050436E+03  0.21124418411E+03  0.14200000000E+01 0.  1.
</event>
<event>
 9   1  0.7335000E-04  0.1002001E+04  0.7818608E-02  0.9306353E-01
        1   -1    0    0  501    0  0.00000000000E+00  0.00000000000E+00  0.78465238671E+03  0.78465238671E+03  0.00000000000E+00 0.  1.
       -1   -1    0    0    0  501 -0.00000000000E+00 -0.00000000000E+00 -0.31988865436E+03  0.31988865436E+03  0.00000000000E+00 0. -1.
       39    2    1    2    0    0  0.00000000000E+00  0.00000000000E+00  0.46476373235E+03  0.11045410411E+04  0.10020007907E+04 0.  0.
       24    2    3    3    0    0 -0.29549924314E+02 -0.35502352475E+03 -0.14573444004E+03  0.39315688735E+03  0.80118099739E+02 0.  0.
      -24    2    3    3    0    0  0.29549924314E+02  0.35502352475E+03  0.61049817239E+03  0.71138415371E+03  0.80277609000E+02 0.  0.
      -13    1    4    4    0    0 -0.54086406867E+02 -0.29471275439E+03 -0.12669676290E+03  0.32531986834E+03  0.00000000000E+00 0.  1.
       14    1    4    4    0    0  0.24536482552E+02 -0.60310770364E+02 -0.19037677139E+02  0.67837019015E+02  0.00000000000E+00 0. -1.
        1    1    5    5  502    0  0.38330645516E+02  0.21119441044E+03  0.29791327746E+03  0.36718474679E+03  0.00000000000E+00 0. -1.
       -2    1    5    5    0  502 -0.87807212014E+01  0.14382911431E+03  0.31258489493E+03  0.34419940692E+03  0.00000000000E+00 0.  1.
</event>
<event>
 9   1  0.7335000E-04  0.1001822E+04  0.7818608E-02  0.9306549E-01
       21   -1    0    0  503  502  0.00000000000E+00  0.00000000000E+00  0.24534044719E+03  0.24534044719E+03  0.00000000000E+00 0.  1.
       21   -1    0    0  502  503 -0.00000000000E+00 -0.00000000000E+00 -0.10227081255E+04  0.10227081255E+04  0.00000000000E+00 0. -1.
       39    2    1    2    0    0  0.11368683772E-12  0.00000000000E+00 -0.77736767832E+03  0.12680485727E+04  0.10018216785E+04 0.  0.
       24    2    3    3    0    0 -0.44612495853E+03 -0.19734887239E+03 -0.28436275879E+03  0.57044920714E+03  0.81092929909E+02 0.  0.
      -24    2    3    3    0    0  0.44612495853E+03  0.19734887239E+03 -0.49300491952E+03  0.69759936556E+03  0.74946434815E+02 0.  0.
      -13    1    4    4    0    0 -0.30158602243E+03 -0.11492326377E+03 -0.22648696503E+03  0.39428141069E+03  0.00000000000E+00 0.  1.
       14    1    4    4    0    0 -0.14453893610E+03 -0.82425608622E+02 -0.57875793765E+02  0.17616779646E+03  0.00000000000E+00 0. -1.
        1    1    5    5  501    0  0.21862858102E+03  0.11799547799E+03 -0.20496194222E+03  0.32207264246E+03  0.00000000000E+00 0. -1.
       -2    1    5    5    0  501  0.22749637752E+03  0.79353394408E+02 -0.28804297730E+03  0.37552672310E+03  0.00000000000E+00 0.  1.
</event>
<event>
 9   1  0.7335000E-04  0.1005285E+04  0.7818608E-02  0.9302767E-01
       21   -1    0    0  503  502  0.00000000000E+00  0.00000000000E+00  0.35545107402E+03  0.35545107402E+03  0.00000000000E+00 0.  1.
       21   -1    0    0  502  503 -0.00000000000E+00 -0.00000000000E+00 -0.71078541595E+03  0.71078541595E+03  0.00000000000E+00 0. -1.
       39    2    1    2    0    0  0.14210854715E-13  0.00000000000E+00 -0.35533434193E+03  0.10662364900E+04  0.10052849138E+04 0.  0.
       24    2    3    3    0    0  0.58911819698E+02 -0.32560243775E+03 -0.56990229427E+03  0.66387388052E+03  0.80326547576E+02 0.  0.
      -24    2    3    3    0    0 -0.58911819698E+02  0.32560243775E+03  0.21456795234E+03  0.40236260946E+03  0.79804218847E+02 0.  0.
      -13    1    4    4    0    0 -0.17670995083E+02 -0.10020714698E+03 -0.19055925636E+03  0.21602445824E+03  0.00000000000E+00 0.  1.
       14    1    4    4    0    0  0.76582814781E+02 -0.22539529077E+03 -0.37934303792E+03  0.44784942228E+03  0.00000000000E+00 0. -1.
        3    1    5    5  501    0 -0.33388859548E+02  0.77224338628E+02  0.21779612918E+02  0.86906650823E+02  0.00000000000E+00 0. -1.
       -4    1    5    5    0  501 -0.25522960151E+02  0.24837809913E+03  0.19278833942E+03  0.31545595863E+03  0.14200000000E+01 0.  1.
</event>
<event>
 9   1  0.7335000E-04  0.9981150E+03  0.7818608E-02  0.9310615E-01
       21   -1    0    0  503  502  0.00000000000E+00  0.00000000000E+00  0.90840114845E+03  0.90840114845E+03  0.00000000000E+00 0.  1.
       21   -1    0    0  502  503 -0.00000000000E+00 -0.00000000000E+00 -0.27417223561E+03  0.27417223561E+03  0.00000000000E+00 0. -1.
       39    2    1    2    0    0  0.00000000000E+00  0.00000000000E+00  0.63422891284E+03  0.11825733841E+04  0.99811497074E+03 0.  0.
       24    2    3    3    0    0  0.13133424850E+03  0.42416022463E+03  0.56439042170E+03  0.72577576994E+03  0.10513486166E+03 0.  0.
      -24    2    3    3    0    0 -0.13133424850E+03 -0.42416022463E+03  0.69838491145E+02  0.45679761413E+03  0.81400641537E+02 0.  0.
      -13    1    4    4    0    0  0.99148870393E+02  0.15782812885E+03  0.26204861608E+03  0.32157377683E+03  0.00000000000E+00 0.  1.
       14    1    4    4    0    0  0.32185378109E+02  0.26633209578E+03  0.30234180562E+03  0.40420199311E+03  0.00000000000E+00 0. -1.
        3    1    5    5  501    0 -0.64153825748E+02 -0.32469190735E+03  0.42511238251E+02  0.33368810802E+03  0.00000000000E+00 0. -1.
       -4    1    5    5    0  501 -0.67180422754E+02 -0.99468317278E+02  0.27327252894E+02  0.12310950611E+03  0.14200000000E+01 0.  1.
</event>
<event>
 9   1  0.7335000E-04  0.1002569E+04  0.7818608E-02  0.9305732E-01
       -2   -1    0    0    0  501 -0.00000000000E+00  0.00000000000E+00  0.19819066523E+03  0.19819066523E+03  0.00000000000E+00 0.  1.
        2   -1    0    0  501    0  0.00000000000E+00 -0.00000000000E+00 -0.12678998569E+04  0.12678998569E+04  0.00000000000E+00 0. -1.
       39    2    1    2    0    0  0.56843418861E-13  0.88817841970E-15 -0.10697091917E+04  0.14660905221E+04  0.10025685335E+04 0.  0.
       24    2    3    3    0    0  0.47280303093E+03 -0.76538518461E+01 -0.32176101789E+03  0.57767969402E+03  0.81131921841E+02 0.  0.
      -24    2    3    3    0    0 -0.47280303093E+03  0.76538518461E+01 -0.74794817378E+03  0.88841082810E+03  0.79031900637E+02 0.  0.
      -13    1    4    4    0    0  0.44675236928E+03  0.53335065498E-01 -0.32167774143E+03  0.55051271705E+03  0.00000000000E+00 0.  1.
       14    1    4    4    0    0  0.26050661650E+02 -0.77071869116E+01 -0.83276456933E-01  0.27166976966E+02  0.00000000000E+00 0. -1.
        1    1    5    5  502    0 -0.32087103546E+03 -0.30964262708E+02 -0.48834352956E+03  0.58514648578E+03  0.00000000000E+00 0. -1.
       -2    1    5    5    0  502 -0.15193199547E+03  0.38618114554E+02 -0.25960464422E+03  0.30326434231E+03  0.00000000000E+00 0.  1.
</event>
<event>
 9   1  0.7335000E-04  0.1008303E+04  0.7818608E-02  0.9299485E-01
       21   -1    0    0  503  502  0.00000000000E+00  0.00000000000E+00  0.24753198855E+04  0.24753198855E+04  0.00000000000E+00 0. -1.
       21   -1    0    0  502  503 -0.00000000000E+00 -0.00000000000E+00 -0.10268111060E+03  0.10268111060E+03  0.00000000000E+00 0.  1.
       39    2    1    2    0    0  0.00000000000E+00 -0.56843418861E-13  0.23726387749E+04  0.25780009961E+04  0.10083027223E+04 0.  0.
       24    2    3    3    0    0  0.30879480606E+03  0.38986031852E+03  0.11635119809E+04  0.12677153293E+04  0.77438531272E+02 0.  0.
      -24    2    3    3    0    0 -0.30879480606E+03 -0.38986031852E+03  0.12091267939E+04  0.13102856668E+04  0.86692701905E+02 0.  0.
      -13    1    4    4    0    0  0.21625146754E+03  0.22733303684E+03  0.66589948415E+03  0.73611624751E+03  0.00000000000E+00 0.  1.
       14    1    4    4    0    0  0.92543338525E+02  0.16252728167E+03  0.49761249677E+03  0.53159908177E+03  0.00000000000E+00 0. -1.
        1    1    5    5  501    0 -0.21078998581E+03 -0.22492852480E+03  0.82966197254E+03  0.88507866773E+03  0.00000000000E+00 0. -1.
       -2    1    5    5    0  501 -0.98004820248E+02 -0.16493179371E+03  0.37946482140E+03  0.42520699906E+03  0.00000000000E+00 0.  1.
</event>
<event>
 9   1  0.7335000E-04  0.9976156E+03  0.7818608E-02  0.9311164E-01
       21   -1    0    0  503  502  0.00000000000E+00  0.00000000000E+00  0.90812933286E+03  0.90812933286E+03  0.00000000000E+00 0. -1.
       21   -1    0    0  502  503 -0.00000000000E+00 -0.00000000000E+00 -0.27397993347E+03  0.27397993347E+03  0.00000000000E+00 0.  1.
       39    2    1    2    0    0  0.00000000000E+00 -0.14210854715E-13  0.63414939939E+03  0.11821092663E+04  0.99761558569E+03 0.  0.
       24    2    3    3    0    0 -0.47902405722E+03 -0.10381056491E+03  0.37191289914E+03  0.62053295971E+03  0.80630445580E+02 0.  0.
      -24    2    3    3    0    0  0.47902405722E+03  0.10381056491E+03  0.26223650025E+03  0.56157630663E+03  0.79745127286E+02 0.  0.
      -13    1    4    4    0    0 -0.36594019057E+03 -0.80489785508E+02  0.32465078908E+03  0.49577107973E+03  0.00000000000E+00 0.  1.
       14    1    4    4    0    0 -0.11308386665E+03 -0.23320779400E+02  0.47262110062E+02  0.12476187998E+03  0.00000000000E+00 0. -1.
        1    1    5    5  501    0  0.14427020322E+03  0.48872603835E+02  0.45324467199E+02  0.15892366177E+03  0.00000000000E+00 0. -1.
       -2    1    5    5    0  501  0.33475385400E+03  0.54937961073E+02  0.21691203305E+03  0.40265264486E+03  0.00000000000E+00 0.  1.
</event>
<event>
 9   1  0.7335000E-04  0.9902107E+03  0.7818608E-02  0.9319347E-01
       21   -1    0    0  503  502  0.00000000000E+00  0.00000000000E+00  0.10486406441E+04  0.10486406441E+04  0.00000000000E+00 0. -1.
       21   -1    0    0  502  503 -0.00000000000E+00 -0.00000000000E+00 -0.23375911292E+03  0.23375911292E+03  0.00000000000E+00 0.  1.
       39    2    1    2    0    0  0.00000000000E+00  0.00000000000E+00  0.81488153114E+03  0.12823997570E+04  0.99021069824E+03 0.  0.
       24    2    3    3    0    0  0.33806284907E+03 -0.19408023583E+03  0.26288303937E+02  0.39904289219E+03  0.81182060955E+02 0.  0.
      -24    2    3    3    0    0 -0.33806284907E+03  0.19408023583E+03  0.78859322721E+03  0.88335686479E+03  0.80538467345E+02 0.  0.
      -13    1    4    4    0    0  0.31479308046E+03 -0.19094258570E+03  0.63368880024E+01  0.36823078455E+03  0.00000000000E+00 0.  1.
       14    1    4    4    0    0  0.23269768610E+02 -0.31376501321E+01  0.19951415934E+02  0.30812107641E+02  0.00000000000E+00 0. -1.
        3    1    5    5  501    0 -0.22286735893E+03  0.13010918730E+03  0.60142878257E+03  0.65445766922E+03  0.00000000000E+00 0. -1.
       -4    1    5    5    0  501 -0.11519549014E+03  0.63971048530E+02  0.18716444463E+03  0.22889919557E+03  0.14200000000E+01 0.  1.
</event>
<event>
 9   1  0.7335000E-04  0.9921225E+03  0.7818608E-02  0.9317227E-01
       21   -1    0    0  503  502  0.00000000000E+00  0.00000000000E+00  0.16367087229E+03  0.16367087229E+03  0.00000000000E+00 0. -1.
       21   -1    0    0  502  503 -0.00000000000E+00 -0.00000000000E+00 -0.15034853624E+04  0.15034853624E+04  0.00000000000E+00 0.  1.
       39    2    1    2    0    0  0.00000000000E+00 -0.56843418861E-13 -0.13398144901E+04  0.16671562347E+04  0.99212249391E+03 0.  0.
       24    2    3    3    0    0 -0.16054483508E+03  0.34546895096E+03 -0.15317956791E+03  0.41834687357E+03  0.80166616788E+02 0.  0.
      -24    2    3    3    0    0  0.16054483508E+03 -0.34546895096E+03 -0.11866349222E+04  0.12488093611E+04  0.79365872271E+02 0.  0.
      -13    1    4    4    0    0 -0.14910414535E+03  0.26770752339E+03 -0.14596231171E+03  0.33941767880E+03  0.00000000000E+00 0.  1.
       14    1    4    4    0    0 -0.11440689728E+02  0.77761427571E+02 -0.72172561980E+01  0.78929194766E+02  0.00000000000E+00 0. -1.
        3    1    5    5  501    0  0.46762305457E+00 -0.50192434285E+02 -0.10811629265E+03  0.11919996589E+03  0.00000000000E+00 0. -1.
       -4    1    5    5    0  501  0.16007721203E+03 -0.29527651668E+03 -0.10785186295E+04  0.11296093952E+04  0.14200000000E+01 0.  1.
</event>
<event>
 9   1  0.7335000E-04  0.1005833E+04  0.7818608E-02  0.9302170E-01
       21   -1    0    0  503  502  0.00000000000E+00  0.00000000000E+00  0.12328156162E+04  0.12328156162E+04  0.00000000000E+00 0. -1.
       21   -1    0    0  502  503 -0.00000000000E+00 -0.00000000000E+00 -0.20516038642E+03  0.20516038642E+03  0.00000000000E+00 0.  1.
       39    2    1    2    0    0  0.28421709430E-13  0.17763568394E-14  0.10276552298E+04  0.14379760027E+04  0.10058328454E+04 0.  0.
       24    2    3    3    0    0 -0.15691625642E+03  0.14658654445E+02 -0.15929949006E+03  0.23792025251E+03  0.79950805771E+02 0.  0.
      -24    2    3    3    0    0  0.15691625642E+03 -0.14658654445E+02  0.11869547199E+04  0.12000557501E+04  0.80216636230E+02 0.  0.
      -13    1    4    4    0    0 -0.16045318673E+03  0.26694011643E+02 -0.15493343715E+03  0.22463785374E+03  0.00000000000E+00 0.  1.
       14    1    4    4    0    0  0.35369303138E+01 -0.12035357197E+02 -0.43660529149E+01  0.13282398766E+02  0.00000000000E+00 0. -1.
        3    1    5    5  501    0  0.60591866120E+02 -0.31678130612E+01  0.75047817966E+03  0.75292689381E+03  0.00000000000E+00 0. -1.
       -4    1    5    5    0  501  0.96324390296E+02 -0.11490841384E+02  0.43647654023E+03  0.44712885634E+03  0.14200000000E+01 0.  1.
</event>
<event>
 9   1  0.7335000E-04  0.1000665E+04  0.7818608E-02  0.9307816E-01
       21   -1    0    0  503  502  0.00000000000E+00  0.00000000000E+00  0.72120222042E+02  0.72120222042E+02  0.00000000000E+00 0.  1.
       21   -1    0    0  502  503 -0.00000000000E+00 -0.00000000000E+00 -0.34710463114E+04  0.34710463114E+04  0.00000000000E+00 0. -1.
       39    2    1    2    0    0 -0.56843418861E-13  0.00000000000E+00 -0.33989260894E+04  0.35431665335E+04  0.10006650403E+04 0.  0.
       24    2    3    3    0    0 -0.31250002720E+03 -0.29546359605E+02 -0.30491023955E+04  0.30662538414E+04  0.79736736645E+02 0.  0.
      -24    2    3    3    0    0  0.31250002720E+03  0.29546359605E+02 -0.34982369386E+03  0.47691269206E+03  0.80869306287E+02 0.  0.
      -13    1    4    4    0    0 -0.30503108148E+03 -0.19076835162E+02 -0.29987797036E+04  0.30143137854E+04  0.00000000000E+00 0.  1.
       14    1    4    4    0    0 -0.74689457190E+01 -0.10469524443E+02 -0.50322691950E+02  0.51940056000E+02  0.00000000000E+00 0. -1.
        3    1    5    5  501    0  0.25931487033E+03  0.47388017929E+02 -0.31549667708E+03  0.41113012473E+03  0.00000000000E+00 0. -1.
       -4    1    5    5    0  501  0.53185156874E+02 -0.17841658323E+02 -0.34327016781E+02  0.65782567330E+02  0.14200000000E+01 0.  1.
</event>
<event>
 9   1  0.7335000E-04  0.9952847E+03  0.7818608E-02  0.9313732E-01
       -2   -1    0    0    0  501 -0.00000000000E+00  0.00000000000E+00  0.41079158927E+03  0.41079158927E+03  0.00000000000E+00 0. -1.
        2   -1    0    0  501    0  0.00000000000E+00 -0.00000000000E+00 -0.60285536128E+03  0.60285536128E+03  0.00000000000E+00 0.  1.
       39    2    1    2    0    0  0.00000000000E+00  0.00000000000E+00 -0.19206377202E+03  0.10136469506E+04  0.99528470693E+03 0.  0.
       24    2    3    3    0    0 -0.25754237575E+03  0.37041579675E+03 -0.29420131426E+03  0.54442985489E+03  0.79457635228E+02 0.  0.
      -24    2    3    3    0    0  0.25754237575E+03 -0.37041579675E+03  0.10213754224E+03  0.46921709566E+03  0.78718914714E+02 0.  0.
      -13    1    4    4    0    0 -0.23787159583E+03  0.35357432143E+03 -0.29538481569E+03  0.51850736370E+03  0.00000000000E+00 0.  1.
       14    1    4    4    0    0 -0.19670779920E+02  0.16841475327E+02  0.11835014304E+01  0.25922491190E+02  0.00000000000E+00 0. -1.
        3    1    5    5  502    0  0.23847295248E+03 -0.34862322820E+03  0.11460884454E+03  0.43765590542E+03  0.00000000000E+00 0. -1.
       -4    1    5    5    0  502  0.19069423271E+02 -0.21792568555E+02 -0.12471302303E+02  0.31561190238E+02  0.14200000000E+01 0.  1.
</event>
<event>
 9   1  0.7335000E-04  0.1000863E+04  0.7818608E-02  0.9307599E-01
       21   -1    0    0  503  502  0.00000000000E+00  0.00000000000E+00  0.44822913057E+03  0.44822913057E+03  0.00000000000E+00 0. -1.
       21   -1    0    0  502  503 -0.00000000000E+00 -0.00000000000E+00 -0.55871326481E+03  0.55871326481E+03  0.00000000000E+00 0.  1.
       39    2    1    2    0    0  0.00000000000E+00  0.28421709430E-13 -0.11048413424E+03  0.10069423954E+04  0.10008627497E+04 0.  0.
       24    2    3    3    0    0 -0.38383072395E+03 -0.11011184459E+03  0.23680351063E+03  0.47126767899E+03  0.81035051939E+02 0.  0.
      -24    2    3    3    0    0  0.38383072395E+03  0.11011184459E+03 -0.34728764487E+03  0.53567471640E+03  0.82994280163E+02 0.  0.
      -13    1    4    4    0    0 -0.26089377594E+03 -0.93147006412E+02  0.12380935223E+03  0.30343151258E+03  0.00000000000E+00 0.  1.
       14    1    4    4    0    0 -0.12293694800E+03 -0.16964838183E+02  0.11299415840E+03  0.16783616640E+03  0.00000000000E+00 0. -1.
        3    1    5    5  501    0  0.57622651642E+02 -0.85438854754E+01 -0.72191238598E+02  0.92762831413E+02  0.00000000000E+00 0. -1.
       -4    1    5    5    0  501  0.32620807230E+03  0.11865573007E+03 -0.27509640627E+03  0.44291188498E+03  0.14200000000E+01 0.  1.
</event>
<event>
 9   1  0.7335000E-04  0.1002569E+04  0.7818608E-02  0.9305732E-01
       21   -1    0    0  503  502  0.00000000000E+00  0.00000000000E+00  0.96057819586E+02  0.96057819586E+02  0.00000000000E+00 0.  1.
       21   -1    0    0  502  503 -0.00000000000E+00 -0.00000000000E+00 -0.26159876389E+04  0.26159876389E+04  0.00000000000E+00 0. -1.
       39    2    1    2    0    0  0.00000000000E+00  0.00000000000E+00 -0.25199298193E+04  0.27120454585E+04  0.10025688379E+04 0.  0.
       24    2    3    3    0    0 -0.12539468092E+03 -0.13131712461E+03 -0.25048975244E+04  0.25129611706E+04  0.86569187661E+02 0.  0.
      -24    2    3    3    0    0  0.12539468092E+03  0.13131712461E+03 -0.15032294946E+02  0.19908428786E+03  0.80253165455E+02 0.  0.
      -13    1    4    4    0    0 -0.43736813215E+02 -0.92231796404E+02 -0.95953949433E+03  0.96495370577E+03  0.00000000000E+00 0.  1.
       14    1    4    4    0    0 -0.81657867701E+02 -0.39085328205E+02 -0.15453580301E+04  0.15480074649E+04  0.00000000000E+00 0. -1.
        1    1    5    5  501    0  0.14983566393E+01  0.42010173002E+01 -0.21008275736E+02  0.21476528313E+02  0.00000000000E+00 0. -1.
       -2    1    5    5    0  501  0.12389632428E+03  0.12711610731E+03  0.59759807894E+01  0.17760775955E+03  0.00000000000E+00 0.  1.
</event>
<event>
 9   1  0.7335000E-04  0.1008514E+04  0.7818608E-02  0.9299256E-01
       21   -1    0    0  503  502  0.00000000000E+00  0.00000000000E+00  0.11939252903E+04  0.11939252903E+04  0.00000000000E+00 0. -1.
       21   -1    0    0  502  503 -0.00000000000E+00 -0.00000000000E+00 -0.21297386908E+03  0.21297386908E+03  0.00000000000E+00 0.  1.
       39    2    1    2    0    0  0.00000000000E+00 -0.28421709430E-13  0.98095142124E+03  0.14068991594E+04  0.10085135368E+04 0.  0.
       24    2    3    3    0    0  0.40146712113E+03 -0.13715428622E+03  0.12850159848E+03  0.45163405422E+03  0.86449468109E+02 0.  0.
      -24    2    3    3    0    0 -0.40146712113E+03  0.13715428622E+03  0.85244982276E+03  0.95526510518E+03  0.76639241060E+02 0.  0.
      -13    1    4    4    0    0  0.28917152148E+03 -0.57725564286E+02  0.98103393014E+02  0.31076789623E+03  0.00000000000E+00 0.  1.
       14    1    4    4    0    0  0.11229559965E+03 -0.79428721936E+02  0.30398205463E+02  0.14086615798E+03  0.00000000000E+00 0. -1.
        1    1    5    5  501    0 -0.31404868399E+03  0.13545465401E+03  0.71079256794E+03  0.78879694082E+03  0.00000000000E+00 0. -1.
       -2    1    5    5    0  501 -0.87418437142E+02  0.16996322134E+01  0.14165725483E+03  0.16646816436E+03  0.00000000000E+00 0.  1.
</event>
<event>
 9   1  0.7335000E-04  0.1017940E+04  0.7818608E-02  0.9289084E-01
       21   -1    0    0  503  502  0.00000000000E+00  0.00000000000E+00  0.24992178358E+03  0.24992178358E+03  0.00000000000E+00 0.  1.
       21   -1    0    0  502  503 -0.00000000000E+00 -0.00000000000E+00 -0.10365265184E+04  0.10365265184E+04  0.00000000000E+00 0. -1.
       39    2    1    2    0    0  0.00000000000E+00  0.00000000000E+00 -0.78660473481E+03  0.12864483020E+04  0.10179401872E+04 0.  0.
       24    2    3    3    0    0  0.13407964309E+03  0.45190019619E+03 -0.17061659702E+03  0.50676949759E+03  0.74257407011E+02 0.  0.
      -24    2    3    3    0    0 -0.13407964309E+03 -0.45190019619E+03 -0.61598813779E+03  0.77967880438E+03  0.79161316841E+02 0.  0.
      -13    1    4    4    0    0  0.79210496084E+02  0.29682039412E+03 -0.74001067586E+02  0.31599494784E+03  0.00000000000E+00 0.  1.
       14    1    4    4    0    0  0.54869147006E+02  0.15507980207E+03 -0.96615529433E+02  0.19077454975E+03  0.00000000000E+00 0. -1.
        1    1    5    5  501    0 -0.96528165226E+02 -0.40222048699E+03 -0.55792005202E+03  0.69453134651E+03  0.00000000000E+00 0. -1.
       -2    1    5    5    0  501 -0.37551477864E+02 -0.49679709205E+02 -0.58068085769E+02  0.85147457868E+02  0.00000000000E+00 0.  1.
</event>
<event>
 9   1  0.7335000E-04  0.9985006E+03  0.7818608E-02  0.9310191E-01
       -1   -1    0    0    0  501 -0.00000000000E+00  0.00000000000E+00  0.55318165862E+03  0.55318165862E+03  0.00000000000E+00 0. -1.
        1   -1    0    0  501    0  0.00000000000E+00 -0.00000000000E+00 -0.45057686664E+03  0.45057686664E+03  0.00000000000E+00 0.  1.
       39    2    1    2    0    0  0.28421709430E-13  0.00000000000E+00  0.10260479198E+03  0.10037585253E+04  0.99850059274E+03 0.  0.
       24    2    3    3    0    0  0.16833609820E+03 -0.27407455306E+03 -0.32388308499E+03  0.46342178428E+03  0.80034959944E+02 0.  0.
      -24    2    3    3    0    0 -0.16833609820E+03  0.27407455306E+03  0.42648787697E+03  0.54033674098E+03  0.81350979434E+02 0.  0.
      -13    1    4    4    0    0  0.16790366933E+03 -0.27203393453E+03 -0.32848889581E+03  0.45836563831E+03  0.00000000000E+00 0.  1.
       14    1    4    4    0    0  0.43242886653E+00 -0.20406185317E+01  0.46058108261E+01  0.50561459713E+01  0.00000000000E+00 0. -1.
        3    1    5    5  502    0 -0.17606765369E+03  0.24534979608E+03  0.38759488024E+03  0.49135133286E+03  0.00000000000E+00 0. -1.
       -4    1    5    5    0  502  0.77315554938E+01  0.28724756976E+02  0.38892996731E+02  0.48985408117E+02  0.14200000000E+01 0.  1.
</event>
<event>
 9   1  0.7335000E-04  0.9984072E+03  0.7818608E-02  0.9310293E-01
       21   -1    0    0  503  502  0.00000000000E+00  0.00000000000E+00  0.73801253612E+03  0.73801253612E+03  0.00000000000E+00 0.  1.
       21   -1    0    0  502  503 -0.00000000000E+00 -0.00000000000E+00 -0.33766938681E+03  0.33766938681E+03  0.00000000000E+00 0. -1.
       39    2    1    2    0    0  0.00000000000E+00  0.00000000000E+00  0.40034314931E+03  0.10756819229E+04  0.99840721257E+03 0.  0.
       24    2    3    3    0    0 -0.16310136662E+03  0.24070748340E+03 -0.22821381133E+03  0.37842186008E+03  0.81113575626E+02 0.  0.
      -24    2    3    3    0    0  0.16310136662E+03 -0.24070748340E+03  0.62855696064E+03  0.69726006284E+03  0.80904846014E+02 0.  0.
      -13    1    4    4    0    0 -0.13050267966E+02  0.23853439140E+02 -0.59352922842E+02  0.65284496649E+02  0.00000000000E+00 0.  1.
       14    1    4    4    0    0 -0.15005109865E+03  0.21685404426E+03 -0.16886088849E+03  0.31313736343E+03  0.00000000000E+00 0. -1.
        3    1    5    5  501    0  0.49816976623E+02 -0.25483549502E+02  0.15698487302E+03  0.16665951162E+03  0.00000000000E+00 0. -1.
       -4    1    5    5    0  501  0.11328438999E+03 -0.21522393390E+03  0.47157208762E+03  0.53060055122E+03  0.14200000000E+01 0.  1.
</event>
<event>
 9   1  0.7335000E-04  0.1002712E+04  0.7818608E-02  0.9305575E-01
       -2   -1    0    0    0  501 -0.00000000000E+00  0.00000000000E+00  0.32654136311E+03  0.32654136311E+03  0.00000000000E+00 0. -1.
        2   -1    0    0  501    0  0.00000000000E+00 -0.00000000000E+00 -0.76975850513E+03  0.76975850513E+03  0.00000000000E+00 0.  1.
       39    2    1    2    0    0 -0.28421709430E-13 -0.56843418861E-13 -0.44321714202E+03  0.10962998682E+04  0.10027123048E+04 0.  0.
       24    2    3    3    0    0  0.20317399342E+03  0.28924443846E+03  0.15716240532E+03  0.39486480358E+03  0.79222311736E+02 0.  0.
      -24    2    3    3    0    0 -0.20317399342E+03 -0.28924443846E+03 -0.60037954734E+03  0.70143506467E+03  0.81323626950E+02 0.  0.
      -13    1    4    4    0    0  0.94885864393E+02  0.20195158318E+03  0.98703709203E+02  0.24398809688E+03  0.00000000000E+00 0.  1.
       14    1    4    4    0    0  0.10828812903E+03  0.87292855279E+02  0.58458696116E+02  0.15087670670E+03  0.00000000000E+00 0. -1.
        3    1    5    5  502    0 -0.15845292558E+02 -0.40427250476E+02 -0.34313252792E+02  0.55342887479E+02  0.00000000000E+00 0. -1.
       -4    1    5    5    0  502 -0.18732870087E+03 -0.24881718798E+03 -0.56606629455E+03  0.64609217719E+03  0.14200000000E+01 0.  1.
</event>
<event>
 9   1  0.7335000E-04  0.9975313E+03  0.7818608E-02  0.9311257E-01
       -2   -1    0    0    0  501 -0.00000000000E+00  0.00000000000E+00  0.18208871057E+03  0.18208871057E+03  0.00000000000E+00 0.  1.
        2   -1    0    0  501    0  0.00000000000E+00 -0.00000000000E+00 -0.13661867728E+04  0.13661867728E+04  0.00000000000E+00 0. -1.
       39    2    1    2    0    0  0.28421709430E-13  0.35527136788E-14 -0.11840980622E+04  0.15482754834E+04  0.99753132855E+03 0.  0.
       24    2    3    3    0    0  0.19251916199E+03  0.16290800875E+02  0.11185452517E+03  0.23556682959E+03  0.75174985698E+02 0.  0.
      -24    2    3    3    0    0 -0.19251916199E+03 -0.16290800875E+02 -0.12959525874E+04  0.13127086538E+04  0.79886688498E+02 0.  0.
      -13    1    4    4    0    0  0.90515338452E+02  0.40788908818E+02  0.74819362909E+02  0.12431692823E+03  0.00000000000E+00 0.  1.
       14    1    4    4    0    0  0.10200382354E+03 -0.24498107943E+02  0.37035162263E+02  0.11124990136E+03  0.00000000000E+00 0. -1.
        1    1    5    5  502    0 -0.12400062181E+03 -0.22723383624E+02 -0.10419306758E+04  0.10495294372E+04  0.00000000000E+00 0. -1.
       -2    1    5    5    0  502 -0.68518540179E+02  0.64325827492E+01 -0.25402191162E+03  0.26317921660E+03  0.00000000000E+00 0.  1.
</event>
<event>
 9   1  0.7335000E-04  0.9997695E+03  0.7818608E-02  0.9308798E-01
        2   -1    0    0  501    0  0.00000000000E+00  0.00000000000E+00  0.10163453831E+04  0.10163453831E+04  0.00000000000E+00 0.  1.
       -2   -1    0    0    0  501 -0.00000000000E+00 -0.00000000000E+00 -0.24586600777E+03  0.24586600777E+03  0.00000000000E+00 0. -1.
       39    2    1    2    0    0  0.28421709430E-13  0.00000000000E+00  0.77047937537E+03  0.12622113909E+04  0.99976953718E+03 0.  0.
       24    2    3    3    0    0  0.24552660901E+03  0.18438982482E+03  0.87243280873E+03  0.92824892345E+03  0.78893186755E+02 0.  0.
      -24    2    3    3    0    0 -0.24552660901E+03 -0.18438982482E+03 -0.10195343336E+03  0.33396246746E+03  0.82785891731E+02 0.  0.
      -13    1    4    4    0    0  0.23994591126E+03  0.19181188260E+03  0.85477080273E+03  0.90829453584E+03  0.00000000000E+00 0.  1.
       14    1    4    4    0    0  0.55806977469E+01 -0.74220577823E+01  0.17662006000E+02  0.19954387613E+02  0.00000000000E+00 0. -1.
        3    1    5    5  502    0 -0.44134608980E+02 -0.59839548589E+02  0.41691067451E+01  0.74471583415E+02  0.00000000000E+00 0. -1.
       -4    1    5    5    0  502 -0.20139200003E+03 -0.12455027623E+03 -0.10612254010E+03  0.25949088405E+03  0.14200000000E+01 0.  1.
</event>
<event>
 9   1  0.7335000E-04  0.9919366E+03  0.7818608E-02  0.9317433E-01
       21   -1    0    0  503  502  0.00000000000E+00  0.00000000000E+00  0.19254059300E+03  0.19254059300E+03  0.00000000000E+00 0. -1.
       21   -1    0    0  502  503 -0.00000000000E+00 -0.00000000000E+00 -0.12775725187E+04  0.12775725187E+04  0.00000000000E+00 0.  1.
       39    2    1    2    0    0  0.00000000000E+00  0.28421709430E-13 -0.10850319257E+04  0.14701131117E+04  0.99193663175E+03 0.  0.
       24    2    3    3    0    0 -0.47896281244E+02 -0.14091360939E+03  0.14883585986E+03  0.22489128632E+03  0.79204030285E+02 0.  0.
      -24    2    3    3    0    0  0.47896281244E+02  0.14091360939E+03 -0.12338677856E+04  0.12452218254E+04  0.77440190497E+02 0.  0.
      -13    1    4    4    0    0 -0.42995366311E+02 -0.34872663895E+02  0.22192764620E+02  0.59642459815E+02  0.00000000000E+00 0.  1.
       14    1    4    4    0    0 -0.49009149332E+01 -0.10604094549E+03  0.12664309524E+03  0.16524882650E+03  0.00000000000E+00 0. -1.
        3    1    5    5  501    0  0.93065200091E+01  0.63496769408E+02 -0.81444877859E+03  0.81697323334E+03  0.00000000000E+00 0. -1.
       -4    1    5    5    0  501  0.38589761235E+02  0.77416839980E+02 -0.41941900699E+03  0.42824859206E+03  0.14200000000E+01 0.  1.
</event>
<event>
 9   1  0.7335000E-04  0.1053000E+04  0.7818608E-02  0.9252252E-01
       21   -1    0    0  503  502  0.00000000000E+00  0.00000000000E+00  0.17332829875E+04  0.17332829875E+04  0.00000000000E+00 0. -1.
       21   -1    0    0  502  503 -0.00000000000E+00 -0.00000000000E+00 -0.15992903060E+03  0.15992903060E+03  0.00000000000E+00 0.  1.
       39    2    1    2    0    0 -0.28421709430E-13  0.00000000000E+00  0.15733539569E+04  0.18932120181E+04  0.10530000341E+04 0.  0.
       24    2    3    3    0    0  0.16329521746E+03  0.21959592541E+01  0.16748756112E+04  0.16848436985E+04  0.82582232646E+02 0.  0.
      -24    2    3    3    0    0 -0.16329521746E+03 -0.21959592541E+01 -0.10152165433E+03  0.20836831956E+03  0.80253099727E+02 0.  0.
      -13    1    4    4    0    0  0.81765281868E+02 -0.39812392715E+02  0.78228879257E+03  0.78755719977E+03  0.00000000000E+00 0.  1.
       14    1    4    4    0    0  0.81529935593E+02  0.42008351969E+02  0.89258681865E+03  0.89728649876E+03  0.00000000000E+00 0. -1.
        3    1    5    5  501    0 -0.37949154112E+02  0.75278894021E+01  0.10375379119E+02  0.40055660131E+02  0.00000000000E+00 0. -1.
       -4    1    5    5    0  501 -0.12534606335E+03 -0.97238486562E+01 -0.11189703344E+03  0.16831265943E+03  0.14200000000E+01 0.  1.
</event>
<event>
 9   1  0.7335000E-04  0.1002347E+04  0.7818608E-02  0.9305975E-01
       21   -1    0    0  503  502  0.00000000000E+00  0.00000000000E+00  0.18682665167E+03  0.18682665167E+03  0.00000000000E+00 0.  1.
       21   -1    0    0  502  503 -0.00000000000E+00 -0.00000000000E+00 -0.13444265618E+04  0.13444265618E+04  0.00000000000E+00 0. -1.
       39    2    1    2    0    0 -0.28421709430E-13  0.00000000000E+00 -0.11575999101E+04  0.15312532135E+04  0.10023466725E+04 0.  0.
       24    2    3    3    0    0  0.79037121332E+02  0.15780801271E+03  0.12732251693E+03  0.23172010632E+03  0.79579827419E+02 0.  0.
      -24    2    3    3    0    0 -0.79037121332E+02 -0.15780801271E+03 -0.12849224270E+04  0.12995331071E+04  0.81304474727E+02 0.  0.
      -13    1    4    4    0    0  0.91118041552E+02  0.11214422249E+03  0.10924399139E+03  0.18114379313E+03  0.00000000000E+00 0.  1.
       14    1    4    4    0    0 -0.12080920221E+02  0.45663790212E+02  0.18078525541E+02  0.50576313187E+02  0.00000000000E+00 0. -1.
        1    1    5    5  501    0 -0.77256033477E+02 -0.67269124686E+02 -0.75711839513E+03  0.76401694620E+03  0.00000000000E+00 0. -1.
       -2    1    5    5    0  501 -0.17810878542E+01 -0.90538888021E+02 -0.52780403191E+03  0.53551616093E+03  0.00000000000E+00 0.  1.
</event>
<event>
 9   1  0.7335000E-04  0.9974629E+03  0.7818608E-02  0.9311332E-01
       21   -1    0    0  503  502  0.00000000000E+00  0.00000000000E+00  0.13000374491E+04  0.13000374491E+04  0.00000000000E+00 0.  1.
       21   -1    0    0  502  503 -0.00000000000E+00 -0.00000000000E+00 -0.19132760822E+03  0.19132760822E+03  0.00000000000E+00 0. -1.
       39    2    1    2    0    0 -0.56843418861E-13  0.00000000000E+00  0.11087098409E+04  0.14913650574E+04  0.99746289303E+03 0.  0.
       24    2    3    3    0    0  0.39019219735E+03  0.11109796155E+03  0.97071363521E+03  0.10553559995E+04  0.83057908557E+02 0.  0.
      -24    2    3    3    0    0 -0.39019219735E+03 -0.11109796155E+03  0.13799620570E+03  0.43600905785E+03  0.80425355497E+02 0.  0.
      -13    1    4    4    0    0  0.94061176689E+02 -0.90971696026E+01  0.22599582090E+03  0.24495790356E+03  0.00000000000E+00 0.  1.
       14    1    4    4    0    0  0.29613102066E+03  0.12019513116E+03  0.74471781431E+03  0.81039809594E+03  0.00000000000E+00 0. -1.
        3    1    5    5  501    0 -0.72315407327E+02 -0.54845505737E+02  0.28731102642E+02  0.95199915417E+02  0.00000000000E+00 0. -1.
       -4    1    5    5    0  501 -0.31787679002E+03 -0.56252455817E+02  0.10926510306E+03  0.34080914243E+03  0.14200000000E+01 0.  1.
</event>
<event>
 9   1  0.7335000E-04  0.1006546E+04  0.7818608E-02  0.9301395E-01
       21   -1    0    0  503  502  0.00000000000E+00  0.00000000000E+00  0.20941983942E+03  0.20941983942E+03  0.00000000000E+00 0. -1.
       21   -1    0    0  502  503 -0.00000000000E+00 -0.00000000000E+00 -0.12094531160E+04  0.12094531160E+04  0.00000000000E+00 0.  1.
       39    2    1    2    0    0  0.00000000000E+00  0.56843418861E-13 -0.10000332766E+04  0.14188729554E+04  0.10065455327E+04 0.  0.
       24    2    3    3    0    0 -0.26352761696E+03 -0.34220007740E+03 -0.84556122212E+03  0.95324458442E+03  0.84579900096E+02 0.  0.
      -24    2    3    3    0    0  0.26352761696E+03  0.34220007740E+03 -0.15447205447E+03  0.46562837102E+03  0.80002914980E+02 0.  0.
      -13    1    4    4    0    0 -0.17981994813E+03 -0.17195752136E+03 -0.51957955453E+03  0.57607943582E+03  0.00000000000E+00 0.  1.
       14    1    4    4    0    0 -0.83707668835E+02 -0.17024255605E+03 -0.32598166759E+03  0.37716514860E+03  0.00000000000E+00 0. -1.
        3    1    5    5  501    0  0.13960297778E+03  0.22963348629E+03 -0.68073677470E+02  0.27722654093E+03  0.00000000000E+00 0. -1.
       -4    1    5    5    0  501  0.12392463919E+03  0.11256659111E+03 -0.86398377000E+02  0.18840183009E+03  0.14200000000E+01 0.  1.
</event>
<event>
 9   1  0.7335000E-04  0.9964355E+03  0.7818608E-02  0.9312463E-01
       -4   -1    0    0    0  501 -0.00000000000E+00  0.00000000000E+00  0.22117141840E+03  0.22117597681E+03  0.14200000000E+01 0.  1.
        4   -1    0    0  501    0  0.00000000000E+00 -0.00000000000E+00 -0.11222844678E+04  0.11222853661E+04  0.14200000000E+01 0. -1.
       39    2    1    2    0    0  0.56843418861E-13  0.56843418861E-13 -0.90111304937E+03  0.13434613429E+04  0.99643547317E+03 0.  0.
       24    2    3    3    0    0  0.39525115619E+03  0.28804172500E+03 -0.52015752707E+03  0.71836695126E+03  0.79345522165E+02 0.  0.
      -24    2    3    3    0    0 -0.39525115619E+03 -0.28804172500E+03 -0.38095552231E+03  0.62509439166E+03  0.80152209586E+02 0.  0.
      -13    1    4    4    0    0  0.39865208424E+02  0.55942026128E+02 -0.98310209822E+02  0.11993182432E+03  0.00000000000E+00 0.  1.
       14    1    4    4    0    0  0.35538594777E+03  0.23209969887E+03 -0.42184731724E+03  0.59843512694E+03  0.00000000000E+00 0. -1.
        1    1    5    5  502    0 -0.11793700409E+03 -0.80472300110E+02 -0.15897788281E+03  0.21367942166E+03  0.00000000000E+00 0. -1.
       -2    1    5    5    0  502 -0.27731415211E+03 -0.20756942489E+03 -0.22197763950E+03  0.41141497000E+03  0.00000000000E+00 0.  1.
</event>
<event>
 9   1  0.7335000E-04  0.1007997E+04  0.7818608E-02  0.9299817E-01
       21   -1    0    0  503  502  0.00000000000E+00  0.00000000000E+00  0.11970779863E+03  0.11970779863E+03  0.00000000000E+00 0.  1.
       21   -1    0    0  502  503 -0.00000000000E+00 -0.00000000000E+00 -0.21219531049E+04  0.21219531049E+04  0.00000000000E+00 0. -1.
       39    2    1    2    0    0  0.00000000000E+00  0.56843418861E-13 -0.20022453063E+04  0.22416609035E+04  0.10079966964E+04 0.  0.
       24    2    3    3    0    0 -0.76454811264E+02 -0.48983097528E+03 -0.11020275455E+04  0.12107100377E+04  0.74661648833E+02 0.  0.
      -24    2    3    3    0    0  0.76454811264E+02  0.48983097528E+03 -0.90021776076E+03  0.10309508658E+04  0.81779878079E+02 0.  0.
      -13    1    4    4    0    0 -0.76393901810E+02 -0.27513041327E+03 -0.58880048899E+03  0.65438428188E+03  0.00000000000E+00 0.  1.
       14    1    4    4    0    0 -0.60909453836E-01 -0.21470056201E+03 -0.51322705653E+03  0.55632575582E+03  0.00000000000E+00 0. -1.
        1    1    5    5  501    0 -0.16986717342E+02  0.78420148802E+02 -0.13048118173E+03  0.15317835059E+03  0.00000000000E+00 0. -1.
       -2    1    5    5    0  501  0.93441528606E+02  0.41141082647E+03 -0.76973657903E+03  0.87777251524E+03  0.00000000000E+00 0.  1.
</event>
<event>
 9   1  0.7335000E-04  0.1002209E+04  0.7818608E-02  0.9306126E-01
       21   -1    0    0  503  502  0.00000000000E+00  0.00000000000E+00  0.42457190788E+03  0.42457190788E+03  0.00000000000E+00 0.  1.
       21   -1    0    0  502  503 -0.00000000000E+00 -0.00000000000E+00 -0.59143250827E+03  0.59143250827E+03  0.00000000000E+00 0. -1.
       39    2    1    2    0    0  0.28421709430E-13  0.00000000000E+00 -0.16686060039E+03  0.10160044161E+04  0.10022088174E+04 0.  0.
       24    2    3    3    0    0  0.20030842815E+03  0.15958711343E+03 -0.51243411929E+03  0.57836331709E+03  0.79522869522E+02 0.  0.
      -24    2    3    3    0    0 -0.20030842815E+03 -0.15958711343E+03  0.34557351890E+03  0.43764109906E+03  0.80728938159E+02 0.  0.
      -13    1    4    4    0    0  0.13756832962E+03  0.60287930830E+02 -0.26970088152E+03  0.30870413896E+03  0.00000000000E+00 0.  1.
       14    1    4    4    0    0  0.62740098524E+02  0.99299182604E+02 -0.24273323777E+03  0.26965917813E+03  0.00000000000E+00 0. -1.
        3    1    5    5  501    0 -0.11954668375E+03 -0.11773626814E+03  0.16437574668E+03  0.23488853639E+03  0.00000000000E+00 0. -1.
       -4    1    5    5    0  501 -0.80761744393E+02 -0.41850845298E+02  0.18119777222E+03  0.20275256266E+03  0.14200000000E+01 0.  1.
</event>
<event>
 9   1  0.7335000E-04  0.1013097E+04  0.7818608E-02  0.9294296E-01
       21   -1    0    0  503  502  0.00000000000E+00  0.00000000000E+00  0.36798120802E+03  0.36798120802E+03  0.00000000000E+00 0.  1.
       21   -1    0    0  502  503 -0.00000000000E+00 -0.00000000000E+00 -0.69729501193E+03  0.69729501193E+03  0.00000000000E+00 0. -1.
       39    2    1    2    0    0  0.14210854715E-13  0.00000000000E+00 -0.32931380391E+03  0.10652762199E+04  0.10130971539E+04 0.  0.
       24    2    3    3    0    0  0.85829444594E+02  0.32449513470E+03  0.22664633459E+03  0.41293130940E+03  0.80497945914E+02 0.  0.
      -24    2    3    3    0    0 -0.85829444594E+02 -0.32449513470E+03 -0.55596013850E+03  0.65234491054E+03  0.61631328966E+02 0.  0.
      -13    1    4    4    0    0  0.70552784744E+02  0.32200157741E+03  0.21794668575E+03  0.39517523850E+03  0.00000000000E+00 0.  1.
       14    1    4    4    0    0  0.15276659849E+02  0.24935572924E+01  0.86996488394E+01  0.17756070907E+02  0.00000000000E+00 0. -1.
        3    1    5    5  501    0 -0.71784277055E+02 -0.31595166459E+03 -0.51845793571E+03  0.61137310039E+03  0.00000000000E+00 0. -1.
       -4    1    5    5    0  501 -0.14045167538E+02 -0.85434701127E+01 -0.37502202790E+02  0.40971810149E+02  0.14200000000E+01 0.  1.
</event>
<event>
 9   1  0.7335000E-04  0.1007291E+04  0.7818608E-02  0.9300584E-01
       21   -1    0    0  503  502  0.00000000000E+00  0.00000000000E+00  0.14076536110E+04  0.14076536110E+04  0.00000000000E+00 0.  1.
       21   -1    0    0  502  503 -0.00000000000E+00 -0.00000000000E+00 -0.18019985015E+03  0.18019985015E+03  0.00000000000E+00 0. -1.
       39    2    1    2    0    0 -0.17763568394E-14  0.00000000000E+00  0.12274537608E+04  0.15878534611E+04  0.10072913576E+04 0.  0.
       24    2    3    3    0    0 -0.12323827952E+02  0.12510049273E+03  0.13720921268E+04  0.13803030118E+04  0.82447499080E+02 0.  0.
      -24    2    3    3    0    0  0.12323827952E+02 -0.12510049273E+03 -0.14463836593E+03  0.20755044932E+03  0.79717765254E+02 0.  0.
      -13    1    4    4    0    0 -0.84719931104E+01  0.10314006287E+03  0.67796441617E+03  0.68581732030E+03  0.00000000000E+00 0.  1.
       14    1    4    4    0    0 -0.38518348412E+01  0.21960429861E+02  0.69412771060E+03  0.69448569153E+03  0.00000000000E+00 0. -1.
        3    1    5    5  501    0 -0.11373342274E+02 -0.12186585882E+03 -0.10514153623E+03  0.16135483600E+03  0.00000000000E+00 0. -1.
       -4    1    5    5    0  501  0.23697170226E+02 -0.32346339067E+01 -0.39496829698E+02  0.46195613314E+02  0.14200000000E+01 0.  1.
</event>
<event>
 9   1  0.7335000E-04  0.1017373E+04  0.7818608E-02  0.9289693E-01
       21   -1    0    0  503  502  0.00000000000E+00  0.00000000000E+00  0.25536684138E+03  0.25536684138E+03  0.00000000000E+00 0.  1.
       21   -1    0    0  502  503 -0.00000000000E+00 -0.00000000000E+00 -0.10132946401E+04  0.10132946401E+04  0.00000000000E+00 0. -1.
       39    2    1    2    0    0  0.00000000000E+00  0.28421709430E-13 -0.75792779868E+03  0.12686614814E+04  0.10173727962E+04 0.  0.
       24    2    3    3    0    0  0.12103429145E+03  0.22725072170E+03 -0.91693807226E+03  0.95569508118E+03  0.79280953579E+02 0.  0.
      -24    2    3    3    0    0 -0.12103429145E+03 -0.22725072170E+03  0.15901027359E+03  0.31296640026E+03  0.79821741199E+02 0.  0.
      -13    1    4    4    0    0 -0.52053131231E+01  0.41632295091E+02 -0.99252686383E+02  0.10775638744E+03  0.00000000000E+00 0.  1.
       14    1    4    4    0    0  0.12623960457E+03  0.18561842661E+03 -0.81768538588E+03  0.84793869374E+03  0.00000000000E+00 0. -1.
        1    1    5    5  501    0 -0.19816681530E+02 -0.51102725161E+02  0.75538722852E+02  0.93328923897E+02  0.00000000000E+00 0. -1.
       -2    1    5    5    0  501 -0.10121760992E+03 -0.17614799654E+03  0.83471550734E+02  0.21963747637E+03  0.00000000000E+00 0.  1.
</event>
<event>
 9   1  0.7335000E-04  0.1003861E+04  0.7818608E-02  0.9304320E-01
       21   -1    0    0  503  502  0.00000000000E+00  0.00000000000E+00  0.48729831716E+03  0.48729831716E+03  0.00000000000E+00 0. -1.
       21   -1    0    0  502  503 -0.00000000000E+00 -0.00000000000E+00 -0.51700190793E+03  0.51700190793E+03  0.00000000000E+00 0.  1.
       39    2    1    2    0    0  0.00000000000E+00  0.00000000000E+00 -0.29703590776E+02  0.10043002251E+04  0.10038608663E+04 0.  0.
       24    2    3    3    0    0 -0.24710229425E+03  0.46579077482E+02 -0.44188951110E+03  0.51474709409E+03  0.80430569873E+02 0.  0.
      -24    2    3    3    0    0  0.24710229425E+03 -0.46579077482E+02  0.41218592032E+03  0.48955313100E+03  0.80844795015E+02 0.  0.
      -13    1    4    4    0    0 -0.16874461614E+03  0.55952295554E+00 -0.32967800469E+03  0.37035475604E+03  0.00000000000E+00 0.  1.
       14    1    4    4    0    0 -0.78357678106E+02  0.46019554527E+02 -0.11221150641E+03  0.14439233805E+03  0.00000000000E+00 0. -1.
        1    1    5    5  501    0  0.54107004115E+02 -0.20948468949E+02  0.16499085171E+03  0.17489536127E+03  0.00000000000E+00 0. -1.
       -2    1    5    5    0  501  0.19299529013E+03 -0.25630608534E+02  0.24719506861E+03  0.31465776973E+03  0.00000000000E+00 0.  1.
</event>
<event>
 9   1  0.7335000E-04  0.9993850E+03  0.7818608E-02  0.9309220E-01
       21   -1    0    0  503  502  0.00000000000E+00  0.00000000000E+00  0.60201968840E+03  0.60201968840E+03  0.00000000000E+00 0.  1.
       21   -1    0    0  502  503 -0.00000000000E+00 -0.00000000000E+00 -0.41475821575E+03  0.41475821575E+03  0.00000000000E+00 0. -1.
       39    2    1    2    0    0 -0.28421709430E-13 -0.11368683772E-12  0.18726147265E+03  0.10167779041E+04  0.99938503452E+03 0.  0.
       24    2    3    3    0    0  0.23555909043E+03  0.36283345562E+03  0.33386053723E+03  0.55221871116E+03  0.79664578298E+02 0.  0.
      -24    2    3    3    0    0 -0.23555909043E+03 -0.36283345562E+03 -0.14659906458E+03  0.46455919299E+03  0.84780637251E+02 0.  0.
      -13    1    4    4    0    0  0.18984446407E+03  0.24150905109E+03  0.26340782778E+03  0.40466186629E+03  0.00000000000E+00 0.  1.
       14    1    4    4    0    0  0.45714626353E+02  0.12132440453E+03  0.70452709447E+02  0.14755684486E+03  0.00000000000E+00 0. -1.
        3    1    5    5  501    0 -0.18500592514E+03 -0.25033667899E+03 -0.68996135029E+02  0.31883555610E+03  0.00000000000E+00 0. -1.
       -4    1    5    5    0  501 -0.50553165290E+02 -0.11249677663E+03 -0.77602929553E+02  0.14572363689E+03  0.14200000000E+01 0.  1.
</event>
<event>
 9   1  0.7335000E-04  0.9993085E+03  0.7818608E-02  0.9309304E-01
       21   -1    0    0  503  502  0.00000000000E+00  0.00000000000E+00  0.48171654271E+03  0.48171654271E+03  0.00000000000E+00 0.  1.
       21   -1    0    0  502  503 -0.00000000000E+00 -0.00000000000E+00 -0.51825993955E+03  0.51825993955E+03  0.00000000000E+00 0. -1.
       39    2    1    2    0    0 -0.14210854715E-13  0.00000000000E+00 -0.36543396836E+02  0.99997648226E+03  0.99930853355E+03 0.  0.
       24    2    3    3    0    0 -0.83029365003E+02  0.53889061788E+02  0.46526135141E+03  0.48256670248E+03  0.81268633514E+02 0.  0.
      -24    2    3    3    0    0  0.83029365003E+02 -0.53889061788E+02 -0.50180474824E+03  0.51740977978E+03  0.78147094787E+02 0.  0.
      -13    1    4    4    0    0 -0.94492537791E+02  0.57277320223E+02  0.35860725844E+03  0.37524484929E+03  0.00000000000E+00 0.  1.
       14    1    4    4    0    0  0.11463172789E+02 -0.33882584345E+01  0.10665409297E+03  0.10732185319E+03  0.00000000000E+00 0. -1.
        3    1    5    5  501    0  0.49623329293E+02 -0.71053835395E+02 -0.30629623363E+03  0.31832138645E+03  0.00000000000E+00 0. -1.
       -4    1    5    5    0  501  0.33406035709E+02  0.17164773607E+02 -0.19550851461E+03  0.19908839333E+03  0.14200000000E+01 0.  1.
</event>
<event>
 9   1  0.7335000E-04  0.1007568E+04  0.7818608E-02  0.9300283E-01
       21   -1    0    0  503  502  0.00000000000E+00  0.00000000000E+00  0.99237803051E+03  0.99237803051E+03  0.00000000000E+00 0.  1.
       21   -1    0    0  502  503 -0.00000000000E+00 -0.00000000000E+00 -0.25574764536E+03  0.25574764536E+03  0.00000000000E+00 0. -1.
       39    2    1    2    0    0  0.28421709430E-13  0.11368683772E-12  0.73663038516E+03  0.12481256759E+04  0.10075680515E+04 0.  0.
       24    2    3    3    0    0  0.18626074572E+03  0.26688106706E+03 -0.95936030525E+02  0.35059104872E+03  0.88271128553E+02 0.  0.
      -24    2    3    3    0    0 -0.18626074572E+03 -0.26688106706E+03  0.83256641568E+03  0.89753462715E+03  0.80517085529E+02 0.  0.
      -13    1    4    4    0    0  0.21485284002E+02  0.63859832181E+02  0.10675781178E+02  0.68217797521E+02  0.00000000000E+00 0.  1.
       14    1    4    4    0    0  0.16477546172E+03  0.20302123488E+03 -0.10661181170E+03  0.28237325120E+03  0.00000000000E+00 0. -1.
        3    1    5    5  501    0 -0.26267828417E+02 -0.10244749185E+02  0.12330539559E+03  0.12648784241E+03  0.00000000000E+00 0. -1.
       -4    1    5    5    0  501 -0.15999291731E+03 -0.25663631787E+03  0.70926102009E+03  0.77104678474E+03  0.14200000000E+01 0.  1.
</event>
<event>
 9   1  0.7335000E-04  0.1006584E+04  0.7818608E-02  0.9301353E-01
       21   -1    0    0  503  502  0.00000000000E+00  0.00000000000E+00  0.41116824364E+03  0.41116824364E+03  0.00000000000E+00 0. -1.
       21   -1    0    0  502  503 -0.00000000000E+00 -0.00000000000E+00 -0.61605654862E+03  0.61605654862E+03  0.00000000000E+00 0.  1.
       39    2    1    2    0    0  0.56843418861E-13  0.00000000000E+00 -0.20488830497E+03  0.10272247923E+04  0.10065841030E+04 0.  0.
       24    2    3    3    0    0  0.44768172628E+03  0.15640839737E+03 -0.24510001544E+03  0.54428973598E+03  0.10627692274E+03 0.  0.
      -24    2    3    3    0    0 -0.44768172628E+03 -0.15640839737E+03  0.40211710466E+02  0.48293505628E+03  0.82016901384E+02 0.  0.
      -13    1    4    4    0    0  0.23908872427E+03  0.49810074442E+02 -0.17266146509E+03  0.29909269987E+03  0.00000000000E+00 0.  1.
       14    1    4    4    0    0  0.20859300201E+03  0.10659832293E+03 -0.72438550354E+02  0.24519703611E+03  0.00000000000E+00 0. -1.
        1    1    5    5  501    0 -0.39136062413E+03 -0.14151801194E+03  0.61965758537E+02  0.42074961801E+03  0.00000000000E+00 0. -1.
       -2    1    5    5    0  501 -0.56321102148E+02 -0.14890385436E+02 -0.21754048071E+02  0.62185438272E+02  0.00000000000E+00 0.  1.
</event>
<event>
 9   1  0.7335000E-04  0.1003001E+04  0.7818608E-02  0.9305259E-01
       21   -1    0    0  503  502  0.00000000000E+00  0.00000000000E+00  0.50130463238E+03  0.50130463238E+03  0.00000000000E+00 0. -1.
       21   -1    0    0  502  503 -0.00000000000E+00 -0.00000000000E+00 -0.50169674262E+03  0.50169674262E+03  0.00000000000E+00 0.  1.
       39    2    1    2    0    0  0.00000000000E+00 -0.35527136788E-14 -0.39211023779E+00  0.10030013750E+04  0.10030012984E+04 0.  0.
       24    2    3    3    0    0  0.44411041893E+02 -0.11266006320E+02 -0.49330370851E+03  0.50198756848E+03  0.80893179835E+02 0.  0.
      -24    2    3    3    0    0 -0.44411041893E+02  0.11266006320E+02  0.49291159827E+03  0.50101380653E+03  0.77160398392E+02 0.  0.
      -13    1    4    4    0    0 -0.26390173192E+01  0.73094469817E+01 -0.34879072302E+03  0.34887728629E+03  0.00000000000E+00 0.  1.
       14    1    4    4    0    0  0.47050059213E+02 -0.18575453302E+02 -0.14451298549E+03  0.15311028219E+03  0.00000000000E+00 0. -1.
        3    1    5    5  501    0 -0.63672032422E+02  0.21360567556E+02  0.39851538495E+03  0.40413477158E+03  0.00000000000E+00 0. -1.
       -4    1    5    5    0  501  0.19260990529E+02 -0.10094561236E+02  0.94396213322E+02  0.96879034947E+02  0.14200000000E+01 0.  1.
</event>
<event>
 9   1  0.7335000E-04  0.9946421E+03  0.7818608E-02  0.9314441E-01
       21   -1    0    0  503  502  0.00000000000E+00  0.00000000000E+00  0.53393259387E+03  0.53393259387E+03  0.00000000000E+00 0. -1.
       21   -1    0    0  502  503 -0.00000000000E+00 -0.00000000000E+00 -0.46321997438E+03  0.46321997438E+03  0.00000000000E+00 0.  1.
       39    2    1    2    0    0  0.14210854715E-13  0.56843418861E-13  0.70712619485E+02  0.99715256825E+03  0.99464213153E+03 0.  0.
       24    2    3    3    0    0  0.70957543111E+02 -0.27439493436E+03  0.43709416802E+03  0.52657563813E+03  0.76831230808E+02 0.  0.
      -24    2    3    3    0    0 -0.70957543111E+02  0.27439493436E+03 -0.36638154854E+03  0.47057693012E+03  0.82943686462E+02 0.  0.
      -13    1    4    4    0    0  0.42291697432E+02 -0.63799817675E+02  0.77905401506E+02  0.10921655548E+03  0.00000000000E+00 0.  1.
       14    1    4    4    0    0  0.28665845678E+02 -0.21059511668E+03  0.35918876652E+03  0.41735908265E+03  0.00000000000E+00 0. -1.
        3    1    5    5  501    0 -0.15005619592E+02  0.14124615592E+02 -0.41220962131E+01  0.21015828848E+02  0.00000000000E+00 0. -1.
       -4    1    5    5    0  501 -0.55951923518E+02  0.26027031877E+03 -0.36225945233E+03  0.44956110127E+03  0.14200000000E+01 0.  1.
</event>
<event>
 9   1  0.7335000E-04  0.1003097E+04  0.7818608E-02  0.9305154E-01
       21   -1    0    0  503  502  0.00000000000E+00  0.00000000000E+00  0.19953598728E+03  0.19953598728E+03  0.00000000000E+00 0.  1.
       21   -1    0    0  502  503 -0.00000000000E+00 -0.00000000000E+00 -0.12606805045E+04  0.12606805045E+04  0.00000000000E+00 0. -1.
       39    2    1    2    0    0  0.14210854715E-13  0.00000000000E+00 -0.10611445173E+04  0.14602164918E+04  0.10030974611E+04 0.  0.
       24    2    3    3    0    0  0.76572495859E+02 -0.47788240385E+03 -0.68325209359E+03  0.84099916809E+03  0.78811409754E+02 0.  0.
      -24    2    3    3    0    0 -0.76572495859E+02  0.47788240385E+03 -0.37789242366E+03  0.61921732371E+03  0.79952930483E+02 0.  0.
      -13    1    4    4    0    0  0.19382931588E+02 -0.21792708654E+02 -0.58509529599E+02  0.65375723639E+02  0.00000000000E+00 0.  1.
       14    1    4    4    0    0  0.57189564270E+02 -0.45608969519E+03 -0.62474256399E+03  0.77562344446E+03  0.00000000000E+00 0. -1.
        3    1    5    5  501    0 -0.77751392200E+01  0.13209815184E+03 -0.63236525463E+02  0.14666026273E+03  0.00000000000E+00 0. -1.
       -4    1    5    5    0  501 -0.68797356639E+02  0.34578425201E+03 -0.31465589820E+03  0.47255706099E+03  0.14200000000E+01 0.  1.
</event>
<event>
 9   1  0.7335000E-04  0.9180085E+03  0.7818608E-02  0.9403346E-01
       21   -1    0    0  503  502  0.00000000000E+00  0.00000000000E+00  0.18034962129E+03  0.18034962129E+03  0.00000000000E+00 0.  1.
       21   -1    0    0  502  503 -0.00000000000E+00 -0.00000000000E+00 -0.11682027417E+04  0.11682027417E+04  0.00000000000E+00 0. -1.
       39    2    1    2    0    0  0.00000000000E+00  0.00000000000E+00 -0.98785312037E+03  0.13485523630E+04  0.91800854473E+03 0.  0.
       24    2    3    3    0    0  0.91959010600E+02 -0.15061420831E+03 -0.11054664646E+04  0.11222823695E+04  0.79501655551E+02 0.  0.
      -24    2    3    3    0    0 -0.91959010600E+02  0.15061420831E+03  0.11761334422E+03  0.22626999342E+03  0.78893040295E+02 0.  0.
      -13    1    4    4    0    0  0.20671196483E+02 -0.82029359744E+02 -0.33610198405E+03  0.34658427244E+03  0.00000000000E+00 0.  1.
       14    1    4    4    0    0  0.71287814118E+02 -0.68584848565E+02 -0.76936448055E+03  0.77569809709E+03  0.00000000000E+00 0. -1.
        3    1    5    5  501    0  0.11977077871E+02  0.27136178604E+02  0.66398730292E+01  0.30395896061E+02  0.00000000000E+00 0. -1.
       -4    1    5    5    0  501 -0.10393608847E+03  0.12347802970E+03  0.11097347120E+03  0.19587409736E+03  0.14200000000E+01 0.  1.
</event>
<event>
 9   1  0.7335000E-04  0.9999595E+03  0.7818608E-02  0.9308589E-01
       21   -1    0    0  503  502  0.00000000000E+00  0.00000000000E+00  0.10003845114E+04  0.10003845114E+04  0.00000000000E+00 0.  1.
       21   -1    0    0  502  503 -0.00000000000E+00 -0.00000000000E+00 -0.24988367839E+03  0.24988367839E+03  0.00000000000E+00 0. -1.
       39    2    1    2    0    0 -0.71054273576E-14  0.00000000000E+00  0.75050083300E+03  0.12502681898E+04  0.99995952221E+03 0.  0.
       24    2    3    3    0    0 -0.49922460230E+02 -0.48289855731E+03  0.48066737731E+03  0.68835716859E+03  0.84327903143E+02 0.  0.
      -24    2    3    3    0    0  0.49922460230E+02  0.48289855731E+03  0.26983345569E+03  0.56191102120E+03  0.85150650318E+02 0.  0.
      -13    1    4    4    0    0 -0.66197056369E+02 -0.35879855888E+03  0.32501305666E+03  0.48862249552E+03  0.00000000000E+00 0.  1.
       14    1    4    4    0    0  0.16274596139E+02 -0.12409999844E+03  0.15565432065E+03  0.19973467307E+03  0.00000000000E+00 0. -1.
        1    1    5    5  501    0  0.53561276035E+02  0.44615393597E+03  0.22120641669E+03  0.50085369486E+03  0.00000000000E+00 0. -1.
       -2    1    5    5    0  501 -0.36388158053E+01  0.36744621345E+02  0.48627039001E+02  0.61057326344E+02  0.00000000000E+00 0.  1.
</event>
<event>
 9   1  0.7335000E-04  0.9960893E+03  0.7818608E-02  0.9312844E-01
       21   -1    0    0  503  502  0.00000000000E+00  0.00000000000E+00  0.25865365353E+03  0.25865365353E+03  0.00000000000E+00 0.  1.
       21   -1    0    0  502  503 -0.00000000000E+00 -0.00000000000E+00 -0.95899858982E+03  0.95899858982E+03  0.00000000000E+00 0. -1.
       39    2    1    2    0    0  0.00000000000E+00 -0.14210854715E-13 -0.70034493629E+03  0.12176522433E+04  0.99608933131E+03 0.  0.
       24    2    3    3    0    0 -0.23137812309E+03 -0.68700175822E+02 -0.87353467025E+03  0.90983414551E+03  0.80497218631E+02 0.  0.
      -24    2    3    3    0    0  0.23137812309E+03  0.68700175822E+02  0.17318973396E+03  0.30781809783E+03  0.80633413683E+02 0.  0.
      -13    1    4    4    0    0  0.33254856249E+01 -0.12714306884E+02 -0.44620553562E+02  0.46515656014E+02  0.00000000000E+00 0.  1.
       14    1    4    4    0    0 -0.23470360871E+03 -0.55985868938E+02 -0.82891411669E+03  0.86331848950E+03  0.00000000000E+00 0. -1.
        3    1    5    5  501    0  0.50695277990E+02 -0.78583633704E+01  0.92851284129E+01  0.52134237263E+02  0.00000000000E+00 0. -1.
       -4    1    5    5    0  501  0.18068284510E+03  0.76558539193E+02  0.16390460555E+03  0.25568386057E+03  0.14200000000E+01 0.  1.
</event>
<event>
 9   1  0.7335000E-04  0.1091120E+04  0.7818608E-02  0.9213891E-01
       21   -1    0    0  503  502  0.00000000000E+00  0.00000000000E+00  0.56266601372E+03  0.56266601372E+03  0.00000000000E+00 0.  1.
       21   -1    0    0  502  503 -0.00000000000E+00 -0.00000000000E+00 -0.52897368696E+03  0.52897368696E+03  0.00000000000E+00 0. -1.
       39    2    1    2    0    0  0.00000000000E+00  0.00000000000E+00  0.33692326754E+02  0.10916397007E+04  0.10911196374E+04 0.  0.
       24    2    3    3    0    0  0.22578065919E+03 -0.35891962920E+02 -0.46922275356E+03  0.53346253404E+03  0.11021408120E+03 0.  0.
      -24    2    3    3    0    0 -0.22578065919E+03  0.35891962920E+02  0.50291508032E+03  0.55817716664E+03  0.79831273803E+02 0.  0.
      -13    1    4    4    0    0  0.13347456189E+02 -0.26548870800E+02 -0.12802956187E+03  0.13143274265E+03  0.00000000000E+00 0.  1.
       14    1    4    4    0    0  0.21243320300E+03 -0.93430921202E+01 -0.34119319169E+03  0.40202979139E+03  0.00000000000E+00 0. -1.
        3    1    5    5  501    0 -0.25025093276E+01  0.17361071323E+02  0.47438321573E+02  0.50577304239E+02  0.00000000000E+00 0. -1.
       -4    1    5    5    0  501 -0.22327814987E+03  0.18530891597E+02  0.45547675874E+03  0.50759986240E+03  0.14200000000E+01 0.  1.
</event>
<event>
 9   1  0.7335000E-04  0.9940158E+03  0.7818608E-02  0.9315133E-01
       21   -1    0    0  503  502  0.00000000000E+00  0.00000000000E+00  0.63661832454E+03  0.63661832454E+03  0.00000000000E+00 0.  1.
       21   -1    0    0  502  503 -0.00000000000E+00 -0.00000000000E+00 -0.38801404233E+03  0.38801404233E+03  0.00000000000E+00 0. -1.
       39    2    1    2    0    0  0.00000000000E+00  0.00000000000E+00  0.24860428221E+03  0.10246323669E+04  0.99401579369E+03 0.  0.
       24    2    3    3    0    0 -0.37097087280E+03 -0.16249037292E+03 -0.16104404293E+03  0.44322684876E+03  0.80575095079E+02 0.  0.
      -24    2    3    3    0    0  0.37097087280E+03  0.16249037292E+03  0.40964832514E+03  0.58140551811E+03  0.78728117255E+02 0.  0.
      -13    1    4    4    0    0 -0.20691041105E+03 -0.56587226214E+02 -0.11154968070E+03  0.24177957655E+03  0.00000000000E+00 0.  1.
       14    1    4    4    0    0 -0.16406046175E+03 -0.10590314670E+03 -0.49494362224E+02  0.20144727221E+03  0.00000000000E+00 0. -1.
        1    1    5    5  501    0  0.49527940482E+02 -0.41227257759E+01  0.38083959597E+02  0.62613111524E+02  0.00000000000E+00 0. -1.
       -2    1    5    5    0  501  0.32144293231E+03  0.16661309869E+03  0.37156436554E+03  0.51879240659E+03  0.00000000000E+00 0.  1.
</event>
<event>
 9   1  0.7335000E-04  0.9988049E+03  0.7818608E-02  0.9309857E-01
       21   -1    0    0  503  502  0.00000000000E+00  0.00000000000E+00  0.71836006508E+03  0.71836006508E+03  0.00000000000E+00 0.  1.
       21   -1    0    0  502  503 -0.00000000000E+00 -0.00000000000E+00 -0.34718356098E+03  0.34718356098E+03  0.00000000000E+00 0. -1.
       39    2    1    2    0    0  0.00000000000E+00  0.11368683772E-12  0.37117650410E+03  0.10655436261E+04  0.99880489678E+03 0.  0.
       24    2    3    3    0    0  0.26948800434E+03  0.40989281569E+03  0.13410489401E+03  0.51468650374E+03  0.79260139419E+02 0.  0.
      -24    2    3    3    0    0 -0.26948800434E+03 -0.40989281569E+03  0.23707161009E+03  0.55085712231E+03  0.81269404189E+02 0.  0.
      -13    1    4    4    0    0  0.11544344811E+03  0.21798556876E+03  0.10034139522E+03  0.26629550032E+03  0.00000000000E+00 0.  1.
       14    1    4    4    0    0  0.15404455623E+03  0.19190724693E+03  0.33763498789E+02  0.24839100342E+03  0.00000000000E+00 0. -1.
        1    1    5    5  501    0 -0.17177902049E+03 -0.28174624497E+03  0.11782934477E+03  0.35038940185E+03  0.00000000000E+00 0. -1.
       -2    1    5    5    0  501 -0.97708983853E+02 -0.12814657071E+03  0.11924226532E+03  0.20046772047E+03  0.00000000000E+00 0.  1.
</event>
<event>
 9   1  0.7335000E-04  0.9914427E+03  0.7818608E-02  0.9317980E-01
       21   -1    0    0  503  502  0.00000000000E+00  0.00000000000E+00  0.27847113539E+03  0.27847113539E+03  0.00000000000E+00 0. -1.
       21   -1    0    0  502  503 -0.00000000000E+00 -0.00000000000E+00 -0.88246008183E+03  0.88246008183E+03  0.00000000000E+00 0.  1.
       39    2    1    2    0    0  0.00000000000E+00  0.71054273576E-14 -0.60398894644E+03  0.11609312172E+04  0.99144270823E+03 0.  0.
       24    2    3    3    0    0 -0.36113728955E+02  0.14621516544E+02  0.26816215291E+03  0.28246975991E+03  0.79751080513E+02 0.  0.
      -24    2    3    3    0    0  0.36113728955E+02 -0.14621516544E+02 -0.87215109935E+03  0.87846145731E+03  0.97616605810E+02 0.  0.
      -13    1    4    4    0    0 -0.15648057334E+02  0.46565133284E+02  0.12338222605E+03  0.13280190903E+03  0.00000000000E+00 0.  1.
       14    1    4    4    0    0 -0.20465671620E+02 -0.31943616739E+02  0.14477992686E+03  0.14966785088E+03  0.00000000000E+00 0. -1.
        1    1    5    5  501    0 -0.12390405250E+02  0.33852726342E+02 -0.26181008122E+03  0.26428024491E+03  0.00000000000E+00 0. -1.
       -2    1    5    5    0  501  0.48504134205E+02 -0.48474242886E+02 -0.61034101813E+03  0.61418121240E+03  0.00000000000E+00 0.  1.
</event>
<event>
 9   1  0.7335000E-04  0.9964250E+03  0.7818608E-02  0.9312474E-01
       21   -1    0    0  503  502  0.00000000000E+00  0.00000000000E+00  0.10622906430E+04  0.10622906430E+04  0.00000000000E+00 0.  1.
       21   -1    0    0  502  503 -0.00000000000E+00 -0.00000000000E+00 -0.23366082542E+03  0.23366082542E+03  0.00000000000E+00 0. -1.
       39    2    1    2    0    0 -0.14210854715E-13 -0.35527136788E-14  0.82862981759E+03  0.12959514684E+04  0.99642502673E+03 0.  0.
       24    2    3    3    0    0  0.44114141724E+02  0.17189537736E+02  0.10505256271E+04  0.10547340576E+04  0.81352942413E+02 0.  0.
      -24    2    3    3    0    0 -0.44114141724E+02 -0.17189537736E+02 -0.22189580955E+03  0.24121741084E+03  0.81893536311E+02 0.  0.
      -13    1    4    4    0    0  0.54098775449E+02 -0.63337809369E+01  0.92668113223E+03  0.92828051531E+03  0.00000000000E+00 0.  1.
       14    1    4    4    0    0 -0.99846337252E+01  0.23523318673E+02  0.12384449491E+03  0.12645354226E+03  0.00000000000E+00 0. -1.
        3    1    5    5  501    0 -0.29112631221E+02  0.82931592624E+01 -0.20481263798E+03  0.20703752912E+03  0.00000000000E+00 0. -1.
       -4    1    5    5    0  501 -0.15001510503E+02 -0.25482696998E+02 -0.17083171569E+02  0.34179881722E+02  0.14200000000E+01 0.  1.
</event>
<event>
 9   1  0.7335000E-04  0.1005683E+04  0.7818608E-02  0.9302333E-01
       21   -1    0    0  503  502  0.00000000000E+00  0.00000000000E+00  0.14621370453E+03  0.14621370453E+03  0.00000000000E+00 0.  1.
       21   -1    0    0  502  503 -0.00000000000E+00 -0.00000000000E+00 -0.17293156728E+04  0.17293156728E+04  0.00000000000E+00 0. -1.
       39    2    1    2    0    0  0.71054273576E-14  0.00000000000E+00 -0.15831019682E+04  0.18755293773E+04  0.10056831525E+04 0.  0.
       24    2    3    3    0    0 -0.63855958119E+02 -0.43991017810E+03 -0.12072917123E+04  0.12890294908E+04  0.80282010689E+02 0.  0.
      -24    2    3    3    0    0  0.63855958119E+02  0.43991017810E+03 -0.37581025591E+03  0.58649988653E+03  0.71765035137E+02 0.  0.
      -13    1    4    4    0    0 -0.54554070022E+02 -0.31378094171E+03 -0.75591890525E+03  0.82027313576E+03  0.00000000000E+00 0.  1.
       14    1    4    4    0    0 -0.93018880971E+01 -0.12612923639E+03 -0.45137280707E+03  0.46875635500E+03  0.00000000000E+00 0. -1.
        3    1    5    5  501    0  0.91415612575E+00  0.49994683456E+02 -0.74498907930E+02  0.89723973040E+02  0.00000000000E+00 0. -1.
       -4    1    5    5    0  501  0.62941801993E+02  0.38991549464E+03 -0.30131134798E+03  0.49677591349E+03  0.14200000000E+01 0.  1.
</event>
<event>
 9   1  0.7335000E-04  0.9859779E+03  0.7818608E-02  0.9324059E-01
       21   -1    0    0  503  502  0.00000000000E+00  0.00000000000E+00  0.90187256575E+03  0.90187256575E+03  0.00000000000E+00 0.  1.
       21   -1    0    0  502  503 -0.00000000000E+00 -0.00000000000E+00 -0.26948164615E+03  0.26948164615E+03  0.00000000000E+00 0. -1.
       39    2    1    2    0    0 -0.56843418861E-13  0.00000000000E+00  0.63239091960E+03  0.11713542119E+04  0.98597789759E+03 0.  0.
       24    2    3    3    0    0  0.36310482024E+03  0.25819128263E+03  0.55181498686E+03  0.71381959655E+03  0.80813289703E+02 0.  0.
      -24    2    3    3    0    0 -0.36310482024E+03 -0.25819128263E+03  0.80575932748E+02  0.45753461535E+03  0.65860416020E+02 0.  0.
      -13    1    4    4    0    0  0.87526064672E+02  0.87079659685E+02  0.10758798290E+03  0.16376462742E+03  0.00000000000E+00 0.  1.
       14    1    4    4    0    0  0.27557875557E+03  0.17111162294E+03  0.44422700395E+03  0.55005496913E+03  0.00000000000E+00 0. -1.
        3    1    5    5  501    0 -0.20418524550E+03 -0.12012695348E+03  0.16486405421E+02  0.23747400068E+03  0.00000000000E+00 0. -1.
       -4    1    5    5    0  501 -0.15891957474E+03 -0.13806432915E+03  0.64089527327E+02  0.22006061468E+03  0.14200000000E+01 0.  1.
</event>
<event>
 9   1  0.7335000E-04  0.9969492E+03  0.7818608E-02  0.9311897E-01
       -2   -1    0    0    0  501 -0.00000000000E+00  0.00000000000E+00  0.65754746259E+03  0.65754746259E+03  0.00000000000E+00 0.  1.
        2   -1    0    0  501    0  0.00000000000E+00 -0.00000000000E+00 -0.37788436096E+03  0.37788436096E+03  0.00000000000E+00 0. -1.
       39    2    1    2    0    0  0.11368683772E-12  0.00000000000E+00  0.27966310163E+03  0.10354318235E+04  0.99694915156E+03 0.  0.
       24    2    3    3    0    0 -0.40561203341E+03  0.16329950073E+03 -0.94993495568E+02  0.45429027556E+03  0.78536881027E+02 0.  0.
      -24    2    3    3    0    0  0.40561203341E+03 -0.16329950073E+03  0.37465659719E+03  0.58114154798E+03  0.78549884686E+02 0.  0.
      -13    1    4    4    0    0 -0.90782860069E+02  0.34092284654E+02  0.11626156963E+02  0.97667697224E+02  0.00000000000E+00 0.  1.
       14    1    4    4    0    0 -0.31482917334E+03  0.12920721608E+03 -0.10661965253E+03  0.35662257834E+03  0.00000000000E+00 0. -1.
        3    1    5    5  502    0  0.26857888529E+02 -0.32616313018E+02  0.49923937011E+02  0.65403130948E+02  0.00000000000E+00 0. -1.
       -4    1    5    5    0  502  0.37875414488E+03 -0.13068318771E+03  0.32473266018E+03  0.51573841704E+03  0.14200000000E+01 0.  1.
</event>
<event>
 9   1  0.7335000E-04  0.9819374E+03  0.7818608E-02  0.9328580E-01
       21   -1    0    0  503  502  0.00000000000E+00  0.00000000000E+00  0.72908663307E+03  0.72908663307E+03  0.00000000000E+00 0.  1.
       21   -1    0    0  502  503 -0.00000000000E+00 -0.00000000000E+00 -0.33061948257E+03  0.33061948257E+03  0.00000000000E+00 0. -1.
       39    2    1    2    0    0  0.00000000000E+00  0.00000000000E+00  0.39846715050E+03  0.10597061156E+04  0.98193736128E+03 0.  0.
       24    2    3    3    0    0  0.31356137511E+03 -0.16024348635E+03 -0.15932423845E+03  0.39519034734E+03  0.82416544403E+02 0.  0.
      -24    2    3    3    0    0 -0.31356137511E+03  0.16024348635E+03  0.55779138895E+03  0.66451576830E+03  0.80319747574E+02 0.  0.
      -13    1    4    4    0    0  0.19631642682E+03 -0.10781470724E+03 -0.57357152152E+02  0.23120119689E+03  0.00000000000E+00 0.  1.
       14    1    4    4    0    0  0.11724494829E+03 -0.52428779110E+02 -0.10196708630E+03  0.16398915045E+03  0.00000000000E+00 0. -1.
        3    1    5    5  501    0 -0.62766404534E+02  0.71312802095E+02  0.15291086541E+03  0.18001908244E+03  0.00000000000E+00 0. -1.
       -4    1    5    5    0  501 -0.25079497058E+03  0.88930684256E+02  0.40488052354E+03  0.48449668587E+03  0.14200000000E+01 0.  1.
</event>
<event>
 9   1  0.7335000E-04  0.9986811E+03  0.7818608E-02  0.9309993E-01
       21   -1    0    0  503  502  0.00000000000E+00  0.00000000000E+00  0.13889415971E+04  0.13889415971E+04  0.00000000000E+00 0.  1.
       21   -1    0    0  502  503 -0.00000000000E+00 -0.00000000000E+00 -0.17951868749E+03  0.17951868749E+03  0.00000000000E+00 0. -1.
       39    2    1    2    0    0  0.56843418861E-13  0.00000000000E+00  0.12094229097E+04  0.15684602846E+04  0.99868107526E+03 0.  0.
       24    2    3    3    0    0 -0.45976826082E+03  0.11858611501E+03  0.81071943364E+03  0.94351450122E+03  0.86626171510E+02 0.  0.
      -24    2    3    3    0    0  0.45976826082E+03 -0.11858611501E+03  0.39870347601E+03  0.62494578342E+03  0.78378888096E+02 0.  0.
      -13    1    4    4    0    0 -0.32902358206E+03  0.12332505324E+03  0.57239192819E+03  0.67163837425E+03  0.00000000000E+00 0.  1.
       14    1    4    4    0    0 -0.13074467875E+03 -0.47389382259E+01  0.23832750545E+03  0.27187612696E+03  0.00000000000E+00 0. -1.
        1    1    5    5  501    0  0.40566923563E+03 -0.77250459846E+02  0.34841465477E+03  0.54030355722E+03  0.00000000000E+00 0. -1.
       -2    1    5    5    0  501  0.54099025189E+02 -0.41335655168E+02  0.50288821239E+02  0.84642226201E+02  0.00000000000E+00 0.  1.
</event>
<event>
 9   1  0.7335000E-04  0.1000846E+04  0.7818608E-02  0.9307618E-01
       21   -1    0    0  503  502  0.00000000000E+00  0.00000000000E+00  0.19920046838E+03  0.19920046838E+03  0.00000000000E+00 0. -1.
       21   -1    0    0  502  503 -0.00000000000E+00 -0.00000000000E+00 -0.12571411407E+04  0.12571411407E+04  0.00000000000E+00 0.  1.
       39    2    1    2    0    0 -0.71054273576E-14  0.00000000000E+00 -0.10579406723E+04  0.14563416091E+04  0.10008458504E+04 0.  0.
       24    2    3    3    0    0 -0.19098684073E+02 -0.21159956790E+03 -0.11780052095E+04  0.11997827498E+04  0.81506050784E+02 0.  0.
      -24    2    3    3    0    0  0.19098684073E+02  0.21159956790E+03  0.12006453718E+03  0.25655885926E+03  0.79169554163E+02 0.  0.
      -13    1    4    4    0    0  0.15925148154E+02 -0.52952551617E+02 -0.47713272485E+03  0.48032616021E+03  0.00000000000E+00 0.  1.
       14    1    4    4    0    0 -0.35023832227E+02 -0.15864701628E+03 -0.70087248464E+03  0.71945658961E+03  0.00000000000E+00 0. -1.
        1    1    5    5  501    0 -0.27409523956E+02  0.95333693592E+02  0.35057859110E+02  0.10520859576E+03  0.00000000000E+00 0. -1.
       -2    1    5    5    0  501  0.46508208029E+02  0.11626587430E+03  0.85006678074E+02  0.15135026349E+03  0.00000000000E+00 0.  1.
</event>
<event>
 9   1  0.7335000E-04  0.1004813E+04  0.7818608E-02  0.9303282E-01
       21   -1    0    0  503  502  0.00000000000E+00  0.00000000000E+00  0.96274967394E+02  0.96274967394E+02  0.00000000000E+00 0. -1.
       21   -1    0    0  502  503 -0.00000000000E+00 -0.00000000000E+00 -0.26217831964E+04  0.26217831964E+04  0.00000000000E+00 0.  1.
       39    2    1    2    0    0 -0.56843418861E-13  0.00000000000E+00 -0.25255082290E+04  0.27180581638E+04  0.10048126029E+04 0.  0.
       24    2    3    3    0    0 -0.29953929701E+03 -0.15285246103E+03 -0.27628492811E+03  0.44240905738E+03  0.79402438595E+02 0.  0.
      -24    2    3    3    0    0  0.29953929701E+03  0.15285246103E+03 -0.22492233009E+04  0.22756491064E+04  0.80534048193E+02 0.  0.
      -13    1    4    4    0    0 -0.64972844537E+02 -0.59545252838E+02 -0.40548778676E+02  0.97011912232E+02  0.00000000000E+00 0.  1.
       14    1    4    4    0    0 -0.23456645248E+03 -0.93307208191E+02 -0.23573614943E+03  0.34539714515E+03  0.00000000000E+00 0. -1.
        1    1    5    5  501    0  0.12876014050E+03  0.59130994909E+02 -0.12155015710E+04  0.12237318814E+04  0.00000000000E+00 0. -1.
       -2    1    5    5    0  501  0.17077915652E+03  0.93721466119E+02 -0.10337217299E+04  0.10519172251E+04  0.00000000000E+00 0.  1.
</event>
<event>
 9   1  0.7335000E-04  0.9975279E+03  0.7818608E-02  0.9311260E-01
       21   -1    0    0  503  502  0.00000000000E+00  0.00000000000E+00  0.70524977937E+03  0.70524977937E+03  0.00000000000E+00 0. -1.
       21   -1    0    0  502  503 -0.00000000000E+00 -0.00000000000E+00 -0.35273385352E+03  0.35273385352E+03  0.00000000000E+00 0.  1.
       39    2    1    2    0    0 -0.56843418861E-13  0.00000000000E+00  0.35251592586E+03  0.10579836329E+04  0.99752788907E+03 0.  0.
       24    2    3    3    0    0  0.28657511480E+03  0.35611496938E+03 -0.18230991797E+02  0.46389588756E+03  0.76966600542E+02 0.  0.
      -24    2    3    3    0    0 -0.28657511480E+03 -0.35611496938E+03  0.37074691765E+03  0.59408774533E+03  0.80893784426E+02 0.  0.
      -13    1    4    4    0    0  0.16610856946E+03  0.23613353539E+03 -0.43638222900E+02  0.29198526997E+03  0.00000000000E+00 0.  1.
       14    1    4    4    0    0  0.12046654534E+03  0.11998143399E+03  0.25407231103E+02  0.17191061759E+03  0.00000000000E+00 0. -1.
        1    1    5    5  501    0 -0.78422291064E+02 -0.12435651539E+03  0.16378935111E+03  0.22009441200E+03  0.00000000000E+00 0. -1.
       -2    1    5    5    0  501 -0.20815282374E+03 -0.23175845399E+03  0.20695756655E+03  0.37399333333E+03  0.00000000000E+00 0.  1.
</event>
<event>
 9   1  0.7335000E-04  0.1029277E+04  0.7818608E-02  0.9277004E-01
       -2   -1    0    0    0  501 -0.00000000000E+00  0.00000000000E+00  0.25451817901E+03  0.25451817901E+03  0.00000000000E+00 0.  1.
        2   -1    0    0  501    0  0.00000000000E+00 -0.00000000000E+00 -0.10406050533E+04  0.10406050533E+04  0.00000000000E+00 0. -1.
       39    2    1    2    0    0  0.14210854715E-13  0.00000000000E+00 -0.78608687430E+03  0.12951232323E+04  0.10292772284E+04 0.  0.
       24    2    3    3    0    0  0.10067834612E+03 -0.45577621030E+03 -0.14376405046E+03  0.49656892478E+03  0.89691201366E+02 0.  0.
      -24    2    3    3    0    0 -0.10067834612E+03  0.45577621030E+03 -0.64232282384E+03  0.79855430754E+03  0.85101638121E+02 0.  0.
      -13    1    4    4    0    0  0.37186140659E+02 -0.28090216696E+03 -0.12460873051E+03  0.30954187468E+03  0.00000000000E+00 0.  1.
       14    1    4    4    0    0  0.63492205463E+02 -0.17487404334E+03 -0.19155319950E+02  0.18702705010E+03  0.00000000000E+00 0. -1.
        1    1    5    5  502    0 -0.28489444128E+02  0.30765357107E+03 -0.43943410090E+03  0.53718218255E+03  0.00000000000E+00 0. -1.
       -2    1    5    5    0  502 -0.72188901994E+02  0.14812263923E+03 -0.20288872294E+03  0.26137212499E+03  0.00000000000E+00 0.  1.
</event>
<event>
 9   1  0.7335000E-04  0.1000109E+04  0.7818608E-02  0.9308425E-01
       21   -1    0    0  503  502  0.00000000000E+00  0.00000000000E+00  0.27797928778E+04  0.27797928778E+04  0.00000000000E+00 0.  1.
       21   -1    0    0  502  503 -0.00000000000E+00 -0.00000000000E+00 -0.89954326502E+02  0.89954326502E+02  0.00000000000E+00 0. -1.
       39    2    1    2    0    0  0.71054273576E-14  0.00000000000E+00  0.26898385513E+04  0.28697472043E+04  0.10001087864E+04 0.  0.
       24    2    3    3    0    0 -0.57934702254E+02  0.29679979471E+02 -0.58240417077E+02  0.11970422768E+03  0.81852458955E+02 0.  0.
      -24    2    3    3    0    0  0.57934702254E+02 -0.29679979471E+02  0.27480789684E+04  0.27500429767E+04  0.81000160058E+02 0.  0.
      -13    1    4    4    0    0  0.37339740935E+01  0.20100425026E+02  0.13590394271E+02  0.24549306817E+02  0.00000000000E+00 0.  1.
       14    1    4    4    0    0 -0.61668676347E+02  0.95795544452E+01 -0.71830811348E+02  0.95154920865E+02  0.00000000000E+00 0. -1.
        3    1    5    5  501    0 -0.78579399112E+01  0.42016749592E+01  0.41217345541E+02  0.42169549032E+02  0.00000000000E+00 0. -1.
       -4    1    5    5    0  501  0.65792642165E+02 -0.33881654431E+02  0.27068616229E+04  0.27078734276E+04  0.14200000000E+01 0.  1.
</event>
<event>
 9   1  0.7335000E-04  0.1003603E+04  0.7818608E-02  0.9304602E-01
        4   -1    0    0  501    0  0.00000000000E+00  0.00000000000E+00  0.22165251535E+03  0.22165706387E+03  0.14200000000E+01 0. -1.
       -4   -1    0    0    0  501 -0.00000000000E+00 -0.00000000000E+00 -0.11360174078E+04  0.11360182953E+04  0.14200000000E+01 0.  1.
       39    2    1    2    0    0 -0.56843418861E-13  0.00000000000E+00 -0.91436489246E+03  0.13576753592E+04  0.10036031209E+04 0.  0.
       24    2    3    3    0    0  0.42477236258E+03 -0.18830926253E+03 -0.69105855941E+03  0.83816992304E+03  0.95262526722E+02 0.  0.
      -24    2    3    3    0    0 -0.42477236258E+03  0.18830926253E+03 -0.22330633305E+03  0.51950543612E+03  0.64251392264E+02 0.  0.
      -13    1    4    4    0    0  0.10370506268E+02  0.71348477888E+01 -0.40857171818E+02  0.42752332594E+02  0.00000000000E+00 0.  1.
       14    1    4    4    0    0  0.41440185632E+03 -0.19544411032E+03 -0.65020138759E+03  0.79541759045E+03  0.00000000000E+00 0. -1.
        1    1    5    5  502    0 -0.35214084897E+02  0.73275992701E+01 -0.13280608956E+01  0.35992905300E+02  0.00000000000E+00 0. -1.
       -2    1    5    5    0  502 -0.38955827769E+03  0.18098166326E+03 -0.22197827216E+03  0.48351253082E+03  0.00000000000E+00 0.  1.
</event>
<event>
 9   1  0.7335000E-04  0.9518313E+03  0.7818608E-02  0.9363013E-01
       21   -1    0    0  503  502  0.00000000000E+00  0.00000000000E+00  0.16207875269E+03  0.16207875269E+03  0.00000000000E+00 0. -1.
       21   -1    0    0  502  503 -0.00000000000E+00 -0.00000000000E+00 -0.13974424366E+04  0.13974424366E+04  0.00000000000E+00 0.  1.
       39    2    1    2    0    0 -0.28421709430E-13  0.00000000000E+00 -0.12353636839E+04  0.15595211893E+04  0.95183134448E+03 0.  0.
       24    2    3    3    0    0  0.22582828937E+03  0.26383550866E+03 -0.10061387813E+03  0.37008714172E+03  0.78954088450E+02 0.  0.
      -24    2    3    3    0    0 -0.22582828937E+03 -0.26383550866E+03 -0.11347498058E+04  0.11894340476E+04  0.80552094319E+02 0.  0.
      -13    1    4    4    0    0  0.38346276135E+02  0.97559790906E+02 -0.40556285370E+02  0.11239733973E+03  0.00000000000E+00 0.  1.
       14    1    4    4    0    0  0.18748201323E+03  0.16627571775E+03 -0.60057592756E+02  0.25768980199E+03  0.00000000000E+00 0. -1.
        1    1    5    5  501    0 -0.10774769569E+03 -0.67020655255E+02 -0.41725093457E+03  0.43611887892E+03  0.00000000000E+00 0. -1.
       -2    1    5    5    0  501 -0.11808059368E+03 -0.19681485340E+03 -0.71749887125E+03  0.75331516868E+03  0.00000000000E+00 0.  1.
</event>
<event>
 9   1  0.7335000E-04  0.1002446E+04  0.7818608E-02  0.9305866E-01
       21   -1    0    0  503  502  0.00000000000E+00  0.00000000000E+00  0.17874476716E+04  0.17874476716E+04  0.00000000000E+00 0.  1.
       21   -1    0    0  502  503 -0.00000000000E+00 -0.00000000000E+00 -0.14054924634E+03  0.14054924634E+03  0.00000000000E+00 0. -1.
       39    2    1    2    0    0  0.00000000000E+00  0.28421709430E-13  0.16468984252E+04  0.19279969179E+04  0.10024458551E+04 0.  0.
       24    2    3    3    0    0 -0.19461691863E+03 -0.23529869401E+03  0.81270013410E+02  0.33084017445E+03  0.98026453207E+02 0.  0.
      -24    2    3    3    0    0  0.19461691863E+03  0.23529869401E+03  0.15656284118E+04  0.15971567434E+04  0.80474336660E+02 0.  0.
      -13    1    4    4    0    0 -0.10108761355E+03 -0.54949097992E+02  0.49327240709E+02  0.12518500573E+03  0.00000000000E+00 0.  1.
       14    1    4    4    0    0 -0.93529305079E+02 -0.18034959602E+03  0.31942772702E+02  0.20565516872E+03  0.00000000000E+00 0. -1.
        3    1    5    5  501    0  0.76781510137E+02  0.47645455219E+02  0.34867016233E+03  0.36018935548E+03  0.00000000000E+00 0. -1.
       -4    1    5    5    0  501  0.11783540849E+03  0.18765323879E+03  0.12169582495E+04  0.12369673880E+04  0.14200000000E+01 0.  1.
</event>
<event>
 9   1  0.7335000E-04  0.9971923E+03  0.7818608E-02  0.9311630E-01
       21   -1    0    0  503  502  0.00000000000E+00  0.00000000000E+00  0.11459494099E+03  0.11459494099E+03  0.00000000000E+00 0.  1.
       21   -1    0    0  502  503 -0.00000000000E+00 -0.00000000000E+00 -0.21693636409E+04  0.21693636409E+04  0.00000000000E+00 0. -1.
       39    2    1    2    0    0 -0.28421709430E-13  0.00000000000E+00 -0.20547686999E+04  0.22839585819E+04  0.99719225512E+03 0.  0.
       24    2    3    3    0    0  0.16344170042E+03 -0.18159138254E+03 -0.20057867061E+04  0.20221280666E+04  0.78313394734E+02 0.  0.
      -24    2    3    3    0    0 -0.16344170042E+03  0.18159138254E+03 -0.48981993806E+02  0.26183051527E+03  0.80419918925E+02 0.  0.
      -13    1    4    4    0    0  0.28171424370E+02 -0.57359968961E+02 -0.31652165890E+03  0.32290827760E+03  0.00000000000E+00 0.  1.
       14    1    4    4    0    0  0.13527027605E+03 -0.12423141358E+03 -0.16892650472E+04  0.16992197890E+04  0.00000000000E+00 0. -1.
        3    1    5    5  501    0 -0.26619921998E+02  0.32404497249E+01  0.11294347809E+02  0.29097818716E+02  0.00000000000E+00 0. -1.
       -4    1    5    5    0  501 -0.13682177843E+03  0.17835093281E+03 -0.60276341614E+02  0.23273269655E+03  0.14200000000E+01 0.  1.
</event>
<event>
 9   1  0.7335000E-04  0.1020528E+04  0.7818608E-02  0.9286312E-01
       21   -1    0    0  503  502  0.00000000000E+00  0.00000000000E+00  0.21133704176E+03  0.21133704176E+03  0.00000000000E+00 0.  1.
       21   -1    0    0  502  503 -0.00000000000E+00 -0.00000000000E+00 -0.12320102043E+04  0.12320102043E+04  0.00000000000E+00 0. -1.
       39    2    1    2    0    0 -0.11368683772E-12 -0.56843418861E-13 -0.10206731625E+04  0.14433472461E+04  0.10205280829E+04 0.  0.
       24    2    3    3    0    0  0.33993567208E+03  0.26252530847E+03 -0.14026581447E+03  0.46022452560E+03  0.87500380100E+02 0.  0.
      -24    2    3    3    0    0 -0.33993567208E+03 -0.26252530847E+03 -0.88040734807E+03  0.98312272045E+03  0.83290973095E+02 0.  0.
      -13    1    4    4    0    0  0.31483964566E+03  0.25764823716E+03 -0.11168289207E+03  0.42187638589E+03  0.00000000000E+00 0.  1.
       14    1    4    4    0    0  0.25096026416E+02  0.48770713108E+01 -0.28582922395E+02  0.38348139708E+02  0.00000000000E+00 0. -1.
        3    1    5    5  501    0 -0.33952071227E+03 -0.26683922710E+03 -0.87655821593E+03  0.97715494836E+03  0.00000000000E+00 0. -1.
       -4    1    5    5    0  501 -0.41495980719E+00  0.43139186286E+01 -0.38491321316E+01  0.59677720921E+01  0.14200000000E+01 0.  1.
</event>
<event>
 9   1  0.7335000E-04  0.9986107E+03  0.7818608E-02  0.9310070E-01
       21   -1    0    0  503  502  0.00000000000E+00  0.00000000000E+00  0.25990021904E+03  0.25990021904E+03  0.00000000000E+00 0. -1.
       21   -1    0    0  502  503 -0.00000000000E+00 -0.00000000000E+00 -0.95923673228E+03  0.95923673228E+03  0.00000000000E+00 0.  1.
       39    2    1    2    0    0  0.00000000000E+00  0.00000000000E+00 -0.69933651324E+03  0.12191369513E+04  0.99861070860E+03 0.  0.
       24    2    3    3    0    0  0.18496463265E+02 -0.37038117709E+03 -0.74558041417E+03  0.83662988690E+03  0.80839830328E+02 0.  0.
      -24    2    3    3    0    0 -0.18496463265E+02  0.37038117709E+03  0.46243900924E+02  0.38250706443E+03  0.81540299677E+02 0.  0.
      -13    1    4    4    0    0  0.28692153338E+01 -0.35505275975E+03 -0.67438880081E+03  0.76214890228E+03  0.00000000000E+00 0.  1.
       14    1    4    4    0    0  0.15627247931E+02 -0.15328417340E+02 -0.71191613360E+02  0.74480984612E+02  0.00000000000E+00 0. -1.
        3    1    5    5  501    0 -0.31441884688E+02  0.36092995723E+03  0.50658219261E+02  0.36582137898E+03  0.00000000000E+00 0. -1.
       -4    1    5    5    0  501  0.12945421423E+02  0.94512198596E+01 -0.44143183362E+01  0.16685685453E+02  0.14200000000E+01 0.  1.
</event>
<event>
 9   1  0.7335000E-04  0.1000302E+04  0.7818608E-02  0.9308213E-01
       21   -1    0    0  503  502  0.00000000000E+00  0.00000000000E+00  0.50011266231E+03  0.50011266231E+03  0.00000000000E+00 0. -1.
       21   -1    0    0  502  503 -0.00000000000E+00 -0.00000000000E+00 -0.50018949091E+03  0.50018949091E+03  0.00000000000E+00 0.  1.
       39    2    1    2    0    0  0.00000000000E+00 -0.56843418861E-13 -0.76828601849E-01  0.10003021532E+04  0.10003021503E+04 0.  0.
       24    2    3    3    0    0 -0.97046831034E+02  0.37587370181E+03  0.30502779274E+03  0.50011566204E+03  0.79841054306E+02 0.  0.
      -24    2    3    3    0    0  0.97046831034E+02 -0.37587370181E+03 -0.30510462134E+03  0.50018649118E+03  0.79991054946E+02 0.  0.
      -13    1    4    4    0    0  0.12888832781E+02  0.67055377140E+02  0.59278431109E+02  0.90423879637E+02  0.00000000000E+00 0.  1.
       14    1    4    4    0    0 -0.10993566382E+03  0.30881832467E+03  0.24574936163E+03  0.40969178241E+03  0.00000000000E+00 0. -1.
        3    1    5    5  501    0 -0.14169794058E+02 -0.35486116955E+02 -0.27196013625E+02  0.46900647301E+02  0.00000000000E+00 0. -1.
       -4    1    5    5    0  501  0.11121662509E+03 -0.34038758486E+03 -0.27790860771E+03  0.45328584388E+03  0.14200000000E+01 0.  1.
</event>
<event>
 9   1  0.7335000E-04  0.1001490E+04  0.7818608E-02  0.9306912E-01
       21   -1    0    0  503  502  0.00000000000E+00  0.00000000000E+00  0.20130065962E+03  0.20130065962E+03  0.00000000000E+00 0.  1.
       21   -1    0    0  502  503 -0.00000000000E+00 -0.00000000000E+00 -0.12456278181E+04  0.12456278181E+04  0.00000000000E+00 0. -1.
       39    2    1    2    0    0  0.56843418861E-13  0.14210854715E-13 -0.10443271585E+04  0.14469284777E+04  0.10014902924E+04 0.  0.
       24    2    3    3    0    0  0.32623614232E+03 -0.29555595365E+02 -0.10526847656E+04  0.11074527893E+04  0.10489476186E+03 0.  0.
      -24    2    3    3    0    0 -0.32623614232E+03  0.29555595365E+02  0.83576070855E+01  0.33947568844E+03  0.88714934885E+02 0.  0.
      -13    1    4    4    0    0  0.24923067693E+03 -0.67287709215E+02 -0.78194841615E+03  0.82346031577E+03  0.00000000000E+00 0.  1.
       14    1    4    4    0    0  0.77005465396E+02  0.37732113850E+02 -0.27073634941E+03  0.28399247351E+03  0.00000000000E+00 0. -1.
        1    1    5    5  501    0 -0.93892461738E+01 -0.13706633259E+02  0.10551194701E+02  0.19681398544E+02  0.00000000000E+00 0. -1.
       -2    1    5    5    0  501 -0.31684689615E+03  0.43262228624E+02 -0.21935876156E+01  0.31979428990E+03  0.00000000000E+00 0.  1.
</event>
<event>
 9   1  0.7335000E-04  0.9904142E+03  0.7818608E-02  0.9319121E-01
       21   -1    0    0  503  502  0.00000000000E+00  0.00000000000E+00  0.13777623780E+03  0.13777623780E+03  0.00000000000E+00 0. -1.
       21   -1    0    0  502  503 -0.00000000000E+00 -0.00000000000E+00 -0.17799157188E+04  0.17799157188E+04  0.00000000000E+00 0.  1.
       39    2    1    2    0    0  0.00000000000E+00 -0.56843418861E-13 -0.16421394810E+04  0.19176919566E+04  0.99041423927E+03 0.  0.
       24    2    3    3    0    0 -0.34291111162E+03 -0.33373989457E+03 -0.10136061170E+04  0.11236969761E+04  0.79543610606E+02 0.  0.
      -24    2    3    3    0    0  0.34291111162E+03  0.33373989457E+03 -0.62853336396E+03  0.79399498046E+03  0.80021820066E+02 0.  0.
      -13    1    4    4    0    0 -0.29801893379E+03 -0.28259603221E+03 -0.92413237067E+03  0.10112845499E+04  0.00000000000E+00 0.  1.
       14    1    4    4    0    0 -0.44892177825E+02 -0.51143862356E+02 -0.89473746371E+02  0.11241242625E+03  0.00000000000E+00 0. -1.
        3    1    5    5  501    0  0.26109877012E+03  0.27826246576E+03 -0.45075034386E+03  0.59057466936E+03  0.00000000000E+00 0. -1.
       -4    1    5    5    0  501  0.81812341498E+02  0.55477428809E+02 -0.17778302011E+03  0.20342031110E+03  0.14200000000E+01 0.  1.
</event>
<event>
 9   1  0.7335000E-04  0.1033147E+04  0.7818608E-02  0.9272918E-01
       21   -1    0    0  503  502  0.00000000000E+00  0.00000000000E+00  0.29763858036E+03  0.29763858036E+03  0.00000000000E+00 0. -1.
       21   -1    0    0  502  503 -0.00000000000E+00 -0.00000000000E+00 -0.89655174516E+03  0.89655174516E+03  0.00000000000E+00 0.  1.
       39    2    1    2    0    0  0.00000000000E+00 -0.71054273576E-14 -0.59891316480E+03  0.11941903255E+04  0.10331474022E+04 0.  0.
       24    2    3    3    0    0  0.11213967960E+03 -0.41132416579E+02  0.27409153960E+03  0.30941696981E+03  0.79658682492E+02 0.  0.
      -24    2    3    3    0    0 -0.11213967960E+03  0.41132416579E+02 -0.87300470439E+03  0.88477335570E+03  0.80121742589E+02 0.  0.
      -13    1    4    4    0    0 -0.11711573378E+02 -0.77254723057E+00  0.38035029921E+02  0.39804789678E+02  0.00000000000E+00 0.  1.
       14    1    4    4    0    0  0.12385125298E+03 -0.40359869348E+02  0.23605650968E+03  0.26961218014E+03  0.00000000000E+00 0. -1.
        1    1    5    5  501    0  0.10357241588E+02  0.13872836036E+02 -0.75818958673E+02  0.77770447647E+02  0.00000000000E+00 0. -1.
       -2    1    5    5    0  501 -0.12249692119E+03  0.27259580543E+02 -0.79718574572E+03  0.80700290806E+03  0.00000000000E+00 0.  1.
</event>
<event>
 9   1  0.7335000E-04  0.9964634E+03  0.7818608E-02  0.9312432E-01
       21   -1    0    0  503  502  0.00000000000E+00  0.00000000000E+00  0.31859434293E+03  0.31859434293E+03  0.00000000000E+00 0.  1.
       21   -1    0    0  502  503 -0.00000000000E+00 -0.00000000000E+00 -0.77915637498E+03  0.77915637498E+03  0.00000000000E+00 0. -1.
       39    2    1    2    0    0  0.00000000000E+00  0.56843418861E-13 -0.46056203205E+03  0.10977507179E+04  0.99646337279E+03 0.  0.
       24    2    3    3    0    0 -0.27633030819E+03  0.40322113183E+03 -0.16923378971E+03  0.52353931183E+03  0.80669790344E+02 0.  0.
      -24    2    3    3    0    0  0.27633030819E+03 -0.40322113183E+03 -0.29132824234E+03  0.57421140609E+03  0.76817144666E+02 0.  0.
      -13    1    4    4    0    0 -0.12369195484E+03  0.11364627721E+03 -0.62810001291E+02  0.17933285331E+03  0.00000000000E+00 0.  1.
       14    1    4    4    0    0 -0.15263835334E+03  0.28957485463E+03 -0.10642378842E+03  0.34420645852E+03  0.00000000000E+00 0. -1.
        3    1    5    5  501    0  0.10982471563E+03 -0.22141793478E+03 -0.12647170460E+03  0.27763728509E+03  0.00000000000E+00 0. -1.
       -4    1    5    5    0  501  0.16650559256E+03 -0.18180319705E+03 -0.16485653774E+03  0.29657412100E+03  0.14200000000E+01 0.  1.
</event>
<event>
 9   1  0.7335000E-04  0.1000863E+04  0.7818608E-02  0.9307598E-01
       21   -1    0    0  503  502  0.00000000000E+00  0.00000000000E+00  0.83100704953E+03  0.83100704953E+03  0.00000000000E+00 0.  1.
       21   -1    0    0  502  503 -0.00000000000E+00 -0.00000000000E+00 -0.30135953113E+03  0.30135953113E+03  0.00000000000E+00 0. -1.
       39    2    1    2    0    0  0.00000000000E+00  0.00000000000E+00  0.52964751840E+03  0.11323665807E+04  0.10008634169E+04 0.  0.
       24    2    3    3    0    0 -0.26098948864E+03 -0.26288352818E+03 -0.10467921189E+03  0.39331162988E+03  0.80703396631E+02 0.  0.
      -24    2    3    3    0    0  0.26098948864E+03  0.26288352818E+03  0.63432673029E+03  0.73905495079E+03  0.81293031358E+02 0.  0.
      -13    1    4    4    0    0  0.52028092540E+01 -0.12914702406E+02 -0.49455164242E+01  0.14775550584E+02  0.00000000000E+00 0.  1.
       14    1    4    4    0    0 -0.26619229789E+03 -0.24996882577E+03 -0.99733695469E+02  0.37853607930E+03  0.00000000000E+00 0. -1.
        3    1    5    5  501    0  0.23934009800E+03  0.25298356000E+03  0.54637548461E+03  0.64792787741E+03  0.00000000000E+00 0. -1.
       -4    1    5    5    0  501  0.21649390643E+02  0.98999681779E+01  0.87951245678E+02  0.91127073373E+02  0.14200000000E+01 0.  1.
</event>
<event>
 9   1  0.7335000E-04  0.1001188E+04  0.7818608E-02  0.9307242E-01
       21   -1    0    0  503  502  0.00000000000E+00  0.00000000000E+00  0.52167763287E+03  0.52167763287E+03  0.00000000000E+00 0. -1.
       21   -1    0    0  502  503 -0.00000000000E+00 -0.00000000000E+00 -0.48036280869E+03  0.48036280869E+03  0.00000000000E+00 0.  1.
       39    2    1    2    0    0  0.00000000000E+00  0.56843418861E-13  0.41314824177E+02  0.10020404416E+04  0.10011883598E+04 0.  0.
       24    2    3    3    0    0  0.86151495132E+02  0.36058990085E+03 -0.30616013589E+03  0.48745110055E+03  0.80171004175E+02 0.  0.
      -24    2    3    3    0    0 -0.86151495132E+02 -0.36058990085E+03  0.34747496007E+03  0.51458934100E+03  0.81339936587E+02 0.  0.
      -13    1    4    4    0    0  0.79735109656E+02  0.31422231875E+03 -0.22794270942E+03  0.39629689892E+03  0.00000000000E+00 0.  1.
       14    1    4    4    0    0  0.64163854760E+01  0.46367582107E+02 -0.78217426468E+02  0.91154201638E+02  0.00000000000E+00 0. -1.
        1    1    5    5  501    0 -0.58572663754E+02 -0.89452246595E+02  0.92703602530E+02  0.14151473168E+03  0.00000000000E+00 0. -1.
       -2    1    5    5    0  501 -0.27578831378E+02 -0.27113765426E+03  0.25477135754E+03  0.37307460932E+03  0.00000000000E+00 0.  1.
</event>
<event>
 9   1  0.7335000E-04  0.9945249E+03  0.7818608E-02  0.9314570E-01
        2   -1    0    0  501    0  0.00000000000E+00  0.00000000000E+00  0.25431060291E+04  0.25431060291E+04  0.00000000000E+00 0.  1.
       -2   -1    0    0    0  501 -0.00000000000E+00 -0.00000000000E+00 -0.97231479890E+02  0.97231479890E+02  0.00000000000E+00 0. -1.
       39    2    1    2    0    0  0.00000000000E+00  0.14210854715E-13  0.24458745492E+04  0.26403375090E+04  0.99452493729E+03 0.  0.
       24    2    3    3    0    0 -0.24782164027E+03 -0.89758176438E+02  0.23207371268E+04  0.23370286235E+04  0.80061724464E+02 0.  0.
      -24    2    3    3    0    0  0.24782164027E+03  0.89758176438E+02  0.12513742238E+03  0.30330888546E+03  0.82854148308E+02 0.  0.
      -13    1    4    4    0    0 -0.24415462234E+03 -0.99122751176E+02  0.21669454596E+04  0.21829084783E+04  0.00000000000E+00 0.  1.
       14    1    4    4    0    0 -0.36670179367E+01  0.93645747385E+01  0.15379166716E+03  0.15412014524E+03  0.00000000000E+00 0. -1.
        1    1    5    5  502    0  0.19461025793E+03  0.10386960242E+03  0.91672919700E+02  0.23888484884E+03  0.00000000000E+00 0. -1.
       -2    1    5    5    0  502  0.53211382344E+02 -0.14111425987E+02  0.33464502676E+02  0.64424036614E+02  0.00000000000E+00 0.  1.
</event>
<event>
 9   1  0.7335000E-04  0.9927475E+03  0.7818608E-02  0.9316535E-01
       21   -1    0    0  503  502  0.00000000000E+00  0.00000000000E+00  0.83563774454E+03  0.83563774454E+03  0.00000000000E+00 0.  1.
       21   -1    0    0  502  503 -0.00000000000E+00 -0.00000000000E+00 -0.29484891427E+03  0.29484891427E+03  0.00000000000E+00 0. -1.
       39    2    1    2    0    0  0.56843418861E-13  0.00000000000E+00  0.54078883027E+03  0.11304866588E+04  0.99274746376E+03 0.  0.
       24    2    3    3    0    0  0.28727053280E+03 -0.26211177788E+03 -0.68155771666E+02  0.40359026190E+03  0.83743341045E+02 0.  0.
      -24    2    3    3    0    0 -0.28727053280E+03  0.26211177788E+03  0.60894460194E+03  0.72689639691E+03  0.79610931948E+02 0.  0.
      -13    1    4    4    0    0  0.93470620718E+02 -0.57418806514E+02  0.12468658815E+02  0.11040445522E+03  0.00000000000E+00 0.  1.
       14    1    4    4    0    0  0.19379991208E+03 -0.20469297137E+03 -0.80624430481E+02  0.29318580669E+03  0.00000000000E+00 0. -1.
        1    1    5    5  501    0 -0.15552043768E+03  0.88823566744E+02  0.28517817550E+03  0.33675335830E+03  0.00000000000E+00 0. -1.
       -2    1    5    5    0  501 -0.13175009512E+03  0.17328821114E+03  0.32376642644E+03  0.39014303860E+03  0.00000000000E+00 0.  1.
</event>
<event>
 9   1  0.7335000E-04  0.1007169E+04  0.7818608E-02  0.9300717E-01
       21   -1    0    0  503  502  0.00000000000E+00  0.00000000000E+00  0.17204650973E+04  0.17204650973E+04  0.00000000000E+00 0.  1.
       21   -1    0    0  502  503 -0.00000000000E+00 -0.00000000000E+00 -0.14740035109E+03  0.14740035109E+03  0.00000000000E+00 0. -1.
       39    2    1    2    0    0  0.00000000000E+00 -0.56843418861E-13  0.15730647462E+04  0.18678654484E+04  0.10071686242E+04 0.  0.
       24    2    3    3    0    0 -0.29973397691E+03 -0.25975481296E+03  0.13395413399E+04  0.13992048186E+04  0.78039113325E+02 0.  0.
      -24    2    3    3    0    0  0.29973397691E+03  0.25975481296E+03  0.23352340626E+03  0.46866062979E+03  0.88298272225E+02 0.  0.
      -13    1    4    4    0    0 -0.21127418898E+03 -0.18297127144E+03  0.10574052145E+04  0.10937189112E+04  0.00000000000E+00 0.  1.
       14    1    4    4    0    0 -0.88459787930E+02 -0.76783541516E+02  0.28213612539E+03  0.30548590733E+03  0.00000000000E+00 0. -1.
        1    1    5    5  501    0  0.24219088408E+03  0.20861299627E+03  0.14399927399E+03  0.35058750328E+03  0.00000000000E+00 0. -1.
       -2    1    5    5    0  501  0.57543092830E+02  0.51141816686E+02  0.89524132271E+02  0.11807312652E+03  0.00000000000E+00 0.  1.
</event>
<event>
 9   1  0.7335000E-04  0.9977775E+03  0.7818608E-02  0.9310986E-01
       21   -1    0    0  503  502  0.00000000000E+00  0.00000000000E+00  0.44804385743E+03  0.44804385743E+03  0.00000000000E+00 0.  1.
       21   -1    0    0  502  503 -0.00000000000E+00 -0.00000000000E+00 -0.55550359236E+03  0.55550359236E+03  0.00000000000E+00 0. -1.
       39    2    1    2    0    0 -0.71054273576E-14  0.00000000000E+00 -0.10745973493E+03  0.10035474498E+04  0.99777747486E+03 0.  0.
       24    2    3    3    0    0 -0.47052918271E+02 -0.16485872921E+03 -0.51812223384E+03  0.55130115539E+03  0.78038048513E+02 0.  0.
      -24    2    3    3    0    0  0.47052918271E+02  0.16485872921E+03  0.41066249891E+03  0.45224629440E+03  0.80564539796E+02 0.  0.
      -13    1    4    4    0    0 -0.15798806582E+02 -0.69108621165E+02 -0.10947278145E+03  0.13042198314E+03  0.00000000000E+00 0.  1.
       14    1    4    4    0    0 -0.31254111689E+02 -0.95750108043E+02 -0.40864945239E+03  0.42087917225E+03  0.00000000000E+00 0. -1.
        1    1    5    5  501    0 -0.18875870050E+01  0.57708576819E+02  0.64395040462E+02  0.86490254129E+02  0.00000000000E+00 0. -1.
       -2    1    5    5    0  501  0.48940505276E+02  0.10715015239E+03  0.34626745845E+03  0.36575604027E+03  0.00000000000E+00 0.  1.
</event>
<event>
 9   1  0.7335000E-04  0.1019221E+04  0.7818608E-02  0.9287712E-01
       21   -1    0    0  503  502  0.00000000000E+00  0.00000000000E+00  0.13901324239E+04  0.13901324239E+04  0.00000000000E+00 0.  1.
       21   -1    0    0  502  503 -0.00000000000E+00 -0.00000000000E+00 -0.18681864027E+03  0.18681864027E+03  0.00000000000E+00 0. -1.
       39    2    1    2    0    0  0.00000000000E+00 -0.56843418861E-13  0.12033137837E+04  0.15769510642E+04  0.10192205831E+04 0.  0.
       24    2    3    3    0    0 -0.22929231876E+02 -0.25643742332E+03 -0.67970714222E+02  0.27735959531E+03  0.77604287009E+02 0.  0.
      -24    2    3    3    0    0  0.22929231876E+02  0.25643742332E+03  0.12712844979E+04  0.12995914689E+04  0.80546941003E+02 0.  0.
      -13    1    4    4    0    0 -0.31079793023E+02 -0.85509637747E+02  0.54632557759E+01  0.91146578902E+02  0.00000000000E+00 0.  1.
       14    1    4    4    0    0  0.81505611462E+01 -0.17092778558E+03 -0.73433969998E+02  0.18621301641E+03  0.00000000000E+00 0. -1.
        1    1    5    5  501    0  0.31421014296E+02  0.44371344846E+02  0.34843776059E+03  0.35265417818E+03  0.00000000000E+00 0. -1.
       -2    1    5    5    0  501 -0.84917824196E+01  0.21206607848E+03  0.92284673730E+03  0.94693729072E+03  0.00000000000E+00 0.  1.
</event>
<event>
 9   1  0.7335000E-04  0.9949057E+03  0.7818608E-02  0.9314150E-01
       21   -1    0    0  503  502  0.00000000000E+00  0.00000000000E+00  0.19205901916E+04  0.19205901916E+04  0.00000000000E+00 0. -1.
       21   -1    0    0  502  503 -0.00000000000E+00 -0.00000000000E+00 -0.12884546711E+03  0.12884546711E+03  0.00000000000E+00 0.  1.
       39    2    1    2    0    0  0.56843418861E-13  0.56843418861E-13  0.17917447245E+04  0.20494356588E+04  0.99490570482E+03 0.  0.
       24    2    3    3    0    0  0.38167898536E+03  0.16332871320E+03  0.35780214030E+03  0.55435821938E+03  0.83279933760E+02 0.  0.
      -24    2    3    3    0    0 -0.38167898536E+03 -0.16332871320E+03  0.14339425842E+04  0.14950774394E+04  0.81915190567E+02 0.  0.
      -13    1    4    4    0    0  0.26261607694E+03  0.69342131524E+02  0.23593993775E+03  0.35978214144E+03  0.00000000000E+00 0.  1.
       14    1    4    4    0    0  0.11906290842E+03  0.93986581672E+02  0.12186220254E+03  0.19457607794E+03  0.00000000000E+00 0. -1.
        1    1    5    5  501    0 -0.24401278690E+03 -0.14590239921E+03  0.94899666402E+03  0.99066867246E+03  0.00000000000E+00 0. -1.
       -2    1    5    5    0  501 -0.13766619846E+03 -0.17426313986E+02  0.48494592021E+03  0.50440876693E+03  0.00000000000E+00 0.  1.
</event>
<event>
 9   1  0.7335000E-04  0.9915266E+03  0.7818608E-02  0.9317887E-01
       21   -1    0    0  503  502  0.00000000000E+00  0.00000000000E+00  0.39307547338E+03  0.39307547338E+03  0.00000000000E+00 0. -1.
       21   -1    0    0  502  503 -0.00000000000E+00 -0.00000000000E+00 -0.62527749907E+03  0.62527749907E+03  0.00000000000E+00 0.  1.
       39    2    1    2    0    0  0.00000000000E+00  0.00000000000E+00 -0.23220202568E+03  0.10183529724E+04  0.99152659862E+03 0.  0.
       24    2    3    3    0    0  0.10495325164E+03  0.13744134440E+03  0.35371639775E+03  0.40201919885E+03  0.81233232280E+02 0.  0.
      -24    2    3    3    0    0 -0.10495325164E+03 -0.13744134440E+03 -0.58591842343E+03  0.61633377360E+03  0.81618707339E+02 0.  0.
      -13    1    4    4    0    0  0.42829526215E+02  0.45335661427E+02  0.54433773701E+02  0.82781194919E+02  0.00000000000E+00 0.  1.
       14    1    4    4    0    0  0.62123725424E+02  0.92105682970E+02  0.29928262405E+03  0.31923800393E+03  0.00000000000E+00 0. -1.
        3    1    5    5  501    0 -0.18098740110E+02 -0.74156811055E+02 -0.33096385764E+03  0.33965257556E+03  0.00000000000E+00 0. -1.
       -4    1    5    5    0  501 -0.86854511529E+02 -0.63284533341E+02 -0.25495456579E+03  0.27668119804E+03  0.14200000000E+01 0.  1.
</event>
<event>
 9   1  0.7335000E-04  0.9839296E+03  0.7818608E-02  0.9326348E-01
       21   -1    0    0  503  502  0.00000000000E+00  0.00000000000E+00  0.21217412899E+03  0.21217412899E+03  0.00000000000E+00 0. -1.
       21   -1    0    0  502  503 -0.00000000000E+00 -0.00000000000E+00 -0.11407109342E+04  0.11407109342E+04  0.00000000000E+00 0.  1.
       39    2    1    2    0    0  0.00000000000E+00  0.00000000000E+00 -0.92853680520E+03  0.13528850632E+04  0.98392956839E+03 0.  0.
       24    2    3    3    0    0 -0.20684460292E+03  0.43930678621E+03 -0.47181522996E+03  0.68179193203E+03  0.80346034044E+02 0.  0.
      -24    2    3    3    0    0  0.20684460292E+03 -0.43930678621E+03 -0.45672157524E+03  0.67109313115E+03  0.77435464869E+02 0.  0.
      -13    1    4    4    0    0 -0.86492778544E+02  0.19136751170E+03 -0.25985142810E+03  0.33410371138E+03  0.00000000000E+00 0.  1.
       14    1    4    4    0    0 -0.12035182437E+03  0.24793927451E+03 -0.21196380186E+03  0.34768822064E+03  0.00000000000E+00 0. -1.
        3    1    5    5  501    0  0.76646784846E+02 -0.21586398252E+03 -0.17199456757E+03  0.28645090303E+03  0.00000000000E+00 0. -1.
       -4    1    5    5    0  501  0.13019781807E+03 -0.22344280369E+03 -0.28472700767E+03  0.38464222812E+03  0.14200000000E+01 0.  1.
</event>
<event>
 9   1  0.7335000E-04  0.1016986E+04  0.7818608E-02  0.9290108E-01
       21   -1    0    0  503  502  0.00000000000E+00  0.00000000000E+00  0.47321163874E+03  0.47321163874E+03  0.00000000000E+00 0.  1.
       21   -1    0    0  502  503 -0.00000000000E+00 -0.00000000000E+00 -0.54640511160E+03  0.54640511160E+03  0.00000000000E+00 0. -1.
       39    2    1    2    0    0  0.00000000000E+00  0.71054273576E-14 -0.73193472859E+02  0.10196167503E+04  0.10169862502E+04 0.  0.
       24    2    3    3    0    0 -0.44328662351E+02  0.59874711412E+02 -0.53439152777E+03  0.54552325902E+03  0.80444451711E+02 0.  0.
      -24    2    3    3    0    0  0.44328662351E+02 -0.59874711412E+02  0.46119805491E+03  0.47409349131E+03  0.80690651712E+02 0.  0.
      -13    1    4    4    0    0 -0.42506798282E+02  0.19924433597E+02 -0.11476303985E+03  0.12399341221E+03  0.00000000000E+00 0.  1.
       14    1    4    4    0    0 -0.18218640688E+01  0.39950277815E+02 -0.41962848792E+03  0.42152984682E+03  0.00000000000E+00 0. -1.
        1    1    5    5  501    0  0.37429179857E+02 -0.64942637520E+01  0.74089154466E+02  0.83260565551E+02  0.00000000000E+00 0. -1.
       -2    1    5    5    0  501  0.68994824935E+01 -0.53380447660E+02  0.38710890045E+03  0.39083292576E+03  0.00000000000E+00 0.  1.
</event>
<event>
 9   1  0.7335000E-04  0.9949185E+03  0.7818608E-02  0.9314136E-01
        1   -1    0    0  501    0  0.00000000000E+00  0.00000000000E+00  0.76096669279E+03  0.76096669279E+03  0.00000000000E+00 0.  1.
       -1   -1    0    0    0  501 -0.00000000000E+00 -0.00000000000E+00 -0.32519911063E+03  0.32519911063E+03  0.00000000000E+00 0. -1.
       39    2    1    2    0    0 -0.35527136788E-14  0.00000000000E+00  0.43576758216E+03  0.10861658034E+04  0.99491847246E+03 0.  0.
       24    2    3    3    0    0 -0.24123128353E+02  0.48547160309E+03  0.14077237311E+03  0.51226740435E+03  0.79601694701E+02 0.  0.
      -24    2    3    3    0    0  0.24123128353E+02 -0.48547160309E+03  0.29499520906E+03  0.57389839907E+03  0.77926865404E+02 0.  0.
      -13    1    4    4    0    0 -0.39816721609E+02  0.45817628651E+03  0.14012173966E+03  0.48077539742E+03  0.00000000000E+00 0.  1.
       14    1    4    4    0    0  0.15693593256E+02  0.27295316580E+02  0.65063344936E+00  0.31492006928E+02  0.00000000000E+00 0. -1.
        1    1    5    5  502    0  0.32005647544E+01 -0.21425036355E+03  0.86134823230E+02  0.23093867079E+03  0.00000000000E+00 0. -1.
       -2    1    5    5    0  502  0.20922563599E+02 -0.27122123954E+03  0.20886038583E+03  0.34295972827E+03  0.00000000000E+00 0.  1.
</event>
<event>
 9   1  0.7335000E-04  0.9939231E+03  0.7818608E-02  0.9315235E-01
       21   -1    0    0  503  502  0.00000000000E+00  0.00000000000E+00  0.33082420751E+03  0.33082420751E+03  0.00000000000E+00 0. -1.
       21   -1    0    0  502  503 -0.00000000000E+00 -0.00000000000E+00 -0.74653176088E+03  0.74653176088E+03  0.00000000000E+00 0.  1.
       39    2    1    2    0    0 -0.28421709430E-13 -0.35527136788E-14 -0.41570755337E+03  0.10773559684E+04  0.99392309194E+03 0.  0.
       24    2    3    3    0    0  0.17616119603E+03  0.20161996216E+02 -0.70338912947E+03  0.73003113465E+03  0.82157878711E+02 0.  0.
      -24    2    3    3    0    0 -0.17616119603E+03 -0.20161996216E+02  0.28768157610E+03  0.34732483373E+03  0.80215820271E+02 0.  0.
      -13    1    4    4    0    0  0.13877892548E+03  0.25614421766E+02 -0.64662193445E+03  0.66184259070E+03  0.00000000000E+00 0.  1.
       14    1    4    4    0    0  0.37382270550E+02 -0.54524255505E+01 -0.56767195021E+02  0.68188543952E+02  0.00000000000E+00 0. -1.
        1    1    5    5  501    0 -0.13118550654E+03  0.21578623053E+02  0.18765765274E+03  0.22997971373E+03  0.00000000000E+00 0. -1.
       -2    1    5    5    0  501 -0.44975689485E+02 -0.41740619268E+02  0.10002392337E+03  0.11734512000E+03  0.00000000000E+00 0.  1.
</event>
<event>
 9   1  0.7335000E-04  0.1010278E+04  0.7818608E-02  0.9297344E-01
       21   -1    0    0  503  502  0.00000000000E+00  0.00000000000E+00  0.42294800577E+03  0.42294800577E+03  0.00000000000E+00 0.  1.
       21   -1    0    0  502  503 -0.00000000000E+00 -0.00000000000E+00 -0.60330170802E+03  0.60330170802E+03  0.00000000000E+00 0. -1.
       39    2    1    2    0    0  0.00000000000E+00  0.00000000000E+00 -0.18035370225E+03  0.10262497138E+04  0.10102776931E+04 0.  0.
       24    2    3    3    0    0 -0.24407098411E+03  0.30088765830E+03  0.23115286493E+03  0.45557156911E+03  0.63322819058E+02 0.  0.
      -24    2    3    3    0    0  0.24407098411E+03 -0.30088765830E+03 -0.41150656718E+03  0.57067814468E+03  0.78942141955E+02 0.  0.
      -13    1    4    4    0    0 -0.22711128033E+03  0.27532069891E+03  0.23053413948E+03  0.42488470244E+03  0.00000000000E+00 0.  1.
       14    1    4    4    0    0 -0.16959703777E+02  0.25566959386E+02  0.61872544682E+00  0.30686866664E+02  0.00000000000E+00 0. -1.
        3    1    5    5  501    0  0.10322440208E+03 -0.17511763497E+03 -0.24987980469E+03  0.32212013295E+03  0.00000000000E+00 0. -1.
       -4    1    5    5    0  501  0.14084658203E+03 -0.12577002333E+03 -0.16162676249E+03  0.24855801172E+03  0.14200000000E+01 0.  1.
</event>
<event>
 9   1  0.7335000E-04  0.9967873E+03  0.7818608E-02  0.9312075E-01
       21   -1    0    0  503  502  0.00000000000E+00  0.00000000000E+00  0.10247615828E+03  0.10247615828E+03  0.00000000000E+00 0. -1.
       21   -1    0    0  502  503 -0.00000000000E+00 -0.00000000000E+00 -0.24239418939E+04  0.24239418939E+04  0.00000000000E+00 0.  1.
       39    2    1    2    0    0  0.00000000000E+00  0.17763568394E-14 -0.23214657357E+04  0.25264180522E+04  0.99678734581E+03 0.  0.
       24    2    3    3    0    0  0.97348467368E+02  0.56272333484E+01 -0.23826817577E+04  0.23861426498E+04  0.83642075900E+02 0.  0.
      -24    2    3    3    0    0 -0.97348467368E+02 -0.56272333484E+01  0.61216022092E+02  0.14027540237E+03  0.80133621509E+02 0.  0.
      -13    1    4    4    0    0  0.53756003930E+02 -0.38284928147E+02 -0.13443018784E+04  0.13459208684E+04  0.00000000000E+00 0.  1.
       14    1    4    4    0    0  0.43592463438E+02  0.43912161495E+02 -0.10383798793E+04  0.10402217814E+04  0.00000000000E+00 0. -1.
        3    1    5    5  501    0 -0.10514984223E+02  0.90724969908E+01  0.49509516512E+02  0.51420495137E+02  0.00000000000E+00 0. -1.
       -4    1    5    5    0  501 -0.86833483145E+02 -0.14699730339E+02  0.11706505580E+02  0.88854907236E+02  0.14200000000E+01 0.  1.
</event>
<event>
 9   1  0.7335000E-04  0.9978412E+03  0.7818608E-02  0.9310916E-01
       21   -1    0    0  503  502  0.00000000000E+00  0.00000000000E+00  0.86686270653E+03  0.86686270653E+03  0.00000000000E+00 0. -1.
       21   -1    0    0  502  503 -0.00000000000E+00 -0.00000000000E+00 -0.28715247568E+03  0.28715247568E+03  0.00000000000E+00 0.  1.
       39    2    1    2    0    0  0.00000000000E+00 -0.14210854715E-13  0.57971023085E+03  0.11540151822E+04  0.99784121433E+03 0.  0.
       24    2    3    3    0    0  0.54022786159E+02  0.94277397602E+02  0.84450599175E+03  0.85678748918E+03  0.95329651089E+02 0.  0.
      -24    2    3    3    0    0 -0.54022786159E+02 -0.94277397602E+02 -0.26479576090E+03  0.29722769303E+03  0.80130003054E+02 0.  0.
      -13    1    4    4    0    0  0.34339028378E+02 -0.97266332672E+01  0.14554716729E+03  0.14985911440E+03  0.00000000000E+00 0.  1.
       14    1    4    4    0    0  0.19683757782E+02  0.10400403087E+03  0.69895882447E+03  0.70692837477E+03  0.00000000000E+00 0. -1.
        1    1    5    5  501    0 -0.37336294693E+02 -0.37912413418E+01 -0.11944219796E+03  0.12519908572E+03  0.00000000000E+00 0. -1.
       -2    1    5    5    0  501 -0.16686491466E+02 -0.90486156260E+02 -0.14535356294E+03  0.17202860731E+03  0.00000000000E+00 0.  1.
</event>
<event>
 9   1  0.7335000E-04  0.1004039E+04  0.7818608E-02  0.9304125E-01
       21   -1    0    0  503  502  0.00000000000E+00  0.00000000000E+00  0.37262745780E+03  0.37262745780E+03  0.00000000000E+00 0.  1.
       21   -1    0    0  502  503 -0.00000000000E+00 -0.00000000000E+00 -0.67634257774E+03  0.67634257774E+03  0.00000000000E+00 0. -1.
       39    2    1    2    0    0 -0.56843418861E-13  0.00000000000E+00 -0.30371511995E+03  0.10489700355E+04  0.10040394720E+04 0.  0.
       24    2    3    3    0    0  0.30618330375E+03  0.30928888083E+03 -0.39958650114E+03  0.59628767705E+03  0.80509593230E+02 0.  0.
      -24    2    3    3    0    0 -0.30618330375E+03 -0.30928888083E+03  0.95871381193E+02  0.45268235849E+03  0.79512066088E+02 0.  0.
      -13    1    4    4    0    0  0.92066456345E+02  0.67420006263E+02 -0.14778549917E+03  0.18671433633E+03  0.00000000000E+00 0.  1.
       14    1    4    4    0    0  0.21411684741E+03  0.24186887457E+03 -0.25180100197E+03  0.40957334071E+03  0.00000000000E+00 0. -1.
        1    1    5    5  501    0 -0.78232400695E+02 -0.12919373754E+03  0.19389467040E+02  0.15227370676E+03  0.00000000000E+00 0. -1.
       -2    1    5    5    0  501 -0.22795090306E+03 -0.18009514329E+03  0.76481914154E+02  0.30040865173E+03  0.00000000000E+00 0.  1.
</event>
<event>
 9   1  0.7335000E-04  0.1002880E+04  0.7818608E-02  0.9305392E-01
       21   -1    0    0  503  502  0.00000000000E+00  0.00000000000E+00  0.10323212730E+04  0.10323212730E+04  0.00000000000E+00 0.  1.
       21   -1    0    0  502  503 -0.00000000000E+00 -0.00000000000E+00 -0.24356943406E+03  0.24356943406E+03  0.00000000000E+00 0. -1.
       39    2    1    2    0    0  0.14210854715E-13  0.28421709430E-13  0.78875183897E+03  0.12758907071E+04  0.10028796702E+04 0.  0.
       24    2    3    3    0    0  0.11669102092E+03  0.72383792756E+02  0.99942730735E+03  0.10119326074E+04  0.79350182169E+02 0.  0.
      -24    2    3    3    0    0 -0.11669102092E+03 -0.72383792756E+02 -0.21067546838E+03  0.26395809969E+03  0.80209211418E+02 0.  0.
      -13    1    4    4    0    0  0.10718543407E+03  0.75856005643E+02  0.98791911390E+03  0.99660775959E+03  0.00000000000E+00 0.  1.
       14    1    4    4    0    0  0.95055868459E+01 -0.34722128862E+01  0.11508193447E+02  0.15324847798E+02  0.00000000000E+00 0. -1.
        3    1    5    5  501    0 -0.32602995131E+02 -0.63644205982E+02 -0.12214206769E+03  0.14153524277E+03  0.00000000000E+00 0. -1.
       -4    1    5    5    0  501 -0.84088025790E+02 -0.87395867748E+01 -0.88533400696E+02  0.12242285692E+03  0.14200000000E+01 0.  1.
</event>
<event>
 9   1  0.7335000E-04  0.1011081E+04  0.7818608E-02  0.9296475E-01
       21   -1    0    0  503  502  0.00000000000E+00  0.00000000000E+00  0.76370172190E+03  0.76370172190E+03  0.00000000000E+00 0.  1.
       21   -1    0    0  502  503 -0.00000000000E+00 -0.00000000000E+00 -0.33464765772E+03  0.33464765772E+03  0.00000000000E+00 0. -1.
       39    2    1    2    0    0  0.00000000000E+00  0.56843418861E-13  0.42905406418E+03  0.10983493796E+04  0.10110805951E+04 0.  0.
       24    2    3    3    0    0 -0.27159539681E+03  0.25249019949E+03  0.57604985769E+03  0.69020392581E+03  0.83860957863E+02 0.  0.
      -24    2    3    3    0    0  0.27159539681E+03 -0.25249019949E+03 -0.14699579351E+03  0.40814545381E+03  0.86368905017E+02 0.  0.
      -13    1    4    4    0    0 -0.20745947585E+03  0.17477046615E+03  0.47799735954E+03  0.54960497239E+03  0.00000000000E+00 0.  1.
       14    1    4    4    0    0 -0.64135920961E+02  0.77719733334E+02  0.98052498156E+02  0.14059895342E+03  0.00000000000E+00 0. -1.
        3    1    5    5  501    0  0.26780292971E+03 -0.24946918575E+03 -0.15597214623E+03  0.39784493738E+03  0.00000000000E+00 0. -1.
       -4    1    5    5    0  501  0.37924670957E+01 -0.30210137328E+01  0.89763527150E+01  0.10300516429E+02  0.14200000000E+01 0.  1.
</event>
<event>
 9   1  0.7335000E-04  0.1009879E+04  0.7818608E-02  0.9297775E-01
       21   -1    0    0  503  502  0.00000000000E+00  0.00000000000E+00  0.49642238135E+03  0.49642238135E+03  0.00000000000E+00 0.  1.
       21   -1    0    0  502  503 -0.00000000000E+00 -0.00000000000E+00 -0.51360304343E+03  0.51360304343E+03  0.00000000000E+00 0. -1.
       39    2    1    2    0    0  0.14210854715E-13 -0.14210854715E-13 -0.17180662081E+02  0.10100254248E+04  0.10098792916E+04 0.  0.
       24    2    3    3    0    0  0.75585096076E+02 -0.86288289521E+02  0.47674259600E+03  0.49688772977E+03  0.80343870294E+02 0.  0.
      -24    2    3    3    0    0 -0.75585096076E+02  0.86288289521E+02 -0.49392325808E+03  0.51313769501E+03  0.78685027195E+02 0.  0.
      -13    1    4    4    0    0  0.52582625701E+02 -0.66416834646E+02  0.44479406410E+03  0.45278901036E+03  0.00000000000E+00 0.  1.
       14    1    4    4    0    0  0.23002470375E+02 -0.19871454875E+02  0.31948531904E+02  0.44098719403E+02  0.00000000000E+00 0. -1.
        3    1    5    5  501    0 -0.48228682935E+02  0.50246669308E+02 -0.14037744232E+03  0.15670532840E+03  0.00000000000E+00 0. -1.
       -4    1    5    5    0  501 -0.27356413141E+02  0.36041620213E+02 -0.35354581576E+03  0.35643236661E+03  0.14200000000E+01 0.  1.
</event>
<event>
 9   1  0.7335000E-04  0.1005285E+04  0.7818608E-02  0.9302768E-01
       21   -1    0    0  503  502  0.00000000000E+00  0.00000000000E+00  0.27282660271E+03  0.27282660271E+03  0.00000000000E+00 0. -1.
       21   -1    0    0  502  503 -0.00000000000E+00 -0.00000000000E+00 -0.92604337525E+03  0.92604337525E+03  0.00000000000E+00 0.  1.
       39    2    1    2    0    0  0.00000000000E+00  0.00000000000E+00 -0.65321677254E+03  0.11988699780E+04  0.10052845727E+04 0.  0.
       24    2    3    3    0    0 -0.53010475948E+02 -0.48320652873E+03 -0.44458131725E+03  0.66385531490E+03  0.82174640314E+02 0.  0.
      -24    2    3    3    0    0  0.53010475948E+02  0.48320652873E+03 -0.20863545530E+03  0.53501466307E+03  0.80082935296E+02 0.  0.
      -13    1    4    4    0    0 -0.47134781020E+02 -0.25160631769E+03 -0.28181494998E+03  0.38071917829E+03  0.00000000000E+00 0.  1.
       14    1    4    4    0    0 -0.58756949282E+01 -0.23160021103E+03 -0.16276636727E+03  0.28313613661E+03  0.00000000000E+00 0. -1.
        3    1    5    5  501    0  0.55645000629E+02  0.37004078739E+03 -0.12595410100E+03  0.39483032556E+03  0.00000000000E+00 0. -1.
       -4    1    5    5    0  501 -0.26345246810E+01  0.11316574134E+03 -0.82681354297E+02  0.14018433750E+03  0.14200000000E+01 0.  1.
</event>
<event>
 9   1  0.7335000E-04  0.1008959E+04  0.7818608E-02  0.9298773E-01
       21   -1    0    0  503  502  0.00000000000E+00  0.00000000000E+00  0.15665721079E+04  0.15665721079E+04  0.00000000000E+00 0. -1.
       21   -1    0    0  502  503 -0.00000000000E+00 -0.00000000000E+00 -0.16245629364E+03  0.16245629364E+03  0.00000000000E+00 0.  1.
       39    2    1    2    0    0 -0.56843418861E-13  0.00000000000E+00  0.14041158143E+04  0.17290284016E+04  0.10089588661E+04 0.  0.
       24    2    3    3    0    0  0.36515271950E+03  0.27436275372E+03  0.36888086027E+03  0.59466582990E+03  0.94567071384E+02 0.  0.
      -24    2    3    3    0    0 -0.36515271950E+03 -0.27436275372E+03  0.10352349540E+04  0.11343625717E+04  0.80346778368E+02 0.  0.
      -13    1    4    4    0    0  0.32212561869E+03  0.26305981103E+03  0.30052656772E+03  0.51310973125E+03  0.00000000000E+00 0.  1.
       14    1    4    4    0    0  0.43027100804E+02  0.11302942695E+02  0.68354292551E+02  0.81556098651E+02  0.00000000000E+00 0. -1.
        3    1    5    5  501    0 -0.33859779578E+03 -0.26575373878E+03  0.10043922521E+04  0.10927384467E+04  0.00000000000E+00 0. -1.
       -4    1    5    5    0  501 -0.26554923716E+02 -0.86090149405E+01  0.30842701945E+02  0.41624124916E+02  0.14200000000E+01 0.  1.
</event>
<event>
 9   1  0.7335000E-04  0.9985610E+03  0.7818608E-02  0.9310124E-01
       21   -1    0    0  503  502  0.00000000000E+00  0.00000000000E+00  0.18950209441E+03  0.18950209441E+03  0.00000000000E+00 0. -1.
       21   -1    0    0  502  503 -0.00000000000E+00 -0.00000000000E+00 -0.13154525709E+04  0.13154525709E+04  0.00000000000E+00 0.  1.
       39    2    1    2    0    0  0.00000000000E+00 -0.56843418861E-13 -0.11259504765E+04  0.15049546653E+04  0.99856099919E+03 0.  0.
       24    2    3    3    0    0 -0.18496510156E+03 -0.43340702304E+03 -0.35964759783E+03  0.60178983636E+03  0.10368643165E+03 0.  0.
      -24    2    3    3    0    0  0.18496510156E+03  0.43340702304E+03 -0.76630287865E+03  0.90316482894E+03  0.80205174251E+02 0.  0.
      -13    1    4    4    0    0  0.24504065089E+01 -0.96491747822E+02 -0.61905634414E+02  0.11466895596E+03  0.00000000000E+00 0.  1.
       14    1    4    4    0    0 -0.18741550807E+03 -0.33691527522E+03 -0.29774196341E+03  0.48712088040E+03  0.00000000000E+00 0. -1.
        1    1    5    5  501    0  0.36257689652E+01 -0.24500318418E+01 -0.19684734605E+01  0.47983064074E+01  0.00000000000E+00 0. -1.
       -2    1    5    5    0  501  0.18133933260E+03  0.43585705488E+03 -0.76433440519E+03  0.89836652253E+03  0.00000000000E+00 0.  1.
</event>
<event>
 9   1  0.7335000E-04  0.1002031E+04  0.7818608E-02  0.9306320E-01
       21   -1    0    0  503  502  0.00000000000E+00  0.00000000000E+00  0.87386023728E+03  0.87386023728E+03  0.00000000000E+00 0. -1.
       21   -1    0    0  502  503 -0.00000000000E+00 -0.00000000000E+00 -0.28725022132E+03  0.28725022132E+03  0.00000000000E+00 0.  1.
       39    2    1    2    0    0  0.00000000000E+00 -0.35527136788E-14  0.58661001596E+03  0.11611104586E+04  0.10020310306E+04 0.  0.
       24    2    3    3    0    0  0.32734167652E+03  0.25738227382E+01 -0.13658341874E+03  0.36346889031E+03  0.79343595832E+02 0.  0.
      -24    2    3    3    0    0 -0.32734167652E+03 -0.25738227382E+01  0.72319343470E+03  0.79764156829E+03  0.77872522252E+02 0.  0.
      -13    1    4    4    0    0  0.21104048770E+03 -0.17089866448E+02 -0.12266828825E+03  0.24469912122E+03  0.00000000000E+00 0.  1.
       14    1    4    4    0    0  0.11630118882E+03  0.19663689186E+02 -0.13915130488E+02  0.11876976909E+03  0.00000000000E+00 0. -1.
        3    1    5    5  501    0 -0.19468352180E+03 -0.32535486891E+02  0.37387265710E+03  0.42277771381E+03  0.00000000000E+00 0. -1.
       -4    1    5    5    0  501 -0.13265815471E+03  0.29961664153E+02  0.34932077760E+03  0.37486385448E+03  0.14200000000E+01 0.  1.
</event>
<event>
 9   1  0.7335000E-04  0.1002438E+04  0.7818608E-02  0.9305874E-01
       21   -1    0    0  503  502  0.00000000000E+00  0.00000000000E+00  0.30321569221E+04  0.30321569221E+04  0.00000000000E+00 0.  1.
       21   -1    0    0  502  503 -0.00000000000E+00 -0.00000000000E+00 -0.82852139791E+02  0.82852139791E+02  0.00000000000E+00 0. -1.
       39    2    1    2    0    0 -0.17763568394E-14  0.00000000000E+00  0.29493047824E+04  0.31150090619E+04  0.10024384054E+04 0.  0.
       24    2    3    3    0    0 -0.10367509230E+02 -0.38522460599E+03  0.24472282646E+04  0.24786114955E+04  0.77995413565E+02 0.  0.
      -24    2    3    3    0    0  0.10367509230E+02  0.38522460599E+03  0.50207651779E+03  0.63639756641E+03  0.66449608856E+02 0.  0.
      -13    1    4    4    0    0  0.11178845278E+02 -0.26496760109E+03  0.14645810224E+04  0.14883985916E+04  0.00000000000E+00 0.  1.
       14    1    4    4    0    0 -0.21546354509E+02 -0.12025700490E+03  0.98264724216E+03  0.99021290395E+03  0.00000000000E+00 0. -1.
        1    1    5    5  501    0  0.79986695764E+01  0.36682428189E+03  0.49582661094E+03  0.61682093076E+03  0.00000000000E+00 0. -1.
       -2    1    5    5    0  501  0.23688396539E+01  0.18400324093E+02  0.62499068464E+01  0.19576635656E+02  0.00000000000E+00 0.  1.
</event>
<event>
 9   1  0.7335000E-04  0.9805419E+03  0.7818608E-02  0.9330147E-01
        2   -1    0    0  501    0  0.00000000000E+00  0.00000000000E+00  0.17215725052E+03  0.17215725052E+03  0.00000000000E+00 0. -1.
       -2   -1    0    0    0  501 -0.00000000000E+00 -0.00000000000E+00 -0.13961979256E+04  0.13961979256E+04  0.00000000000E+00 0.  1.
       39    2    1    2    0    0 -0.56843418861E-13  0.00000000000E+00 -0.12240406751E+04  0.15683551761E+04  0.98054188295E+03 0.  0.
       24    2    3    3    0    0  0.28272472537E+03  0.10629648413E+03 -0.12155778790E+04  0.12551020098E+04  0.80120298664E+02 0.  0.
      -24    2    3    3    0    0 -0.28272472537E+03 -0.10629648413E+03 -0.84627960475E+01  0.31325316628E+03  0.82605777006E+02 0.  0.
      -13    1    4    4    0    0  0.27506538160E+03  0.11695042809E+03 -0.11487609915E+04  0.11870089227E+04  0.00000000000E+00 0.  1.
       14    1    4    4    0    0  0.76593437700E+01 -0.10653943963E+02 -0.66816887467E+02  0.68093087165E+02  0.00000000000E+00 0. -1.
        1    1    5    5  502    0 -0.23012227122E+03 -0.11180802413E+03  0.12994301112E+02  0.25617600558E+03  0.00000000000E+00 0. -1.
       -2    1    5    5    0  502 -0.52602454144E+02  0.55115400007E+01 -0.21457097160E+02  0.57077160701E+02  0.00000000000E+00 0.  1.
</event>
<event>
 9   1  0.7335000E-04  0.9982034E+03  0.7818608E-02  0.9310517E-01
       21   -1    0    0  503  502  0.00000000000E+00  0.00000000000E+00  0.76619891046E+03  0.76619891046E+03  0.00000000000E+00 0.  1.
       21   -1    0    0  502  503 -0.00000000000E+00 -0.00000000000E+00 -0.32511465639E+03  0.32511465639E+03  0.00000000000E+00 0. -1.
       39    2    1    2    0    0 -0.56843418861E-13 -0.28421709430E-13  0.44108425407E+03  0.10913135669E+04  0.99820337708E+03 0.  0.
       24    2    3    3    0    0  0.41989040349E+03  0.24867147971E+03  0.29598666639E+03  0.57618904849E+03  0.78995298350E+02 0.  0.
      -24    2    3    3    0    0 -0.41989040349E+03 -0.24867147971E+03  0.14509758768E+03  0.51512451836E+03  0.78450645007E+02 0.  0.
      -13    1    4    4    0    0  0.16294800039E+03  0.11389478202E+03  0.79205523457E+02  0.21400370826E+03  0.00000000000E+00 0.  1.
       14    1    4    4    0    0  0.25694240310E+03  0.13477669769E+03  0.21678114293E+03  0.36218534024E+03  0.00000000000E+00 0. -1.
        3    1    5    5  501    0 -0.47898074490E+02 -0.20554328513E+01  0.14881773751E+02  0.50198780204E+02  0.00000000000E+00 0. -1.
       -4    1    5    5    0  501 -0.37199232900E+03 -0.24661604686E+03  0.13021581393E+03  0.46492573815E+03  0.14200000000E+01 0.  1.
</event>
<event>
 9   1  0.7335000E-04  0.1009268E+04  0.7818608E-02  0.9298438E-01
       -1   -1    0    0    0  501 -0.00000000000E+00  0.00000000000E+00  0.89415115966E+02  0.89415115966E+02  0.00000000000E+00 0. -1.
        1   -1    0    0  501    0  0.00000000000E+00 -0.00000000000E+00 -0.28480144325E+04  0.28480144325E+04  0.00000000000E+00 0.  1.
       39    2    1    2    0    0 -0.28421709430E-13  0.56843418861E-13 -0.27585993165E+04  0.29374295485E+04  0.10092681324E+04 0.  0.
       24    2    3    3    0    0 -0.24070664228E+03  0.43451796908E+03 -0.14960834850E+04  0.15783034030E+04  0.77654908270E+02 0.  0.
      -24    2    3    3    0    0  0.24070664228E+03 -0.43451796908E+03 -0.12625158316E+04  0.13591261455E+04  0.80821416121E+02 0.  0.
      -13    1    4    4    0    0 -0.60048217671E+02  0.93166695946E+02 -0.24370928741E+03  0.26773128030E+03  0.00000000000E+00 0.  1.
       14    1    4    4    0    0 -0.18065842461E+03  0.34135127313E+03 -0.12523741976E+04  0.13105721227E+04  0.00000000000E+00 0. -1.
        1    1    5    5  502    0  0.63913053727E+01  0.18527549761E+01 -0.31667970009E+02  0.32359570607E+02  0.00000000000E+00 0. -1.
       -2    1    5    5    0  502  0.23431533690E+03 -0.43637072405E+03 -0.12308478616E+04  0.13267665749E+04  0.00000000000E+00 0.  1.
</event>
<event>
 9   1  0.7335000E-04  0.1000441E+04  0.7818608E-02  0.9308061E-01
       21   -1    0    0  503  502  0.00000000000E+00  0.00000000000E+00  0.60984145186E+03  0.60984145186E+03  0.00000000000E+00 0.  1.
       21   -1    0    0  502  503 -0.00000000000E+00 -0.00000000000E+00 -0.41030437215E+03  0.41030437215E+03  0.00000000000E+00 0. -1.
       39    2    1    2    0    0  0.00000000000E+00  0.00000000000E+00  0.19953707972E+03  0.10201458240E+04  0.10004411307E+04 0.  0.
       24    2    3    3    0    0  0.13566165212E+03 -0.20009816626E+03  0.53878810347E+03  0.59608379041E+03  0.81116612058E+02 0.  0.
      -24    2    3    3    0    0 -0.13566165212E+03  0.20009816626E+03 -0.33925102375E+03  0.42406203360E+03  0.79334678553E+02 0.  0.
      -13    1    4    4    0    0  0.11996539094E+03 -0.10752757945E+03  0.34170825423E+03  0.37778089731E+03  0.00000000000E+00 0.  1.
       14    1    4    4    0    0  0.15696261180E+02 -0.92570586819E+02  0.19707984924E+03  0.21830289310E+03  0.00000000000E+00 0. -1.
        3    1    5    5  501    0 -0.99535788327E+02  0.19358044358E+03 -0.29243142058E+03  0.36455026682E+03  0.00000000000E+00 0. -1.
       -4    1    5    5    0  501 -0.36125863794E+02  0.65177226871E+01 -0.46819603173E+02  0.59511766780E+02  0.14200000000E+01 0.  1.
</event>
<event>
 9   1  0.7335000E-04  0.1002315E+04  0.7818608E-02  0.9306009E-01
       21   -1    0    0  503  502  0.00000000000E+00  0.00000000000E+00  0.24676536826E+04  0.24676536826E+04  0.00000000000E+00 0.  1.
       21   -1    0    0  502  503 -0.00000000000E+00 -0.00000000000E+00 -0.10178049889E+03  0.10178049889E+03  0.00000000000E+00 0. -1.
       39    2    1    2    0    0  0.56843418861E-13  0.14210854715E-13  0.23658731837E+04  0.25694341815E+04  0.10023153653E+04 0.  0.
       24    2    3    3    0    0  0.18382515276E+03  0.94203034900E+02  0.29521349297E+02  0.22287779579E+03  0.78339665680E+02 0.  0.
      -24    2    3    3    0    0 -0.18382515276E+03 -0.94203034900E+02  0.23363518344E+04  0.23465563857E+04  0.71561711250E+02 0.  0.
      -13    1    4    4    0    0  0.22759248609E-01  0.17343296906E+02 -0.96364778162E+01  0.19840669602E+02  0.00000000000E+00 0.  1.
       14    1    4    4    0    0  0.18380239351E+03  0.76859737993E+02  0.39157827114E+02  0.20303712619E+03  0.00000000000E+00 0. -1.
        3    1    5    5  501    0 -0.29166710314E+02  0.57876557320E+00  0.15843132578E+03  0.16109474526E+03  0.00000000000E+00 0. -1.
       -4    1    5    5    0  501 -0.15465844245E+03 -0.94781800473E+02  0.21779205087E+04  0.21854616405E+04  0.14200000000E+01 0.  1.
</event>
<event>
 9   1  0.7335000E-04  0.1006590E+04  0.7818608E-02  0.9301346E-01
       21   -1    0    0  503  502  0.00000000000E+00  0.00000000000E+00  0.33972392804E+03  0.33972392804E+03  0.00000000000E+00 0. -1.
       21   -1    0    0  502  503 -0.00000000000E+00 -0.00000000000E+00 -0.74562338109E+03  0.74562338109E+03  0.00000000000E+00 0.  1.
       39    2    1    2    0    0  0.56843418861E-13 -0.56843418861E-13 -0.40589945305E+03  0.10853473091E+04  0.10065904904E+04 0.  0.
       24    2    3    3    0    0 -0.27188887149E+03 -0.41449794617E+03 -0.23953920868E+03  0.55631628664E+03  0.79854069750E+02 0.  0.
      -24    2    3    3    0    0  0.27188887149E+03  0.41449794617E+03 -0.16636024436E+03  0.52903102250E+03  0.80411355162E+02 0.  0.
      -13    1    4    4    0    0 -0.59902962177E+02 -0.12803387382E+03 -0.10205666437E+03  0.17434620864E+03  0.00000000000E+00 0.  1.
       14    1    4    4    0    0 -0.21198590932E+03 -0.28646407235E+03 -0.13748254432E+03  0.38197007800E+03  0.00000000000E+00 0. -1.
        1    1    5    5  501    0  0.39957823782E+02  0.56080705938E+02  0.49302078452E+01  0.69036079041E+02  0.00000000000E+00 0. -1.
       -2    1    5    5    0  501  0.23193104771E+03  0.35841724023E+03 -0.17129045221E+03  0.45999494346E+03  0.00000000000E+00 0.  1.
</event>
<event>
 9   1  0.7335000E-04  0.9777380E+03  0.7818608E-02  0.9333304E-01
       21   -1    0    0  503  502  0.00000000000E+00  0.00000000000E+00  0.24293733838E+03  0.24293733838E+03  0.00000000000E+00 0. -1.
       21   -1    0    0  502  503 -0.00000000000E+00 -0.00000000000E+00 -0.98376345737E+03  0.98376345737E+03  0.00000000000E+00 0.  1.
       39    2    1    2    0    0  0.56843418861E-13 -0.56843418861E-13 -0.74082611899E+03  0.12267007957E+04  0.97773795247E+03 0.  0.
       24    2    3    3    0    0  0.40746541650E+03 -0.20730014057E+03 -0.56302175119E+03  0.72964978511E+03  0.79961882640E+02 0.  0.
      -24    2    3    3    0    0 -0.40746541650E+03  0.20730014057E+03 -0.17780436781E+03  0.49705101064E+03  0.80273906374E+02 0.  0.
      -13    1    4    4    0    0  0.33677387765E+03 -0.15049515901E+03 -0.48938280162E+03  0.61283028978E+03  0.00000000000E+00 0.  1.
       14    1    4    4    0    0  0.70691538849E+02 -0.56804981561E+02 -0.73638949568E+02  0.11681949533E+03  0.00000000000E+00 0. -1.
        3    1    5    5  501    0 -0.33508325799E+03  0.13326998683E+03 -0.13745764870E+03  0.38592264038E+03  0.00000000000E+00 0. -1.
       -4    1    5    5    0  501 -0.72382158511E+02  0.74030153742E+02 -0.40346719107E+02  0.11112837026E+03  0.14200000000E+01 0.  1.
</event>
<event>
 9   1  0.7335000E-04  0.9848587E+03  0.7818608E-02  0.9325309E-01
       -2   -1    0    0    0  501 -0.00000000000E+00  0.00000000000E+00  0.12912131935E+04  0.12912131935E+04  0.00000000000E+00 0.  1.
        2   -1    0    0  501    0  0.00000000000E+00 -0.00000000000E+00 -0.18779754925E+03  0.18779754925E+03  0.00000000000E+00 0. -1.
       39    2    1    2    0    0  0.00000000000E+00 -0.14210854715E-13  0.11034156442E+04  0.14790107427E+04  0.98485871736E+03 0.  0.
       24    2    3    3    0    0 -0.35847507528E+03  0.11536444819E+03  0.10136006790E+04  0.10843081639E+04  0.80774514902E+02 0.  0.
      -24    2    3    3    0    0  0.35847507528E+03 -0.11536444819E+03  0.89814965238E+02  0.39470257886E+03  0.76876929416E+02 0.  0.
      -13    1    4    4    0    0 -0.29104262876E+03  0.93277029532E+02  0.71856974495E+03  0.78086419712E+03  0.00000000000E+00 0.  1.
       14    1    4    4    0    0 -0.67432446523E+02  0.22087418661E+02  0.29503093404E+03  0.30344396674E+03  0.00000000000E+00 0. -1.
        1    1    5    5  502    0  0.24268581379E+03 -0.61788209339E+02  0.25208365755E+02  0.25169356116E+03  0.00000000000E+00 0. -1.
       -2    1    5    5    0  502  0.11578926149E+03 -0.53576238854E+02  0.64606599483E+02  0.14300901770E+03  0.00000000000E+00 0.  1.
</event>
<event>
 9   1  0.7335000E-04  0.1045273E+04  0.7818608E-02  0.9260238E-01
       21   -1    0    0  503  502  0.00000000000E+00  0.00000000000E+00  0.54805541383E+03  0.54805541383E+03  0.00000000000E+00 0.  1.
       21   -1    0    0  502  503 -0.00000000000E+00 -0.00000000000E+00 -0.49839675205E+03  0.49839675205E+03  0.00000000000E+00 0. -1.
       39    2    1    2    0    0  0.00000000000E+00  0.00000000000E+00  0.49658661788E+02  0.10464521659E+04  0.10452732431E+04 0.  0.
       24    2    3    3    0    0  0.18377455613E+03  0.31334860981E+03 -0.34260880712E+03  0.50581264436E+03  0.80654806024E+02 0.  0.
      -24    2    3    3    0    0 -0.18377455613E+03 -0.31334860981E+03  0.39226746890E+03  0.54063952152E+03  0.80354752952E+02 0.  0.
      -13    1    4    4    0    0  0.10365410856E+02  0.64391073993E+02 -0.89240512483E+02  0.11053289655E+03  0.00000000000E+00 0.  1.
       14    1    4    4    0    0  0.17340914527E+03  0.24895753581E+03 -0.25336829463E+03  0.39527974781E+03  0.00000000000E+00 0. -1.
        3    1    5    5  501    0 -0.32134196713E+02 -0.29156601926E+02  0.18365643024E+02  0.47116991393E+02  0.00000000000E+00 0. -1.
       -4    1    5    5    0  501 -0.15164035941E+03 -0.28419200788E+03  0.37390182588E+03  0.49352253013E+03  0.14200000000E+01 0.  1.
</event>
<event>
 9   1  0.7335000E-04  0.1005039E+04  0.7818608E-02  0.9303035E-01
        2   -1    0    0  501    0  0.00000000000E+00  0.00000000000E+00  0.23702160287E+04  0.23702160287E+04  0.00000000000E+00 0.  1.
       -2   -1    0    0    0  501 -0.00000000000E+00 -0.00000000000E+00 -0.10654134450E+03  0.10654134450E+03  0.00000000000E+00 0. -1.
       39    2    1    2    0    0  0.56843418861E-13  0.00000000000E+00  0.22636746842E+04  0.24767573732E+04  0.10050393076E+04 0.  0.
       24    2    3    3    0    0 -0.44881459967E+03 -0.85005227475E+02  0.65384008228E+03  0.80158376127E+03  0.79807515742E+02 0.  0.
      -24    2    3    3    0    0  0.44881459967E+03  0.85005227475E+02  0.16098346019E+04  0.16751736119E+04  0.77322383648E+02 0.  0.
      -13    1    4    4    0    0  0.14666585847E+01 -0.64668097419E+01  0.90365158840E+01  0.11208449267E+02  0.00000000000E+00 0.  1.
       14    1    4    4    0    0 -0.45028125825E+03 -0.78538417733E+02  0.64480356639E+03  0.79037531200E+03  0.00000000000E+00 0. -1.
        3    1    5    5  502    0  0.74511044862E+02 -0.10348203423E+02  0.21189693890E+03  0.22485393890E+03  0.00000000000E+00 0. -1.
       -4    1    5    5    0  502  0.37430355480E+03  0.95353430898E+02  0.13979376630E+04  0.14503196730E+04  0.14200000000E+01 0.  1.
</event>
<event>
 9   1  0.7335000E-04  0.9931639E+03  0.7818608E-02  0.9316074E-01
        2   -1    0    0  501    0  0.00000000000E+00  0.00000000000E+00  0.66465066968E+03  0.66465066968E+03  0.00000000000E+00 0. -1.
       -2   -1    0    0    0  501 -0.00000000000E+00 -0.00000000000E+00 -0.37101242148E+03  0.37101242148E+03  0.00000000000E+00 0.  1.
       39    2    1    2    0    0 -0.56843418861E-13  0.00000000000E+00  0.29363824820E+03  0.10356630912E+04  0.99316394296E+03 0.  0.
       24    2    3    3    0    0  0.36932567454E+03 -0.66374596774E+02 -0.18171826246E+03  0.42462380169E+03  0.80478600144E+02 0.  0.
      -24    2    3    3    0    0 -0.36932567454E+03  0.66374596774E+02  0.47535651066E+03  0.61103928947E+03  0.81229059324E+02 0.  0.
      -13    1    4    4    0    0  0.33042410804E+03 -0.33384282710E+02 -0.14880404184E+03  0.36391928277E+03  0.00000000000E+00 0.  1.
       14    1    4    4    0    0  0.38901566499E+02 -0.32990314063E+02 -0.32914220624E+02  0.60704518920E+02  0.00000000000E+00 0. -1.
        3    1    5    5  502    0 -0.32030461921E+03  0.59146830805E+02  0.44956567900E+03  0.55516006378E+03  0.00000000000E+00 0. -1.
       -4    1    5    5    0  502 -0.49021055323E+02  0.72277659683E+01  0.25790831667E+02  0.55879225692E+02  0.14200000000E+01 0.  1.
</event>
<event>
 9   1  0.7335000E-04  0.1003374E+04  0.7818608E-02  0.9304853E-01
       21   -1    0    0  503  502  0.00000000000E+00  0.00000000000E+00  0.27004341541E+04  0.27004341541E+04  0.00000000000E+00 0. -1.
       21   -1    0    0  502  503 -0.00000000000E+00 -0.00000000000E+00 -0.93203385698E+02  0.93203385698E+02  0.00000000000E+00 0.  1.
       39    2    1    2    0    0  0.56843418861E-13 -0.11368683772E-12  0.26072307684E+04  0.27936375398E+04  0.10033735217E+04 0.  0.
       24    2    3    3    0    0  0.22030651920E+03 -0.37460576988E+03  0.19625337446E+04  0.20118154472E+04  0.83655542309E+02 0.  0.
      -24    2    3    3    0    0 -0.22030651920E+03  0.37460576988E+03  0.64469702381E+03  0.78182209258E+03  0.82140651968E+02 0.  0.
      -13    1    4    4    0    0  0.13183008039E+02 -0.32555553344E+01  0.28209857963E+02  0.31307929152E+02  0.00000000000E+00 0.  1.
       14    1    4    4    0    0  0.20712351116E+03 -0.37135021455E+03  0.19343238866E+04  0.19805075180E+04  0.00000000000E+00 0. -1.
        1    1    5    5  501    0 -0.73280442564E+02  0.58899471626E+02  0.13717284284E+03  0.16629960864E+03  0.00000000000E+00 0. -1.
       -2    1    5    5    0  501 -0.14702607664E+03  0.31570629826E+03  0.50752418097E+03  0.61552248394E+03  0.00000000000E+00 0.  1.
</event>
<event>
 9   1  0.7335000E-04  0.9903119E+03  0.7818608E-02  0.9319235E-01
       21   -1    0    0  503  502  0.00000000000E+00  0.00000000000E+00  0.18174389631E+03  0.18174389631E+03  0.00000000000E+00 0. -1.
       21   -1    0    0  502  503 -0.00000000000E+00 -0.00000000000E+00 -0.13490380794E+04  0.13490380794E+04  0.00000000000E+00 0.  1.
       39    2    1    2    0    0  0.00000000000E+00  0.00000000000E+00 -0.11672941831E+04  0.15307819757E+04  0.99031194441E+03 0.  0.
       24    2    3    3    0    0 -0.38416878576E+03  0.24419572873E+03 -0.30958452575E+03  0.55637795598E+03  0.80601745823E+02 0.  0.
      -24    2    3    3    0    0  0.38416878576E+03 -0.24419572873E+03 -0.85770965730E+03  0.97440401969E+03  0.81117984949E+02 0.  0.
      -13    1    4    4    0    0 -0.21046397366E+01 -0.50376148766E+01 -0.74083023172E+01  0.92027178208E+01  0.00000000000E+00 0.  1.
       14    1    4    4    0    0 -0.38206414602E+03  0.24923334361E+03 -0.30217622343E+03  0.54717523816E+03  0.00000000000E+00 0. -1.
        1    1    5    5  501    0  0.15131075612E+03 -0.10414908415E+03 -0.26572894929E+03  0.32303846696E+03  0.00000000000E+00 0. -1.
       -2    1    5    5    0  501  0.23285802964E+03 -0.14004664458E+03 -0.59198070801E+03  0.65136555273E+03  0.00000000000E+00 0.  1.
</event>
<event>
 9   1  0.7335000E-04  0.9919679E+03  0.7818608E-02  0.9317398E-01
       21   -1    0    0  503  502  0.00000000000E+00  0.00000000000E+00  0.58321091608E+03  0.58321091608E+03  0.00000000000E+00 0. -1.
       21   -1    0    0  502  503 -0.00000000000E+00 -0.00000000000E+00 -0.42180293710E+03  0.42180293710E+03  0.00000000000E+00 0.  1.
       39    2    1    2    0    0 -0.14210854715E-13 -0.11368683772E-12  0.16140797898E+03  0.10050138532E+04  0.99196789736E+03 0.  0.
       24    2    3    3    0    0  0.11953827119E+03  0.45407370887E+03  0.21935053425E+03  0.52533561488E+03  0.85968133769E+02 0.  0.
      -24    2    3    3    0    0 -0.11953827119E+03 -0.45407370887E+03 -0.57942555274E+02  0.47967823829E+03  0.79129900881E+02 0.  0.
      -13    1    4    4    0    0  0.60841717859E+01  0.66959603668E+02  0.23506147818E+01  0.67276526810E+02  0.00000000000E+00 0.  1.
       14    1    4    4    0    0  0.11345409941E+03  0.38711410520E+03  0.21699991947E+03  0.45805908807E+03  0.00000000000E+00 0. -1.
        1    1    5    5  501    0 -0.11962467551E+03 -0.38998336911E+03 -0.27830111272E+02  0.40886624496E+03  0.00000000000E+00 0. -1.
       -2    1    5    5    0  501  0.86404315032E-01 -0.64090339759E+02 -0.30112444002E+02  0.70811993334E+02  0.00000000000E+00 0.  1.
</event>
<event>
 9   1  0.7335000E-04  0.1001407E+04  0.7818608E-02  0.9307003E-01
       21   -1    0    0  503  502  0.00000000000E+00  0.00000000000E+00  0.55677215367E+03  0.55677215367E+03  0.00000000000E+00 0.  1.
       21   -1    0    0  502  503 -0.00000000000E+00 -0.00000000000E+00 -0.45028105131E+03  0.45028105131E+03  0.00000000000E+00 0. -1.
       39    2    1    2    0    0  0.00000000000E+00  0.00000000000E+00  0.10649110236E+03  0.10070532050E+04  0.10014069117E+04 0.  0.
       24    2    3    3    0    0 -0.26843906970E+03 -0.20909656416E+03 -0.30758089604E+03  0.46558629907E+03  0.79897978658E+02 0.  0.
      -24    2    3    3    0    0  0.26843906970E+03  0.20909656416E+03  0.41407199840E+03  0.54146690591E+03  0.77135485038E+02 0.  0.
      -13    1    4    4    0    0 -0.10218259471E+03 -0.11928116311E+03 -0.10721444829E+03  0.19016891559E+03  0.00000000000E+00 0.  1.
       14    1    4    4    0    0 -0.16625647500E+03 -0.89815401044E+02 -0.20036644775E+03  0.27541738348E+03  0.00000000000E+00 0. -1.
        3    1    5    5  501    0  0.10517157781E+03  0.83875149420E+02  0.10727699726E+03  0.17205945370E+03  0.00000000000E+00 0. -1.
       -4    1    5    5    0  501  0.16326749190E+03  0.12522141474E+03  0.30679500114E+03  0.36940745220E+03  0.14200000000E+01 0.  1.
</event>
<event>
 8   1  0.7335000E-04  0.6747242E+03  0.7818608E-02  0.9761461E-01
       21   -1    0    0  503  502  0.00000000000E+00  0.00000000000E+00  0.37483975353E+03  0.37483975353E+03  0.00000000000E+00 0.  1.
       21   -1    0    0  502  503 -0.00000000000E+00 -0.00000000000E+00 -0.30363154596E+03  0.30363154596E+03  0.00000000000E+00 0. -1.
       24    2    1    2    0    0 -0.24838349248E+03  0.21202459573E+03  0.63851812776E+02  0.34233015218E+03  0.80399568223E+02 0.  0.
      -24    2    1    2    0    0  0.24838349248E+03 -0.21202459573E+03  0.73563947910E+01  0.33614114731E+03  0.79296695015E+02 0.  0.
      -13    1    3    3    0    0 -0.63940946666E+02  0.94433235434E+02 -0.14438263553E+01  0.11405334388E+03  0.00000000000E+00 0.  1.
       14    1    3    3    0    0 -0.18444254581E+03  0.11759136029E+03  0.65295639131E+02  0.22827680831E+03  0.00000000000E+00 0. -1.
        1    1    4    4  501    0  0.11771188409E+03 -0.83422358756E+02 -0.33926528195E+02  0.14821061673E+03  0.00000000000E+00 0. -1.
       -2    1    4    4    0  501  0.13067160839E+03 -0.12860223697E+03  0.41282922986E+02  0.18793053058E+03  0.00000000000E+00 0.  1.
</event>
<event>
 9   1  0.7335000E-04  0.1001446E+04  0.7818608E-02  0.9306960E-01
       21   -1    0    0  503  502  0.00000000000E+00  0.00000000000E+00  0.10427121094E+04  0.10427121094E+04  0.00000000000E+00 0.  1.
       21   -1    0    0  502  503 -0.00000000000E+00 -0.00000000000E+00 -0.24045326080E+03  0.24045326080E+03  0.00000000000E+00 0. -1.
       39    2    1    2    0    0  0.00000000000E+00  0.28421709430E-13  0.80225884864E+03  0.12831653702E+04  0.10014460081E+04 0.  0.
       24    2    3    3    0    0 -0.41252576824E+02 -0.25349798154E+03 -0.13989169037E+03  0.30342096733E+03  0.80818294003E+02 0.  0.
      -24    2    3    3    0    0  0.41252576824E+02  0.25349798154E+03  0.94215053900E+03  0.97974440289E+03  0.79299780076E+02 0.  0.
      -13    1    4    4    0    0 -0.24885441180E+02 -0.10383118192E+03 -0.10311598468E+03  0.14843552748E+03  0.00000000000E+00 0.  1.
       14    1    4    4    0    0 -0.16367135644E+02 -0.14966679962E+03 -0.36775705682E+02  0.15498543985E+03  0.00000000000E+00 0. -1.
        3    1    5    5  501    0  0.21004518567E+02  0.24767130444E+02  0.20799267017E+03  0.21051259201E+03  0.00000000000E+00 0. -1.
       -4    1    5    5    0  501  0.20248058257E+02  0.22873085109E+03  0.73415786883E+03  0.76923181089E+03  0.14200000000E+01 0.  1.
</event>
<event>
 9   1  0.7335000E-04  0.1005045E+04  0.7818608E-02  0.9303028E-01
       21   -1    0    0  503  502  0.00000000000E+00  0.00000000000E+00  0.91128174406E+03  0.91128174406E+03  0.00000000000E+00 0. -1.
       21   -1    0    0  502  503 -0.00000000000E+00 -0.00000000000E+00 -0.27711418738E+03  0.27711418738E+03  0.00000000000E+00 0.  1.
       39    2    1    2    0    0  0.00000000000E+00  0.56843418861E-13  0.63416755668E+03  0.11883959314E+04  0.10050454716E+04 0.  0.
       24    2    3    3    0    0 -0.43109887696E+02 -0.36730786310E+03  0.70826185908E+03  0.80299968210E+03  0.80000623200E+02 0.  0.
      -24    2    3    3    0    0  0.43109887696E+02  0.36730786310E+03 -0.74094302400E+02  0.38539624934E+03  0.79162962562E+02 0.  0.
      -13    1    4    4    0    0 -0.83820087169E+01 -0.64280563849E+02  0.68848535415E+02  0.94564104118E+02  0.00000000000E+00 0.  1.
       14    1    4    4    0    0 -0.34727878979E+02 -0.30302729925E+03  0.63941332366E+03  0.70843557798E+03  0.00000000000E+00 0. -1.
        3    1    5    5  501    0 -0.18435028181E+02  0.13425251851E+03 -0.95120803108E+01  0.13584575320E+03  0.00000000000E+00 0. -1.
       -4    1    5    5    0  501  0.61544915877E+02  0.23305534459E+03 -0.64582222090E+02  0.24955049614E+03  0.14200000000E+01 0.  1.
</event>
<event>
 9   1  0.7335000E-04  0.1008263E+04  0.7818608E-02  0.9299528E-01
        2   -1    0    0  501    0  0.00000000000E+00  0.00000000000E+00  0.14106120772E+04  0.14106120772E+04  0.00000000000E+00 0.  1.
       -2   -1    0    0    0  501 -0.00000000000E+00 -0.00000000000E+00 -0.18016908541E+03  0.18016908541E+03  0.00000000000E+00 0. -1.
       39    2    1    2    0    0  0.00000000000E+00  0.56843418861E-13  0.12304429918E+04  0.15907811626E+04  0.10082632351E+04 0.  0.
       24    2    3    3    0    0  0.38885362232E+02  0.48497663133E+03  0.77064008737E+03  0.91531958536E+03  0.84908154766E+02 0.  0.
      -24    2    3    3    0    0 -0.38885362232E+02 -0.48497663133E+03  0.45980290438E+03  0.67546157721E+03  0.90084555163E+02 0.  0.
      -13    1    4    4    0    0  0.37155639944E+02  0.14840788433E+03  0.29944838215E+03  0.33626592941E+03  0.00000000000E+00 0.  1.
       14    1    4    4    0    0  0.17297222879E+01  0.33656874700E+03  0.47119170522E+03  0.57905365595E+03  0.00000000000E+00 0. -1.
        3    1    5    5  502    0  0.20819705526E+02 -0.29328539005E+03  0.27302284334E+03  0.40123715324E+03  0.00000000000E+00 0. -1.
       -4    1    5    5    0  502 -0.59705067758E+02 -0.19169124128E+03  0.18678006105E+03  0.27422442398E+03  0.14200000000E+01 0.  1.
</event>
<event>
 9   1  0.7335000E-04  0.1002046E+04  0.7818608E-02  0.9306304E-01
       21   -1    0    0  503  502  0.00000000000E+00  0.00000000000E+00  0.21170178151E+03  0.21170178151E+03  0.00000000000E+00 0. -1.
       21   -1    0    0  502  503 -0.00000000000E+00 -0.00000000000E+00 -0.11857429462E+04  0.11857429462E+04  0.00000000000E+00 0.  1.
       39    2    1    2    0    0  0.00000000000E+00  0.00000000000E+00 -0.97404116472E+03  0.13974447277E+04  0.10020456958E+04 0.  0.
       24    2    3    3    0    0  0.53271351245E+02 -0.47035592536E+03 -0.28756395250E+03  0.55969873861E+03  0.80604701125E+02 0.  0.
      -24    2    3    3    0    0 -0.53271351245E+02  0.47035592536E+03 -0.68647721221E+03  0.83774598911E+03  0.80590607435E+02 0.  0.
      -13    1    4    4    0    0  0.37931392281E+02 -0.88289353502E+02 -0.39422128515E+02  0.10386483851E+03  0.00000000000E+00 0.  1.
       14    1    4    4    0    0  0.15339958963E+02 -0.38206657186E+03 -0.24814182399E+03  0.45583390010E+03  0.00000000000E+00 0. -1.
        3    1    5    5  501    0  0.15207616211E+01  0.21296191255E+03 -0.25372115439E+03  0.33125445370E+03  0.00000000000E+00 0. -1.
       -4    1    5    5    0  501 -0.54792112866E+02  0.25739401281E+03 -0.43275605782E+03  0.50649153541E+03  0.14200000000E+01 0.  1.
</event>
<event>
 9   1  0.7335000E-04  0.1006350E+04  0.7818608E-02  0.9301607E-01
       21   -1    0    0  503  502  0.00000000000E+00  0.00000000000E+00  0.17659594376E+03  0.17659594376E+03  0.00000000000E+00 0. -1.
       21   -1    0    0  502  503 -0.00000000000E+00 -0.00000000000E+00 -0.14336975743E+04  0.14336975743E+04  0.00000000000E+00 0.  1.
       39    2    1    2    0    0 -0.28421709430E-13  0.00000000000E+00 -0.12571016305E+04  0.16102935180E+04  0.10063501899E+04 0.  0.
       24    2    3    3    0    0  0.11503596390E+03 -0.30438128716E+03 -0.12293560847E+04  0.12741530593E+04  0.79173193718E+02 0.  0.
      -24    2    3    3    0    0 -0.11503596390E+03  0.30438128716E+03 -0.27745545824E+02  0.33614045873E+03  0.79620045975E+02 0.  0.
      -13    1    4    4    0    0  0.86338287711E+02 -0.18703731771E+03 -0.90182965404E+03  0.92505890788E+03  0.00000000000E+00 0.  1.
       14    1    4    4    0    0  0.28697676188E+02 -0.11734396944E+03 -0.32752643067E+03  0.34909415144E+03  0.00000000000E+00 0. -1.
        1    1    5    5  501    0 -0.93863479010E+02  0.20323236854E+03  0.14876756635E+02  0.22435477753E+03  0.00000000000E+00 0. -1.
       -2    1    5    5    0  501 -0.21172484889E+02  0.10114891862E+03 -0.42622302459E+02  0.11178568120E+03  0.00000000000E+00 0.  1.
</event>
<event>
 9   1  0.7335000E-04  0.1024236E+04  0.7818608E-02  0.9282355E-01
       21   -1    0    0  503  502  0.00000000000E+00  0.00000000000E+00  0.12576103363E+04  0.12576103363E+04  0.00000000000E+00 0.  1.
       21   -1    0    0  502  503 -0.00000000000E+00 -0.00000000000E+00 -0.20854241569E+03  0.20854241569E+03  0.00000000000E+00 0. -1.
       39    2    1    2    0    0 -0.56843418861E-13  0.71054273576E-14  0.10490679207E+04  0.14661527520E+04  0.10242364913E+04 0.  0.
       24    2    3    3    0    0  0.25123544508E+03 -0.40018240374E+02 -0.10097704625E+03  0.28526544128E+03  0.80369768544E+02 0.  0.
      -24    2    3    3    0    0 -0.25123544508E+03  0.40018240374E+02  0.11500449669E+04  0.11808873107E+04  0.84680023407E+02 0.  0.
      -13    1    4    4    0    0  0.70005447586E+02  0.22161484308E+02 -0.13584201964E+02  0.74675461976E+02  0.00000000000E+00 0.  1.
       14    1    4    4    0    0  0.18122999749E+03 -0.62179724682E+02 -0.87392844286E+02  0.21058997931E+03  0.00000000000E+00 0. -1.
        3    1    5    5  501    0 -0.12562732366E+03 -0.94194280838E+01  0.69158645127E+03  0.70296711847E+03  0.00000000000E+00 0. -1.
       -4    1    5    5    0  501 -0.12560812141E+03  0.49437668458E+02  0.45845851564E+03  0.47792019228E+03  0.14200000000E+01 0.  1.
</event>
<event>
 9   1  0.7335000E-04  0.9633371E+03  0.7818608E-02  0.9349696E-01
       -2   -1    0    0    0  501 -0.00000000000E+00  0.00000000000E+00  0.26121232176E+03  0.26121232176E+03  0.00000000000E+00 0.  1.
        2   -1    0    0  501    0  0.00000000000E+00 -0.00000000000E+00 -0.88818387546E+03  0.88818387546E+03  0.00000000000E+00 0. -1.
       39    2    1    2    0    0  0.56843418861E-13  0.00000000000E+00 -0.62697155370E+03  0.11493961972E+04  0.96333705889E+03 0.  0.
       24    2    3    3    0    0  0.35855483992E+03  0.28521287807E+03 -0.16478344446E+03  0.49374683408E+03  0.82002399644E+02 0.  0.
      -24    2    3    3    0    0 -0.35855483992E+03 -0.28521287807E+03 -0.46218810924E+03  0.65564936314E+03  0.79688644186E+02 0.  0.
      -13    1    4    4    0    0  0.33785554661E+03  0.25061458668E+03 -0.12941975064E+03  0.44011761301E+03  0.00000000000E+00 0.  1.
       14    1    4    4    0    0  0.20699293306E+02  0.34598291398E+02 -0.35363693826E+02  0.53629221065E+02  0.00000000000E+00 0. -1.
        1    1    5    5  502    0 -0.32093955020E+03 -0.23630861027E+03 -0.42910994930E+03  0.58564434835E+03  0.00000000000E+00 0. -1.
       -2    1    5    5    0  502 -0.37615289715E+02 -0.48904267801E+02 -0.33078159939E+02  0.70005014781E+02  0.00000000000E+00 0.  1.
</event>
<event>
 9   1  0.7335000E-04  0.9982976E+03  0.7818608E-02  0.9310414E-01
       21   -1    0    0  503  502  0.00000000000E+00  0.00000000000E+00  0.57915941065E+03  0.57915941065E+03  0.00000000000E+00 0. -1.
       21   -1    0    0  502  503 -0.00000000000E+00 -0.00000000000E+00 -0.43019159324E+03  0.43019159324E+03  0.00000000000E+00 0.  1.
       39    2    1    2    0    0 -0.28421709430E-13  0.00000000000E+00  0.14896781740E+03  0.10093510039E+04  0.99829757008E+03 0.  0.
       24    2    3    3    0    0 -0.18191610150E+03 -0.37681301076E+03 -0.18878105473E+03  0.46622552048E+03  0.81525678505E+02 0.  0.
      -24    2    3    3    0    0  0.18191610150E+03  0.37681301076E+03  0.33774887213E+03  0.54312548341E+03  0.76351012053E+02 0.  0.
      -13    1    4    4    0    0 -0.12322373179E+03 -0.32239395245E+03 -0.16613782168E+03  0.38304532949E+03  0.00000000000E+00 0.  1.
       14    1    4    4    0    0 -0.58692369706E+02 -0.54419058310E+02 -0.22643233048E+02  0.83180190983E+02  0.00000000000E+00 0. -1.
        1    1    5    5  501    0  0.45825445195E+02  0.61111768661E+02  0.31178930825E+02  0.82503002513E+02  0.00000000000E+00 0. -1.
       -2    1    5    5    0  501  0.13609065630E+03  0.31570124210E+03  0.30656994131E+03  0.46062248090E+03  0.00000000000E+00 0.  1.
</event>
<event>
 9   1  0.7335000E-04  0.9991612E+03  0.7818608E-02  0.9309465E-01
       21   -1    0    0  503  502  0.00000000000E+00  0.00000000000E+00  0.42258100716E+03  0.42258100716E+03  0.00000000000E+00 0.  1.
       21   -1    0    0  502  503 -0.00000000000E+00 -0.00000000000E+00 -0.59061047748E+03  0.59061047748E+03  0.00000000000E+00 0. -1.
       39    2    1    2    0    0  0.00000000000E+00  0.00000000000E+00 -0.16802947032E+03  0.10131914846E+04  0.99916118902E+03 0.  0.
       24    2    3    3    0    0  0.12811625152E+03  0.31419556239E+03  0.27848295902E+03  0.44666574234E+03  0.82612962569E+02 0.  0.
      -24    2    3    3    0    0 -0.12811625152E+03 -0.31419556239E+03 -0.44651242934E+03  0.56652574230E+03  0.80283508900E+02 0.  0.
      -13    1    4    4    0    0  0.96995261553E+02  0.27914016435E+03  0.26731381275E+03  0.39847708416E+03  0.00000000000E+00 0.  1.
       14    1    4    4    0    0  0.31120989970E+02  0.35055398034E+02  0.11169146275E+02  0.48188658174E+02  0.00000000000E+00 0. -1.
        3    1    5    5  501    0 -0.11719934723E+03 -0.28107903844E+03 -0.35023316315E+03  0.46411677562E+03  0.00000000000E+00 0. -1.
       -4    1    5    5    0  501 -0.10916904291E+02 -0.33116523946E+02 -0.96279266187E+02  0.10240896667E+03  0.14200000000E+01 0.  1.
</event>
<event>
 9   1  0.7335000E-04  0.9957213E+03  0.7818608E-02  0.9313250E-01
       21   -1    0    0  503  502  0.00000000000E+00  0.00000000000E+00  0.65227286811E+03  0.65227286811E+03  0.00000000000E+00 0.  1.
       21   -1    0    0  502  503 -0.00000000000E+00 -0.00000000000E+00 -0.38000238491E+03  0.38000238491E+03  0.00000000000E+00 0. -1.
       39    2    1    2    0    0  0.00000000000E+00  0.00000000000E+00  0.27227048320E+03  0.10322752530E+04  0.99572133752E+03 0.  0.
       24    2    3    3    0    0  0.15762909863E+03 -0.45826784197E+03  0.53115426557E+02  0.49383311281E+03  0.78699091815E+02 0.  0.
      -24    2    3    3    0    0 -0.15762909863E+03  0.45826784197E+03  0.21915505665E+03  0.53844214021E+03  0.83872831004E+02 0.  0.
      -13    1    4    4    0    0  0.42152082225E+02 -0.23186546398E+03  0.42445530093E+02  0.23945775086E+03  0.00000000000E+00 0.  1.
       14    1    4    4    0    0  0.11547701641E+03 -0.22640237800E+03  0.10669896464E+02  0.25437536196E+03  0.00000000000E+00 0. -1.
        3    1    5    5  501    0 -0.10519791085E+03  0.18667532519E+03  0.11219398348E+03  0.24187138610E+03  0.00000000000E+00 0. -1.
       -4    1    5    5    0  501 -0.52431187777E+02  0.27159251678E+03  0.10696107316E+03  0.29657075411E+03  0.14200000000E+01 0.  1.
</event>
<event>
 9   1  0.7335000E-04  0.1005375E+04  0.7818608E-02  0.9302669E-01
       -2   -1    0    0    0  501 -0.00000000000E+00  0.00000000000E+00  0.71468898804E+02  0.71468898804E+02  0.00000000000E+00 0. -1.
        2   -1    0    0  501    0  0.00000000000E+00 -0.00000000000E+00 -0.35357325625E+04  0.35357325625E+04  0.00000000000E+00 0.  1.
       39    2    1    2    0    0  0.00000000000E+00  0.00000000000E+00 -0.34642636637E+04  0.36072014613E+04  0.10053753781E+04 0.  0.
       24    2    3    3    0    0 -0.65922458718E+02  0.13142704368E+03 -0.34322756836E+04  0.34363540414E+04  0.79961812494E+02 0.  0.
      -24    2    3    3    0    0  0.65922458718E+02 -0.13142704368E+03 -0.31987980061E+02  0.17084741984E+03  0.80912122845E+02 0.  0.
      -13    1    4    4    0    0 -0.35090534689E+02  0.12919991987E+03 -0.29924677554E+04  0.29954611051E+04  0.00000000000E+00 0.  1.
       14    1    4    4    0    0 -0.30831924029E+02  0.22271238054E+01 -0.43980792820E+03  0.44089293636E+03  0.00000000000E+00 0. -1.
        3    1    5    5  502    0  0.47574773776E+02 -0.10972041976E+03 -0.57438710700E+02  0.13266926961E+03  0.00000000000E+00 0. -1.
       -4    1    5    5    0  502  0.18347684942E+02 -0.21706623917E+02  0.25450730639E+02  0.38178150226E+02  0.14200000000E+01 0.  1.
</event>
<event>
 9   1  0.7335000E-04  0.1000084E+04  0.7818608E-02  0.9308453E-01
       21   -1    0    0  503  502  0.00000000000E+00  0.00000000000E+00  0.11814095515E+04  0.11814095515E+04  0.00000000000E+00 0. -1.
       21   -1    0    0  502  503 -0.00000000000E+00 -0.00000000000E+00 -0.21164720473E+03  0.21164720473E+03  0.00000000000E+00 0.  1.
       39    2    1    2    0    0 -0.56843418861E-13  0.00000000000E+00  0.96976234681E+03  0.13930567563E+04  0.10000840549E+04 0.  0.
       24    2    3    3    0    0 -0.38531404076E+03  0.26488665978E+03  0.70404418688E+03  0.84915177747E+03  0.82150298662E+02 0.  0.
      -24    2    3    3    0    0  0.38531404076E+03 -0.26488665978E+03  0.26571815993E+03  0.54390497880E+03  0.81207345156E+02 0.  0.
      -13    1    4    4    0    0 -0.68876627199E+02  0.47220131242E+02  0.18938586102E+03  0.20698003508E+03  0.00000000000E+00 0.  1.
       14    1    4    4    0    0 -0.31643741356E+03  0.21766652854E+03  0.51465832586E+03  0.64217174239E+03  0.00000000000E+00 0. -1.
        3    1    5    5  501    0  0.17564066365E+03 -0.11826040137E+03  0.74429267333E+02  0.22444349198E+03  0.00000000000E+00 0. -1.
       -4    1    5    5    0  501  0.20967337712E+03 -0.14662625841E+03  0.19128889260E+03  0.31946148682E+03  0.14200000000E+01 0.  1.
</event>
<event>
 9   1  0.7335000E-04  0.9725372E+03  0.7818608E-02  0.9339189E-01
       21   -1    0    0  503  502  0.00000000000E+00  0.00000000000E+00  0.93860984255E+03  0.93860984255E+03  0.00000000000E+00 0.  1.
       21   -1    0    0  502  503 -0.00000000000E+00 -0.00000000000E+00 -0.25192273170E+03  0.25192273170E+03  0.00000000000E+00 0. -1.
       39    2    1    2    0    0 -0.26645352591E-14 -0.14210854715E-13  0.68668711086E+03  0.11905325742E+04  0.97253720861E+03 0.  0.
       24    2    3    3    0    0 -0.56947682018E+01 -0.96074825679E+02  0.91866273863E+03  0.92637148426E+03  0.70427956095E+02 0.  0.
      -24    2    3    3    0    0  0.56947682018E+01  0.96074825679E+02 -0.23197562777E+03  0.26416108999E+03  0.81887649060E+02 0.  0.
      -13    1    4    4    0    0 -0.21518354070E+02 -0.10005583822E+03  0.75687455267E+03  0.76376259322E+03  0.00000000000E+00 0.  1.
       14    1    4    4    0    0  0.15823585868E+02  0.39810125441E+01  0.16178818595E+03  0.16260889104E+03  0.00000000000E+00 0. -1.
        3    1    5    5  501    0 -0.75172042171E+01  0.76633369534E+02 -0.22751695277E+03  0.24019397470E+03  0.00000000000E+00 0. -1.
       -4    1    5    5    0  501  0.13211972419E+02  0.19441456145E+02 -0.44586750005E+01  0.23967115283E+02  0.14200000000E+01 0.  1.
</event>
<event>
 9   1  0.7335000E-04  0.1000034E+04  0.7818608E-02  0.9308508E-01
       21   -1    0    0  503  502  0.00000000000E+00  0.00000000000E+00  0.23696366849E+04  0.23696366849E+04  0.00000000000E+00 0.  1.
       21   -1    0    0  502  503 -0.00000000000E+00 -0.00000000000E+00 -0.10550851677E+03  0.10550851677E+03  0.00000000000E+00 0. -1.
       39    2    1    2    0    0  0.00000000000E+00  0.14210854715E-13  0.22641281682E+04  0.24751452017E+04  0.10000337033E+04 0.  0.
       24    2    3    3    0    0 -0.35493131191E+03  0.99625803777E+02  0.32183276389E+03  0.49657833221E+03  0.84333713039E+02 0.  0.
      -24    2    3    3    0    0  0.35493131191E+03 -0.99625803777E+02  0.19422954043E+04  0.19785668695E+04  0.79459943768E+02 0.  0.
      -13    1    4    4    0    0 -0.23339113774E+03  0.40716684391E+02  0.24663676340E+03  0.34199263826E+03  0.00000000000E+00 0.  1.
       14    1    4    4    0    0 -0.12154017417E+03  0.58909119386E+02  0.75196000487E+02  0.15458569395E+03  0.00000000000E+00 0. -1.
        1    1    5    5  501    0  0.11944589054E+03 -0.25124794897E+02  0.46429349854E+03  0.48006981666E+03  0.00000000000E+00 0. -1.
       -2    1    5    5    0  501  0.23548542137E+03 -0.74501008880E+02  0.14780019057E+04  0.14984970528E+04  0.00000000000E+00 0.  1.
</event>
<event>
 9   1  0.7335000E-04  0.1014165E+04  0.7818608E-02  0.9293144E-01
       21   -1    0    0  503  502  0.00000000000E+00  0.00000000000E+00  0.91352371408E+03  0.91352371408E+03  0.00000000000E+00 0. -1.
       21   -1    0    0  502  503 -0.00000000000E+00 -0.00000000000E+00 -0.28147336747E+03  0.28147336747E+03  0.00000000000E+00 0.  1.
       39    2    1    2    0    0  0.28421709430E-13  0.28421709430E-13  0.63205034661E+03  0.11949970816E+04  0.10141648704E+04 0.  0.
       24    2    3    3    0    0 -0.13141912421E+03 -0.22701761043E+03 -0.18686805982E+03  0.33126162691E+03  0.77502335627E+02 0.  0.
      -24    2    3    3    0    0  0.13141912421E+03  0.22701761043E+03  0.81891840643E+03  0.86373545465E+03  0.81262522586E+02 0.  0.
      -13    1    4    4    0    0 -0.16003518689E+02 -0.56020703737E+02 -0.79872516728E+02  0.98863799169E+02  0.00000000000E+00 0.  1.
       14    1    4    4    0    0 -0.11541560552E+03 -0.17099690669E+03 -0.10699554309E+03  0.23239782774E+03  0.00000000000E+00 0. -1.
        3    1    5    5  501    0  0.80210684283E+02  0.10758729709E+03  0.29749334384E+03  0.32636033766E+03  0.00000000000E+00 0. -1.
       -4    1    5    5    0  501  0.51208439928E+02  0.11943031334E+03  0.52142506258E+03  0.53737511699E+03  0.14200000000E+01 0.  1.
</event>
<event>
 9   1  0.7335000E-04  0.1001080E+04  0.7818608E-02  0.9307361E-01
       21   -1    0    0  503  502  0.00000000000E+00  0.00000000000E+00  0.16519532571E+03  0.16519532571E+03  0.00000000000E+00 0. -1.
       21   -1    0    0  502  503 -0.00000000000E+00 -0.00000000000E+00 -0.15166314948E+04  0.15166314948E+04  0.00000000000E+00 0.  1.
       39    2    1    2    0    0 -0.28421709430E-13 -0.56843418861E-13 -0.13514361691E+04  0.16818268205E+04  0.10010802840E+04 0.  0.
       24    2    3    3    0    0 -0.22266064297E+03  0.30308746693E+03 -0.12145665155E+04  0.12739575933E+04  0.79726748575E+02 0.  0.
      -24    2    3    3    0    0  0.22266064297E+03 -0.30308746693E+03 -0.13686965366E+03  0.40786922727E+03  0.78639874901E+02 0.  0.
      -13    1    4    4    0    0 -0.11996640949E+03  0.17780323347E+03 -0.56076371070E+03  0.60038476702E+03  0.00000000000E+00 0.  1.
       14    1    4    4    0    0 -0.10269423348E+03  0.12528423346E+03 -0.65380280477E+03  0.67357282625E+03  0.00000000000E+00 0. -1.
        1    1    5    5  501    0  0.18855919763E+03 -0.25290084589E+03 -0.81709804543E+02  0.32586791960E+03  0.00000000000E+00 0. -1.
       -2    1    5    5    0  501  0.34101445340E+02 -0.50186621034E+02 -0.55159849121E+02  0.82001307673E+02  0.00000000000E+00 0.  1.
</event>
<event>
 9   1  0.7335000E-04  0.1001464E+04  0.7818608E-02  0.9306940E-01
       21   -1    0    0  503  502  0.00000000000E+00  0.00000000000E+00  0.10376200813E+04  0.10376200813E+04  0.00000000000E+00 0.  1.
       21   -1    0    0  502  503 -0.00000000000E+00 -0.00000000000E+00 -0.24164216946E+03  0.24164216946E+03  0.00000000000E+00 0. -1.
       39    2    1    2    0    0 -0.56843418861E-13  0.00000000000E+00  0.79597791184E+03  0.12792622508E+04  0.10014644627E+04 0.  0.
       24    2    3    3    0    0 -0.18641603436E+03  0.34005842677E+03  0.78903514381E+03  0.88306696757E+03  0.82705136260E+02 0.  0.
      -24    2    3    3    0    0  0.18641603436E+03 -0.34005842677E+03  0.69427680291E+01  0.39619528319E+03  0.80819730923E+02 0.  0.
      -13    1    4    4    0    0 -0.17314294538E+03  0.34043342267E+03  0.74688231992E+03  0.83887221590E+03  0.00000000000E+00 0.  1.
       14    1    4    4    0    0 -0.13273088987E+02 -0.37499589963E+00  0.42152823891E+02  0.44194751670E+02  0.00000000000E+00 0. -1.
        1    1    5    5  501    0  0.18111265266E+03 -0.33417619443E+03  0.20327881027E+02  0.38064254180E+03  0.00000000000E+00 0. -1.
       -2    1    5    5    0  501  0.53033816986E+01 -0.58822323386E+01 -0.13385112998E+02  0.15552741388E+02  0.00000000000E+00 0.  1.
</event>
<event>
 9   1  0.7335000E-04  0.9939604E+03  0.7818608E-02  0.9315194E-01
       21   -1    0    0  503  502  0.00000000000E+00  0.00000000000E+00  0.25447521400E+03  0.25447521400E+03  0.00000000000E+00 0.  1.
       21   -1    0    0  502  503 -0.00000000000E+00 -0.00000000000E+00 -0.97058309121E+03  0.97058309121E+03  0.00000000000E+00 0. -1.
       39    2    1    2    0    0  0.00000000000E+00  0.11368683772E-12 -0.71610787720E+03  0.12250583052E+04  0.99396044155E+03 0.  0.
       24    2    3    3    0    0 -0.27296526267E+03  0.34666709758E+03 -0.62318287331E+03  0.76764577128E+03  0.78962177007E+02 0.  0.
      -24    2    3    3    0    0  0.27296526267E+03 -0.34666709758E+03 -0.92925003890E+02  0.45741253393E+03  0.76831365189E+02 0.  0.
      -13    1    4    4    0    0 -0.77952283672E+02  0.14280834670E+03 -0.27490767213E+03  0.31944484753E+03  0.00000000000E+00 0.  1.
       14    1    4    4    0    0 -0.19501297900E+03  0.20385875089E+03 -0.34827520118E+03  0.44820092375E+03  0.00000000000E+00 0. -1.
        3    1    5    5  501    0  0.79187932053E+01 -0.45159122851E+02 -0.25458058533E+01  0.45918784718E+02  0.00000000000E+00 0. -1.
       -4    1    5    5    0  501  0.26504646947E+03 -0.30150797473E+03 -0.90379198037E+02  0.41149374921E+03  0.14200000000E+01 0.  1.
</event>
<event>
 9   1  0.7335000E-04  0.1035052E+04  0.7818608E-02  0.9270914E-01
       21   -1    0    0  503  502  0.00000000000E+00  0.00000000000E+00  0.68199811809E+03  0.68199811809E+03  0.00000000000E+00 0.  1.
       21   -1    0    0  502  503 -0.00000000000E+00 -0.00000000000E+00 -0.39271838459E+03  0.39271838459E+03  0.00000000000E+00 0. -1.
       39    2    1    2    0    0 -0.28421709430E-13  0.00000000000E+00  0.28927973350E+03  0.10747165027E+04  0.10350520745E+04 0.  0.
       24    2    3    3    0    0 -0.66336217540E+02  0.16542049097E+03  0.64187359475E+03  0.67124720339E+03  0.82502508029E+02 0.  0.
      -24    2    3    3    0    0  0.66336217540E+02 -0.16542049097E+03 -0.35259386124E+03  0.40346929930E+03  0.81857265388E+02 0.  0.
      -13    1    4    4    0    0 -0.79200427105E+02  0.15929975483E+03  0.62096704627E+03  0.64594828903E+03  0.00000000000E+00 0.  1.
       14    1    4    4    0    0  0.12864209565E+02  0.61207361379E+01  0.20906548478E+02  0.25298914361E+02  0.00000000000E+00 0. -1.
        3    1    5    5  501    0  0.34201096873E+02 -0.12286086176E+03 -0.30998399002E+03  0.33519334786E+03  0.00000000000E+00 0. -1.
       -4    1    5    5    0  501  0.32135120667E+02 -0.42559629210E+02 -0.42609871220E+02  0.68275951433E+02  0.14200000000E+01 0.  1.
</event>
<event>
 9   1  0.7335000E-04  0.1001970E+04  0.7818608E-02  0.9306386E-01
       21   -1    0    0  503  502  0.00000000000E+00  0.00000000000E+00  0.13683330767E+03  0.13683330767E+03  0.00000000000E+00 0. -1.
       21   -1    0    0  502  503 -0.00000000000E+00 -0.00000000000E+00 -0.18342472753E+04  0.18342472753E+04  0.00000000000E+00 0.  1.
       39    2    1    2    0    0 -0.14210854715E-13  0.28421709430E-13 -0.16974139676E+04  0.19710805829E+04  0.10019703025E+04 0.  0.
       24    2    3    3    0    0 -0.11005622598E+03  0.13085519152E+03  0.65056739509E+02  0.19847954239E+03  0.76982435438E+02 0.  0.
      -24    2    3    3    0    0  0.11005622598E+03 -0.13085519152E+03 -0.17624707071E+04  0.17726010405E+04  0.81092549035E+02 0.  0.
      -13    1    4    4    0    0 -0.95274682890E+01  0.62442734273E+02  0.38632037739E+02  0.74042569211E+02  0.00000000000E+00 0.  1.
       14    1    4    4    0    0 -0.10052875769E+03  0.68412457245E+02  0.26424701770E+02  0.12443697318E+03  0.00000000000E+00 0. -1.
        1    1    5    5  501    0  0.93967062012E+01  0.56770495510E+01 -0.31886854640E+02  0.33723856213E+02  0.00000000000E+00 0. -1.
       -2    1    5    5    0  501  0.10065951978E+03 -0.13653224107E+03 -0.17305838525E+04  0.17388771843E+04  0.00000000000E+00 0.  1.
</event>
<event>
 9   1  0.7335000E-04  0.9944516E+03  0.7818608E-02  0.9314651E-01
       -2   -1    0    0    0  501 -0.00000000000E+00  0.00000000000E+00  0.19909669968E+03  0.19909669968E+03  0.00000000000E+00 0. -1.
        2   -1    0    0  501    0  0.00000000000E+00 -0.00000000000E+00 -0.12417759609E+04  0.12417759609E+04  0.00000000000E+00 0.  1.
       39    2    1    2    0    0 -0.11368683772E-12 -0.14210854715E-13 -0.10426792612E+04  0.14408726606E+04  0.99445159873E+03 0.  0.
       24    2    3    3    0    0 -0.48164872869E+03 -0.61428796822E+02 -0.41851218516E+03  0.64610259538E+03  0.80852456348E+02 0.  0.
      -24    2    3    3    0    0  0.48164872869E+03  0.61428796822E+02 -0.62416707602E+03  0.79477006517E+03  0.79472780067E+02 0.  0.
      -13    1    4    4    0    0 -0.21729398842E+03 -0.43776517183E+02 -0.14252361818E+03  0.26352617062E+03  0.00000000000E+00 0.  1.
       14    1    4    4    0    0 -0.26435474027E+03 -0.17652279639E+02 -0.27598856698E+03  0.38257642476E+03  0.00000000000E+00 0. -1.
        1    1    5    5  502    0  0.62850697923E+01 -0.86795909425E+01 -0.78883157223E+01  0.13306499395E+02  0.00000000000E+00 0. -1.
       -2    1    5    5    0  502  0.47536365890E+03  0.70108387764E+02 -0.61627876030E+03  0.78146356578E+03  0.00000000000E+00 0.  1.
</event>
<event>
 9   1  0.7335000E-04  0.9998380E+03  0.7818608E-02  0.9308723E-01
       21   -1    0    0  503  502  0.00000000000E+00  0.00000000000E+00  0.30535243833E+03  0.30535243833E+03  0.00000000000E+00 0. -1.
       21   -1    0    0  502  503 -0.00000000000E+00 -0.00000000000E+00 -0.81846080619E+03  0.81846080619E+03  0.00000000000E+00 0.  1.
       39    2    1    2    0    0  0.00000000000E+00  0.00000000000E+00 -0.51310836786E+03  0.11238132445E+04  0.99983799256E+03 0.  0.
       24    2    3    3    0    0  0.74238994139E+02 -0.11435798337E+03  0.27600741850E+03  0.31903086505E+03  0.83734229414E+02 0.  0.
      -24    2    3    3    0    0 -0.74238994139E+02  0.11435798337E+03 -0.78911578636E+03  0.80478237947E+03  0.79886027655E+02 0.  0.
      -13    1    4    4    0    0 -0.37983487147E+00  0.87357131990E+01  0.12259301628E+01  0.88294883424E+01  0.00000000000E+00 0.  1.
       14    1    4    4    0    0  0.74618829010E+02 -0.12309369657E+03  0.27478148833E+03  0.31020137670E+03  0.00000000000E+00 0. -1.
        1    1    5    5  501    0 -0.59957530828E+02  0.20926179280E+02 -0.31603926385E+03  0.32235636612E+03  0.00000000000E+00 0. -1.
       -2    1    5    5    0  501 -0.14281463311E+02  0.93431804090E+02 -0.47307652250E+03  0.48242601334E+03  0.00000000000E+00 0.  1.
</event>
<event>
 9   1  0.7335000E-04  0.1002059E+04  0.7818608E-02  0.9306290E-01
       21   -1    0    0  503  502  0.00000000000E+00  0.00000000000E+00  0.38099685915E+03  0.38099685915E+03  0.00000000000E+00 0.  1.
       21   -1    0    0  502  503 -0.00000000000E+00 -0.00000000000E+00 -0.65887805708E+03  0.65887805708E+03  0.00000000000E+00 0. -1.
       39    2    1    2    0    0  0.00000000000E+00  0.00000000000E+00 -0.27788119793E+03  0.10398749162E+04  0.10020588212E+04 0.  0.
       24    2    3    3    0    0 -0.48662377656E+02 -0.58465449748E+02 -0.64619047885E+03  0.65571941543E+03  0.81360807500E+02 0.  0.
      -24    2    3    3    0    0  0.48662377656E+02  0.58465449748E+02  0.36830928092E+03  0.38415550080E+03  0.78342112342E+02 0.  0.
      -13    1    4    4    0    0 -0.22137125451E+02 -0.70728245678E+02 -0.33192218037E+03  0.34009538497E+03  0.00000000000E+00 0.  1.
       14    1    4    4    0    0 -0.26525252205E+02  0.12262795929E+02 -0.31426829849E+03  0.31562403046E+03  0.00000000000E+00 0. -1.
        3    1    5    5  501    0  0.38508798381E+02  0.12747192216E+01  0.66943070164E+02  0.77239414193E+02  0.00000000000E+00 0. -1.
       -4    1    5    5    0  501  0.10153579276E+02  0.57190730527E+02  0.30136621076E+03  0.30691608660E+03  0.14200000000E+01 0.  1.
</event>
<event>
 9   1  0.7335000E-04  0.9944258E+03  0.7818608E-02  0.9314680E-01
       21   -1    0    0  503  502  0.00000000000E+00  0.00000000000E+00  0.10474519325E+04  0.10474519325E+04  0.00000000000E+00 0.  1.
       21   -1    0    0  502  503 -0.00000000000E+00 -0.00000000000E+00 -0.23602099369E+03  0.23602099369E+03  0.00000000000E+00 0. -1.
       39    2    1    2    0    0 -0.56843418861E-13  0.71054273576E-14  0.81143093879E+03  0.12834729262E+04  0.99442575579E+03 0.  0.
       24    2    3    3    0    0 -0.47782162742E+03  0.59748279184E+02  0.52839085122E+03  0.71902473288E+03  0.76917555459E+02 0.  0.
      -24    2    3    3    0    0  0.47782162742E+03 -0.59748279184E+02  0.28304008757E+03  0.56444819329E+03  0.81281653747E+02 0.  0.
      -13    1    4    4    0    0 -0.41488957031E+03  0.31751569333E+02  0.42492678805E+03  0.59473043718E+03  0.00000000000E+00 0.  1.
       14    1    4    4    0    0 -0.62932057113E+02  0.27996709850E+02  0.10346406317E+03  0.12429429570E+03  0.00000000000E+00 0. -1.
        1    1    5    5  501    0  0.11957225312E+03 -0.48635021018E+02  0.89852826286E+02  0.15727815925E+03  0.00000000000E+00 0. -1.
       -2    1    5    5    0  501  0.35824937431E+03 -0.11113258165E+02  0.19318726129E+03  0.40717003404E+03  0.00000000000E+00 0.  1.
</event>
<event>
 9   1  0.7335000E-04  0.1003365E+04  0.7818608E-02  0.9304862E-01
       -2   -1    0    0    0  501 -0.00000000000E+00  0.00000000000E+00  0.12496849069E+03  0.12496849069E+03  0.00000000000E+00 0.  1.
        2   -1    0    0  501    0  0.00000000000E+00 -0.00000000000E+00 -0.20139911301E+04  0.20139911301E+04  0.00000000000E+00 0. -1.
       39    2    1    2    0    0  0.56843418861E-13 -0.14210854715E-13 -0.18890226394E+04  0.21389596208E+04  0.10033652013E+04 0.  0.
       24    2    3    3    0    0  0.47761231634E+03 -0.12719921634E+03 -0.10102077684E+04  0.11275743966E+04  0.81308788931E+02 0.  0.
      -24    2    3    3    0    0 -0.47761231634E+03  0.12719921634E+03 -0.87881487100E+03  0.10113852242E+04  0.79317897572E+02 0.  0.
      -13    1    4    4    0    0  0.10078258665E+03 -0.31642221793E+01 -0.15618589540E+03  0.18590636352E+03  0.00000000000E+00 0.  1.
       14    1    4    4    0    0  0.37682972968E+03 -0.12403499416E+03 -0.85402187297E+03  0.94166803305E+03  0.00000000000E+00 0. -1.
        3    1    5    5  502    0 -0.99281732314E+02  0.43554847424E+02 -0.13936398848E+03  0.17656785775E+03  0.00000000000E+00 0. -1.
       -4    1    5    5    0  502 -0.37833058402E+03  0.83644368917E+02 -0.73945088253E+03  0.83481736645E+03  0.14200000000E+01 0.  1.
</event>
<event>
 9   1  0.7335000E-04  0.1000616E+04  0.7818608E-02  0.9307869E-01
       21   -1    0    0  503  502  0.00000000000E+00  0.00000000000E+00  0.60522231688E+03  0.60522231688E+03  0.00000000000E+00 0.  1.
       21   -1    0    0  502  503 -0.00000000000E+00 -0.00000000000E+00 -0.41358060701E+03  0.41358060701E+03  0.00000000000E+00 0. -1.
       39    2    1    2    0    0  0.00000000000E+00  0.00000000000E+00  0.19164170987E+03  0.10188029239E+04  0.10006162365E+04 0.  0.
       24    2    3    3    0    0  0.18194975334E+03 -0.23263929898E+03  0.49847637126E+03  0.58494650339E+03  0.80355229805E+02 0.  0.
      -24    2    3    3    0    0 -0.18194975334E+03  0.23263929898E+03 -0.30683466139E+03  0.43385642049E+03  0.82807777428E+02 0.  0.
      -13    1    4    4    0    0  0.18749014598E+03 -0.20467801989E+03  0.45267876704E+03  0.53100255441E+03  0.00000000000E+00 0.  1.
       14    1    4    4    0    0 -0.55403926418E+01 -0.27961279099E+02  0.45797604216E+02  0.53943948978E+02  0.00000000000E+00 0. -1.
        1    1    5    5  501    0 -0.18117714644E+03  0.19491401395E+03 -0.24676172888E+03  0.36291594352E+03  0.00000000000E+00 0. -1.
       -2    1    5    5    0  501 -0.77260690116E+00  0.37725285035E+02 -0.60072932507E+02  0.70940476967E+02  0.00000000000E+00 0.  1.
</event>
<event>
 9   1  0.7335000E-04  0.1011753E+04  0.7818608E-02  0.9295747E-01
       21   -1    0    0  503  502  0.00000000000E+00  0.00000000000E+00  0.11303150669E+04  0.11303150669E+04  0.00000000000E+00 0. -1.
       21   -1    0    0  502  503 -0.00000000000E+00 -0.00000000000E+00 -0.22640694502E+03  0.22640694502E+03  0.00000000000E+00 0.  1.
       39    2    1    2    0    0  0.00000000000E+00  0.00000000000E+00  0.90390812187E+03  0.13567220119E+04  0.10117532925E+04 0.  0.
       24    2    3    3    0    0 -0.87689306282E+02 -0.78339268895E+02 -0.19929796996E+03  0.24443328964E+03  0.78749582644E+02 0.  0.
      -24    2    3    3    0    0  0.87689306282E+02  0.78339268895E+02  0.11032060918E+04  0.11122887223E+04  0.79347748418E+02 0.  0.
      -13    1    4    4    0    0 -0.83833970541E+02 -0.45250766533E+02 -0.18518875089E+03  0.20825618825E+03  0.00000000000E+00 0.  1.
       14    1    4    4    0    0 -0.38553357408E+01 -0.33088502362E+02 -0.14109219073E+02  0.36177101391E+02  0.00000000000E+00 0. -1.
        3    1    5    5  501    0  0.59223727618E+02  0.57950539136E+02  0.41500443249E+03  0.42319545589E+03  0.00000000000E+00 0. -1.
       -4    1    5    5    0  501  0.28465578664E+02  0.20388729759E+02  0.68820165935E+03  0.68909326640E+03  0.14200000000E+01 0.  1.
</event>
<event>
 9   1  0.7335000E-04  0.1016477E+04  0.7818608E-02  0.9290656E-01
       21   -1    0    0  503  502  0.00000000000E+00  0.00000000000E+00  0.21981295096E+03  0.21981295096E+03  0.00000000000E+00 0. -1.
       21   -1    0    0  502  503 -0.00000000000E+00 -0.00000000000E+00 -0.11751179857E+04  0.11751179857E+04  0.00000000000E+00 0.  1.
       39    2    1    2    0    0  0.00000000000E+00  0.14210854715E-13 -0.95530503473E+03  0.13949309367E+04  0.10164765657E+04 0.  0.
       24    2    3    3    0    0  0.39257522513E+03  0.34551565835E+02 -0.90411427728E+03  0.98949144328E+03  0.79759462502E+02 0.  0.
      -24    2    3    3    0    0 -0.39257522513E+03 -0.34551565835E+02 -0.51190757455E+02  0.40543949338E+03  0.80321672383E+02 0.  0.
      -13    1    4    4    0    0  0.37884736185E+03  0.36388896726E+02 -0.81718752311E+03  0.90146820428E+03  0.00000000000E+00 0.  1.
       14    1    4    4    0    0  0.13727863272E+02 -0.18373308915E+01 -0.86926754165E+02  0.88023239002E+02  0.00000000000E+00 0. -1.
        3    1    5    5  501    0 -0.24718782399E+03  0.43337119378E+01 -0.24448145325E+01  0.24723789860E+03  0.00000000000E+00 0. -1.
       -4    1    5    5    0  501 -0.14538740114E+03 -0.38885277773E+02 -0.48745942923E+02  0.15820159477E+03  0.14200000000E+01 0.  1.
</event>
<event>
 9   1  0.7335000E-04  0.9931242E+03  0.7818608E-02  0.9316118E-01
        1   -1    0    0  501    0  0.00000000000E+00  0.00000000000E+00  0.42494985765E+03  0.42494985765E+03  0.00000000000E+00 0.  1.
       -1   -1    0    0    0  501 -0.00000000000E+00 -0.00000000000E+00 -0.58024237606E+03  0.58024237606E+03  0.00000000000E+00 0. -1.
       39    2    1    2    0    0  0.00000000000E+00  0.00000000000E+00 -0.15529251841E+03  0.10051922337E+04  0.99312419186E+03 0.  0.
       24    2    3    3    0    0  0.66592150359E+02  0.45594300399E+03 -0.24684780759E+03  0.52856527668E+03  0.78287126788E+02 0.  0.
      -24    2    3    3    0    0 -0.66592150359E+02 -0.45594300399E+03  0.91555289185E+02  0.47662695704E+03  0.80450903178E+02 0.  0.
      -13    1    4    4    0    0  0.53345841716E+02  0.38536402893E+03 -0.17368582874E+03  0.42604927031E+03  0.00000000000E+00 0.  1.
       14    1    4    4    0    0  0.13246308644E+02  0.70578975054E+02 -0.73161978853E+02  0.10251600637E+03  0.00000000000E+00 0. -1.
        3    1    5    5  502    0 -0.74364291149E+01 -0.30938123125E+03  0.53610685740E+02  0.31407985028E+03  0.00000000000E+00 0. -1.
       -4    1    5    5    0  502 -0.59155721244E+02 -0.14656177274E+03  0.37944603445E+02  0.16254710676E+03  0.14200000000E+01 0.  1.
</event>
<event>
 9   1  0.7335000E-04  0.9909122E+03  0.7818608E-02  0.9318569E-01
       21   -1    0    0  503  502  0.00000000000E+00  0.00000000000E+00  0.23875482477E+04  0.23875482477E+04  0.00000000000E+00 0. -1.
       21   -1    0    0  502  503 -0.00000000000E+00 -0.00000000000E+00 -0.10281539995E+03  0.10281539995E+03  0.00000000000E+00 0.  1.
       39    2    1    2    0    0  0.00000000000E+00 -0.14210854715E-13  0.22847328478E+04  0.24903636477E+04  0.99091216159E+03 0.  0.
       24    2    3    3    0    0  0.34869921272E+03  0.87369645298E+02  0.19741394739E+04  0.20083619413E+04  0.84062053099E+02 0.  0.
      -24    2    3    3    0    0 -0.34869921272E+03 -0.87369645298E+02  0.31059337388E+03  0.48200170643E+03  0.81442036056E+02 0.  0.
      -13    1    4    4    0    0  0.34819958740E+02 -0.15420121525E+02  0.16682521268E+03  0.17111651370E+03  0.00000000000E+00 0.  1.
       14    1    4    4    0    0  0.31387925398E+03  0.10278976682E+03  0.18073142612E+04  0.18372454276E+04  0.00000000000E+00 0. -1.
        3    1    5    5  501    0 -0.12927701966E+03 -0.56191480685E+02  0.79615720285E+02  0.16189099181E+03  0.00000000000E+00 0. -1.
       -4    1    5    5    0  501 -0.21942219306E+03 -0.31178164613E+02  0.23097765359E+03  0.32011071462E+03  0.14200000000E+01 0.  1.
</event>
<event>
 9   1  0.7335000E-04  0.1045754E+04  0.7818608E-02  0.9259739E-01
       21   -1    0    0  503  502  0.00000000000E+00  0.00000000000E+00  0.41419444025E+03  0.41419444025E+03  0.00000000000E+00 0.  1.
       21   -1    0    0  502  503 -0.00000000000E+00 -0.00000000000E+00 -0.66007678809E+03  0.66007678809E+03  0.00000000000E+00 0. -1.
       39    2    1    2    0    0 -0.56843418861E-13  0.28421709430E-13 -0.24588234784E+03  0.10742712283E+04  0.10457535766E+04 0.  0.
       24    2    3    3    0    0 -0.47640719802E+03  0.19380295123E+03 -0.17309317968E+03  0.54861872141E+03  0.80609245121E+02 0.  0.
      -24    2    3    3    0    0  0.47640719802E+03 -0.19380295123E+03 -0.72789168156E+02  0.52565250692E+03  0.80553664107E+02 0.  0.
      -13    1    4    4    0    0 -0.45380881952E+03  0.18321242451E+03 -0.14369616557E+03  0.51005668820E+03  0.00000000000E+00 0.  1.
       14    1    4    4    0    0 -0.22598378494E+02  0.10590526718E+02 -0.29397014116E+02  0.38562033214E+02  0.00000000000E+00 0. -1.
        3    1    5    5  501    0  0.29679724893E+03 -0.13591162885E+03 -0.93834461415E+01  0.32657101355E+03  0.00000000000E+00 0. -1.
       -4    1    5    5    0  501  0.17960994909E+03 -0.57891322379E+02 -0.63405722014E+02  0.19908149337E+03  0.14200000000E+01 0.  1.
</event>
<event>
 9   1  0.7335000E-04  0.1000996E+04  0.7818608E-02  0.9307453E-01
        1   -1    0    0  501    0  0.00000000000E+00  0.00000000000E+00  0.84559309540E+03  0.84559309540E+03  0.00000000000E+00 0.  1.
       -1   -1    0    0    0  501 -0.00000000000E+00 -0.00000000000E+00 -0.29623966342E+03  0.29623966342E+03  0.00000000000E+00 0. -1.
       39    2    1    2    0    0  0.00000000000E+00  0.00000000000E+00  0.54935343198E+03  0.11418327588E+04  0.10009959320E+04 0.  0.
       24    2    3    3    0    0  0.45663079097E+03 -0.50416165192E+02  0.48218529933E+03  0.67080078105E+03  0.80109649822E+02 0.  0.
      -24    2    3    3    0    0 -0.45663079097E+03  0.50416165192E+02  0.67168132657E+02  0.47103197777E+03  0.79410937923E+02 0.  0.
      -13    1    4    4    0    0  0.45684315383E+03 -0.43759531858E+02  0.46992657020E+03  0.65684971280E+03  0.00000000000E+00 0.  1.
       14    1    4    4    0    0 -0.21236286258E+00 -0.66566333345E+01  0.12258729129E+02  0.13951068246E+02  0.00000000000E+00 0. -1.
        1    1    5    5  502    0 -0.44499579282E+03  0.62522479451E+02  0.66159744155E+02  0.45421077466E+03  0.00000000000E+00 0. -1.
       -2    1    5    5    0  502 -0.11634998149E+02 -0.12106314259E+02  0.10083885018E+01  0.16821203115E+02  0.00000000000E+00 0.  1.
</event>
<event>
 9   1  0.7335000E-04  0.1002470E+04  0.7818608E-02  0.9305839E-01
        1   -1    0    0  501    0  0.00000000000E+00  0.00000000000E+00  0.65920556472E+03  0.65920556472E+03  0.00000000000E+00 0. -1.
       -1   -1    0    0    0  501 -0.00000000000E+00 -0.00000000000E+00 -0.38112045406E+03  0.38112045406E+03  0.00000000000E+00 0.  1.
       39    2    1    2    0    0  0.00000000000E+00  0.00000000000E+00  0.27808511066E+03  0.10403260188E+04  0.10024703969E+04 0.  0.
       24    2    3    3    0    0 -0.30395924707E+03  0.38994381524E+03  0.15092001479E+03  0.52361888748E+03  0.83381565933E+02 0.  0.
      -24    2    3    3    0    0  0.30395924707E+03 -0.38994381524E+03  0.12716509586E+03  0.51670713130E+03  0.79799091496E+02 0.  0.
      -13    1    4    4    0    0 -0.23479612341E+03  0.24984912925E+03  0.80171925585E+02  0.35210984736E+03  0.00000000000E+00 0.  1.
       14    1    4    4    0    0 -0.69163123666E+02  0.14009468599E+03  0.70748089207E+02  0.17150904013E+03  0.00000000000E+00 0. -1.
        3    1    5    5  502    0  0.19791749863E+03 -0.30133684578E+03  0.11285871968E+03  0.37777284378E+03  0.00000000000E+00 0. -1.
       -4    1    5    5    0  502  0.10604174844E+03 -0.88606969469E+02  0.14306376183E+02  0.13893428752E+03  0.14200000000E+01 0.  1.
</event>
<event>
 9   1  0.7335000E-04  0.9883941E+03  0.7818608E-02  0.9321366E-01
       21   -1    0    0  503  502  0.00000000000E+00  0.00000000000E+00  0.14861050630E+03  0.14861050630E+03  0.00000000000E+00 0.  1.
       21   -1    0    0  502  503 -0.00000000000E+00 -0.00000000000E+00 -0.16434283866E+04  0.16434283866E+04  0.00000000000E+00 0. -1.
       39    2    1    2    0    0  0.00000000000E+00  0.00000000000E+00 -0.14948178803E+04  0.17920388929E+04  0.98839410077E+03 0.  0.
       24    2    3    3    0    0 -0.19325177708E+03 -0.40299565693E+03 -0.10987716606E+04  0.11895646287E+04  0.89515892070E+02 0.  0.
      -24    2    3    3    0    0  0.19325177708E+03  0.40299565693E+03 -0.39604621974E+03  0.60247426421E+03  0.79817805203E+02 0.  0.
      -13    1    4    4    0    0 -0.50906337686E+02 -0.49244346911E+02 -0.23330653096E+03  0.24382042225E+03  0.00000000000E+00 0.  1.
       14    1    4    4    0    0 -0.14234543939E+03 -0.35375131002E+03 -0.86546512963E+03  0.94574420646E+03  0.00000000000E+00 0. -1.
        3    1    5    5  501    0  0.77708951917E+02  0.22358905894E+03 -0.16875160242E+03  0.29070234227E+03  0.00000000000E+00 0. -1.
       -4    1    5    5    0  501  0.11554282516E+03  0.17940659799E+03 -0.22729461732E+03  0.31177192194E+03  0.14200000000E+01 0.  1.
</event>
<event>
 9   1  0.7335000E-04  0.1003968E+04  0.7818608E-02  0.9304203E-01
       21   -1    0    0  503  502  0.00000000000E+00  0.00000000000E+00  0.18320767656E+03  0.18320767656E+03  0.00000000000E+00 0. -1.
       21   -1    0    0  502  503 -0.00000000000E+00 -0.00000000000E+00 -0.13754235298E+04  0.13754235298E+04  0.00000000000E+00 0.  1.
       39    2    1    2    0    0 -0.56843418861E-13  0.00000000000E+00 -0.11922158532E+04  0.15586312063E+04  0.10039684241E+04 0.  0.
       24    2    3    3    0    0  0.24577117504E+03  0.70182841689E+02 -0.12546529831E+04  0.12835826338E+04  0.90006488908E+02 0.  0.
      -24    2    3    3    0    0 -0.24577117504E+03 -0.70182841689E+02  0.62437129854E+02  0.27504857256E+03  0.80151234127E+02 0.  0.
      -13    1    4    4    0    0  0.22578020558E+03  0.46436727095E+02 -0.95939308253E+03  0.98669557497E+03  0.00000000000E+00 0.  1.
       14    1    4    4    0    0  0.19990969462E+02  0.23746114594E+02 -0.29525990055E+03  0.29688705881E+03  0.00000000000E+00 0. -1.
        3    1    5    5  501    0 -0.16822276253E+03 -0.83475741828E+02  0.31133433569E+02  0.19035857741E+03  0.00000000000E+00 0. -1.
       -4    1    5    5    0  501 -0.77548412510E+02  0.13292900139E+02  0.31303696285E+02  0.84689995147E+02  0.14200000000E+01 0.  1.
</event>
<event>
 9   1  0.7335000E-04  0.9904395E+03  0.7818608E-02  0.9319093E-01
       21   -1    0    0  503  502  0.00000000000E+00  0.00000000000E+00  0.16361683600E+03  0.16361683600E+03  0.00000000000E+00 0.  1.
       21   -1    0    0  502  503 -0.00000000000E+00 -0.00000000000E+00 -0.14988836308E+04  0.14988836308E+04  0.00000000000E+00 0. -1.
       39    2    1    2    0    0  0.14210854715E-13  0.00000000000E+00 -0.13352667948E+04  0.16625004668E+04  0.99043949276E+03 0.  0.
       24    2    3    3    0    0 -0.72368409537E+02 -0.42068035670E+03 -0.10659718776E+04  0.11511063459E+04  0.80874140449E+02 0.  0.
      -24    2    3    3    0    0  0.72368409537E+02  0.42068035670E+03 -0.26929491722E+03  0.51139412089E+03  0.82432064342E+02 0.  0.
      -13    1    4    4    0    0 -0.64319226550E+01 -0.55888316668E+01 -0.49089211130E+01  0.98337264012E+01  0.00000000000E+00 0.  1.
       14    1    4    4    0    0 -0.65936486882E+02 -0.41509152503E+03 -0.10610629565E+04  0.11412726195E+04  0.00000000000E+00 0. -1.
        3    1    5    5  501    0  0.23999556553E+02  0.83070114428E+02 -0.19493137913E+02  0.88637492358E+02  0.00000000000E+00 0. -1.
       -4    1    5    5    0  501  0.48368852985E+02  0.33761024227E+03 -0.24980177930E+03  0.42275662853E+03  0.14200000000E+01 0.  1.
</event>
<event>
 9   1  0.7335000E-04  0.9711156E+03  0.7818608E-02  0.9340805E-01
       21   -1    0    0  503  502  0.00000000000E+00  0.00000000000E+00  0.60787331996E+03  0.60787331996E+03  0.00000000000E+00 0. -1.
       21   -1    0    0  502  503 -0.00000000000E+00 -0.00000000000E+00 -0.38785442881E+03  0.38785442881E+03  0.00000000000E+00 0.  1.
       39    2    1    2    0    0 -0.71054273576E-14  0.00000000000E+00  0.22001889115E+03  0.99572774878E+03  0.97111556327E+03 0.  0.
       24    2    3    3    0    0 -0.36317974518E+02  0.65614093205E+02 -0.37482243812E+03  0.39081563077E+03  0.81368253226E+02 0.  0.
      -24    2    3    3    0    0  0.36317974518E+02 -0.65614093205E+02  0.59484132927E+03  0.60491211801E+03  0.80363293907E+02 0.  0.
      -13    1    4    4    0    0 -0.14263654785E+02  0.55267304247E+02 -0.10180986309E+03  0.11671835755E+03  0.00000000000E+00 0.  1.
       14    1    4    4    0    0 -0.22054319733E+02  0.10346788957E+02 -0.27301257503E+03  0.27409727322E+03  0.00000000000E+00 0. -1.
        1    1    5    5  501    0  0.54673688158E+01 -0.75159260970E+02  0.46778673046E+03  0.47381772004E+03  0.00000000000E+00 0. -1.
       -2    1    5    5    0  501  0.30850605702E+02  0.95451677655E+01  0.12705459881E+03  0.13109439797E+03  0.00000000000E+00 0.  1.
</event>
<event>
 9   1  0.7335000E-04  0.9917402E+03  0.7818608E-02  0.9317651E-01
       21   -1    0    0  503  502  0.00000000000E+00  0.00000000000E+00  0.19069631383E+03  0.19069631383E+03  0.00000000000E+00 0. -1.
       21   -1    0    0  502  503 -0.00000000000E+00 -0.00000000000E+00 -0.12894173788E+04  0.12894173788E+04  0.00000000000E+00 0.  1.
       39    2    1    2    0    0 -0.35527136788E-14  0.00000000000E+00 -0.10987210649E+04  0.14801136926E+04  0.99174016984E+03 0.  0.
       24    2    3    3    0    0 -0.18116847719E+02 -0.16668802945E+03 -0.12351615370E+04  0.12489227963E+04  0.77916681380E+02 0.  0.
      -24    2    3    3    0    0  0.18116847719E+02  0.16668802945E+03  0.13644047206E+03  0.23119089632E+03  0.81976269696E+02 0.  0.
      -13    1    4    4    0    0  0.25373660072E+02 -0.10363362962E+03 -0.63644531470E+03  0.64532657656E+03  0.00000000000E+00 0.  1.
       14    1    4    4    0    0 -0.43490507792E+02 -0.63054399823E+02 -0.59871622231E+03  0.60359621972E+03  0.00000000000E+00 0. -1.
        1    1    5    5  501    0  0.14073124672E+02  0.17594592868E+03  0.12815864975E+03  0.21812762815E+03  0.00000000000E+00 0. -1.
       -2    1    5    5    0  501  0.40437230470E+01 -0.92578992380E+01  0.82818223131E+01  0.13063268167E+02  0.00000000000E+00 0.  1.
</event>
<event>
 9   1  0.7335000E-04  0.1002569E+04  0.7818608E-02  0.9305731E-01
       21   -1    0    0  503  502  0.00000000000E+00  0.00000000000E+00  0.48776527423E+03  0.48776527423E+03  0.00000000000E+00 0.  1.
       21   -1    0    0  502  503 -0.00000000000E+00 -0.00000000000E+00 -0.51517875601E+03  0.51517875601E+03  0.00000000000E+00 0. -1.
       39    2    1    2    0    0  0.00000000000E+00  0.00000000000E+00 -0.27413481780E+02  0.10029440302E+04  0.10025693137E+04 0.  0.
       24    2    3    3    0    0 -0.96410972551E+02 -0.81415487070E+02  0.46481096884E+03  0.48854842421E+03  0.81894864820E+02 0.  0.
      -24    2    3    3    0    0  0.96410972551E+02  0.81415487070E+02 -0.49222445062E+03  0.51439560602E+03  0.79964820691E+02 0.  0.
      -13    1    4    4    0    0 -0.67165719538E+02 -0.18459870883E+02  0.32587185514E+03  0.33323335170E+03  0.00000000000E+00 0.  1.
       14    1    4    4    0    0 -0.29245253013E+02 -0.62955616188E+02  0.13893911370E+03  0.15531507251E+03  0.00000000000E+00 0. -1.
        1    1    5    5  501    0  0.80100654383E+02  0.84006421474E+02 -0.30332625377E+03  0.32477686171E+03  0.00000000000E+00 0. -1.
       -2    1    5    5    0  501  0.16310318168E+02 -0.25909344035E+01 -0.18889819685E+03  0.18961874431E+03  0.00000000000E+00 0.  1.
</event>
<event>
 9   1  0.7335000E-04  0.9963510E+03  0.7818608E-02  0.9312556E-01
       21   -1    0    0  503  502  0.00000000000E+00  0.00000000000E+00  0.13471368395E+03  0.13471368395E+03  0.00000000000E+00 0.  1.
       21   -1    0    0  502  503 -0.00000000000E+00 -0.00000000000E+00 -0.18422689941E+04  0.18422689941E+04  0.00000000000E+00 0. -1.
       39    2    1    2    0    0  0.00000000000E+00  0.00000000000E+00 -0.17075553102E+04  0.19769826781E+04  0.99635102856E+03 0.  0.
       24    2    3    3    0    0  0.43317046110E+02  0.37844167807E+03 -0.23919177087E+03  0.45766237653E+03  0.84543938011E+02 0.  0.
      -24    2    3    3    0    0 -0.43317046110E+02 -0.37844167807E+03 -0.14683635393E+04  0.15193203015E+04  0.84547175939E+02 0.  0.
      -13    1    4    4    0    0  0.22849776956E+02  0.21986627530E+03 -0.18679337831E+03  0.28940466047E+03  0.00000000000E+00 0.  1.
       14    1    4    4    0    0  0.20467269154E+02  0.15857540277E+03 -0.52398392558E+02  0.16825771606E+03  0.00000000000E+00 0. -1.
        1    1    5    5  501    0 -0.13311451322E+02 -0.25970934814E+03 -0.11282129637E+04  0.11577955915E+04  0.00000000000E+00 0. -1.
       -2    1    5    5    0  501 -0.30005594788E+02 -0.11873232993E+03 -0.34015057561E+03  0.36152471005E+03  0.00000000000E+00 0.  1.
</event>
<event>
 9   1  0.7335000E-04  0.1008735E+04  0.7818608E-02  0.9299016E-01
       21   -1    0    0  503  502  0.00000000000E+00  0.00000000000E+00  0.78918168213E+03  0.78918168213E+03  0.00000000000E+00 0. -1.
       21   -1    0    0  502  503 -0.00000000000E+00 -0.00000000000E+00 -0.32234235348E+03  0.32234235348E+03  0.00000000000E+00 0.  1.
       39    2    1    2    0    0  0.56843418861E-13  0.00000000000E+00  0.46683932865E+03  0.11115240356E+04  0.10087352095E+04 0.  0.
       24    2    3    3    0    0  0.40618777781E+03 -0.13734901815E+03 -0.45042506435E+02  0.43884281133E+03  0.81859159794E+02 0.  0.
      -24    2    3    3    0    0 -0.40618777781E+03  0.13734901815E+03  0.51188183508E+03  0.67268122428E+03  0.81386441007E+02 0.  0.
      -13    1    4    4    0    0  0.17849040074E+03 -0.17908084209E+02 -0.20337235438E+02  0.18053566346E+03  0.00000000000E+00 0.  1.
       14    1    4    4    0    0  0.22769737707E+03 -0.11944093394E+03 -0.24705270997E+02  0.25830714787E+03  0.00000000000E+00 0. -1.
        1    1    5    5  501    0 -0.13074939084E+03  0.78610217885E+02  0.21317412611E+03  0.26214152209E+03  0.00000000000E+00 0. -1.
       -2    1    5    5    0  501 -0.27543838697E+03  0.58738800265E+02  0.29870770898E+03  0.41053970219E+03  0.00000000000E+00 0.  1.
</event>
<event>
 9   1  0.7335000E-04  0.1007005E+04  0.7818608E-02  0.9300895E-01
       21   -1    0    0  503  502  0.00000000000E+00  0.00000000000E+00  0.23472359037E+04  0.23472359037E+04  0.00000000000E+00 0.  1.
       21   -1    0    0  502  503 -0.00000000000E+00 -0.00000000000E+00 -0.10800566186E+03  0.10800566186E+03  0.00000000000E+00 0. -1.
       39    2    1    2    0    0  0.00000000000E+00  0.00000000000E+00  0.22392302419E+04  0.24552415656E+04  0.10070049996E+04 0.  0.
       24    2    3    3    0    0  0.97687111335E+02  0.33995449919E+03  0.26996570833E+03  0.45283822371E+03  0.84078177547E+02 0.  0.
      -24    2    3    3    0    0 -0.97687111335E+02 -0.33995449919E+03  0.19692645336E+04  0.20024033419E+04  0.80650525627E+02 0.  0.
      -13    1    4    4    0    0  0.29484219694E+02  0.59207341762E+02  0.92702737940E+02  0.11387987597E+03  0.00000000000E+00 0.  1.
       14    1    4    4    0    0  0.68202891641E+02  0.28074715742E+03  0.17726297039E+03  0.33895834774E+03  0.00000000000E+00 0. -1.
        3    1    5    5  501    0 -0.35004364598E+02 -0.46846240381E+02  0.45640840961E+03  0.46013966590E+03  0.00000000000E+00 0. -1.
       -4    1    5    5    0  501 -0.62682746738E+02 -0.29310825880E+03  0.15128561239E+04  0.15422636760E+04  0.14200000000E+01 0.  1.
</event>
<event>
 9   1  0.7335000E-04  0.9809787E+03  0.7818608E-02  0.9329657E-01
       21   -1    0    0  503  502  0.00000000000E+00  0.00000000000E+00  0.30824434086E+03  0.30824434086E+03  0.00000000000E+00 0. -1.
       21   -1    0    0  502  503 -0.00000000000E+00 -0.00000000000E+00 -0.78048403244E+03  0.78048403244E+03  0.00000000000E+00 0.  1.
       39    2    1    2    0    0 -0.56843418861E-13  0.28421709430E-13 -0.47223969158E+03  0.10887283733E+04  0.98097866669E+03 0.  0.
       24    2    3    3    0    0 -0.44654112728E+03  0.15659575708E+03 -0.33531431742E+03  0.58920368743E+03  0.10394269732E+03 0.  0.
      -24    2    3    3    0    0  0.44654112728E+03 -0.15659575708E+03 -0.13692537416E+03  0.49952468586E+03  0.82795798248E+02 0.  0.
      -13    1    4    4    0    0 -0.14445811480E+02  0.29821375258E+02 -0.13794602829E+02  0.35892714564E+02  0.00000000000E+00 0.  1.
       14    1    4    4    0    0 -0.43209531580E+03  0.12677438182E+03 -0.32151971459E+03  0.55331097287E+03  0.00000000000E+00 0. -1.
        3    1    5    5  501    0  0.61303527309E+02 -0.33970402157E+02 -0.49745321717E+02  0.85945958113E+02  0.00000000000E+00 0. -1.
       -4    1    5    5    0  501  0.38523759997E+03 -0.12262535492E+03 -0.87180052445E+02  0.41357872775E+03  0.14200000000E+01 0.  1.
</event>
<event>
 9   1  0.7335000E-04  0.9991093E+03  0.7818608E-02  0.9309522E-01
       21   -1    0    0  503  502  0.00000000000E+00  0.00000000000E+00  0.49870794628E+03  0.49870794628E+03  0.00000000000E+00 0. -1.
       21   -1    0    0  502  503 -0.00000000000E+00 -0.00000000000E+00 -0.50040281843E+03  0.50040281843E+03  0.00000000000E+00 0.  1.
       39    2    1    2    0    0 -0.28421709430E-13  0.56843418861E-13 -0.16948721486E+01  0.99911076472E+03  0.99910932714E+03 0.  0.
       24    2    3    3    0    0 -0.24765318022E+03  0.41063913435E+03  0.11449421805E+03  0.49946324165E+03  0.79987545648E+02 0.  0.
      -24    2    3    3    0    0  0.24765318022E+03 -0.41063913435E+03 -0.11618909020E+03  0.49964752307E+03  0.78683837546E+02 0.  0.
      -13    1    4    4    0    0 -0.34862059665E+02  0.33365512932E+02 -0.89312003172E+01  0.49075319626E+02  0.00000000000E+00 0.  1.
       14    1    4    4    0    0 -0.21279112056E+03  0.37727362142E+03  0.12342541837E+03  0.45038792202E+03  0.00000000000E+00 0. -1.
        3    1    5    5  501    0  0.98544821616E+02 -0.23381319639E+03 -0.76054493411E+02  0.26488484034E+03  0.00000000000E+00 0. -1.
       -4    1    5    5    0  501  0.14910835860E+03 -0.17682593796E+03 -0.40134596786E+02  0.23476268272E+03  0.14200000000E+01 0.  1.
</event>
<event>
 9   1  0.7335000E-04  0.9995398E+03  0.7818608E-02  0.9309050E-01
       21   -1    0    0  503  502  0.00000000000E+00  0.00000000000E+00  0.28090847711E+03  0.28090847711E+03  0.00000000000E+00 0.  1.
       21   -1    0    0  502  503 -0.00000000000E+00 -0.00000000000E+00 -0.88915065895E+03  0.88915065895E+03  0.00000000000E+00 0. -1.
       39    2    1    2    0    0  0.00000000000E+00  0.56843418861E-13 -0.60824218184E+03  0.11700591361E+04  0.99953980917E+03 0.  0.
       24    2    3    3    0    0 -0.13692641223E+03 -0.33428019521E+03  0.89803821780E+02  0.38005094040E+03  0.76693543526E+02 0.  0.
      -24    2    3    3    0    0  0.13692641223E+03  0.33428019521E+03 -0.69804600362E+03  0.79000819567E+03  0.79703417573E+02 0.  0.
      -13    1    4    4    0    0 -0.13017286801E+03 -0.23737224974E+03  0.80637281369E+02  0.28247642673E+03  0.00000000000E+00 0.  1.
       14    1    4    4    0    0 -0.67535442177E+01 -0.96907945469E+02  0.91665404115E+01  0.97574513669E+02  0.00000000000E+00 0. -1.
        3    1    5    5  501    0  0.10275365293E+03  0.24972571692E+03 -0.58823964973E+03  0.64726125513E+03  0.00000000000E+00 0. -1.
       -4    1    5    5    0  501  0.34172759297E+02  0.84554478287E+02 -0.10980635389E+03  0.14274694053E+03  0.14200000000E+01 0.  1.
</event>
<event>
 9   1  0.7335000E-04  0.9968979E+03  0.7818608E-02  0.9311954E-01
       21   -1    0    0  503  502  0.00000000000E+00  0.00000000000E+00  0.12567336883E+04  0.12567336883E+04  0.00000000000E+00 0. -1.
       21   -1    0    0  502  503 -0.00000000000E+00 -0.00000000000E+00 -0.19769611605E+03  0.19769611605E+03  0.00000000000E+00 0.  1.
       39    2    1    2    0    0  0.00000000000E+00  0.11368683772E-12  0.10590375722E+04  0.14544298043E+04  0.99689792674E+03 0.  0.
       24    2    3    3    0    0  0.37843448134E+03  0.30344112044E+03  0.64770449603E+03  0.81310300588E+03  0.79537499030E+02 0.  0.
      -24    2    3    3    0    0 -0.37843448134E+03 -0.30344112044E+03  0.41133307619E+03  0.64132679845E+03  0.82559024896E+02 0.  0.
      -13    1    4    4    0    0  0.53483911534E+02  0.81046198486E+02  0.11169627975E+03  0.14800362831E+03  0.00000000000E+00 0.  1.
       14    1    4    4    0    0  0.32495056981E+03  0.22239492196E+03  0.53600821628E+03  0.66509937757E+03  0.00000000000E+00 0. -1.
        1    1    5    5  501    0 -0.22630160684E+02 -0.25328236753E+02  0.60814533277E+02  0.69656666640E+02  0.00000000000E+00 0. -1.
       -2    1    5    5    0  501 -0.35580432066E+03 -0.27811288369E+03  0.35051854292E+03  0.57167013181E+03  0.00000000000E+00 0.  1.
</event>
<event>
 9   1  0.7335000E-04  0.8743797E+03  0.7818608E-02  0.9458187E-01
        1   -1    0    0  501    0  0.00000000000E+00  0.00000000000E+00  0.92198559375E+03  0.92198559375E+03  0.00000000000E+00 0. -1.
       -1   -1    0    0    0  501 -0.00000000000E+00 -0.00000000000E+00 -0.20730795572E+03  0.20730795572E+03  0.00000000000E+00 0.  1.
       39    2    1    2    0    0  0.14210854715E-13  0.56843418861E-13  0.71467763803E+03  0.11292935495E+04  0.87437966271E+03 0.  0.
       24    2    3    3    0    0 -0.83892561252E+02  0.31584905249E+03 -0.38829727636E+01  0.33622370528E+03  0.78947556771E+02 0.  0.
      -24    2    3    3    0    0  0.83892561252E+02 -0.31584905249E+03  0.71856061079E+03  0.79306984419E+03  0.76366488631E+02 0.  0.
      -13    1    4    4    0    0 -0.76398389199E+02  0.17654601754E+03  0.24314850386E+02  0.19389796835E+03  0.00000000000E+00 0.  1.
       14    1    4    4    0    0 -0.74941720531E+01  0.13930303495E+03 -0.28197823149E+02  0.14232573692E+03  0.00000000000E+00 0. -1.
        1    1    5    5  502    0  0.95192930774E+02 -0.22938584763E+03  0.52563512673E+03  0.58135346186E+03  0.00000000000E+00 0. -1.
       -2    1    5    5    0  502 -0.11300369523E+02 -0.86463204856E+02  0.19292548406E+03  0.21171638233E+03  0.00000000000E+00 0.  1.
</event>
<event>
 9   1  0.7335000E-04  0.1000909E+04  0.7818608E-02  0.9307549E-01
       21   -1    0    0  503  502  0.00000000000E+00  0.00000000000E+00  0.38170718825E+03  0.38170718825E+03  0.00000000000E+00 0.  1.
       21   -1    0    0  502  503 -0.00000000000E+00 -0.00000000000E+00 -0.65614340012E+03  0.65614340012E+03  0.00000000000E+00 0. -1.
       39    2    1    2    0    0  0.00000000000E+00  0.00000000000E+00 -0.27443621187E+03  0.10378505884E+04  0.10009088917E+04 0.  0.
       24    2    3    3    0    0 -0.24670479981E+03  0.16553345433E+03 -0.54628988157E+03  0.62692480161E+03  0.79608350168E+02 0.  0.
      -24    2    3    3    0    0  0.24670479981E+03 -0.16553345433E+03  0.27185366970E+03  0.41092578675E+03  0.81798543603E+02 0.  0.
      -13    1    4    4    0    0 -0.12070022216E+03  0.39053931095E+02 -0.26430562964E+03  0.29317438330E+03  0.00000000000E+00 0.  1.
       14    1    4    4    0    0 -0.12600457765E+03  0.12647952323E+03 -0.28198425194E+03  0.33375041832E+03  0.00000000000E+00 0. -1.
        3    1    5    5  501    0  0.13002785367E+03 -0.13188834861E+03  0.18374053801E+03  0.26088764735E+03  0.00000000000E+00 0. -1.
       -4    1    5    5    0  501  0.11667694614E+03 -0.33645105714E+02  0.88113131690E+02  0.15003813940E+03  0.14200000000E+01 0.  1.
</event>
<event>
 9   1  0.7335000E-04  0.1001285E+04  0.7818608E-02  0.9307137E-01
       21   -1    0    0  503  502  0.00000000000E+00  0.00000000000E+00  0.10396911805E+04  0.10396911805E+04  0.00000000000E+00 0.  1.
       21   -1    0    0  502  503 -0.00000000000E+00 -0.00000000000E+00 -0.24107424061E+03  0.24107424061E+03  0.00000000000E+00 0. -1.
       39    2    1    2    0    0  0.00000000000E+00 -0.14210854715E-13  0.79861693987E+03  0.12807654211E+04  0.10012846984E+04 0.  0.
       24    2    3    3    0    0 -0.12727594556E+03 -0.94162881560E+02  0.99787226945E+03  0.10136577493E+04  0.81775008595E+02 0.  0.
      -24    2    3    3    0    0  0.12727594556E+03  0.94162881560E+02 -0.19925532958E+03  0.26710767177E+03  0.81104915813E+02 0.  0.
      -13    1    4    4    0    0 -0.13479138181E+03 -0.10018620277E+03  0.96000557003E+03  0.97458539201E+03  0.00000000000E+00 0.  1.
       14    1    4    4    0    0  0.75154362447E+01  0.60233212124E+01  0.37866699422E+02  0.39072357306E+02  0.00000000000E+00 0. -1.
        3    1    5    5  501    0  0.89087621431E+02  0.20803332730E+02 -0.13145209543E+03  0.16015316524E+03  0.00000000000E+00 0. -1.
       -4    1    5    5    0  501  0.38188324131E+02  0.73359548831E+02 -0.67803234149E+02  0.10695450652E+03  0.14200000000E+01 0.  1.
</event>
<event>
 9   1  0.7335000E-04  0.1003247E+04  0.7818608E-02  0.9304990E-01
       21   -1    0    0  503  502  0.00000000000E+00  0.00000000000E+00  0.38761540415E+03  0.38761540415E+03  0.00000000000E+00 0.  1.
       21   -1    0    0  502  503 -0.00000000000E+00 -0.00000000000E+00 -0.64916507553E+03  0.64916507553E+03  0.00000000000E+00 0. -1.
       39    2    1    2    0    0 -0.35527136788E-14  0.00000000000E+00 -0.26154967138E+03  0.10367804797E+04  0.10032474931E+04 0.  0.
       24    2    3    3    0    0  0.14156145309E+02  0.40424487237E+03  0.16413573525E+03  0.44400006930E+03  0.81124648936E+02 0.  0.
      -24    2    3    3    0    0 -0.14156145309E+02 -0.40424487237E+03 -0.42568540663E+03  0.59278041038E+03  0.81032315973E+02 0.  0.
      -13    1    4    4    0    0  0.25384385742E+02  0.38119850394E+03  0.16925752043E+03  0.41785736163E+03  0.00000000000E+00 0.  1.
       14    1    4    4    0    0 -0.11228240433E+02  0.23046368429E+02 -0.51217851768E+01  0.26142707671E+02  0.00000000000E+00 0. -1.
        1    1    5    5  501    0  0.31154682434E+02 -0.21436286967E+03 -0.20661638250E+03  0.29935327566E+03  0.00000000000E+00 0. -1.
       -2    1    5    5    0  501 -0.45310827743E+02 -0.18988200269E+03 -0.21906902413E+03  0.29342713472E+03  0.00000000000E+00 0.  1.
</event>
<event>
 9   1  0.7335000E-04  0.9932045E+03  0.7818608E-02  0.9316029E-01
       -1   -1    0    0    0  501 -0.00000000000E+00  0.00000000000E+00  0.19707244124E+03  0.19707244124E+03  0.00000000000E+00 0. -1.
        1   -1    0    0  501    0  0.00000000000E+00 -0.00000000000E+00 -0.12513866088E+04  0.12513866088E+04  0.00000000000E+00 0.  1.
       39    2    1    2    0    0  0.28421709430E-13  0.00000000000E+00 -0.10543141676E+04  0.14484590501E+04  0.99320453872E+03 0.  0.
       24    2    3    3    0    0  0.18031117707E+03  0.32176510127E+03 -0.99753842428E+03  0.10666629376E+04  0.81498549518E+02 0.  0.
      -24    2    3    3    0    0 -0.18031117707E+03 -0.32176510127E+03 -0.56775743300E+02  0.38179611245E+03  0.80621867264E+02 0.  0.
      -13    1    4    4    0    0  0.74396715357E+02  0.20898548295E+03 -0.62874130009E+03  0.66672739990E+03  0.00000000000E+00 0.  1.
       14    1    4    4    0    0  0.10591446171E+03  0.11277961833E+03 -0.36879712419E+03  0.39993553771E+03  0.00000000000E+00 0. -1.
        1    1    5    5  502    0 -0.35149658957E+02 -0.72375125367E+02  0.20575024458E+02  0.83048112129E+02  0.00000000000E+00 0. -1.
       -2    1    5    5    0  502 -0.14516151811E+03 -0.24938997591E+03 -0.77350767758E+02  0.29874800032E+03  0.00000000000E+00 0.  1.
</event>
<event>
 9   1  0.7335000E-04  0.1000506E+04  0.7818608E-02  0.9307990E-01
       21   -1    0    0  503  502  0.00000000000E+00  0.00000000000E+00  0.97266940944E+03  0.97266940944E+03  0.00000000000E+00 0.  1.
       21   -1    0    0  502  503 -0.00000000000E+00 -0.00000000000E+00 -0.25728494147E+03  0.25728494147E+03  0.00000000000E+00 0. -1.
       39    2    1    2    0    0  0.00000000000E+00  0.00000000000E+00  0.71538446797E+03  0.12299543509E+04  0.10005062560E+04 0.  0.
       24    2    3    3    0    0  0.48062555998E+03  0.10687645681E+03  0.39806827195E+03  0.63866288760E+03  0.83716360021E+02 0.  0.
      -24    2    3    3    0    0 -0.48062555998E+03 -0.10687645681E+03  0.31731619602E+03  0.59129146332E+03  0.80700188433E+02 0.  0.
      -13    1    4    4    0    0  0.44740072733E+03  0.76042385992E+02  0.36795572359E+03  0.58424418680E+03  0.00000000000E+00 0.  1.
       14    1    4    4    0    0  0.33224832643E+02  0.30834070823E+02  0.30112548359E+02  0.54418700796E+02  0.00000000000E+00 0. -1.
        3    1    5    5  501    0 -0.27635184006E+03 -0.35947604150E+02  0.21547938990E+03  0.35226969387E+03  0.00000000000E+00 0. -1.
       -4    1    5    5    0  501 -0.20427371991E+03 -0.70928852664E+02  0.10183680612E+03  0.23902176944E+03  0.14200000000E+01 0.  1.
</event>
<event>
 9   1  0.7335000E-04  0.9910497E+03  0.7818608E-02  0.9318416E-01
       21   -1    0    0  503  502  0.00000000000E+00  0.00000000000E+00  0.21833584360E+03  0.21833584360E+03  0.00000000000E+00 0.  1.
       21   -1    0    0  502  503 -0.00000000000E+00 -0.00000000000E+00 -0.11246200670E+04  0.11246200670E+04  0.00000000000E+00 0. -1.
       39    2    1    2    0    0 -0.56843418861E-13  0.00000000000E+00 -0.90628422335E+03  0.13429559106E+04  0.99104968806E+03 0.  0.
       24    2    3    3    0    0 -0.26510794277E+03 -0.57449790464E+02  0.91867166930E+02  0.30360446047E+03  0.10076404274E+03 0.  0.
      -24    2    3    3    0    0  0.26510794277E+03  0.57449790464E+02 -0.99815139028E+03  0.10393514501E+04  0.10179655757E+03 0.  0.
      -13    1    4    4    0    0 -0.19728832149E+03 -0.73092180935E+02  0.10104934973E+03  0.23340119921E+03  0.00000000000E+00 0.  1.
       14    1    4    4    0    0 -0.67819621282E+02  0.15642390471E+02 -0.91821828006E+01  0.70203261260E+02  0.00000000000E+00 0. -1.
        3    1    5    5  501    0  0.27067211883E+03  0.58032810605E+02 -0.99496820516E+03  0.10327598619E+04  0.00000000000E+00 0. -1.
       -4    1    5    5    0  501 -0.55641760564E+01 -0.58302014102E+00 -0.31831851231E+01  0.65915882152E+01  0.14200000000E+01 0.  1.
</event>
<event>
 9   1  0.7335000E-04  0.1005850E+04  0.7818608E-02  0.9302151E-01
       21   -1    0    0  503  502  0.00000000000E+00  0.00000000000E+00  0.94990138193E+03  0.94990138193E+03  0.00000000000E+00 0.  1.
       21   -1    0    0  502  503 -0.00000000000E+00 -0.00000000000E+00 -0.26627365279E+03  0.26627365279E+03  0.00000000000E+00 0. -1.
       39    2    1    2    0    0  0.28421709430E-13  0.56843418861E-13  0.68362772914E+03  0.12161750347E+04  0.10058503085E+04 0.  0.
       24    2    3    3    0    0 -0.19308996680E+03 -0.24823241244E+03  0.80522851219E+03  0.86796540759E+03  0.77896893790E+02 0.  0.
      -24    2    3    3    0    0  0.19308996680E+03  0.24823241244E+03 -0.12160078305E+03  0.34820962713E+03  0.86948997268E+02 0.  0.
      -13    1    4    4    0    0 -0.10013536776E+03 -0.18850535033E+03  0.53790789356E+03  0.57871086125E+03  0.00000000000E+00 0.  1.
       14    1    4    4    0    0 -0.92954599033E+02 -0.59727062112E+02  0.26732061863E+03  0.28925454633E+03  0.00000000000E+00 0. -1.
        3    1    5    5  501    0  0.14930230391E+03  0.18540480643E+03 -0.12987306213E+03  0.27116993282E+03  0.00000000000E+00 0. -1.
       -4    1    5    5    0  501  0.43787662887E+02  0.62827606015E+02  0.82722790799E+01  0.77039694313E+02  0.14200000000E+01 0.  1.
</event>
<event>
 9   1  0.7335000E-04  0.1018486E+04  0.7818608E-02  0.9288498E-01
       21   -1    0    0  503  502  0.00000000000E+00  0.00000000000E+00  0.13589876222E+04  0.13589876222E+04  0.00000000000E+00 0. -1.
       21   -1    0    0  502  503 -0.00000000000E+00 -0.00000000000E+00 -0.19082485984E+03  0.19082485984E+03  0.00000000000E+00 0.  1.
       39    2    1    2    0    0  0.71054273576E-14  0.28421709430E-13  0.11681627623E+04  0.15498124820E+04  0.10184863721E+04 0.  0.
       24    2    3    3    0    0 -0.48071348930E+02 -0.94028100684E+02 -0.16423845899E+03  0.21076454424E+03  0.79342821934E+02 0.  0.
      -24    2    3    3    0    0  0.48071348930E+02  0.94028100684E+02  0.13324012213E+04  0.13390479378E+04  0.81266393930E+02 0.  0.
      -13    1    4    4    0    0 -0.44024168048E+02 -0.91881640292E+02 -0.17306044287E+03  0.20082400275E+03  0.00000000000E+00 0.  1.
       14    1    4    4    0    0 -0.40471808827E+01 -0.21464603924E+01  0.88219838874E+01  0.99405414854E+01  0.00000000000E+00 0. -1.
        3    1    5    5  501    0  0.64878277907E+02  0.94415763231E+02  0.12229834637E+04  0.12283371197E+04  0.00000000000E+00 0. -1.
       -4    1    5    5    0  501 -0.16806928976E+02 -0.38766254648E+00  0.10941775762E+03  0.11071081802E+03  0.14200000000E+01 0.  1.
</event>
<event>
 9   1  0.7335000E-04  0.1004181E+04  0.7818608E-02  0.9303971E-01
       21   -1    0    0  503  502  0.00000000000E+00  0.00000000000E+00  0.69968183031E+03  0.69968183031E+03  0.00000000000E+00 0. -1.
       21   -1    0    0  502  503 -0.00000000000E+00 -0.00000000000E+00 -0.36029900319E+03  0.36029900319E+03  0.00000000000E+00 0.  1.
       39    2    1    2    0    0 -0.28421709430E-13  0.00000000000E+00  0.33938282712E+03  0.10599808335E+04  0.10041805933E+04 0.  0.
       24    2    3    3    0    0  0.19385272327E+03  0.44601912092E+03  0.67436258547E+02  0.49716386118E+03  0.78181336351E+02 0.  0.
      -24    2    3    3    0    0 -0.19385272327E+03 -0.44601912092E+03  0.27194656857E+03  0.56281697231E+03  0.79347801586E+02 0.  0.
      -13    1    4    4    0    0  0.15085381707E+03  0.26587330038E+03  0.22082499013E+02  0.30648511015E+03  0.00000000000E+00 0.  1.
       14    1    4    4    0    0  0.42998906201E+02  0.18014582054E+03  0.45353759534E+02  0.19067875104E+03  0.00000000000E+00 0. -1.
        3    1    5    5  501    0 -0.95263709384E+02 -0.29009823332E+03  0.19885867361E+03  0.36438569040E+03  0.00000000000E+00 0. -1.
       -4    1    5    5    0  501 -0.98589013887E+02 -0.15592088760E+03  0.73087894964E+02  0.19843128191E+03  0.14200000000E+01 0.  1.
</event>
<event>
 9   1  0.7335000E-04  0.1008000E+04  0.7818608E-02  0.9299814E-01
       -2   -1    0    0    0  501 -0.00000000000E+00  0.00000000000E+00  0.11572812019E+03  0.11572812019E+03  0.00000000000E+00 0. -1.
        2   -1    0    0  501    0  0.00000000000E+00 -0.00000000000E+00 -0.21949357396E+04  0.21949357396E+04  0.00000000000E+00 0.  1.
       39    2    1    2    0    0  0.56843418861E-13  0.00000000000E+00 -0.20792076194E+04  0.23106638598E+04  0.10079995775E+04 0.  0.
       24    2    3    3    0    0 -0.48500424551E+03  0.67819058916E+02 -0.12422458269E+04  0.13376494860E+04  0.79390868537E+02 0.  0.
      -24    2    3    3    0    0  0.48500424551E+03 -0.67819058916E+02 -0.83696179246E+03  0.97301437375E+03  0.80146032735E+02 0.  0.
      -13    1    4    4    0    0 -0.13926533032E+03  0.19233243271E+02 -0.46050132927E+03  0.48148335810E+03  0.00000000000E+00 0.  1.
       14    1    4    4    0    0 -0.34573891520E+03  0.48585815645E+02 -0.78174449765E+03  0.85616612791E+03  0.00000000000E+00 0. -1.
        3    1    5    5  502    0  0.61247222801E+02  0.58856549349E+01 -0.66330572238E+02  0.90474350224E+02  0.00000000000E+00 0. -1.
       -4    1    5    5    0  502  0.42375702271E+03 -0.73704713851E+02 -0.77063122022E+03  0.88254002353E+03  0.14200000000E+01 0.  1.
</event>
<event>
 9   1  0.7335000E-04  0.1001105E+04  0.7818608E-02  0.9307334E-01
       21   -1    0    0  503  502  0.00000000000E+00  0.00000000000E+00  0.22762191830E+03  0.22762191830E+03  0.00000000000E+00 0. -1.
       21   -1    0    0  502  503 -0.00000000000E+00 -0.00000000000E+00 -0.11007414759E+04  0.11007414759E+04  0.00000000000E+00 0.  1.
       39    2    1    2    0    0 -0.56843418861E-13 -0.56843418861E-13 -0.87311955760E+03  0.13283633942E+04  0.10011051619E+04 0.  0.
       24    2    3    3    0    0 -0.33853761958E+03 -0.23919943595E+03 -0.79321968394E+03  0.89869051335E+03  0.81382318517E+02 0.  0.
      -24    2    3    3    0    0  0.33853761958E+03  0.23919943595E+03 -0.79899873657E+02  0.42967288084E+03  0.80066876358E+02 0.  0.
      -13    1    4    4    0    0 -0.20034412789E+03 -0.18605651260E+03 -0.54290793604E+03  0.60786826079E+03  0.00000000000E+00 0.  1.
       14    1    4    4    0    0 -0.13819349170E+03 -0.53142923357E+02 -0.25031174790E+03  0.29082225256E+03  0.00000000000E+00 0. -1.
        1    1    5    5  501    0  0.16327733317E+03  0.84749634725E+02 -0.66754529029E+02  0.19569914476E+03  0.00000000000E+00 0. -1.
       -2    1    5    5    0  501  0.17526028641E+03  0.15444980123E+03 -0.13145344628E+02  0.23397373609E+03  0.00000000000E+00 0.  1.
</event>
<event>
 9   1  0.7335000E-04  0.1016321E+04  0.7818608E-02  0.9290824E-01
       21   -1    0    0  503  502  0.00000000000E+00  0.00000000000E+00  0.59603831431E+03  0.59603831431E+03  0.00000000000E+00 0.  1.
       21   -1    0    0  502  503 -0.00000000000E+00 -0.00000000000E+00 -0.43323870460E+03  0.43323870460E+03  0.00000000000E+00 0. -1.
       39    2    1    2    0    0  0.00000000000E+00  0.56843418861E-13  0.16279960971E+03  0.10292770189E+04  0.10163205541E+04 0.  0.
       24    2    3    3    0    0  0.37663993534E+03  0.31354058852E+03 -0.27694828238E+02  0.49734033448E+03  0.80094089978E+02 0.  0.
      -24    2    3    3    0    0 -0.37663993534E+03 -0.31354058852E+03  0.19049443794E+03  0.53193668443E+03  0.80642196215E+02 0.  0.
      -13    1    4    4    0    0  0.29284269150E+01  0.17033061791E+01  0.86190683947E+01  0.92609543854E+01  0.00000000000E+00 0.  1.
       14    1    4    4    0    0  0.37371150843E+03  0.31183728234E+03 -0.36313896632E+02  0.48807938010E+03  0.00000000000E+00 0. -1.
        1    1    5    5  501    0 -0.17114555024E+02 -0.12428391835E+02 -0.81092064684E+01  0.22652420330E+02  0.00000000000E+00 0. -1.
       -2    1    5    5    0  501 -0.35952538032E+03 -0.30111219668E+03  0.19860364441E+03  0.50928426410E+03  0.00000000000E+00 0.  1.
</event>
<event>
 9   1  0.7335000E-04  0.1019557E+04  0.7818608E-02  0.9287351E-01
       21   -1    0    0  503  502  0.00000000000E+00  0.00000000000E+00  0.14440094189E+03  0.14440094189E+03  0.00000000000E+00 0.  1.
       21   -1    0    0  502  503 -0.00000000000E+00 -0.00000000000E+00 -0.17996712454E+04  0.17996712454E+04  0.00000000000E+00 0. -1.
       39    2    1    2    0    0  0.14210854715E-13  0.00000000000E+00 -0.16552703035E+04  0.19440721873E+04  0.10195572037E+04 0.  0.
       24    2    3    3    0    0  0.82549569939E+02  0.36005904340E+03 -0.14810187581E+04  0.15280662939E+04  0.71505878032E+02 0.  0.
      -24    2    3    3    0    0 -0.82549569939E+02 -0.36005904340E+03 -0.17425154545E+03  0.41600589339E+03  0.78995923992E+02 0.  0.
      -13    1    4    4    0    0  0.17042239114E+02  0.37493977724E+02 -0.26960263322E+03  0.27273029923E+03  0.00000000000E+00 0.  1.
       14    1    4    4    0    0  0.65507330825E+02  0.32256506568E+03 -0.12114161249E+04  0.12553359947E+04  0.00000000000E+00 0. -1.
        3    1    5    5  501    0 -0.12937095349E+02 -0.27910880030E+01 -0.22556274878E+01  0.13425589882E+02  0.00000000000E+00 0. -1.
       -4    1    5    5    0  501 -0.69612474590E+02 -0.35726795540E+03 -0.17199591796E+03  0.40258030350E+03  0.14200000000E+01 0.  1.
</event>
<event>
 9   1  0.7335000E-04  0.1003725E+04  0.7818608E-02  0.9304469E-01
       21   -1    0    0  503  502  0.00000000000E+00  0.00000000000E+00  0.81519707004E+03  0.81519707004E+03  0.00000000000E+00 0.  1.
       21   -1    0    0  502  503 -0.00000000000E+00 -0.00000000000E+00 -0.30896329048E+03  0.30896329048E+03  0.00000000000E+00 0. -1.
       39    2    1    2    0    0  0.00000000000E+00  0.00000000000E+00  0.50623377957E+03  0.11241603605E+04  0.10037250005E+04 0.  0.
       24    2    3    3    0    0 -0.16357087550E+03  0.93555929321E+02  0.76637692683E+03  0.79307995333E+03  0.78320336877E+02 0.  0.
      -24    2    3    3    0    0  0.16357087550E+03 -0.93555929321E+02 -0.26014314726E+03  0.33108040719E+03  0.80197479596E+02 0.  0.
      -13    1    4    4    0    0 -0.14328144195E+03  0.46268814482E+02  0.51852952938E+03  0.53994744896E+03  0.00000000000E+00 0.  1.
       14    1    4    4    0    0 -0.20289433550E+02  0.47287114838E+02  0.24784739745E+03  0.25313250437E+03  0.00000000000E+00 0. -1.
        3    1    5    5  501    0  0.12215553480E+03 -0.55208069762E+02 -0.23212024520E+03  0.26804796937E+03  0.00000000000E+00 0. -1.
       -4    1    5    5    0  501  0.41415340699E+02 -0.38347859559E+02 -0.28022902065E+02  0.63032437825E+02  0.14200000000E+01 0.  1.
</event>
<event>
 9   1  0.7335000E-04  0.1005821E+04  0.7818608E-02  0.9302184E-01
       21   -1    0    0  503  502  0.00000000000E+00  0.00000000000E+00  0.60256047054E+03  0.60256047054E+03  0.00000000000E+00 0.  1.
       21   -1    0    0  502  503 -0.00000000000E+00 -0.00000000000E+00 -0.41974011199E+03  0.41974011199E+03  0.00000000000E+00 0. -1.
       39    2    1    2    0    0  0.14210854715E-13  0.14210854715E-13  0.18282035855E+03  0.10223005825E+04  0.10058206587E+04 0.  0.
       24    2    3    3    0    0 -0.72160351641E+02  0.10944593365E+03 -0.39424349057E+03  0.42504330530E+03  0.89712612203E+02 0.  0.
      -24    2    3    3    0    0  0.72160351641E+02 -0.10944593365E+03  0.57706384912E+03  0.59725727723E+03  0.80796290186E+02 0.  0.
      -13    1    4    4    0    0 -0.31601348303E+02  0.62137163286E+02 -0.86699301622E+02  0.11124945473E+03  0.00000000000E+00 0.  1.
       14    1    4    4    0    0 -0.40559003337E+02  0.47308770366E+02 -0.30754418894E+03  0.31379385057E+03  0.00000000000E+00 0. -1.
        1    1    5    5  501    0 -0.51561501313E+01 -0.14512676384E+02  0.13292017612E+02  0.20344075113E+02  0.00000000000E+00 0. -1.
       -2    1    5    5    0  501  0.77316501772E+02 -0.94933257268E+02  0.56377183150E+03  0.57691320212E+03  0.00000000000E+00 0.  1.
</event>
<event>
 9   1  0.7335000E-04  0.1014793E+04  0.7818608E-02  0.9292468E-01
       21   -1    0    0  503  502  0.00000000000E+00  0.00000000000E+00  0.14320767518E+03  0.14320767518E+03  0.00000000000E+00 0. -1.
       21   -1    0    0  502  503 -0.00000000000E+00 -0.00000000000E+00 -0.17977463808E+04  0.17977463808E+04  0.00000000000E+00 0.  1.
       39    2    1    2    0    0  0.00000000000E+00 -0.56843418861E-13 -0.16545387057E+04  0.19409540560E+04  0.10147927468E+04 0.  0.
       24    2    3    3    0    0  0.39207398168E+03  0.30860772801E+03 -0.73543724195E+03  0.89237136042E+03  0.80609994127E+02 0.  0.
      -24    2    3    3    0    0 -0.39207398168E+03 -0.30860772801E+03 -0.91910146370E+03  0.10485826956E+04  0.76272091908E+02 0.  0.
      -13    1    4    4    0    0  0.25346379170E+03  0.21778532075E+03 -0.55103585937E+03  0.64444926717E+03  0.00000000000E+00 0.  1.
       14    1    4    4    0    0  0.13861018998E+03  0.90822407262E+02 -0.18440138258E+03  0.24792209326E+03  0.00000000000E+00 0. -1.
        3    1    5    5  501    0 -0.35006600570E+03 -0.26280393178E+03 -0.74973517983E+03  0.86816758450E+03  0.00000000000E+00 0. -1.
       -4    1    5    5    0  501 -0.42007975986E+02 -0.45803796230E+02 -0.16936628387E+03  0.18041511108E+03  0.14200000000E+01 0.  1.
</event>
<event>
 9   1  0.7335000E-04  0.9987422E+03  0.7818608E-02  0.9309925E-01
       21   -1    0    0  503  502  0.00000000000E+00  0.00000000000E+00  0.91602935602E+03  0.91602935602E+03  0.00000000000E+00 0. -1.
       21   -1    0    0  502  503 -0.00000000000E+00 -0.00000000000E+00 -0.27223090137E+03  0.27223090137E+03  0.00000000000E+00 0.  1.
       39    2    1    2    0    0  0.00000000000E+00  0.00000000000E+00  0.64379845465E+03  0.11882602574E+04  0.99874220352E+03 0.  0.
       24    2    3    3    0    0  0.47819014991E+03  0.30305471898E+02  0.45093452418E+03  0.66311802785E+03  0.82458066085E+02 0.  0.
      -24    2    3    3    0    0 -0.47819014991E+03 -0.30305471898E+02  0.19286393047E+03  0.52514222954E+03  0.94834721859E+02 0.  0.
      -13    1    4    4    0    0  0.28464213108E+01  0.83247199685E+01  0.16896736799E+02  0.19050007645E+02  0.00000000000E+00 0.  1.
       14    1    4    4    0    0  0.47534372860E+03  0.21980751930E+02  0.43403778738E+03  0.64406802021E+03  0.00000000000E+00 0. -1.
        1    1    5    5  501    0 -0.23438258102E+03 -0.13223289825E+02  0.14550295215E+03  0.27619043930E+03  0.00000000000E+00 0. -1.
       -2    1    5    5    0  501 -0.24380756890E+03 -0.17082182073E+02  0.47360978321E+02  0.24895179024E+03  0.00000000000E+00 0.  1.
</event>
<event>
 9   1  0.7335000E-04  0.9939650E+03  0.7818608E-02  0.9315189E-01
       21   -1    0    0  503  502  0.00000000000E+00  0.00000000000E+00  0.31802742182E+03  0.31802742182E+03  0.00000000000E+00 0.  1.
       21   -1    0    0  502  503 -0.00000000000E+00 -0.00000000000E+00 -0.77663615452E+03  0.77663615452E+03  0.00000000000E+00 0. -1.
       39    2    1    2    0    0  0.00000000000E+00  0.17763568394E-14 -0.45860873270E+03  0.10946635763E+04  0.99396497707E+03 0.  0.
       24    2    3    3    0    0  0.28840919226E+03  0.41693673061E+01  0.20780051915E+03  0.36425227692E+03  0.79381481984E+02 0.  0.
      -24    2    3    3    0    0 -0.28840919226E+03 -0.41693673061E+01 -0.66640925185E+03  0.73041129941E+03  0.78753600324E+02 0.  0.
      -13    1    4    4    0    0  0.23799098820E+03  0.17985724037E+02  0.20001483492E+03  0.31139866879E+03  0.00000000000E+00 0.  1.
       14    1    4    4    0    0  0.50418204058E+02 -0.13816356731E+02  0.77856842214E+01  0.52853608132E+02  0.00000000000E+00 0. -1.
        1    1    5    5  501    0 -0.25085411393E+03  0.10956314715E+02 -0.50470043961E+03  0.56371123907E+03  0.00000000000E+00 0. -1.
       -2    1    5    5    0  501 -0.37555078323E+02 -0.15125682021E+02 -0.16170881224E+03  0.16670006035E+03  0.00000000000E+00 0.  1.
</event>
<event>
 9   1  0.7335000E-04  0.9968105E+03  0.7818608E-02  0.9312050E-01
       -2   -1    0    0    0  501 -0.00000000000E+00  0.00000000000E+00  0.27444854484E+03  0.27444854484E+03  0.00000000000E+00 0. -1.
        2   -1    0    0  501    0  0.00000000000E+00 -0.00000000000E+00 -0.90511608522E+03  0.90511608522E+03  0.00000000000E+00 0.  1.
       39    2    1    2    0    0  0.00000000000E+00  0.00000000000E+00 -0.63066754038E+03  0.11795646301E+04  0.99681049853E+03 0.  0.
       24    2    3    3    0    0 -0.42156830170E+03 -0.23787208431E+03 -0.21068511221E+03  0.53372644665E+03  0.78566798716E+02 0.  0.
      -24    2    3    3    0    0  0.42156830170E+03  0.23787208431E+03 -0.41998242817E+03  0.64583818341E+03  0.80117149745E+02 0.  0.
      -13    1    4    4    0    0 -0.56678583473E+02 -0.33533190413E+02 -0.60325293896E+02  0.89308889633E+02  0.00000000000E+00 0.  1.
       14    1    4    4    0    0 -0.36488971822E+03 -0.20433889390E+03 -0.15035981831E+03  0.44441755702E+03  0.00000000000E+00 0. -1.
        3    1    5    5  502    0  0.59241682579E+02  0.18529499620E+02 -0.25726958989E+02  0.67192229683E+02  0.00000000000E+00 0. -1.
       -4    1    5    5    0  502  0.36232661912E+03  0.21934258469E+03 -0.39425546918E+03  0.57864595372E+03  0.14200000000E+01 0.  1.
</event>
<event>
 9   1  0.7335000E-04  0.9959989E+03  0.7818608E-02  0.9312944E-01
       21   -1    0    0  503  502  0.00000000000E+00  0.00000000000E+00  0.22497744571E+03  0.22497744571E+03  0.00000000000E+00 0. -1.
       21   -1    0    0  502  503 -0.00000000000E+00 -0.00000000000E+00 -0.11023480080E+04  0.11023480080E+04  0.00000000000E+00 0.  1.
       39    2    1    2    0    0 -0.14210854715E-13 -0.14210854715E-13 -0.87737056231E+03  0.13273254537E+04  0.99599887375E+03 0.  0.
       24    2    3    3    0    0 -0.68351058960E+02 -0.11527753985E+03 -0.10697337639E+04  0.10814154836E+04  0.84666074848E+02 0.  0.
      -24    2    3    3    0    0  0.68351058960E+02  0.11527753985E+03  0.19236320154E+03  0.24590997011E+03  0.74211411773E+02 0.  0.
      -13    1    4    4    0    0 -0.75677030993E+02 -0.12385559556E+03 -0.93363365247E+03  0.94484867497E+03  0.00000000000E+00 0.  1.
       14    1    4    4    0    0  0.73259720324E+01  0.85780557065E+01 -0.13610011138E+03  0.13656680865E+03  0.00000000000E+00 0. -1.
        3    1    5    5  501    0  0.73981544941E+02  0.62962836069E+02  0.98821253785E+02  0.13857571186E+03  0.00000000000E+00 0. -1.
       -4    1    5    5    0  501 -0.56304859806E+01  0.52314703780E+02  0.93541947759E+02  0.10733425825E+03  0.14200000000E+01 0.  1.
</event>
<event>
 9   1  0.7335000E-04  0.9981156E+03  0.7818608E-02  0.9310614E-01
       21   -1    0    0  503  502  0.00000000000E+00  0.00000000000E+00  0.81220919212E+03  0.81220919212E+03  0.00000000000E+00 0. -1.
       21   -1    0    0  502  503 -0.00000000000E+00 -0.00000000000E+00 -0.30664352509E+03  0.30664352509E+03  0.00000000000E+00 0.  1.
       39    2    1    2    0    0  0.00000000000E+00  0.00000000000E+00  0.50556566703E+03  0.11188527172E+04  0.99811560409E+03 0.  0.
       24    2    3    3    0    0 -0.27101525398E+03  0.38924948008E+03  0.40342192671E+03  0.62699079149E+03  0.73510380434E+02 0.  0.
      -24    2    3    3    0    0  0.27101525398E+03 -0.38924948008E+03  0.10214374033E+03  0.49186192572E+03  0.80810795397E+02 0.  0.
      -13    1    4    4    0    0 -0.22403787530E+02  0.69205824332E+02  0.82975492682E+02  0.11034631033E+03  0.00000000000E+00 0.  1.
       14    1    4    4    0    0 -0.24861146645E+03  0.32004365575E+03  0.32044643403E+03  0.51664448116E+03  0.00000000000E+00 0. -1.
        1    1    5    5  501    0  0.83500694356E+02 -0.10695684648E+03 -0.68656363653E+01  0.13586489587E+03  0.00000000000E+00 0. -1.
       -2    1    5    5    0  501  0.18751455962E+03 -0.28229263361E+03  0.10900937669E+03  0.35599702985E+03  0.00000000000E+00 0.  1.
</event>
<event>
 9   1  0.7335000E-04  0.9750694E+03  0.7818608E-02  0.9336319E-01
       21   -1    0    0  503  502  0.00000000000E+00  0.00000000000E+00  0.36955914005E+03  0.36955914005E+03  0.00000000000E+00 0.  1.
       21   -1    0    0  502  503 -0.00000000000E+00 -0.00000000000E+00 -0.64317199706E+03  0.64317199706E+03  0.00000000000E+00 0. -1.
       39    2    1    2    0    0  0.00000000000E+00  0.56843418861E-13 -0.27361285701E+03  0.10127311371E+04  0.97506941320E+03 0.  0.
       24    2    3    3    0    0  0.28092539638E+03 -0.37427015440E+03 -0.19329597429E+02  0.47404854829E+03  0.73151664286E+02 0.  0.
      -24    2    3    3    0    0 -0.28092539638E+03  0.37427015440E+03 -0.25428325959E+03  0.53868258883E+03  0.80757220053E+02 0.  0.
      -13    1    4    4    0    0  0.26977536433E+03 -0.37491743043E+03 -0.15195858358E+02  0.46213930903E+03  0.00000000000E+00 0.  1.
       14    1    4    4    0    0  0.11150032053E+02  0.64727602532E+00 -0.41337390710E+01  0.11909239260E+02  0.00000000000E+00 0. -1.
        3    1    5    5  501    0 -0.28650139567E+03  0.36728404107E+03 -0.25019385512E+03  0.52875096377E+03  0.00000000000E+00 0. -1.
       -4    1    5    5    0  501  0.55759992819E+01  0.69861133322E+01 -0.40894044620E+01  0.99316250602E+01  0.14200000000E+01 0.  1.
</event>
<event>
 9   1  0.7335000E-04  0.1030928E+04  0.7818608E-02  0.9275259E-01
        2   -1    0    0  501    0  0.00000000000E+00  0.00000000000E+00  0.98238563592E+03  0.98238563592E+03  0.00000000000E+00 0.  1.
       -2   -1    0    0    0  501 -0.00000000000E+00 -0.00000000000E+00 -0.27046726079E+03  0.27046726079E+03  0.00000000000E+00 0. -1.
       39    2    1    2    0    0  0.14210854715E-13 -0.11368683772E-12  0.71191837514E+03  0.12528528967E+04  0.10309280324E+04 0.  0.
       24    2    3    3    0    0 -0.86343724693E+02  0.48312900055E+03  0.20643552566E+03  0.54358716806E+03  0.10955598139E+03 0.  0.
      -24    2    3    3    0    0  0.86343724693E+02 -0.48312900055E+03  0.50548284948E+03  0.70926572864E+03  0.81707360395E+02 0.  0.
      -13    1    4    4    0    0 -0.25168160206E+01  0.14966100406E+03  0.11219724154E+03  0.18706408396E+03  0.00000000000E+00 0.  1.
       14    1    4    4    0    0 -0.83826908672E+02  0.33346799649E+03  0.94238284118E+02  0.35652308410E+03  0.00000000000E+00 0. -1.
        3    1    5    5  502    0  0.40551734737E+01  0.23860813860E+01  0.23927894493E+01  0.52785658688E+01  0.00000000000E+00 0. -1.
       -4    1    5    5    0  502  0.82288551219E+02 -0.48551508194E+03  0.50309006003E+03  0.70398716278E+03  0.14200000000E+01 0.  1.
</event>
<event>
 9   1  0.7335000E-04  0.9978023E+03  0.7818608E-02  0.9310958E-01
       21   -1    0    0  503  502  0.00000000000E+00  0.00000000000E+00  0.36266934121E+03  0.36266934121E+03  0.00000000000E+00 0.  1.
       21   -1    0    0  502  503 -0.00000000000E+00 -0.00000000000E+00 -0.68630657596E+03  0.68630657596E+03  0.00000000000E+00 0. -1.
       39    2    1    2    0    0  0.28421709430E-13  0.71054273576E-14 -0.32363723475E+03  0.10489759172E+04  0.99780229258E+03 0.  0.
       24    2    3    3    0    0  0.22402088527E+03 -0.22313859935E+02 -0.61889358064E+03  0.66244484721E+03  0.71558689567E+02 0.  0.
      -24    2    3    3    0    0 -0.22402088527E+03  0.22313859935E+02  0.29525634589E+03  0.38653106996E+03  0.10745553906E+03 0.  0.
      -13    1    4    4    0    0  0.51229664520E+02 -0.15937117270E+01 -0.24120587256E+03  0.24659134495E+03  0.00000000000E+00 0.  1.
       14    1    4    4    0    0  0.17279122075E+03 -0.20720148208E+02 -0.37768770808E+03  0.41585350226E+03  0.00000000000E+00 0. -1.
        3    1    5    5  501    0 -0.73461014088E+02  0.41334969204E+02  0.17001473515E+03  0.18976330108E+03  0.00000000000E+00 0. -1.
       -4    1    5    5    0  501 -0.15055987118E+03 -0.19021109270E+02  0.12524161074E+03  0.19676776888E+03  0.14200000000E+01 0.  1.
</event>
<event>
 9   1  0.7335000E-04  0.9868471E+03  0.7818608E-02  0.9323089E-01
       21   -1    0    0  503  502  0.00000000000E+00  0.00000000000E+00  0.17397010710E+04  0.17397010710E+04  0.00000000000E+00 0. -1.
       21   -1    0    0  502  503 -0.00000000000E+00 -0.00000000000E+00 -0.13994749834E+03  0.13994749834E+03  0.00000000000E+00 0.  1.
       39    2    1    2    0    0  0.00000000000E+00 -0.28421709430E-13  0.15997535726E+04  0.18796485693E+04  0.98684712646E+03 0.  0.
       24    2    3    3    0    0 -0.26392497332E+03  0.22686229414E+03  0.14474387464E+04  0.14907463863E+04  0.78249420126E+02 0.  0.
      -24    2    3    3    0    0  0.26392497332E+03 -0.22686229414E+03  0.15231482626E+03  0.38890218301E+03  0.83199817363E+02 0.  0.
      -13    1    4    4    0    0 -0.25009070064E+03  0.23067169991E+03  0.13477646507E+04  0.13900447279E+04  0.00000000000E+00 0.  1.
       14    1    4    4    0    0 -0.13834272678E+02 -0.38094057712E+01  0.99674095632E+02  0.10070165844E+03  0.00000000000E+00 0. -1.
        1    1    5    5  501    0  0.89473320000E+02 -0.75441445280E+02  0.95406164722E+02  0.15099411553E+03  0.00000000000E+00 0. -1.
       -2    1    5    5    0  501  0.17445165332E+03 -0.15142084886E+03  0.56908661540E+02  0.23790806748E+03  0.00000000000E+00 0.  1.
</event>
<event>
 9   1  0.7335000E-04  0.9781249E+03  0.7818608E-02  0.9332868E-01
       21   -1    0    0  503  502  0.00000000000E+00  0.00000000000E+00  0.24376137645E+03  0.24376137645E+03  0.00000000000E+00 0. -1.
       21   -1    0    0  502  503 -0.00000000000E+00 -0.00000000000E+00 -0.98121409397E+03  0.98121409397E+03  0.00000000000E+00 0.  1.
       39    2    1    2    0    0  0.00000000000E+00  0.00000000000E+00 -0.73745271752E+03  0.12249754704E+04  0.97812493709E+03 0.  0.
       24    2    3    3    0    0  0.63841787743E+02  0.28560270079E+03  0.11131828813E+03  0.32330849304E+03  0.80572599782E+02 0.  0.
      -24    2    3    3    0    0 -0.63841787743E+02 -0.28560270079E+03 -0.84877100564E+03  0.90166697738E+03  0.83345314908E+02 0.  0.
      -13    1    4    4    0    0  0.40686516004E+02  0.15797555222E+03  0.19289901192E+02  0.16426736734E+03  0.00000000000E+00 0.  1.
       14    1    4    4    0    0  0.23155271739E+02  0.12762714857E+03  0.92028386934E+02  0.15904112570E+03  0.00000000000E+00 0. -1.
        1    1    5    5  501    0 -0.73412461861E+02 -0.15585538212E+03 -0.43291824831E+03  0.46593830000E+03  0.00000000000E+00 0. -1.
       -2    1    5    5    0  501  0.95706741177E+01 -0.12974731867E+03 -0.41585275734E+03  0.43572867738E+03  0.00000000000E+00 0.  1.
</event>
<event>
 9   1  0.7335000E-04  0.1041293E+04  0.7818608E-02  0.9264379E-01
       21   -1    0    0  503  502  0.00000000000E+00  0.00000000000E+00  0.79553614747E+03  0.79553614747E+03  0.00000000000E+00 0.  1.
       21   -1    0    0  502  503 -0.00000000000E+00 -0.00000000000E+00 -0.34074256763E+03  0.34074256763E+03  0.00000000000E+00 0. -1.
       39    2    1    2    0    0  0.14210854715E-13  0.56843418861E-13  0.45479357985E+03  0.11362787151E+04  0.10412934832E+04 0.  0.
       24    2    3    3    0    0  0.91842645980E+02  0.50282598974E+03  0.30028770257E+03  0.59743560327E+03  0.74077986998E+02 0.  0.
      -24    2    3    3    0    0 -0.91842645980E+02 -0.50282598974E+03  0.15450587728E+03  0.53884311183E+03  0.72185770567E+02 0.  0.
      -13    1    4    4    0    0  0.31527614478E+02  0.22106879351E+03  0.17277437164E+03  0.28234090287E+03  0.00000000000E+00 0.  1.
       14    1    4    4    0    0  0.60315031502E+02  0.28175719623E+03  0.12751333093E+03  0.31509470040E+03  0.00000000000E+00 0. -1.
        3    1    5    5  501    0 -0.61382993654E+02 -0.39708597177E+03  0.91700194982E+02  0.41213355438E+03  0.00000000000E+00 0. -1.
       -4    1    5    5    0  501 -0.30459652325E+02 -0.10574001797E+03  0.62805682294E+02  0.12670955745E+03  0.14200000000E+01 0.  1.
</event>
<event>
 9   1  0.7335000E-04  0.9902213E+03  0.7818608E-02  0.9319335E-01
        2   -1    0    0  501    0  0.00000000000E+00  0.00000000000E+00  0.24439218605E+04  0.24439218605E+04  0.00000000000E+00 0.  1.
       -2   -1    0    0    0  501 -0.00000000000E+00 -0.00000000000E+00 -0.10030376826E+03  0.10030376826E+03  0.00000000000E+00 0. -1.
       39    2    1    2    0    0  0.00000000000E+00  0.00000000000E+00  0.23436180923E+04  0.25442256288E+04  0.99022133273E+03 0.  0.
       24    2    3    3    0    0 -0.31770419414E+03  0.32261680075E+03  0.16436804101E+04  0.17067998601E+04  0.80392269455E+02 0.  0.
      -24    2    3    3    0    0  0.31770419414E+03 -0.32261680075E+03  0.69993768221E+03  0.83742576867E+03  0.79696950759E+02 0.  0.
      -13    1    4    4    0    0 -0.26308355570E+03  0.22819606590E+03  0.11706281510E+04  0.12213339714E+04  0.00000000000E+00 0.  1.
       14    1    4    4    0    0 -0.54620638442E+02  0.94420734853E+02  0.47305225901E+03  0.48546588868E+03  0.00000000000E+00 0. -1.
        1    1    5    5  502    0  0.14896104611E+03 -0.10697198162E+03  0.23843241494E+03  0.30080294980E+03  0.00000000000E+00 0. -1.
       -2    1    5    5    0  502  0.16874314802E+03 -0.21564481913E+03  0.46150526727E+03  0.53662281887E+03  0.00000000000E+00 0.  1.
</event>
<event>
 9   1  0.7335000E-04  0.9955754E+03  0.7818608E-02  0.9313411E-01
       21   -1    0    0  503  502  0.00000000000E+00  0.00000000000E+00  0.29167186133E+03  0.29167186133E+03  0.00000000000E+00 0.  1.
       21   -1    0    0  502  503 -0.00000000000E+00 -0.00000000000E+00 -0.84955944857E+03  0.84955944857E+03  0.00000000000E+00 0. -1.
       39    2    1    2    0    0  0.00000000000E+00  0.00000000000E+00 -0.55788758723E+03  0.11412313099E+04  0.99557538274E+03 0.  0.
       24    2    3    3    0    0 -0.37358926471E+03  0.50619115681E+02 -0.64017376599E+03  0.74731162567E+03  0.80752595183E+02 0.  0.
      -24    2    3    3    0    0  0.37358926471E+03 -0.50619115681E+02  0.82286178758E+02  0.39391968423E+03  0.79186291921E+02 0.  0.
      -13    1    4    4    0    0 -0.21348453259E+03  0.20393557585E+02 -0.28614995193E+03  0.35759381683E+03  0.00000000000E+00 0.  1.
       14    1    4    4    0    0 -0.16010473212E+03  0.30225558096E+02 -0.35402381406E+03  0.38971780884E+03  0.00000000000E+00 0. -1.
        1    1    5    5  501    0  0.18505286447E+03 -0.28333027295E+02  0.51672856070E+00  0.18721001600E+03  0.00000000000E+00 0. -1.
       -2    1    5    5    0  501  0.18853640024E+03 -0.22286088386E+02  0.81769450197E+02  0.20670966823E+03  0.00000000000E+00 0.  1.
</event>
<event>
 9   1  0.7335000E-04  0.9849670E+03  0.7818608E-02  0.9325188E-01
       21   -1    0    0  503  502  0.00000000000E+00  0.00000000000E+00  0.55108917153E+03  0.55108917153E+03  0.00000000000E+00 0.  1.
       21   -1    0    0  502  503 -0.00000000000E+00 -0.00000000000E+00 -0.44011028369E+03  0.44011028369E+03  0.00000000000E+00 0. -1.
       39    2    1    2    0    0 -0.28421709430E-13  0.00000000000E+00  0.11097888784E+03  0.99119945522E+03  0.98496702812E+03 0.  0.
       24    2    3    3    0    0 -0.21656544376E+03  0.40775827122E+03  0.20754517113E+03  0.51264953179E+03  0.81037924486E+02 0.  0.
      -24    2    3    3    0    0  0.21656544376E+03 -0.40775827122E+03 -0.96566283282E+02  0.47854992343E+03  0.80731548786E+02 0.  0.
      -13    1    4    4    0    0 -0.16701540096E+03  0.23172440534E+03  0.11844834781E+03  0.30922541177E+03  0.00000000000E+00 0.  1.
       14    1    4    4    0    0 -0.49550042801E+02  0.17603386588E+03  0.89096823314E+02  0.20342412001E+03  0.00000000000E+00 0. -1.
        3    1    5    5  501    0  0.14318964329E+03 -0.31330812527E+03 -0.41827544421E+02  0.34700835549E+03  0.00000000000E+00 0. -1.
       -4    1    5    5    0  501  0.73375800474E+02 -0.94450145945E+02 -0.54738738861E+02  0.13154156794E+03  0.14200000000E+01 0.  1.
</event>
<event>
 9   1  0.7335000E-04  0.1000311E+04  0.7818608E-02  0.9308203E-01
       21   -1    0    0  503  502  0.00000000000E+00  0.00000000000E+00  0.13351139063E+04  0.13351139063E+04  0.00000000000E+00 0. -1.
       21   -1    0    0  502  503 -0.00000000000E+00 -0.00000000000E+00 -0.18736651986E+03  0.18736651986E+03  0.00000000000E+00 0.  1.
       39    2    1    2    0    0  0.00000000000E+00 -0.56843418861E-13  0.11477473865E+04  0.15224804262E+04  0.10003112440E+04 0.  0.
       24    2    3    3    0    0 -0.18168396696E+03 -0.43611878522E+03  0.35965481011E+03  0.59961262112E+03  0.83516790532E+02 0.  0.
      -24    2    3    3    0    0  0.18168396696E+03  0.43611878522E+03  0.78809257636E+03  0.92286780506E+03  0.85944272756E+02 0.  0.
      -13    1    4    4    0    0 -0.41384943265E+02 -0.18415653892E+03  0.17338115809E+03  0.25629547467E+03  0.00000000000E+00 0.  1.
       14    1    4    4    0    0 -0.14029902369E+03 -0.25196224630E+03  0.18627365202E+03  0.34331714645E+03  0.00000000000E+00 0. -1.
        3    1    5    5  501    0  0.11417715933E+03  0.33505982588E+03  0.52666831577E+03  0.63457152904E+03  0.00000000000E+00 0. -1.
       -4    1    5    5    0  501  0.67506807631E+02  0.10105895935E+03  0.26142426059E+03  0.28829627602E+03  0.14200000000E+01 0.  1.
</event>
<event>
 9   1  0.7335000E-04  0.9909705E+03  0.7818608E-02  0.9318504E-01
       21   -1    0    0  503  502  0.00000000000E+00  0.00000000000E+00  0.85683461622E+03  0.85683461622E+03  0.00000000000E+00 0. -1.
       21   -1    0    0  502  503 -0.00000000000E+00 -0.00000000000E+00 -0.28652629112E+03  0.28652629112E+03  0.00000000000E+00 0.  1.
       39    2    1    2    0    0  0.00000000000E+00  0.00000000000E+00  0.57030832510E+03  0.11433609073E+04  0.99097052366E+03 0.  0.
       24    2    3    3    0    0  0.89499894735E+02 -0.27810894494E+03  0.73773994950E+03  0.79742109998E+03  0.79154034551E+02 0.  0.
      -24    2    3    3    0    0 -0.89499894735E+02  0.27810894494E+03 -0.16743162440E+03  0.34593980737E+03  0.79285465616E+02 0.  0.
      -13    1    4    4    0    0 -0.77061139608E+01 -0.82452758111E+01  0.66686408818E+02  0.67634650044E+02  0.00000000000E+00 0.  1.
       14    1    4    4    0    0  0.97206008696E+02 -0.26986366913E+03  0.67105354068E+03  0.72978644993E+03  0.00000000000E+00 0. -1.
        3    1    5    5  501    0  0.13131347362E+02  0.57001729127E+02 -0.40082052653E+02  0.70909804343E+02  0.00000000000E+00 0. -1.
       -4    1    5    5    0  501 -0.10263124210E+03  0.22110721581E+03 -0.12734957175E+03  0.27503000302E+03  0.14200000000E+01 0.  1.
</event>
<event>
 9   1  0.7335000E-04  0.1017984E+04  0.7818608E-02  0.9289038E-01
       21   -1    0    0  503  502  0.00000000000E+00  0.00000000000E+00  0.17628329655E+03  0.17628329655E+03  0.00000000000E+00 0. -1.
       21   -1    0    0  502  503 -0.00000000000E+00 -0.00000000000E+00 -0.14696380568E+04  0.14696380568E+04  0.00000000000E+00 0.  1.
       39    2    1    2    0    0  0.00000000000E+00  0.00000000000E+00 -0.12933547603E+04  0.16459213534E+04  0.10179835783E+04 0.  0.
       24    2    3    3    0    0  0.43221721106E+03  0.60333921829E+02 -0.10486440878E+04  0.11386779733E+04  0.80505926431E+02 0.  0.
      -24    2    3    3    0    0 -0.43221721106E+03 -0.60333921829E+02 -0.24471067246E+03  0.50724338014E+03  0.83430413010E+02 0.  0.
      -13    1    4    4    0    0  0.17726179090E+03 -0.13034669287E+02 -0.38905853161E+03  0.42773611741E+03  0.00000000000E+00 0.  1.
       14    1    4    4    0    0  0.25495542017E+03  0.73368591115E+02 -0.65958555621E+03  0.71094185585E+03  0.00000000000E+00 0. -1.
        3    1    5    5  501    0 -0.22414774746E+03 -0.66948674267E+02 -0.10424955118E+03  0.25610995021E+03  0.00000000000E+00 0. -1.
       -4    1    5    5    0  501 -0.20806946361E+03  0.66147524387E+01 -0.14046112128E+03  0.25113342993E+03  0.14200000000E+01 0.  1.
</event>
<event>
 9   1  0.7335000E-04  0.9973702E+03  0.7818608E-02  0.9311434E-01
       21   -1    0    0  503  502  0.00000000000E+00  0.00000000000E+00  0.13030433301E+04  0.13030433301E+04  0.00000000000E+00 0.  1.
       21   -1    0    0  502  503 -0.00000000000E+00 -0.00000000000E+00 -0.19085079081E+03  0.19085079081E+03  0.00000000000E+00 0. -1.
       39    2    1    2    0    0  0.00000000000E+00 -0.35527136788E-14  0.11121925393E+04  0.14938941210E+04  0.99737024222E+03 0.  0.
       24    2    3    3    0    0  0.44415486790E+03 -0.28446532279E+02  0.24205315267E+03  0.51320160240E+03  0.81874318984E+02 0.  0.
      -24    2    3    3    0    0 -0.44415486790E+03  0.28446532279E+02  0.87013938667E+03  0.98069251856E+03  0.80823955815E+02 0.  0.
      -13    1    4    4    0    0  0.45856264012E+02  0.19002510879E+02  0.41720044791E+02  0.64841765138E+02  0.00000000000E+00 0.  1.
       14    1    4    4    0    0  0.39829860389E+03 -0.47449043157E+02  0.20033310787E+03  0.44835983726E+03  0.00000000000E+00 0. -1.
        3    1    5    5  501    0 -0.71933845472E+02 -0.15504979794E+02  0.19610808985E+03  0.20945946010E+03  0.00000000000E+00 0. -1.
       -4    1    5    5    0  501 -0.37222102243E+03  0.43951512072E+02  0.67403129683E+03  0.77123305846E+03  0.14200000000E+01 0.  1.
</event>
<event>
 9   1  0.7335000E-04  0.9836986E+03  0.7818608E-02  0.9326607E-01
        2   -1    0    0  501    0  0.00000000000E+00  0.00000000000E+00  0.91830917700E+03  0.91830917700E+03  0.00000000000E+00 0. -1.
       -2   -1    0    0    0  501 -0.00000000000E+00 -0.00000000000E+00 -0.26343605964E+03  0.26343605964E+03  0.00000000000E+00 0.  1.
       39    2    1    2    0    0 -0.56843418861E-13  0.00000000000E+00  0.65487311736E+03  0.11817452366E+04  0.98369863499E+03 0.  0.
       24    2    3    3    0    0 -0.32254909162E+03  0.35778597979E+03  0.25729024959E+03  0.55200205628E+03  0.80369607210E+02 0.  0.
      -24    2    3    3    0    0  0.32254909162E+03 -0.35778597979E+03  0.39758286777E+03  0.62974318036E+03  0.80346827081E+02 0.  0.
      -13    1    4    4    0    0 -0.24517503687E+03  0.28856800077E+03  0.16481937016E+03  0.41297422989E+03  0.00000000000E+00 0.  1.
       14    1    4    4    0    0 -0.77374054749E+02  0.69217979028E+02  0.92470879437E+02  0.13902782640E+03  0.00000000000E+00 0. -1.
        1    1    5    5  502    0  0.25158732282E+02 -0.13122381883E+02  0.54185237571E+01  0.28888044517E+02  0.00000000000E+00 0. -1.
       -2    1    5    5    0  502  0.29739035934E+03 -0.34466359791E+03  0.39216434401E+03  0.60085513584E+03  0.00000000000E+00 0.  1.
</event>
<event>
 9   1  0.7335000E-04  0.1006164E+04  0.7818608E-02  0.9301810E-01
       21   -1    0    0  503  502  0.00000000000E+00  0.00000000000E+00  0.65242727810E+03  0.65242727810E+03  0.00000000000E+00 0. -1.
       21   -1    0    0  502  503 -0.00000000000E+00 -0.00000000000E+00 -0.38792265374E+03  0.38792265374E+03  0.00000000000E+00 0.  1.
       39    2    1    2    0    0  0.00000000000E+00  0.00000000000E+00  0.26450462436E+03  0.10403499318E+04  0.10061636469E+04 0.  0.
       24    2    3    3    0    0  0.42750847871E+02  0.41459759367E+03 -0.14616687753E+03  0.44967464476E+03  0.84402194169E+02 0.  0.
      -24    2    3    3    0    0 -0.42750847871E+02 -0.41459759367E+03  0.41067150189E+03  0.59067528708E+03  0.80792404486E+02 0.  0.
      -13    1    4    4    0    0  0.28329127955E+02  0.40583196773E+03 -0.13217654820E+03  0.42775315945E+03  0.00000000000E+00 0.  1.
       14    1    4    4    0    0  0.14421719917E+02  0.87656259397E+01 -0.13990329331E+02  0.21921485311E+02  0.00000000000E+00 0. -1.
        3    1    5    5  501    0 -0.25129663281E+02 -0.37222380488E+03  0.33110157016E+03  0.49880889192E+03  0.00000000000E+00 0. -1.
       -4    1    5    5    0  501 -0.17621184590E+02 -0.42373788791E+02  0.79569931731E+02  0.91866395153E+02  0.14200000000E+01 0.  1.
</event>
<event>
 9   1  0.7335000E-04  0.9624231E+03  0.7818608E-02  0.9350747E-01
       21   -1    0    0  503  502  0.00000000000E+00  0.00000000000E+00  0.23248655746E+04  0.23248655746E+04  0.00000000000E+00 0. -1.
       21   -1    0    0  502  503 -0.00000000000E+00 -0.00000000000E+00 -0.99603410940E+02  0.99603410940E+02  0.00000000000E+00 0.  1.
       39    2    1    2    0    0  0.56843418861E-13 -0.28421709430E-13  0.22252621636E+04  0.24244689855E+04  0.96242306956E+03 0.  0.
       24    2    3    3    0    0  0.31825559080E+03  0.17792189346E+03  0.34823516210E+03  0.51067108141E+03  0.81082698636E+02 0.  0.
      -24    2    3    3    0    0 -0.31825559080E+03 -0.17792189346E+03  0.18770270015E+04  0.19137979041E+04  0.80307110651E+02 0.  0.
      -13    1    4    4    0    0  0.27198310936E+03  0.17717138771E+03  0.28271976994E+03  0.43045903489E+03  0.00000000000E+00 0.  1.
       14    1    4    4    0    0  0.46272481437E+02  0.75050575069E+00  0.65515392168E+02  0.80212046528E+02  0.00000000000E+00 0. -1.
        1    1    5    5  501    0 -0.26814905511E+03 -0.11299427784E+03  0.14287508838E+04  0.14580811742E+04  0.00000000000E+00 0. -1.
       -2    1    5    5    0  501 -0.50106535684E+02 -0.64927615625E+02  0.44827611776E+03  0.45571672994E+03  0.00000000000E+00 0.  1.
</event>
<event>
 9   1  0.7335000E-04  0.1002784E+04  0.7818608E-02  0.9305497E-01
       21   -1    0    0  503  502  0.00000000000E+00  0.00000000000E+00  0.13664963819E+04  0.13664963819E+04  0.00000000000E+00 0. -1.
       21   -1    0    0  502  503 -0.00000000000E+00 -0.00000000000E+00 -0.18396970440E+03  0.18396970440E+03  0.00000000000E+00 0.  1.
       39    2    1    2    0    0 -0.28421709430E-13  0.11368683772E-12  0.11825266775E+04  0.15504660863E+04  0.10027839956E+04 0.  0.
       24    2    3    3    0    0 -0.10508519686E+03  0.29314565811E+03  0.11861002088E+04  0.12288660140E+04  0.79376945692E+02 0.  0.
      -24    2    3    3    0    0  0.10508519686E+03 -0.29314565811E+03 -0.35735312626E+01  0.32160007236E+03  0.80228180511E+02 0.  0.
      -13    1    4    4    0    0 -0.23275152141E+02  0.10900928126E+02  0.65127565500E+02  0.70015446361E+02  0.00000000000E+00 0.  1.
       14    1    4    4    0    0 -0.81810044717E+02  0.28224472998E+03  0.11209726433E+04  0.11588505676E+04  0.00000000000E+00 0. -1.
        3    1    5    5  501    0 -0.85526357305E+01 -0.36228827641E+02 -0.15718769503E+02  0.40407366220E+02  0.00000000000E+00 0. -1.
       -4    1    5    5    0  501  0.11363783259E+03 -0.25691683047E+03  0.12145238240E+02  0.28119270614E+03  0.14200000000E+01 0.  1.
</event>
<event>
 9   1  0.7335000E-04  0.9988505E+03  0.7818608E-02  0.9309806E-01
       21   -1    0    0  503  502  0.00000000000E+00  0.00000000000E+00  0.33164248573E+03  0.33164248573E+03  0.00000000000E+00 0. -1.
       21   -1    0    0  502  503 -0.00000000000E+00 -0.00000000000E+00 -0.75209169667E+03  0.75209169667E+03  0.00000000000E+00 0.  1.
       39    2    1    2    0    0  0.17763568394E-14  0.56843418861E-13 -0.42044921094E+03  0.10837341824E+04  0.99885045884E+03 0.  0.
       24    2    3    3    0    0 -0.13320979776E+02 -0.39715209508E+03  0.10636053935E+03  0.41930338016E+03  0.81212838572E+02 0.  0.
      -24    2    3    3    0    0  0.13320979776E+02  0.39715209508E+03 -0.52680975029E+03  0.66443080224E+03  0.77669445980E+02 0.  0.
      -13    1    4    4    0    0 -0.10456623611E+02 -0.54208924773E+01 -0.37849995374E+01  0.12371470167E+02  0.00000000000E+00 0.  1.
       14    1    4    4    0    0 -0.28643561654E+01 -0.39173120261E+03  0.11014553888E+03  0.40693190999E+03  0.00000000000E+00 0. -1.
        3    1    5    5  501    0 -0.74519772797E+01  0.12217771809E+02 -0.39930694052E+01  0.14857675344E+02  0.00000000000E+00 0. -1.
       -4    1    5    5    0  501  0.20772957056E+02  0.38493432328E+03 -0.52281668088E+03  0.64957312690E+03  0.14200000000E+01 0.  1.
</event>
<event>
 9   1  0.7335000E-04  0.9971302E+03  0.7818608E-02  0.9311698E-01
       21   -1    0    0  503  502  0.00000000000E+00  0.00000000000E+00  0.12042931807E+03  0.12042931807E+03  0.00000000000E+00 0. -1.
       21   -1    0    0  502  503 -0.00000000000E+00 -0.00000000000E+00 -0.20640086254E+04  0.20640086254E+04  0.00000000000E+00 0.  1.
       39    2    1    2    0    0 -0.56843418861E-13  0.00000000000E+00 -0.19435793074E+04  0.21844379435E+04  0.99713018460E+03 0.  0.
       24    2    3    3    0    0  0.30645995789E+03  0.70266706329E+02 -0.14549682502E+03  0.35728609490E+03  0.87343641490E+02 0.  0.
      -24    2    3    3    0    0 -0.30645995789E+03 -0.70266706329E+02 -0.17980824823E+04  0.18271518486E+04  0.80796960128E+02 0.  0.
      -13    1    4    4    0    0  0.14300056418E+02 -0.69850343461E+01 -0.29631699200E+02  0.33635099463E+02  0.00000000000E+00 0.  1.
       14    1    4    4    0    0  0.29215990147E+03  0.77251740676E+02 -0.11586512582E+03  0.32365099544E+03  0.00000000000E+00 0. -1.
        1    1    5    5  501    0 -0.45159417088E+02  0.38299706568E+01 -0.14538129982E+03  0.15228185698E+03  0.00000000000E+00 0. -1.
       -2    1    5    5    0  501 -0.26130054080E+03 -0.74096676986E+02 -0.16527011825E+04  0.16748699916E+04  0.00000000000E+00 0.  1.
</event>
<event>
 9   1  0.7335000E-04  0.9981285E+03  0.7818608E-02  0.9310600E-01
        1   -1    0    0  501    0  0.00000000000E+00  0.00000000000E+00  0.43131003107E+03  0.43131003107E+03  0.00000000000E+00 0.  1.
       -1   -1    0    0    0  501 -0.00000000000E+00 -0.00000000000E+00 -0.57746194099E+03  0.57746194099E+03  0.00000000000E+00 0. -1.
       39    2    1    2    0    0  0.00000000000E+00  0.00000000000E+00 -0.14615190992E+03  0.10087719721E+04  0.99812850417E+03 0.  0.
       24    2    3    3    0    0 -0.38978837963E+03 -0.29688417587E+03 -0.12605430284E+03  0.51152126273E+03  0.75426256605E+02 0.  0.
      -24    2    3    3    0    0  0.38978837963E+03  0.29688417587E+03 -0.20097607079E+02  0.49725070933E+03  0.82335650515E+02 0.  0.
      -13    1    4    4    0    0 -0.18605843550E+03 -0.10147830813E+03 -0.73920991242E+02  0.22445467557E+03  0.00000000000E+00 0.  1.
       14    1    4    4    0    0 -0.20372994413E+03 -0.19540586774E+03 -0.52133311595E+02  0.28706658716E+03  0.00000000000E+00 0. -1.
        3    1    5    5  502    0  0.28178111799E+03  0.24695802914E+03 -0.39202061699E+02  0.37673023273E+03  0.00000000000E+00 0. -1.
       -4    1    5    5    0  502  0.10800726164E+03  0.49926146734E+02  0.19104454620E+02  0.12052047660E+03  0.14200000000E+01 0.  1.
</event>
<event>
 9   1  0.7335000E-04  0.1081608E+04  0.7818608E-02  0.9223306E-01
       21   -1    0    0  503  502  0.00000000000E+00  0.00000000000E+00  0.55884296061E+03  0.55884296061E+03  0.00000000000E+00 0. -1.
       21   -1    0    0  502  503 -0.00000000000E+00 -0.00000000000E+00 -0.52334689526E+03  0.52334689526E+03  0.00000000000E+00 0.  1.
       39    2    1    2    0    0  0.00000000000E+00  0.00000000000E+00  0.35496065351E+02  0.10821898559E+04  0.10816075598E+04 0.  0.
       24    2    3    3    0    0 -0.28165947877E+03 -0.23756904200E+03  0.40543815542E+03  0.55371626721E+03  0.80314973720E+02 0.  0.
      -24    2    3    3    0    0  0.28165947877E+03  0.23756904200E+03 -0.36994209007E+03  0.52847358865E+03  0.81584754704E+02 0.  0.
      -13    1    4    4    0    0 -0.11664802345E+03 -0.11000208415E+03  0.23435979444E+03  0.28395727344E+03  0.00000000000E+00 0.  1.
       14    1    4    4    0    0 -0.16501145532E+03 -0.12756695784E+03  0.17107836099E+03  0.26975899377E+03  0.00000000000E+00 0. -1.
        1    1    5    5  501    0  0.74061054066E+02  0.87503516428E+02 -0.16243045563E+03  0.19881035696E+03  0.00000000000E+00 0. -1.
       -2    1    5    5    0  501  0.20759842470E+03  0.15006552557E+03 -0.20751163444E+03  0.32966323170E+03  0.00000000000E+00 0.  1.
</event>
<event>
 9   1  0.7335000E-04  0.1053360E+04  0.7818608E-02  0.9251882E-01
       21   -1    0    0  503  502  0.00000000000E+00  0.00000000000E+00  0.52170415773E+03  0.52170415773E+03  0.00000000000E+00 0.  1.
       21   -1    0    0  502  503 -0.00000000000E+00 -0.00000000000E+00 -0.53170315273E+03  0.53170315273E+03  0.00000000000E+00 0. -1.
       39    2    1    2    0    0  0.35527136788E-14  0.00000000000E+00 -0.99989949957E+01  0.10534073105E+04  0.10533598539E+04 0.  0.
       24    2    3    3    0    0  0.15956061092E+02  0.40072775108E+03 -0.33705423127E+03  0.52993284850E+03  0.79912093751E+02 0.  0.
      -24    2    3    3    0    0 -0.15956061092E+02 -0.40072775108E+03  0.32705523627E+03  0.52347446196E+03  0.78886363695E+02 0.  0.
      -13    1    4    4    0    0 -0.67201702093E+01  0.15474833388E+03 -0.17881483647E+03  0.23657335705E+03  0.00000000000E+00 0.  1.
       14    1    4    4    0    0  0.22676231301E+02  0.24597941721E+03 -0.15823939480E+03  0.29335949145E+03  0.00000000000E+00 0. -1.
        3    1    5    5  501    0  0.25920412329E+02 -0.59372275330E+02  0.49580257756E+02  0.81579021888E+02  0.00000000000E+00 0. -1.
       -4    1    5    5    0  501 -0.41876473421E+02 -0.34135547575E+03  0.27747497852E+03  0.44189544007E+03  0.14200000000E+01 0.  1.
</event>
<event>
 9   1  0.7335000E-04  0.9995948E+03  0.7818608E-02  0.9308989E-01
       21   -1    0    0  503  502  0.00000000000E+00  0.00000000000E+00  0.22560053296E+03  0.22560053296E+03  0.00000000000E+00 0.  1.
       21   -1    0    0  502  503 -0.00000000000E+00 -0.00000000000E+00 -0.11072554975E+04  0.11072554975E+04  0.00000000000E+00 0. -1.
       39    2    1    2    0    0  0.56843418861E-13  0.00000000000E+00 -0.88165496454E+03  0.13328560305E+04  0.99959477862E+03 0.  0.
       24    2    3    3    0    0  0.34317325034E+03  0.38929884174E+02  0.29659989357E+02  0.35599877486E+03  0.81067854929E+02 0.  0.
      -24    2    3    3    0    0 -0.34317325034E+03 -0.38929884174E+02 -0.91131495390E+03  0.97685725560E+03  0.66871047419E+02 0.  0.
      -13    1    4    4    0    0  0.32726865386E+03  0.17314363150E+02  0.30554353146E+02  0.32914757703E+03  0.00000000000E+00 0.  1.
       14    1    4    4    0    0  0.15904596486E+02  0.21615521024E+02 -0.89436378860E+00  0.26851197834E+02  0.00000000000E+00 0. -1.
        3    1    5    5  501    0 -0.15057815903E+03  0.13560315578E+01 -0.31994157307E+03  0.35360745323E+03  0.00000000000E+00 0. -1.
       -4    1    5    5    0  501 -0.19259509131E+03 -0.40285915732E+02 -0.59137338082E+03  0.62324980237E+03  0.14200000000E+01 0.  1.
</event>
<event>
 9   1  0.7335000E-04  0.9863486E+03  0.7818608E-02  0.9323645E-01
        2   -1    0    0  501    0  0.00000000000E+00  0.00000000000E+00  0.23353508962E+04  0.23353508962E+04  0.00000000000E+00 0. -1.
       -2   -1    0    0    0  501 -0.00000000000E+00 -0.00000000000E+00 -0.10414747261E+03  0.10414747261E+03  0.00000000000E+00 0.  1.
       39    2    1    2    0    0  0.00000000000E+00 -0.28421709430E-13  0.22312034236E+04  0.24394983688E+04  0.98634860670E+03 0.  0.
       24    2    3    3    0    0 -0.14734032495E+02 -0.16932275598E+03 -0.11984001524E+02  0.18844659906E+03  0.80506005983E+02 0.  0.
      -24    2    3    3    0    0  0.14734032495E+02  0.16932275598E+03  0.22431874251E+04  0.22510517697E+04  0.80355201723E+02 0.  0.
      -13    1    4    4    0    0 -0.47479965633E+02 -0.84030194030E+02 -0.10345986493E+02  0.97069357069E+02  0.00000000000E+00 0.  1.
       14    1    4    4    0    0  0.32745933138E+02 -0.85292561951E+02 -0.16380150308E+01  0.91377241994E+02  0.00000000000E+00 0. -1.
        3    1    5    5  502    0  0.27099661949E+02  0.15882739559E+03  0.21744990789E+04  0.21804602214E+04  0.00000000000E+00 0. -1.
       -4    1    5    5    0  502 -0.12365629454E+02  0.10495360388E+02  0.68688346211E+02  0.70591548266E+02  0.14200000000E+01 0.  1.
</event>
<event>
 9   1  0.7335000E-04  0.1003390E+04  0.7818608E-02  0.9304835E-01
       21   -1    0    0  503  502  0.00000000000E+00  0.00000000000E+00  0.32343496945E+03  0.32343496945E+03  0.00000000000E+00 0. -1.
       21   -1    0    0  502  503 -0.00000000000E+00 -0.00000000000E+00 -0.77820223127E+03  0.77820223127E+03  0.00000000000E+00 0.  1.
       39    2    1    2    0    0  0.00000000000E+00  0.71054273576E-14 -0.45476726182E+03  0.11016372007E+04  0.10033898841E+04 0.  0.
       24    2    3    3    0    0  0.39496418523E+03  0.52767247900E+02  0.97427210354E+02  0.41592841683E+03  0.68726243488E+02 0.  0.
      -24    2    3    3    0    0 -0.39496418523E+03 -0.52767247900E+02 -0.55219447218E+03  0.68570878390E+03  0.80602178347E+02 0.  0.
      -13    1    4    4    0    0  0.29908015416E+03  0.26028326716E+02  0.45446591046E+02  0.30363103438E+03  0.00000000000E+00 0.  1.
       14    1    4    4    0    0  0.95884031067E+02  0.26738921184E+02  0.51980619307E+02  0.11229738244E+03  0.00000000000E+00 0. -1.
        3    1    5    5  501    0 -0.33186392710E+02  0.16012632943E+02 -0.68491788711E+02  0.77774457219E+02  0.00000000000E+00 0. -1.
       -4    1    5    5    0  501 -0.36177779252E+03 -0.68779880843E+02 -0.48370268347E+03  0.60793432668E+03  0.14200000000E+01 0.  1.
</event>
<event>
 9   1  0.7335000E-04  0.9810480E+03  0.7818608E-02  0.9329579E-01
       21   -1    0    0  503  502  0.00000000000E+00  0.00000000000E+00  0.16182123827E+03  0.16182123827E+03  0.00000000000E+00 0. -1.
       21   -1    0    0  502  503 -0.00000000000E+00 -0.00000000000E+00 -0.14869110787E+04  0.14869110787E+04  0.00000000000E+00 0.  1.
       39    2    1    2    0    0  0.00000000000E+00  0.00000000000E+00 -0.13250898404E+04  0.16487323170E+04  0.98104799466E+03 0.  0.
       24    2    3    3    0    0 -0.92700070879E+02  0.55212007593E+02  0.12999379915E+03  0.18738045002E+03  0.81064025978E+02 0.  0.
      -24    2    3    3    0    0  0.92700070879E+02 -0.55212007593E+02 -0.14550836396E+04  0.14613518670E+04  0.81481359535E+02 0.  0.
      -13    1    4    4    0    0 -0.57504532999E+01 -0.17037108817E+02  0.46214956084E+01  0.18565802209E+02  0.00000000000E+00 0.  1.
       14    1    4    4    0    0 -0.86949617579E+02  0.72249116411E+02  0.12537230354E+03  0.16881464781E+03  0.00000000000E+00 0. -1.
        3    1    5    5  501    0  0.70882728797E+01  0.18476164620E+02 -0.33561892640E+03  0.33620183823E+03  0.00000000000E+00 0. -1.
       -4    1    5    5    0  501  0.85611797999E+02 -0.73688172214E+02 -0.11194647132E+04  0.11251500287E+04  0.14200000000E+01 0.  1.
</event>
<event>
 9   1  0.7335000E-04  0.1004711E+04  0.7818608E-02  0.9303393E-01
       21   -1    0    0  503  502  0.00000000000E+00  0.00000000000E+00  0.30476541856E+03  0.30476541856E+03  0.00000000000E+00 0. -1.
       21   -1    0    0  502  503 -0.00000000000E+00 -0.00000000000E+00 -0.82804940334E+03  0.82804940334E+03  0.00000000000E+00 0.  1.
       39    2    1    2    0    0  0.00000000000E+00 -0.35527136788E-14 -0.52328398478E+03  0.11328148219E+04  0.10047105513E+04 0.  0.
       24    2    3    3    0    0  0.15574290841E+03  0.31671313630E+02  0.26802833241E+03  0.32209103262E+03  0.81513929417E+02 0.  0.
      -24    2    3    3    0    0 -0.15574290841E+03 -0.31671313630E+02 -0.79131231719E+03  0.81072378928E+03  0.76413045643E+02 0.  0.
      -13    1    4    4    0    0  0.32057223177E+02  0.31451555885E+02  0.30494781281E+02  0.54284414069E+02  0.00000000000E+00 0.  1.
       14    1    4    4    0    0  0.12368568523E+03  0.21975774550E+00  0.23753355113E+03  0.26780661855E+03  0.00000000000E+00 0. -1.
        3    1    5    5  501    0 -0.70380472783E+01 -0.17854607427E+01 -0.28449444019E+01  0.77984413959E+01  0.00000000000E+00 0. -1.
       -4    1    5    5    0  501 -0.14870486113E+03 -0.29885852887E+02 -0.78846737279E+03  0.80292534789E+03  0.14200000000E+01 0.  1.
</event>
<event>
 9   1  0.7335000E-04  0.1014627E+04  0.7818608E-02  0.9292646E-01
       21   -1    0    0  503  502  0.00000000000E+00  0.00000000000E+00  0.10198701976E+04  0.10198701976E+04  0.00000000000E+00 0.  1.
       21   -1    0    0  502  503 -0.00000000000E+00 -0.00000000000E+00 -0.25235262196E+03  0.25235262196E+03  0.00000000000E+00 0. -1.
       39    2    1    2    0    0  0.00000000000E+00 -0.56843418861E-13  0.76751757566E+03  0.12722228196E+04  0.10146268643E+04 0.  0.
       24    2    3    3    0    0 -0.35686812047E+03 -0.18091075918E+03  0.76186863665E+03  0.86428948485E+03  0.80429695472E+02 0.  0.
      -24    2    3    3    0    0  0.35686812047E+03  0.18091075918E+03  0.56489390148E+01  0.40793333475E+03  0.79335596613E+02 0.  0.
      -13    1    4    4    0    0 -0.35385208720E+03 -0.16521135175E+03  0.71396512714E+03  0.81378885046E+03  0.00000000000E+00 0.  1.
       14    1    4    4    0    0 -0.30160332746E+01 -0.15699407425E+02  0.47903509512E+02  0.50500634390E+02  0.00000000000E+00 0. -1.
        1    1    5    5  501    0  0.35841494572E+03  0.16993497593E+03  0.36891691300E+01  0.39667717268E+03  0.00000000000E+00 0. -1.
       -2    1    5    5    0  501 -0.15468252509E+01  0.10975783253E+02  0.19597698848E+01  0.11256162062E+02  0.00000000000E+00 0.  1.
</event>
<event>
 9   1  0.7335000E-04  0.9977679E+03  0.7818608E-02  0.9310996E-01
       21   -1    0    0  503  502  0.00000000000E+00  0.00000000000E+00  0.86725010439E+02  0.86725010439E+02  0.00000000000E+00 0. -1.
       21   -1    0    0  502  503 -0.00000000000E+00 -0.00000000000E+00 -0.28698201468E+04  0.28698201468E+04  0.00000000000E+00 0.  1.
       39    2    1    2    0    0 -0.71054273576E-14  0.35527136788E-14 -0.27830951364E+04  0.29565451573E+04  0.99776787319E+03 0.  0.
       24    2    3    3    0    0 -0.20017785276E+02  0.16624839186E+02 -0.28573287220E+04  0.28585735205E+04  0.80237455674E+02 0.  0.
      -24    2    3    3    0    0  0.20017785276E+02 -0.16624839186E+02  0.74233585667E+02  0.97971636753E+02  0.58401364382E+02 0.  0.
      -13    1    4    4    0    0 -0.43157271988E+02  0.15598615934E+02 -0.25343081664E+04  0.25347236041E+04  0.00000000000E+00 0.  1.
       14    1    4    4    0    0  0.23139486713E+02  0.10262232520E+01 -0.32302055569E+03  0.32384991644E+03  0.00000000000E+00 0. -1.
        3    1    5    5  501    0  0.78476986131E+01 -0.37095395343E+02  0.57325204197E+02  0.68730151792E+02  0.00000000000E+00 0. -1.
       -4    1    5    5    0  501  0.12170086663E+02  0.20470556157E+02  0.16908381471E+02  0.29241484961E+02  0.14200000000E+01 0.  1.
</event>
<event>
 9   1  0.7335000E-04  0.1001557E+04  0.7818608E-02  0.9306839E-01
       21   -1    0    0  503  502  0.00000000000E+00  0.00000000000E+00  0.52785828040E+03  0.52785828040E+03  0.00000000000E+00 0. -1.
       21   -1    0    0  502  503 -0.00000000000E+00 -0.00000000000E+00 -0.47508769826E+03  0.47508769826E+03  0.00000000000E+00 0.  1.
       39    2    1    2    0    0  0.00000000000E+00  0.35527136788E-14  0.52770582140E+02  0.10029459787E+04  0.10015567392E+04 0.  0.
       24    2    3    3    0    0  0.80627515528E+02  0.29083803943E+02 -0.46102700023E+03  0.47586600270E+03  0.80968473327E+02 0.  0.
      -24    2    3    3    0    0 -0.80627515528E+02 -0.29083803943E+02  0.51379758237E+03  0.52707997596E+03  0.80490257119E+02 0.  0.
      -13    1    4    4    0    0  0.91014570046E+02  0.31559803003E+02 -0.45115163459E+03  0.46132143947E+03  0.00000000000E+00 0.  1.
       14    1    4    4    0    0 -0.10387054518E+02 -0.24759990604E+01 -0.98753656429E+01  0.14544563228E+02  0.00000000000E+00 0. -1.
        3    1    5    5  501    0 -0.48947555733E+02 -0.43040265213E+02  0.44801087801E+03  0.45272737321E+03  0.00000000000E+00 0. -1.
       -4    1    5    5    0  501 -0.31679959796E+02  0.13956461270E+02  0.65786704364E+02  0.74352602745E+02  0.14200000000E+01 0.  1.
</event>
<event>
 9   1  0.7335000E-04  0.9918431E+03  0.7818608E-02  0.9317537E-01
       21   -1    0    0  503  502  0.00000000000E+00  0.00000000000E+00  0.51342423253E+03  0.51342423253E+03  0.00000000000E+00 0.  1.
       21   -1    0    0  502  503 -0.00000000000E+00 -0.00000000000E+00 -0.47901558190E+03  0.47901558190E+03  0.00000000000E+00 0. -1.
       39    2    1    2    0    0  0.00000000000E+00  0.28421709430E-13  0.34408650634E+02  0.99243981443E+03  0.99184314789E+03 0.  0.
       24    2    3    3    0    0  0.42348669157E+03 -0.24261735407E+03  0.62134959793E+02  0.49694862258E+03  0.69950138118E+02 0.  0.
      -24    2    3    3    0    0 -0.42348669157E+03  0.24261735407E+03 -0.27726309159E+02  0.49549119185E+03  0.80861700101E+02 0.  0.
      -13    1    4    4    0    0  0.28321669717E+03 -0.19904919360E+03  0.43933772932E+02  0.34894477419E+03  0.00000000000E+00 0.  1.
       14    1    4    4    0    0  0.14026999440E+03 -0.43568160468E+02  0.18201186860E+02  0.14800384839E+03  0.00000000000E+00 0. -1.
        3    1    5    5  501    0 -0.37266671923E+03  0.18208480177E+03 -0.34185822333E+02  0.41617788157E+03  0.00000000000E+00 0. -1.
       -4    1    5    5    0  501 -0.50819972338E+02  0.60532552300E+02  0.64595131741E+01  0.79313310276E+02  0.14200000000E+01 0.  1.
</event>
<event>
 9   1  0.7335000E-04  0.1006058E+04  0.7818608E-02  0.9301925E-01
       21   -1    0    0  503  502  0.00000000000E+00  0.00000000000E+00  0.18274026925E+03  0.18274026925E+03  0.00000000000E+00 0. -1.
       21   -1    0    0  502  503 -0.00000000000E+00 -0.00000000000E+00 -0.13846871988E+04  0.13846871988E+04  0.00000000000E+00 0.  1.
       39    2    1    2    0    0  0.00000000000E+00  0.00000000000E+00 -0.12019469295E+04  0.15674274680E+04  0.10060578741E+04 0.  0.
       24    2    3    3    0    0 -0.23235639894E+02  0.31464731359E+03 -0.35525256109E+01  0.32536572368E+03  0.79419184084E+02 0.  0.
      -24    2    3    3    0    0  0.23235639894E+02 -0.31464731359E+03 -0.11983944039E+04  0.12420617443E+04  0.83817674099E+02 0.  0.
      -13    1    4    4    0    0 -0.35668806967E+02  0.16842722183E+03 -0.34011960168E+02  0.17549018855E+03  0.00000000000E+00 0.  1.
       14    1    4    4    0    0  0.12433167073E+02  0.14622009176E+03  0.30459434557E+02  0.14987553513E+03  0.00000000000E+00 0. -1.
        3    1    5    5  501    0  0.41487032628E+02 -0.21757435748E+03 -0.70882277023E+03  0.74262338673E+03  0.00000000000E+00 0. -1.
       -4    1    5    5    0  501 -0.18251392734E+02 -0.97072956105E+02 -0.48957163370E+03  0.49943835762E+03  0.14200000000E+01 0.  1.
</event>
<event>
 9   1  0.7335000E-04  0.9789147E+03  0.7818608E-02  0.9331978E-01
       21   -1    0    0  503  502  0.00000000000E+00  0.00000000000E+00  0.24407450341E+04  0.24407450341E+04  0.00000000000E+00 0.  1.
       21   -1    0    0  502  503 -0.00000000000E+00 -0.00000000000E+00 -0.98153846652E+02  0.98153846652E+02  0.00000000000E+00 0. -1.
       39    2    1    2    0    0  0.00000000000E+00  0.00000000000E+00  0.23425911875E+04  0.25388988808E+04  0.97891473335E+03 0.  0.
       24    2    3    3    0    0  0.10175148706E+03 -0.18576216993E+03  0.22955045450E+04  0.23065897891E+04  0.78449921556E+02 0.  0.
      -24    2    3    3    0    0 -0.10175148706E+03  0.18576216993E+03  0.47086642481E+02  0.23230909168E+03  0.83002489598E+02 0.  0.
      -13    1    4    4    0    0  0.10765828256E+03 -0.12591079621E+03  0.17076641946E+04  0.17156808666E+04  0.00000000000E+00 0.  1.
       14    1    4    4    0    0 -0.59067955008E+01 -0.59851373726E+02  0.58784035039E+03  0.59090892252E+03  0.00000000000E+00 0. -1.
        3    1    5    5  501    0 -0.38254885519E+02  0.24707147666E+02 -0.15669076679E+02  0.48160143021E+02  0.00000000000E+00 0. -1.
       -4    1    5    5    0  501 -0.63496601544E+02  0.16105502227E+03  0.62755719160E+02  0.18414894866E+03  0.14200000000E+01 0.  1.
</event>
<event>
 9   1  0.7335000E-04  0.1001239E+04  0.7818608E-02  0.9307187E-01
       21   -1    0    0  503  502  0.00000000000E+00  0.00000000000E+00  0.53882010877E+03  0.53882010877E+03  0.00000000000E+00 0. -1.
       21   -1    0    0  502  503 -0.00000000000E+00 -0.00000000000E+00 -0.46512680191E+03  0.46512680191E+03  0.00000000000E+00 0.  1.
       39    2    1    2    0    0  0.00000000000E+00  0.14210854715E-13  0.73693306860E+02  0.10039469107E+04  0.10012385810E+04 0.  0.
       24    2    3    3    0    0  0.26498300236E+03  0.75903131089E+02 -0.37406614551E+03  0.47173763139E+03  0.81447128916E+02 0.  0.
      -24    2    3    3    0    0 -0.26498300236E+03 -0.75903131089E+02  0.44775945237E+03  0.53220927929E+03  0.82346298814E+02 0.  0.
      -13    1    4    4    0    0  0.26737876787E+03  0.67085227800E+02 -0.34700405769E+03  0.44317451342E+03  0.00000000000E+00 0.  1.
       14    1    4    4    0    0 -0.23957655137E+01  0.88179032888E+01 -0.27062087824E+02  0.28563117971E+02  0.00000000000E+00 0. -1.
        3    1    5    5  501    0 -0.20359108710E+03 -0.93147174388E+02  0.34705573390E+03  0.41300533807E+03  0.00000000000E+00 0. -1.
       -4    1    5    5    0  501 -0.61391915251E+02  0.17244043299E+02  0.10070371847E+03  0.11920394122E+03  0.14200000000E+01 0.  1.
</event>
<event>
 9   1  0.7335000E-04  0.1006538E+04  0.7818608E-02  0.9301403E-01
       21   -1    0    0  503  502  0.00000000000E+00  0.00000000000E+00  0.72215009128E+03  0.72215009128E+03  0.00000000000E+00 0.  1.
       21   -1    0    0  502  503 -0.00000000000E+00 -0.00000000000E+00 -0.35072982970E+03  0.35072982970E+03  0.00000000000E+00 0. -1.
       39    2    1    2    0    0 -0.56843418861E-13  0.28421709430E-13  0.37142026158E+03  0.10728799210E+04  0.10065377857E+04 0.  0.
       24    2    3    3    0    0 -0.47399184172E+03  0.12851737156E+03  0.10456480388E+03  0.50848445115E+03  0.80235017573E+02 0.  0.
      -24    2    3    3    0    0  0.47399184172E+03 -0.12851737156E+03  0.26685545770E+03  0.56439546982E+03  0.78392794579E+02 0.  0.
      -13    1    4    4    0    0 -0.55274006784E+02 -0.57406665587E+01  0.27732094790E+02  0.62106683697E+02  0.00000000000E+00 0.  1.
       14    1    4    4    0    0 -0.41871783494E+03  0.13425803812E+03  0.76832709089E+02  0.44637776745E+03  0.00000000000E+00 0. -1.
        1    1    5    5  501    0  0.65405011300E+02 -0.34557088033E+02  0.67577864253E+02  0.10019369029E+03  0.00000000000E+00 0. -1.
       -2    1    5    5    0  501  0.40858683042E+03 -0.93960283524E+02  0.19927759345E+03  0.46420177953E+03  0.00000000000E+00 0.  1.
</event>
<event>
 9   1  0.7335000E-04  0.9872179E+03  0.7818608E-02  0.9322676E-01
       21   -1    0    0  503  502  0.00000000000E+00  0.00000000000E+00  0.21063872462E+04  0.21063872462E+04  0.00000000000E+00 0.  1.
       21   -1    0    0  502  503 -0.00000000000E+00 -0.00000000000E+00 -0.11567189499E+03  0.11567189499E+03  0.00000000000E+00 0. -1.
       39    2    1    2    0    0  0.00000000000E+00  0.00000000000E+00  0.19907153512E+04  0.22220591412E+04  0.98721791789E+03 0.  0.
       24    2    3    3    0    0  0.39983181169E+03  0.21958250200E+03  0.61573851667E+03  0.77157340695E+03  0.90053587275E+02 0.  0.
      -24    2    3    3    0    0 -0.39983181169E+03 -0.21958250200E+03  0.13749768345E+04  0.14504857342E+04  0.72564570413E+02 0.  0.
      -13    1    4    4    0    0  0.12690650970E+03  0.11382278764E+03  0.25989271469E+03  0.31081362959E+03  0.00000000000E+00 0.  1.
       14    1    4    4    0    0  0.27292530199E+03  0.10575971436E+03  0.35584580198E+03  0.46075977736E+03  0.00000000000E+00 0. -1.
        3    1    5    5  501    0 -0.22020772790E+03 -0.85399655325E+02  0.64698345610E+03  0.68874678731E+03  0.00000000000E+00 0. -1.
       -4    1    5    5    0  501 -0.17962408379E+03 -0.13418284668E+03  0.72799337843E+03  0.76173894692E+03  0.14200000000E+01 0.  1.
</event>
<event>
 9   1  0.7335000E-04  0.9987931E+03  0.7818608E-02  0.9309869E-01
       21   -1    0    0  503  502  0.00000000000E+00  0.00000000000E+00  0.14943007589E+03  0.14943007589E+03  0.00000000000E+00 0.  1.
       21   -1    0    0  502  503 -0.00000000000E+00 -0.00000000000E+00 -0.16689874290E+04  0.16689874290E+04  0.00000000000E+00 0. -1.
       39    2    1    2    0    0  0.00000000000E+00  0.00000000000E+00 -0.15195573531E+04  0.18184175049E+04  0.99879310805E+03 0.  0.
       24    2    3    3    0    0 -0.34160517816E+02  0.11897119691E+03 -0.16279990242E+04  0.16361408225E+04  0.10608902742E+03 0.  0.
      -24    2    3    3    0    0  0.34160517816E+02 -0.11897119691E+03  0.10844167110E+03  0.18227668233E+03  0.78384349318E+02 0.  0.
      -13    1    4    4    0    0  0.25337948671E+02  0.92031299286E+02 -0.82924170308E+03  0.83471766114E+03  0.00000000000E+00 0.  1.
       14    1    4    4    0    0 -0.59498466487E+02  0.26939897627E+02 -0.79875732112E+03  0.80142316140E+03  0.00000000000E+00 0. -1.
        3    1    5    5  501    0 -0.22069683268E+02 -0.63676777072E+02  0.55195924863E+02  0.87111382605E+02  0.00000000000E+00 0. -1.
       -4    1    5    5    0  501  0.56230201084E+02 -0.55294419841E+02  0.53245746240E+02  0.95165299727E+02  0.14200000000E+01 0.  1.
</event>
<event>
 9   1  0.7335000E-04  0.1009088E+04  0.7818608E-02  0.9298633E-01
       21   -1    0    0  503  502  0.00000000000E+00  0.00000000000E+00  0.61570330310E+03  0.61570330310E+03  0.00000000000E+00 0. -1.
       21   -1    0    0  502  503 -0.00000000000E+00 -0.00000000000E+00 -0.41345315888E+03  0.41345315888E+03  0.00000000000E+00 0.  1.
       39    2    1    2    0    0  0.56843418861E-13  0.14210854715E-13  0.20225014423E+03  0.10291564620E+04  0.10090876584E+04 0.  0.
       24    2    3    3    0    0  0.27974059024E+03  0.10373029530E+03  0.50757095823E+03  0.59442047783E+03  0.81808647714E+02 0.  0.
      -24    2    3    3    0    0 -0.27974059024E+03 -0.10373029530E+03 -0.30532081400E+03  0.43473598415E+03  0.82218030022E+02 0.  0.
      -13    1    4    4    0    0  0.11180546924E+03  0.48771270816E+02  0.28666954080E+03  0.31154217280E+03  0.00000000000E+00 0.  1.
       14    1    4    4    0    0  0.16793512100E+03  0.54959024482E+02  0.22090141742E+03  0.28287830503E+03  0.00000000000E+00 0. -1.
        3    1    5    5  501    0 -0.14072612805E+02 -0.25936092925E+02 -0.50461979264E+02  0.58456228912E+02  0.00000000000E+00 0. -1.
       -4    1    5    5    0  501 -0.26566797743E+03 -0.77794202373E+02 -0.25485883474E+03  0.37627975523E+03  0.14200000000E+01 0.  1.
</event>
<event>
 9   1  0.7335000E-04  0.1050565E+04  0.7818608E-02  0.9254760E-01
       21   -1    0    0  503  502  0.00000000000E+00  0.00000000000E+00  0.82749089178E+03  0.82749089178E+03  0.00000000000E+00 0. -1.
       21   -1    0    0  502  503 -0.00000000000E+00 -0.00000000000E+00 -0.33344411165E+03  0.33344411165E+03  0.00000000000E+00 0.  1.
       39    2    1    2    0    0 -0.14210854715E-13 -0.56843418861E-13  0.49404678013E+03  0.11609350034E+04  0.10505654959E+04 0.  0.
       24    2    3    3    0    0 -0.63625999253E+02 -0.46510566061E+03  0.49209327088E+03  0.68462773602E+03  0.78662611012E+02 0.  0.
      -24    2    3    3    0    0  0.63625999253E+02  0.46510566061E+03  0.19535092557E+01  0.47630726741E+03  0.80580726489E+02 0.  0.
      -13    1    4    4    0    0 -0.85457628095E+01 -0.88581271220E+01  0.14835735503E+01  0.12397478316E+02  0.00000000000E+00 0.  1.
       14    1    4    4    0    0 -0.55080236444E+02 -0.45624753349E+03  0.49060969733E+03  0.67223025770E+03  0.00000000000E+00 0. -1.
        3    1    5    5  501    0  0.30385804635E+02  0.14339548139E+03 -0.35221468923E+02  0.15075182612E+03  0.00000000000E+00 0. -1.
       -4    1    5    5    0  501  0.33240194618E+02  0.32171017922E+03  0.37174978179E+02  0.32555544129E+03  0.14200000000E+01 0.  1.
</event>
<event>
 9   1  0.7335000E-04  0.1007892E+04  0.7818608E-02  0.9299931E-01
       21   -1    0    0  503  502  0.00000000000E+00  0.00000000000E+00  0.22573209357E+03  0.22573209357E+03  0.00000000000E+00 0. -1.
       21   -1    0    0  502  503 -0.00000000000E+00 -0.00000000000E+00 -0.11250567610E+04  0.11250567610E+04  0.00000000000E+00 0.  1.
       39    2    1    2    0    0  0.00000000000E+00  0.00000000000E+00 -0.89932466745E+03  0.13507888546E+04  0.10078916967E+04 0.  0.
       24    2    3    3    0    0  0.95422742387E+02  0.20982905360E+03  0.14114088478E+03  0.28220704949E+03  0.81156256229E+02 0.  0.
      -24    2    3    3    0    0 -0.95422742387E+02 -0.20982905360E+03 -0.10404655522E+04  0.10685818051E+04  0.78516095708E+02 0.  0.
      -13    1    4    4    0    0  0.34079864934E+02  0.94228481632E+02  0.16633216852E+02  0.10157316500E+03  0.00000000000E+00 0.  1.
       14    1    4    4    0    0  0.61342877452E+02  0.11560057197E+03  0.12450766793E+03  0.18063388449E+03  0.00000000000E+00 0. -1.
        1    1    5    5  501    0 -0.43271039516E+02 -0.84154538190E+02 -0.26779005580E+03  0.28401739937E+03  0.00000000000E+00 0. -1.
       -2    1    5    5    0  501 -0.52151702871E+02 -0.12567451541E+03 -0.77267549644E+03  0.78456440573E+03  0.00000000000E+00 0.  1.
</event>
<event>
 9   1  0.7335000E-04  0.1011348E+04  0.7818608E-02  0.9296185E-01
        1   -1    0    0  501    0  0.00000000000E+00  0.00000000000E+00  0.10879741453E+04  0.10879741453E+04  0.00000000000E+00 0. -1.
       -1   -1    0    0    0  501 -0.00000000000E+00 -0.00000000000E+00 -0.23502975499E+03  0.23502975499E+03  0.00000000000E+00 0.  1.
       39    2    1    2    0    0  0.00000000000E+00  0.00000000000E+00  0.85294439035E+03  0.13230039003E+04  0.10113482028E+04 0.  0.
       24    2    3    3    0    0  0.34499588386E+03  0.26371422061E+03  0.74863732981E+03  0.86917387784E+03  0.80237324892E+02 0.  0.
      -24    2    3    3    0    0 -0.34499588386E+03 -0.26371422061E+03  0.10430706054E+03  0.45383002249E+03  0.80711686880E+02 0.  0.
      -13    1    4    4    0    0  0.40000391443E+02  0.34951014088E+02  0.48342294465E+02  0.71823270153E+02  0.00000000000E+00 0.  1.
       14    1    4    4    0    0  0.30499549241E+03  0.22876320653E+03  0.70029503535E+03  0.79735060769E+03  0.00000000000E+00 0. -1.
        1    1    5    5  502    0 -0.46906508106E+02 -0.15960719620E+02  0.33497343301E+02  0.59808336223E+02  0.00000000000E+00 0. -1.
       -2    1    5    5    0  502 -0.29808937575E+03 -0.24775350099E+03  0.70809717237E+02  0.39402168626E+03  0.00000000000E+00 0.  1.
</event>
<event>
 9   1  0.7335000E-04  0.1012864E+04  0.7818608E-02  0.9294547E-01
       21   -1    0    0  503  502  0.00000000000E+00  0.00000000000E+00  0.48600328836E+03  0.48600328836E+03  0.00000000000E+00 0.  1.
       21   -1    0    0  502  503 -0.00000000000E+00 -0.00000000000E+00 -0.52771963661E+03  0.52771963661E+03  0.00000000000E+00 0. -1.
       39    2    1    2    0    0  0.56843418861E-13  0.00000000000E+00 -0.41716348251E+02  0.10137229250E+04  0.10128642135E+04 0.  0.
       24    2    3    3    0    0 -0.41959373772E+03 -0.27096300336E+03 -0.32528114710E+02  0.50737420913E+03  0.83009974821E+02 0.  0.
      -24    2    3    3    0    0  0.41959373772E+03  0.27096300336E+03 -0.91882335416E+01  0.50634871584E+03  0.82612011693E+02 0.  0.
      -13    1    4    4    0    0 -0.38746565015E+03 -0.23685101962E+03 -0.73594160244E+01  0.45418299897E+03  0.00000000000E+00 0.  1.
       14    1    4    4    0    0 -0.32128087566E+02 -0.34111983739E+02 -0.25168698685E+02  0.53191210164E+02  0.00000000000E+00 0. -1.
        1    1    5    5  501    0  0.35348511263E+03  0.22548147418E+03 -0.38218995420E+02  0.42101580927E+03  0.00000000000E+00 0. -1.
       -2    1    5    5    0  501  0.66108625092E+02  0.45481529185E+02  0.29030761878E+02  0.85332906571E+02  0.00000000000E+00 0.  1.
</event>
<event>
 9   1  0.7335000E-04  0.9976259E+03  0.7818608E-02  0.9311152E-01
       21   -1    0    0  503  502  0.00000000000E+00  0.00000000000E+00  0.14225089217E+04  0.14225089217E+04  0.00000000000E+00 0. -1.
       21   -1    0    0  502  503 -0.00000000000E+00 -0.00000000000E+00 -0.17491234903E+03  0.17491234903E+03  0.00000000000E+00 0.  1.
       39    2    1    2    0    0  0.00000000000E+00  0.00000000000E+00  0.12475965727E+04  0.15974212707E+04  0.99762593592E+03 0.  0.
       24    2    3    3    0    0 -0.86279654676E-01  0.10966196322E+03 -0.14463370035E+03  0.19858219403E+03  0.80561944429E+02 0.  0.
      -24    2    3    3    0    0  0.86279654676E-01 -0.10966196322E+03  0.13922302730E+04  0.13988390767E+04  0.80124127089E+02 0.  0.
      -13    1    4    4    0    0  0.30066854731E+02  0.78073700967E+02 -0.12567249690E+03  0.15097382227E+03  0.00000000000E+00 0.  1.
       14    1    4    4    0    0 -0.30153134385E+02  0.31588262250E+02 -0.18961203451E+02  0.47608371759E+02  0.00000000000E+00 0. -1.
        3    1    5    5  501    0 -0.37499500944E+02 -0.40519711727E+02  0.69200896655E+03  0.69420779987E+03  0.00000000000E+00 0. -1.
       -4    1    5    5    0  501  0.37585780598E+02 -0.69142251490E+02  0.70022130648E+03  0.70463127683E+03  0.14200000000E+01 0.  1.
</event>
<event>
 9   1  0.7335000E-04  0.9908897E+03  0.7818608E-02  0.9318594E-01
       21   -1    0    0  503  502  0.00000000000E+00  0.00000000000E+00  0.44613932704E+03  0.44613932704E+03  0.00000000000E+00 0.  1.
       21   -1    0    0  502  503 -0.00000000000E+00 -0.00000000000E+00 -0.55019937466E+03  0.55019937466E+03  0.00000000000E+00 0. -1.
       39    2    1    2    0    0  0.56843418861E-13  0.00000000000E+00 -0.10406004762E+03  0.99633870170E+03  0.99088965834E+03 0.  0.
       24    2    3    3    0    0  0.34737666015E+03 -0.27562915913E+03  0.15521866210E+03  0.47634763040E+03  0.78563697324E+02 0.  0.
      -24    2    3    3    0    0 -0.34737666015E+03  0.27562915913E+03 -0.25927870972E+03  0.51999107130E+03  0.80766871527E+02 0.  0.
      -13    1    4    4    0    0  0.33179711726E+03 -0.27161490116E+03  0.16267628206E+03  0.45861482128E+03  0.00000000000E+00 0.  1.
       14    1    4    4    0    0  0.15579542894E+02 -0.40142579736E+01 -0.74576199538E+01  0.17732809118E+02  0.00000000000E+00 0. -1.
        3    1    5    5  501    0 -0.34488239788E+03  0.27270501865E+03 -0.24126730851E+03  0.50151950083E+03  0.00000000000E+00 0. -1.
       -4    1    5    5    0  501 -0.24942622791E+01  0.29241404796E+01 -0.18011401216E+02  0.18471570470E+02  0.14200000000E+01 0.  1.
</event>
<event>
 9   1  0.7335000E-04  0.9956567E+03  0.7818608E-02  0.9313321E-01
       21   -1    0    0  503  502  0.00000000000E+00  0.00000000000E+00  0.93817625537E+03  0.93817625537E+03  0.00000000000E+00 0. -1.
       21   -1    0    0  502  503 -0.00000000000E+00 -0.00000000000E+00 -0.26416471979E+03  0.26416471979E+03  0.00000000000E+00 0.  1.
       39    2    1    2    0    0  0.00000000000E+00  0.00000000000E+00  0.67401153559E+03  0.12023409752E+04  0.99565670311E+03 0.  0.
       24    2    3    3    0    0  0.14149835269E+03  0.45264307913E+03  0.18250635154E+03  0.51457541877E+03  0.81066345403E+02 0.  0.
      -24    2    3    3    0    0 -0.14149835269E+03 -0.45264307913E+03  0.49150518404E+03  0.68776555639E+03  0.80849079875E+02 0.  0.
      -13    1    4    4    0    0  0.10628799401E+03  0.25116204188E+03  0.13629011781E+03  0.30488441279E+03  0.00000000000E+00 0.  1.
       14    1    4    4    0    0  0.35210358681E+02  0.20148103725E+03  0.46216233734E+02  0.20969100598E+03  0.00000000000E+00 0. -1.
        3    1    5    5  501    0 -0.78642143448E+02 -0.35819888273E+03  0.39275129077E+03  0.53734960940E+03  0.00000000000E+00 0. -1.
       -4    1    5    5    0  501 -0.62856209238E+02 -0.94444196396E+02  0.98753893268E+02  0.15041594699E+03  0.14200000000E+01 0.  1.
</event>
<event>
 9   1  0.7335000E-04  0.1001784E+04  0.7818608E-02  0.9306590E-01
        3   -1    0    0  501    0  0.00000000000E+00  0.00000000000E+00  0.12932372956E+04  0.12932372956E+04  0.00000000000E+00 0. -1.
       -3   -1    0    0    0  501 -0.00000000000E+00 -0.00000000000E+00 -0.19400382920E+03  0.19400382920E+03  0.00000000000E+00 0.  1.
       39    2    1    2    0    0  0.28421709430E-13  0.00000000000E+00  0.10992334664E+04  0.14872411248E+04  0.10017843828E+04 0.  0.
       24    2    3    3    0    0  0.18792874748E+03  0.41376063000E+03  0.26125943622E+03  0.53048150468E+03  0.81480431526E+02 0.  0.
      -24    2    3    3    0    0 -0.18792874748E+03 -0.41376063000E+03  0.83797403018E+03  0.95675962013E+03  0.81691017710E+02 0.  0.
      -13    1    4    4    0    0  0.10488025371E+03  0.15652029026E+03  0.78084218982E+02  0.20395002853E+03  0.00000000000E+00 0.  1.
       14    1    4    4    0    0  0.83048493768E+02  0.25724033974E+03  0.18317521724E+03  0.32653147615E+03  0.00000000000E+00 0. -1.
        3    1    5    5  502    0 -0.92721052672E+02 -0.27804337083E+03  0.48288475775E+03  0.56487432136E+03  0.00000000000E+00 0. -1.
       -4    1    5    5    0  502 -0.95207694805E+02 -0.13571725917E+03  0.35508927244E+03  0.39188529876E+03  0.14200000000E+01 0.  1.
</event>
<event>
 9   1  0.7335000E-04  0.1008104E+04  0.7818608E-02  0.9299701E-01
       21   -1    0    0  503  502  0.00000000000E+00  0.00000000000E+00  0.28723752294E+03  0.28723752294E+03  0.00000000000E+00 0. -1.
       21   -1    0    0  502  503 -0.00000000000E+00 -0.00000000000E+00 -0.88452319157E+03  0.88452319157E+03  0.00000000000E+00 0.  1.
       39    2    1    2    0    0  0.00000000000E+00  0.00000000000E+00 -0.59728566863E+03  0.11717607145E+04  0.10081036664E+04 0.  0.
       24    2    3    3    0    0  0.36470788524E+03 -0.33550257068E+03 -0.35333076590E+03  0.61384007846E+03  0.79894901593E+02 0.  0.
      -24    2    3    3    0    0 -0.36470788524E+03  0.33550257068E+03 -0.24395490273E+03  0.55792063606E+03  0.78661458722E+02 0.  0.
      -13    1    4    4    0    0  0.19977596830E+03 -0.12958741820E+03 -0.16645032651E+03  0.29053235217E+03  0.00000000000E+00 0.  1.
       14    1    4    4    0    0  0.16493191694E+03 -0.20591515248E+03 -0.18688043939E+03  0.32330772628E+03  0.00000000000E+00 0. -1.
        1    1    5    5  501    0 -0.55155898008E+02  0.48659190816E+02 -0.69727635489E+02  0.10135005223E+03  0.00000000000E+00 0. -1.
       -2    1    5    5    0  501 -0.30955198723E+03  0.28684337986E+03 -0.17422726724E+03  0.45657058383E+03  0.00000000000E+00 0.  1.
</event>
<event>
 9   1  0.7335000E-04  0.8858276E+03  0.7818608E-02  0.9443473E-01
       21   -1    0    0  503  502  0.00000000000E+00  0.00000000000E+00  0.28617947345E+03  0.28617947345E+03  0.00000000000E+00 0.  1.
       21   -1    0    0  502  503 -0.00000000000E+00 -0.00000000000E+00 -0.68548806958E+03  0.68548806958E+03  0.00000000000E+00 0. -1.
       39    2    1    2    0    0  0.28421709430E-13 -0.56843418861E-13 -0.39930859613E+03  0.97166754302E+03  0.88582755614E+03 0.  0.
       24    2    3    3    0    0 -0.13593249193E+03  0.29971509711E+03  0.11307986447E+03  0.35703826213E+03  0.79890444213E+02 0.  0.
      -24    2    3    3    0    0  0.13593249193E+03 -0.29971509711E+03 -0.51238846060E+03  0.61462928089E+03  0.83189161419E+02 0.  0.
      -13    1    4    4    0    0 -0.10133676352E+03  0.26182086440E+03  0.68303460401E+02  0.28893713395E+03  0.00000000000E+00 0.  1.
       14    1    4    4    0    0 -0.34595728409E+02  0.37894232711E+02  0.44776404071E+02  0.68101128173E+02  0.00000000000E+00 0. -1.
        1    1    5    5  501    0  0.14413307806E+03 -0.24674917740E+03 -0.42611748939E+03  0.51306492328E+03  0.00000000000E+00 0. -1.
       -2    1    5    5    0  501 -0.82005861278E+01 -0.52965919709E+02 -0.86270971211E+02  0.10156435761E+03  0.00000000000E+00 0.  1.
</event>
<event>
 9   1  0.7335000E-04  0.9998083E+03  0.7818608E-02  0.9308755E-01
       21   -1    0    0  503  502  0.00000000000E+00  0.00000000000E+00  0.12461599194E+04  0.12461599194E+04  0.00000000000E+00 0. -1.
       21   -1    0    0  502  503 -0.00000000000E+00 -0.00000000000E+00 -0.20053940964E+03  0.20053940964E+03  0.00000000000E+00 0.  1.
       39    2    1    2    0    0  0.00000000000E+00  0.00000000000E+00  0.10456205097E+04  0.14466993290E+04  0.99980833073E+03 0.  0.
       24    2    3    3    0    0 -0.30199568805E+03 -0.35844790412E+02 -0.39957909359E+02  0.31657063131E+03  0.78320402732E+02 0.  0.
      -24    2    3    3    0    0  0.30199568805E+03  0.35844790412E+02  0.10855784191E+04  0.11301286977E+04  0.78893122561E+02 0.  0.
      -13    1    4    4    0    0 -0.23975765040E+03  0.16281302096E+01 -0.16931184109E+02  0.24036024365E+03  0.00000000000E+00 0.  1.
       14    1    4    4    0    0 -0.62238037652E+02 -0.37472920622E+02 -0.23026725250E+02  0.76210387654E+02  0.00000000000E+00 0. -1.
        3    1    5    5  501    0  0.19867948393E+03  0.39212012501E+02  0.83188819762E+03  0.85618286166E+03  0.00000000000E+00 0. -1.
       -4    1    5    5    0  501  0.10331620413E+03 -0.33672220890E+01  0.25369022147E+03  0.27394583605E+03  0.14200000000E+01 0.  1.
</event>
<event>
 9   1  0.7335000E-04  0.1008666E+04  0.7818608E-02  0.9299091E-01
       21   -1    0    0  503  502  0.00000000000E+00  0.00000000000E+00  0.81482882882E+03  0.81482882882E+03  0.00000000000E+00 0. -1.
       21   -1    0    0  502  503 -0.00000000000E+00 -0.00000000000E+00 -0.31215366778E+03  0.31215366778E+03  0.00000000000E+00 0.  1.
       39    2    1    2    0    0  0.00000000000E+00  0.00000000000E+00  0.50267516104E+03  0.11269824966E+04  0.10086660647E+04 0.  0.
       24    2    3    3    0    0 -0.41480193185E+03 -0.37645525952E+02  0.55594271599E+03  0.69949297018E+03  0.82099230092E+02 0.  0.
      -24    2    3    3    0    0  0.41480193185E+03  0.37645525952E+02 -0.53267554943E+02  0.42748952642E+03  0.80199965690E+02 0.  0.
      -13    1    4    4    0    0 -0.38973802141E+02 -0.56933365457E+01  0.20125386301E+02  0.44231239052E+02  0.00000000000E+00 0.  1.
       14    1    4    4    0    0 -0.37582812971E+03 -0.31952189406E+02  0.53581732969E+03  0.65526173113E+03  0.00000000000E+00 0. -1.
        3    1    5    5  501    0  0.19886146415E+02  0.18935942601E+02  0.48339213306E+01  0.27881813730E+02  0.00000000000E+00 0. -1.
       -4    1    5    5    0  501  0.39491578544E+03  0.18709583351E+02 -0.58101476274E+02  0.39960771269E+03  0.14200000000E+01 0.  1.
</event>
<event>
 9   1  0.7335000E-04  0.9201390E+03  0.7818608E-02  0.9400751E-01
       21   -1    0    0  503  502  0.00000000000E+00  0.00000000000E+00  0.62342782751E+03  0.62342782751E+03  0.00000000000E+00 0.  1.
       21   -1    0    0  502  503 -0.00000000000E+00 -0.00000000000E+00 -0.33951632417E+03  0.33951632417E+03  0.00000000000E+00 0. -1.
       39    2    1    2    0    0  0.28421709430E-13  0.00000000000E+00  0.28391150334E+03  0.96294415168E+03  0.92013895556E+03 0.  0.
       24    2    3    3    0    0 -0.23608029356E+03 -0.40246158696E+02  0.54427234135E+03  0.60006841022E+03  0.80598120918E+02 0.  0.
      -24    2    3    3    0    0  0.23608029356E+03  0.40246158696E+02 -0.26036083801E+03  0.36287574146E+03  0.80854062808E+02 0.  0.
      -13    1    4    4    0    0 -0.63751140410E+02 -0.13319416210E+02  0.24664009419E+03  0.25509400388E+03  0.00000000000E+00 0.  1.
       14    1    4    4    0    0 -0.17232915315E+03 -0.26926742486E+02  0.29763224716E+03  0.34497440635E+03  0.00000000000E+00 0. -1.
        1    1    5    5  501    0  0.79884463522E+02 -0.11296400511E+02 -0.12999915808E+03  0.15299972967E+03  0.00000000000E+00 0. -1.
       -2    1    5    5    0  501  0.15619583004E+03  0.51542559207E+02 -0.13036167993E+03  0.20987601179E+03  0.00000000000E+00 0.  1.
</event>
<event>
 9   1  0.7335000E-04  0.1001662E+04  0.7818608E-02  0.9306724E-01
       21   -1    0    0  503  502  0.00000000000E+00  0.00000000000E+00  0.22484851505E+04  0.22484851505E+04  0.00000000000E+00 0.  1.
       21   -1    0    0  502  503 -0.00000000000E+00 -0.00000000000E+00 -0.11155585522E+03  0.11155585522E+03  0.00000000000E+00 0. -1.
       39    2    1    2    0    0 -0.71054273576E-14 -0.17763568394E-14  0.21369292952E+04  0.23600410057E+04  0.10016619867E+04 0.  0.
       24    2    3    3    0    0 -0.40599833070E+02  0.13338584178E+02  0.22281979123E+04  0.22300048463E+04  0.78926635647E+02 0.  0.
      -24    2    3    3    0    0  0.40599833070E+02 -0.13338584178E+02 -0.91268617085E+02  0.13003615936E+03  0.82177722066E+02 0.  0.
      -13    1    4    4    0    0  0.77666060874E+01 -0.40401747303E+00  0.15217368593E+04  0.15217567323E+04  0.00000000000E+00 0.  1.
       14    1    4    4    0    0 -0.48366439158E+02  0.13742601651E+02  0.70646105306E+03  0.70824811403E+03  0.00000000000E+00 0. -1.
        1    1    5    5  501    0  0.14185050309E+02 -0.39148412755E+02 -0.13213772565E+02  0.43685439896E+02  0.00000000000E+00 0. -1.
       -2    1    5    5    0  501  0.26414782761E+02  0.25809828577E+02 -0.78054844520E+02  0.86350719467E+02  0.00000000000E+00 0.  1.
</event>
</LesHouchesEvents>
