<LesHouchesEvents version="3.0">
<header>
<!--
#*********************************************************************
#                                                                    *
#                        MadGraph5_aMC@NLO                           *
#                                                                    *
#                           Going Beyond                             *
#                                                                    *
#                   http://madgraph.hep.uiuc.edu                     *
#                   http://madgraph.phys.ucl.ac.be                   *
#                   http://amcatnlo.cern.ch                          *
#                                                                    *
#                     The MadGraph5_aMC@NLO team                     *
#                                                                    *
#....................................................................*
#                                                                    *
# This file contains all the information necessary to reproduce      *
# the events generated:                                              *
#                                                                    *
# 1. software version                                                *
# 2. proc_card          : code generation info including model       *
# 3. param_card         : model primary parameters in the LH format  *
# 4. run_card           : running parameters (collider and cuts)     *
# 5. pythia_card        : present only if pythia has been run        *
# 6. pgs_card           : present only if pgs has been run           *
# 7. delphes_cards      : present only if delphes has been run       *
#                                                                    *
#                                                                    *
#*********************************************************************
-->
<MGVersion>
2.6.2
</MGVersion>
<MG5ProcCard>
<![CDATA[
#************************************************************
#*                     MadGraph5_aMC@NLO                    *
#*                                                          *
#*                *                       *                 *
#*                  *        * *        *                   *
#*                    * * * * 5 * * * *                     *
#*                  *        * *        *                   *
#*                *                       *                 *
#*                                                          *
#*                                                          *
#*         VERSION 2.6.2                 2018-04-29         *
#*                                                          *
#*    The MadGraph5_aMC@NLO Development Team - Find us at   *
#*    https://server06.fynu.ucl.ac.be/projects/madgraph     *
#*                                                          *
#************************************************************
#*                                                          *
#*               Command File for MadGraph5_aMC@NLO         *
#*                                                          *
#*     run as ./bin/mg5_aMC  filename                       *
#*                                                          *
#************************************************************
set default_unset_couplings 99
set group_subprocesses Auto
set ignore_six_quark_processes False
set loop_optimized_output True
set loop_color_flows False
set gauge unitary
set complex_mass_scheme False
set max_npoint_for_channel 0
import model sm
define p = g u c d s u~ c~ d~ s~
define j = g u c d s u~ c~ d~ s~
define l+ = e+ mu+
define l- = e- mu-
define vl = ve vm vt
define vl~ = ve~ vm~ vt~
generate e+ e- > z h
output eezh
]]>
</MG5ProcCard>
<MGProcCard>
#*********************************************************************
#                        MadGraph/MadEvent                           *
#                   http://madgraph.hep.uiuc.edu                     *
#                                                                    *
#                          proc_card.dat                             *
#*********************************************************************
#                                                                    *
#            This Files is generated by MADGRAPH 5                   *
#                                                                    *
# WARNING: This Files is generated for MADEVENT (compatibility issue)*
#          This files is NOT a valid MG4 proc_card.dat               *
#          Running this in MG4 will NEVER reproduce the result of MG5*
#                                                                    *
#*********************************************************************
#*********************************************************************
# Process(es) requested : mg2 input                                  *
#*********************************************************************
# Begin PROCESS # This is TAG. Do not modify this line
e+ e- > z h           #Process
# Be carefull the coupling are here in MG5 convention
          
end_coup           # End the couplings input

done               # this tells MG there are no more procs
# End PROCESS  # This is TAG. Do not modify this line
#*********************************************************************
# Model information                                                  *
#*********************************************************************
# Begin MODEL  # This is TAG. Do not modify this line
sm
# End   MODEL  # This is TAG. Do not modify this line
#*********************************************************************
# Start multiparticle definitions                                    *
#*********************************************************************
# Begin MULTIPARTICLES # This is TAG. Do not modify this line

# End  MULTIPARTICLES # This is TAG. Do not modify this line
</MGProcCard>
<MGRunCard>
<![CDATA[
#*********************************************************************
#                       MadGraph5_aMC@NLO                            *
#                                                                    *
#                     run_card.dat MadEvent                          *
#                                                                    *
#  This file is used to set the parameters of the run.               *
#                                                                    *
#  Some notation/conventions:                                        *
#                                                                    *
#   Lines starting with a '# ' are info or comments                  *
#                                                                    *
#   mind the format:   value    = variable     ! comment             *
#                                                                    *
#   To display more options, you can type the command:               *
*      update full_run_card                                          *
#*********************************************************************
#
#*******************                                                 
# Running parameters
#*******************                                                 
#                                                                    
#*********************************************************************
# Tag name for the run (one word)                                    *
#*********************************************************************
  tag_1     = run_tag ! name of the run 
#*********************************************************************
# Number of events and rnd seed                                      *
# Warning: Do not generate more than 1M events in a single run       *
# If you want to run Pythia, avoid more than 50k events in a run.    *
#*********************************************************************
  1000 = nevents ! Number of unweighted events requested 
 21 = iseed   ! rnd seed (0=assigned automatically=default))
#*********************************************************************
# Collider type and energy                                           *
# lpp: 0=No PDF, 1=proton, -1=antiproton, 2=photon from proton,      *
#                                         3=photon from electron     *
#*********************************************************************
     0        = lpp1    ! beam 1 type 
     0        = lpp2    ! beam 2 type
     125.0     = ebeam1  ! beam 1 total energy in GeV
     125.0     = ebeam2  ! beam 2 total energy in GeV
# To see polarised beam options: type "update beam_pol"
#*********************************************************************
# PDF CHOICE: this automatically fixes also alpha_s and its evol.    *
#*********************************************************************
     nn23lo1    = pdlabel     ! PDF set                                     
     230000    = lhaid     ! if pdlabel=lhapdf, this is the lhapdf number
# To see heavy ion options: type "update ion_pdf"
#*********************************************************************
# Renormalization and factorization scales                           *
#*********************************************************************
 False = fixed_ren_scale  ! if .true. use fixed ren scale
 False        = fixed_fac_scale  ! if .true. use fixed fac scale
 91.188  = scale            ! fixed ren scale
 91.188  = dsqrt_q2fact1    ! fixed fact scale for pdf1
 91.188  = dsqrt_q2fact2    ! fixed fact scale for pdf2
 -1 = dynamical_scale_choice ! Choose one of the preselected dynamical choices
 1.0  = scalefact        ! scale factor for event-by-event scales
#*********************************************************************
# Type and output format
#*********************************************************************
  False     = gridpack  !True = setting up the grid pack
  -1.0 = time_of_flight ! threshold (in mm) below which the invariant livetime is not written (-1 means not written)
  3.0 = lhe_version       ! Change the way clustering information pass to shower.        
  True = clusinfo         ! include clustering tag in output
  average =  event_norm       ! average/sum. Normalization of the weight in the LHEF

#*********************************************************************
# Matching parameter (MLM only)
#*********************************************************************
 0 = ickkw            ! 0 no matching, 1 MLM
 1.0 = alpsfact         ! scale factor for QCD emission vx
 False = chcluster        ! cluster only according to channel diag
 5 = asrwgtflavor     ! highest quark flavor for a_s reweight
 False  = auto_ptj_mjj  ! Automatic setting of ptj and mjj if xqcut >0
                                   ! (turn off for VBF and single top processes) 
 0.0   = xqcut   ! minimum kt jet measure between partons
#*********************************************************************
#
#*********************************************************************
# handling of the helicities:
#  0: sum over all helicities
#  1: importance sampling over helicities
#*********************************************************************
   0  = nhel          ! using helicities importance sampling or not.
#*********************************************************************
# Generation bias, check the wiki page below for more information:   *
#  'cp3.irmp.ucl.ac.be/projects/madgraph/wiki/LOEventGenerationBias' *
#*********************************************************************
 None = bias_module  ! Bias type of bias, [None, ptj_bias, -custom_folder-]
 {} = bias_parameters ! Specifies the parameters of the module.
#
#*******************************                                                 
# Parton level cuts definition *
#*******************************                                     
#                                                                    
#
#*********************************************************************
# BW cutoff (M+/-bwcutoff*Gamma) ! Define on/off-shell for "$" and decay  
#*********************************************************************
  15.0  = bwcutoff      ! (M+/-bwcutoff*Gamma)
#*********************************************************************
# Apply pt/E/eta/dr/mij/kt_durham cuts on decay products or not
# (note that etmiss/ptll/ptheavy/ht/sorted cuts always apply)
#*********************************************************************
   False  = cut_decays    ! Cut decay products 
#*********************************************************************
# Standard Cuts                                                      *
#*********************************************************************
# Minimum and maximum pt's (for max, -1 means no cut)                *
#*********************************************************************
 20.0  = ptj       ! minimum pt for the jets 
 0.0  = ptb       ! minimum pt for the b 
 10.0  = pta       ! minimum pt for the photons 
 10.0  = ptl       ! minimum pt for the charged leptons 
 0.0  = misset    ! minimum missing Et (sum of neutrino's momenta)
 -1.0  = ptjmax    ! maximum pt for the jets
 -1.0  = ptbmax    ! maximum pt for the b
 -1.0  = ptamax    ! maximum pt for the photons
 -1.0  = ptlmax    ! maximum pt for the charged leptons
 -1.0  = missetmax ! maximum missing Et (sum of neutrino's momenta)
 {} = pt_min_pdg ! pt cut for other particles (use pdg code). Applied on particle and anti-particle
 {}	= pt_max_pdg ! pt cut for other particles (syntax e.g. {6: 100, 25: 50}) 
#*********************************************************************
# Minimum and maximum E's (in the center of mass frame)              *
#*********************************************************************
  0.0  = ej     ! minimum E for the jets 
  0.0  = eb     ! minimum E for the b 
  0.0  = ea     ! minimum E for the photons 
  0.0  = el     ! minimum E for the charged leptons 
  -1.0   = ejmax ! maximum E for the jets
 -1.0   = ebmax ! maximum E for the b
 -1.0   = eamax ! maximum E for the photons
 -1.0   = elmax ! maximum E for the charged leptons
 {} = e_min_pdg ! E cut for other particles (use pdg code). Applied on particle and anti-particle
 {} = e_max_pdg ! E cut for other particles (syntax e.g. {6: 100, 25: 50}) 
#*********************************************************************
# Maximum and minimum absolute rapidity (for max, -1 means no cut)   *
#*********************************************************************
  5.0 = etaj    ! max rap for the jets 
  -1.0  = etab    ! max rap for the b
 2.5  = etaa    ! max rap for the photons 
 2.5  = etal    ! max rap for the charged leptons 
 0.0  = etajmin ! min rap for the jets
 0.0  = etabmin ! min rap for the b
 0.0  = etaamin ! min rap for the photons
 0.0  = etalmin ! main rap for the charged leptons
 {} = eta_min_pdg ! rap cut for other particles (use pdg code). Applied on particle and anti-particle
 {} = eta_max_pdg ! rap cut for other particles (syntax e.g. {6: 2.5, 23: 5})
#*********************************************************************
# Minimum and maximum DeltaR distance                                *
#*********************************************************************
 0.4 = drjj    ! min distance between jets 
 0.0   = drbb    ! min distance between b's 
 0.4 = drll    ! min distance between leptons 
 0.4 = draa    ! min distance between gammas 
 0.0   = drbj    ! min distance between b and jet 
 0.4 = draj    ! min distance between gamma and jet 
 0.4 = drjl    ! min distance between jet and lepton 
 0.0   = drab    ! min distance between gamma and b 
 0.0   = drbl    ! min distance between b and lepton 
 0.4 = dral    ! min distance between gamma and lepton 
 -1.0  = drjjmax ! max distance between jets
 -1.0  = drbbmax ! max distance between b's
 -1.0  = drllmax ! max distance between leptons
 -1.0  = draamax ! max distance between gammas
 -1.0  = drbjmax ! max distance between b and jet
 -1.0  = drajmax ! max distance between gamma and jet
 -1.0  = drjlmax ! max distance between jet and lepton
 -1.0  = drabmax ! max distance between gamma and b
 -1.0  = drblmax ! max distance between b and lepton
 -1.0  = dralmax ! maxdistance between gamma and lepton
#*********************************************************************
# Minimum and maximum invariant mass for pairs                       *
# WARNING: for four lepton final state mmll cut require to have      *
#          different lepton masses for each flavor!                  *           
#*********************************************************************
 0.0   = mmjj    ! min invariant mass of a jet pair 
 0.0   = mmbb    ! min invariant mass of a b pair 
 0.0   = mmaa    ! min invariant mass of gamma gamma pair
 0.0   = mmll    ! min invariant mass of l+l- (same flavour) lepton pair
 -1.0  = mmjjmax ! max invariant mass of a jet pair
 -1.0  = mmbbmax ! max invariant mass of a b pair
 -1.0  = mmaamax ! max invariant mass of gamma gamma pair
 -1.0  = mmllmax ! max invariant mass of l+l- (same flavour) lepton pair
 {} = mxx_min_pdg ! min invariant mass of a pair of particles X/X~ (e.g. {6:250})
 {'default': False} = mxx_only_part_antipart ! if True the invariant mass is applied only 
                       ! to pairs of particle/antiparticle and not to pairs of the same pdg codes.  
#*********************************************************************
# Minimum and maximum invariant mass for all letpons                 *
#*********************************************************************
 0.0   = mmnl    ! min invariant mass for all letpons (l+- and vl) 
 -1.0  = mmnlmax ! max invariant mass for all letpons (l+- and vl) 
#*********************************************************************
# Minimum and maximum pt for 4-momenta sum of leptons                *
#*********************************************************************
 0.0   = ptllmin  ! Minimum pt for 4-momenta sum of leptons(l and vl)
 -1.0  = ptllmax  ! Maximum pt for 4-momenta sum of leptons(l and vl)
#*********************************************************************
# Inclusive cuts                                                     *
#*********************************************************************
 0.0  = ptheavy   ! minimum pt for at least one heavy final state
 0.0  = xptj ! minimum pt for at least one jet  
 0.0  = xptb ! minimum pt for at least one b 
 0.0  = xpta ! minimum pt for at least one photon 
 0.0  = xptl ! minimum pt for at least one charged lepton 
#*********************************************************************
# Control the pt's of the jets sorted by pt                          *
#*********************************************************************
 0.0   = ptj1min ! minimum pt for the leading jet in pt
 0.0   = ptj2min ! minimum pt for the second jet in pt
 0.0   = ptj3min ! minimum pt for the third jet in pt
 0.0   = ptj4min ! minimum pt for the fourth jet in pt
 -1.0  = ptj1max ! maximum pt for the leading jet in pt 
 -1.0  = ptj2max ! maximum pt for the second jet in pt
 -1.0  = ptj3max ! maximum pt for the third jet in pt
 -1.0  = ptj4max ! maximum pt for the fourth jet in pt
 0   = cutuse  ! reject event if fails any (0) / all (1) jet pt cuts
#*********************************************************************
# Control the pt's of leptons sorted by pt                           *
#*********************************************************************
 0.0   = ptl1min ! minimum pt for the leading lepton in pt
 0.0   = ptl2min ! minimum pt for the second lepton in pt
 0.0   = ptl3min ! minimum pt for the third lepton in pt
 0.0   = ptl4min ! minimum pt for the fourth lepton in pt
 -1.0  = ptl1max ! maximum pt for the leading lepton in pt 
 -1.0  = ptl2max ! maximum pt for the second lepton in pt
 -1.0  = ptl3max ! maximum pt for the third lepton in pt
 -1.0  = ptl4max ! maximum pt for the fourth lepton in pt
#*********************************************************************
# Control the Ht(k)=Sum of k leading jets                            *
#*********************************************************************
 0.0   = htjmin ! minimum jet HT=Sum(jet pt)
 -1.0  = htjmax ! maximum jet HT=Sum(jet pt)
 0.0   = ihtmin  !inclusive Ht for all partons (including b)
 -1.0  = ihtmax  !inclusive Ht for all partons (including b)
 0.0   = ht2min ! minimum Ht for the two leading jets
 0.0   = ht3min ! minimum Ht for the three leading jets
 0.0   = ht4min ! minimum Ht for the four leading jets
 -1.0  = ht2max ! maximum Ht for the two leading jets
 -1.0  = ht3max ! maximum Ht for the three leading jets
 -1.0  = ht4max ! maximum Ht for the four leading jets
#***********************************************************************
# Photon-isolation cuts, according to hep-ph/9801442                   *
# When ptgmin=0, all the other parameters are ignored                  *
# When ptgmin>0, pta and draj are not going to be used                 *
#***********************************************************************
 0.0 = ptgmin ! Min photon transverse momentum
 0.4 = R0gamma ! Radius of isolation code
 1.0 = xn ! n parameter of eq.(3.4) in hep-ph/9801442
 1.0 = epsgamma ! epsilon_gamma parameter of eq.(3.4) in hep-ph/9801442
 True = isoEM ! isolate photons from EM energy (photons and leptons)
#*********************************************************************
# WBF cuts                                                           *
#*********************************************************************
 0.0   = xetamin ! minimum rapidity for two jets in the WBF case  
 0.0   = deltaeta ! minimum rapidity for two jets in the WBF case 
#***********************************************************************
# Turn on either the ktdurham or ptlund cut to activate                *
# CKKW(L) merging with Pythia8 [arXiv:1410.3012, arXiv:1109.4829]      *
#***********************************************************************
 -1.0  =  ktdurham        
 0.4   =  dparameter
 -1.0  =  ptlund
 1, 2, 3, 4, 5, 6, 21  =  pdgs_for_merging_cut ! PDGs for two cuts above   
#*********************************************************************
# maximal pdg code for quark to be considered as a light jet         *
# (otherwise b cuts are applied)                                     *
#*********************************************************************
 4 = maxjetflavor    ! Maximum jet pdg code
#*********************************************************************
#
#*********************************************************************
# Store info for systematics studies                                 *
# WARNING: Do not use for interference type of computation           *
#*********************************************************************
   False  = use_syst      ! Enable systematics studies
#
systematics = systematics_program ! none, systematics [python], SysCalc [depreceted, C++]
['--mur=0.5,1,2', '--muf=0.5,1,2', '--pdf=errorset'] = systematics_arguments ! see: https://cp3.irmp.ucl.ac.be/projects/madgraph/wiki/Systematics#Systematicspythonmodule
# Syscalc is deprecated but to see the associate options type'update syscalc'
]]>
</MGRunCard>
<slha>
######################################################################
## PARAM_CARD AUTOMATICALY GENERATED BY MG5 FOLLOWING UFO MODEL   ####
######################################################################
##                                                                  ##
##  Width set on Auto will be computed following the information    ##
##        present in the decay.py files of the model.               ##
##        See  arXiv:1402.1178 for more details.                    ##
##                                                                  ##
######################################################################

###################################
## INFORMATION FOR MASS
###################################
Block mass 
    5 4.700000e+00 # MB 
    6 1.730000e+02 # MT 
   15 1.777000e+00 # MTA 
   23 9.118800e+01 # MZ 
   25 1.250000e+02 # MH 
## Dependent parameters, given by model restrictions.
## Those values should be edited following the 
## analytical expression. MG5 ignores those values 
## but they are important for interfacing the output of MG5
## to external program such as Pythia.
  1 0.000000 # d : 0.0 
  2 0.000000 # u : 0.0 
  3 0.000000 # s : 0.0 
  4 0.000000 # c : 0.0 
  11 0.000000 # e- : 0.0 
  12 0.000000 # ve : 0.0 
  13 0.000000 # mu- : 0.0 
  14 0.000000 # vm : 0.0 
  16 0.000000 # vt : 0.0 
  21 0.000000 # g : 0.0 
  22 0.000000 # a : 0.0 
  24 80.419002 # w+ : cmath.sqrt(MZ__exp__2/2. + cmath.sqrt(MZ__exp__4/4. - (aEW*cmath.pi*MZ__exp__2)/(Gf*sqrt__2))) 

###################################
## INFORMATION FOR SMINPUTS
###################################
Block sminputs 
    1 1.325070e+02 # aEWM1 
    2 1.166390e-05 # Gf 
    3 1.180000e-01 # aS 

###################################
## INFORMATION FOR YUKAWA
###################################
Block yukawa 
    5 4.700000e+00 # ymb 
    6 1.730000e+02 # ymt 
   15 1.777000e+00 # ymtau 

###################################
## INFORMATION FOR DECAY
###################################
DECAY   6 1.491500e+00 # WT 
DECAY  23 2.441404e+00 # WZ 
DECAY  24 2.047600e+00 # WW 
DECAY  25 6.382339e-03 # WH 
## Dependent parameters, given by model restrictions.
## Those values should be edited following the 
## analytical expression. MG5 ignores those values 
## but they are important for interfacing the output of MG5
## to external program such as Pythia.
DECAY  1 0.000000 # d : 0.0 
DECAY  2 0.000000 # u : 0.0 
DECAY  3 0.000000 # s : 0.0 
DECAY  4 0.000000 # c : 0.0 
DECAY  5 0.000000 # b : 0.0 
DECAY  11 0.000000 # e- : 0.0 
DECAY  12 0.000000 # ve : 0.0 
DECAY  13 0.000000 # mu- : 0.0 
DECAY  14 0.000000 # vm : 0.0 
DECAY  15 0.000000 # ta- : 0.0 
DECAY  16 0.000000 # vt : 0.0 
DECAY  21 0.000000 # g : 0.0 
DECAY  22 0.000000 # a : 0.0
</slha>
<MGGenerationInfo>
#  Number of Events        :       1000
#  Integrated weight (pb)  :       0.24014
</MGGenerationInfo>
</header>
<init>
-11 11 1.250000e+02 1.250000e+02 0 0 247000 247000 -4 1
2.401400e-01 6.628800e-05 2.401400e-01 1
<generator name='MadGraph5_aMC@NLO' version='2.6.2'>please cite 1405.0301 </generator>
</init>
<event>
 4      1 +2.4014000e-01 2.50000000e+02 7.54677100e-03 1.02464900e-01
      -11 -1    0    0    0    0 +0.0000000000e+00 +0.0000000000e+00 +1.2500000000e+02 1.2500000000e+02 0.0000000000e+00 0.0000e+00 1.0000e+00
       11 -1    0    0    0    0 -0.0000000000e+00 -0.0000000000e+00 -1.2500000000e+02 1.2500000000e+02 0.0000000000e+00 0.0000e+00 -1.0000e+00
       23  1    1    2    0    0 +5.6509332014e+01 +3.9285696901e+00 -2.5687852482e+01 1.1038050269e+02 9.1188000000e+01 0.0000e+00 0.0000e+00
       25  1    1    2    0    0 -5.6509332014e+01 -3.9285696901e+00 +2.5687852482e+01 1.3961949731e+02 1.2500000000e+02 0.0000e+00 0.0000e+00
</event>
<event>
 4      1 +2.4014000e-01 2.50000000e+02 7.54677100e-03 1.02464900e-01
      -11 -1    0    0    0    0 +0.0000000000e+00 +0.0000000000e+00 +1.2500000000e+02 1.2500000000e+02 0.0000000000e+00 0.0000e+00 -1.0000e+00
       11 -1    0    0    0    0 -0.0000000000e+00 -0.0000000000e+00 -1.2500000000e+02 1.2500000000e+02 0.0000000000e+00 0.0000e+00 1.0000e+00
       23  1    1    2    0    0 -5.9549036004e+01 -1.7761463163e+01 -2.6545747221e+00 1.1038050269e+02 9.1188000000e+01 0.0000e+00 0.0000e+00
       25  1    1    2    0    0 +5.9549036004e+01 +1.7761463163e+01 +2.6545747221e+00 1.3961949731e+02 1.2500000000e+02 0.0000e+00 0.0000e+00
</event>
<event>
 4      1 +2.4014000e-01 2.50000000e+02 7.54677100e-03 1.02464900e-01
      -11 -1    0    0    0    0 +0.0000000000e+00 +0.0000000000e+00 +1.2500000000e+02 1.2500000000e+02 0.0000000000e+00 0.0000e+00 -1.0000e+00
       11 -1    0    0    0    0 -0.0000000000e+00 -0.0000000000e+00 -1.2500000000e+02 1.2500000000e+02 0.0000000000e+00 0.0000e+00 1.0000e+00
       23  1    1    2    0    0 +2.3521700807e+01 -5.0319895890e+01 -2.7986455624e+01 1.1038050269e+02 9.1188000000e+01 0.0000e+00 0.0000e+00
       25  1    1    2    0    0 -2.3521700807e+01 +5.0319895890e+01 +2.7986455624e+01 1.3961949731e+02 1.2500000000e+02 0.0000e+00 0.0000e+00
</event>
<event>
 4      1 +2.4014000e-01 2.50000000e+02 7.54677100e-03 1.02464900e-01
      -11 -1    0    0    0    0 +0.0000000000e+00 +0.0000000000e+00 +1.2500000000e+02 1.2500000000e+02 0.0000000000e+00 0.0000e+00 1.0000e+00
       11 -1    0    0    0    0 -0.0000000000e+00 -0.0000000000e+00 -1.2500000000e+02 1.2500000000e+02 0.0000000000e+00 0.0000e+00 -1.0000e+00
       23  1    1    2    0    0 -1.8787267278e+01 -5.2206263780e+01 -2.8109582707e+01 1.1038050269e+02 9.1188000000e+01 0.0000e+00 -1.0000e+00
       25  1    1    2    0    0 +1.8787267278e+01 +5.2206263780e+01 +2.8109582707e+01 1.3961949731e+02 1.2500000000e+02 0.0000e+00 0.0000e+00
</event>
<event>
 4      1 +2.4014000e-01 2.50000000e+02 7.54677100e-03 1.02464900e-01
      -11 -1    0    0    0    0 +0.0000000000e+00 +0.0000000000e+00 +1.2500000000e+02 1.2500000000e+02 0.0000000000e+00 0.0000e+00 -1.0000e+00
       11 -1    0    0    0    0 -0.0000000000e+00 -0.0000000000e+00 -1.2500000000e+02 1.2500000000e+02 0.0000000000e+00 0.0000e+00 1.0000e+00
       23  1    1    2    0    0 -2.6505213971e+01 -1.5651154794e+01 +5.4047377509e+01 1.1038050269e+02 9.1188000000e+01 0.0000e+00 -1.0000e+00
       25  1    1    2    0    0 +2.6505213971e+01 +1.5651154794e+01 -5.4047377509e+01 1.3961949731e+02 1.2500000000e+02 0.0000e+00 0.0000e+00
</event>
<event>
 4      1 +2.4014000e-01 2.50000000e+02 7.54677100e-03 1.02464900e-01
      -11 -1    0    0    0    0 +0.0000000000e+00 +0.0000000000e+00 +1.2500000000e+02 1.2500000000e+02 0.0000000000e+00 0.0000e+00 1.0000e+00
       11 -1    0    0    0    0 -0.0000000000e+00 -0.0000000000e+00 -1.2500000000e+02 1.2500000000e+02 0.0000000000e+00 0.0000e+00 -1.0000e+00
       23  1    1    2    0    0 -5.0001809649e+01 -5.9559523198e+00 +3.6509583583e+01 1.1038050269e+02 9.1188000000e+01 0.0000e+00 0.0000e+00
       25  1    1    2    0    0 +5.0001809649e+01 +5.9559523198e+00 -3.6509583583e+01 1.3961949731e+02 1.2500000000e+02 0.0000e+00 0.0000e+00
</event>
<event>
 4      1 +2.4014000e-01 2.50000000e+02 7.54677100e-03 1.02464900e-01
      -11 -1    0    0    0    0 +0.0000000000e+00 +0.0000000000e+00 +1.2500000000e+02 1.2500000000e+02 0.0000000000e+00 0.0000e+00 -1.0000e+00
       11 -1    0    0    0    0 -0.0000000000e+00 -0.0000000000e+00 -1.2500000000e+02 1.2500000000e+02 0.0000000000e+00 0.0000e+00 1.0000e+00
       23  1    1    2    0    0 +3.7785120766e+01 +3.5058474308e+01 +3.4810803747e+01 1.1038050269e+02 9.1188000000e+01 0.0000e+00 0.0000e+00
       25  1    1    2    0    0 -3.7785120766e+01 -3.5058474308e+01 -3.4810803747e+01 1.3961949731e+02 1.2500000000e+02 0.0000e+00 0.0000e+00
</event>
<event>
 4      1 +2.4014000e-01 2.50000000e+02 7.54677100e-03 1.02464900e-01
      -11 -1    0    0    0    0 +0.0000000000e+00 +0.0000000000e+00 +1.2500000000e+02 1.2500000000e+02 0.0000000000e+00 0.0000e+00 1.0000e+00
       11 -1    0    0    0    0 -0.0000000000e+00 -0.0000000000e+00 -1.2500000000e+02 1.2500000000e+02 0.0000000000e+00 0.0000e+00 -1.0000e+00
       23  1    1    2    0    0 -4.7085386204e+01 -3.8717007762e+01 -1.2351669750e+01 1.1038050269e+02 9.1188000000e+01 0.0000e+00 -1.0000e+00
       25  1    1    2    0    0 +4.7085386204e+01 +3.8717007762e+01 +1.2351669750e+01 1.3961949731e+02 1.2500000000e+02 0.0000e+00 0.0000e+00
</event>
<event>
 4      1 +2.4014000e-01 2.50000000e+02 7.54677100e-03 1.02464900e-01
      -11 -1    0    0    0    0 +0.0000000000e+00 +0.0000000000e+00 +1.2500000000e+02 1.2500000000e+02 0.0000000000e+00 0.0000e+00 -1.0000e+00
       11 -1    0    0    0    0 -0.0000000000e+00 -0.0000000000e+00 -1.2500000000e+02 1.2500000000e+02 0.0000000000e+00 0.0000e+00 1.0000e+00
       23  1    1    2    0    0 +1.4562817308e+01 +1.3497218571e+01 +5.8943646583e+01 1.1038050269e+02 9.1188000000e+01 0.0000e+00 -1.0000e+00
       25  1    1    2    0    0 -1.4562817308e+01 -1.3497218571e+01 -5.8943646583e+01 1.3961949731e+02 1.2500000000e+02 0.0000e+00 0.0000e+00
</event>
<event>
 4      1 +2.4014000e-01 2.50000000e+02 7.54677100e-03 1.02464900e-01
      -11 -1    0    0    0    0 +0.0000000000e+00 +0.0000000000e+00 +1.2500000000e+02 1.2500000000e+02 0.0000000000e+00 0.0000e+00 1.0000e+00
       11 -1    0    0    0    0 -0.0000000000e+00 -0.0000000000e+00 -1.2500000000e+02 1.2500000000e+02 0.0000000000e+00 0.0000e+00 -1.0000e+00
       23  1    1    2    0    0 -4.3570274695e+01 +4.4351640614e+01 -1.7796537631e+00 1.1038050269e+02 9.1188000000e+01 0.0000e+00 0.0000e+00
       25  1    1    2    0    0 +4.3570274695e+01 -4.4351640614e+01 +1.7796537631e+00 1.3961949731e+02 1.2500000000e+02 0.0000e+00 0.0000e+00
</event>
<event>
 4      1 +2.4014000e-01 2.50000000e+02 7.54677100e-03 1.02464900e-01
      -11 -1    0    0    0    0 +0.0000000000e+00 +0.0000000000e+00 +1.2500000000e+02 1.2500000000e+02 0.0000000000e+00 0.0000e+00 -1.0000e+00
       11 -1    0    0    0    0 -0.0000000000e+00 -0.0000000000e+00 -1.2500000000e+02 1.2500000000e+02 0.0000000000e+00 0.0000e+00 1.0000e+00
       23  1    1    2    0    0 +5.9685662430e+01 +1.1882760125e+01 +1.2846234537e+01 1.1038050269e+02 9.1188000000e+01 0.0000e+00 0.0000e+00
       25  1    1    2    0    0 -5.9685662430e+01 -1.1882760125e+01 -1.2846234537e+01 1.3961949731e+02 1.2500000000e+02 0.0000e+00 0.0000e+00
</event>
<event>
 4      1 +2.4014000e-01 2.50000000e+02 7.54677100e-03 1.02464900e-01
      -11 -1    0    0    0    0 +0.0000000000e+00 +0.0000000000e+00 +1.2500000000e+02 1.2500000000e+02 0.0000000000e+00 0.0000e+00 1.0000e+00
       11 -1    0    0    0    0 -0.0000000000e+00 -0.0000000000e+00 -1.2500000000e+02 1.2500000000e+02 0.0000000000e+00 0.0000e+00 -1.0000e+00
       23  1    1    2    0    0 -3.0718548476e+01 +5.3664231181e+01 +6.7175219351e+00 1.1038050269e+02 9.1188000000e+01 0.0000e+00 0.0000e+00
       25  1    1    2    0    0 +3.0718548476e+01 -5.3664231181e+01 -6.7175219351e+00 1.3961949731e+02 1.2500000000e+02 0.0000e+00 0.0000e+00
</event>
<event>
 4      1 +2.4014000e-01 2.50000000e+02 7.54677100e-03 1.02464900e-01
      -11 -1    0    0    0    0 +0.0000000000e+00 +0.0000000000e+00 +1.2500000000e+02 1.2500000000e+02 0.0000000000e+00 0.0000e+00 1.0000e+00
       11 -1    0    0    0    0 -0.0000000000e+00 -0.0000000000e+00 -1.2500000000e+02 1.2500000000e+02 0.0000000000e+00 0.0000e+00 -1.0000e+00
       23  1    1    2    0    0 -6.2122687082e+01 +2.4065984633e+00 +1.8931622154e+00 1.1038050269e+02 9.1188000000e+01 0.0000e+00 0.0000e+00
       25  1    1    2    0    0 +6.2122687082e+01 -2.4065984633e+00 -1.8931622154e+00 1.3961949731e+02 1.2500000000e+02 0.0000e+00 0.0000e+00
</event>
<event>
 4      1 +2.4014000e-01 2.50000000e+02 7.54677100e-03 1.02464900e-01
      -11 -1    0    0    0    0 +0.0000000000e+00 +0.0000000000e+00 +1.2500000000e+02 1.2500000000e+02 0.0000000000e+00 0.0000e+00 1.0000e+00
       11 -1    0    0    0    0 -0.0000000000e+00 -0.0000000000e+00 -1.2500000000e+02 1.2500000000e+02 0.0000000000e+00 0.0000e+00 -1.0000e+00
       23  1    1    2    0    0 -5.3652489862e+01 +1.1613474607e+01 -2.9242803710e+01 1.1038050269e+02 9.1188000000e+01 0.0000e+00 0.0000e+00
       25  1    1    2    0    0 +5.3652489862e+01 -1.1613474607e+01 +2.9242803710e+01 1.3961949731e+02 1.2500000000e+02 0.0000e+00 0.0000e+00
</event>
<event>
 4      1 +2.4014000e-01 2.50000000e+02 7.54677100e-03 1.02464900e-01
      -11 -1    0    0    0    0 +0.0000000000e+00 +0.0000000000e+00 +1.2500000000e+02 1.2500000000e+02 0.0000000000e+00 0.0000e+00 -1.0000e+00
       11 -1    0    0    0    0 -0.0000000000e+00 -0.0000000000e+00 -1.2500000000e+02 1.2500000000e+02 0.0000000000e+00 0.0000e+00 1.0000e+00
       23  1    1    2    0    0 +5.8147256174e+01 +1.5831707915e+00 -2.2022583847e+01 1.1038050269e+02 9.1188000000e+01 0.0000e+00 1.0000e+00
       25  1    1    2    0    0 -5.8147256174e+01 -1.5831707915e+00 +2.2022583847e+01 1.3961949731e+02 1.2500000000e+02 0.0000e+00 0.0000e+00
</event>
<event>
 4      1 +2.4014000e-01 2.50000000e+02 7.54677100e-03 1.02464900e-01
      -11 -1    0    0    0    0 +0.0000000000e+00 +0.0000000000e+00 +1.2500000000e+02 1.2500000000e+02 0.0000000000e+00 0.0000e+00 -1.0000e+00
       11 -1    0    0    0    0 -0.0000000000e+00 -0.0000000000e+00 -1.2500000000e+02 1.2500000000e+02 0.0000000000e+00 0.0000e+00 1.0000e+00
       23  1    1    2    0    0 -4.1163051065e+01 -4.6331767383e+01 +5.2511510968e+00 1.1038050269e+02 9.1188000000e+01 0.0000e+00 -1.0000e+00
       25  1    1    2    0    0 +4.1163051065e+01 +4.6331767383e+01 -5.2511510968e+00 1.3961949731e+02 1.2500000000e+02 0.0000e+00 0.0000e+00
</event>
<event>
 4      1 +2.4014000e-01 2.50000000e+02 7.54677100e-03 1.02464900e-01
      -11 -1    0    0    0    0 +0.0000000000e+00 +0.0000000000e+00 +1.2500000000e+02 1.2500000000e+02 0.0000000000e+00 0.0000e+00 -1.0000e+00
       11 -1    0    0    0    0 -0.0000000000e+00 -0.0000000000e+00 -1.2500000000e+02 1.2500000000e+02 0.0000000000e+00 0.0000e+00 1.0000e+00
       23  1    1    2    0    0 -2.2814305813e+01 +2.3301757211e+01 -5.2963568524e+01 1.1038050269e+02 9.1188000000e+01 0.0000e+00 1.0000e+00
       25  1    1    2    0    0 +2.2814305813e+01 -2.3301757211e+01 +5.2963568524e+01 1.3961949731e+02 1.2500000000e+02 0.0000e+00 0.0000e+00
</event>
<event>
 4      1 +2.4014000e-01 2.50000000e+02 7.54677100e-03 1.02464900e-01
      -11 -1    0    0    0    0 +0.0000000000e+00 +0.0000000000e+00 +1.2500000000e+02 1.2500000000e+02 0.0000000000e+00 0.0000e+00 -1.0000e+00
       11 -1    0    0    0    0 -0.0000000000e+00 -0.0000000000e+00 -1.2500000000e+02 1.2500000000e+02 0.0000000000e+00 0.0000e+00 1.0000e+00
       23  1    1    2    0    0 +3.9764890976e+01 +2.0368357113e+01 +4.3272248658e+01 1.1038050269e+02 9.1188000000e+01 0.0000e+00 -1.0000e+00
       25  1    1    2    0    0 -3.9764890976e+01 -2.0368357113e+01 -4.3272248658e+01 1.3961949731e+02 1.2500000000e+02 0.0000e+00 0.0000e+00
</event>
<event>
 4      1 +2.4014000e-01 2.50000000e+02 7.54677100e-03 1.02464900e-01
      -11 -1    0    0    0    0 +0.0000000000e+00 +0.0000000000e+00 +1.2500000000e+02 1.2500000000e+02 0.0000000000e+00 0.0000e+00 1.0000e+00
       11 -1    0    0    0    0 -0.0000000000e+00 -0.0000000000e+00 -1.2500000000e+02 1.2500000000e+02 0.0000000000e+00 0.0000e+00 -1.0000e+00
       23  1    1    2    0    0 +5.0857140986e+01 +3.2765797879e+01 +1.4441527956e+01 1.1038050269e+02 9.1188000000e+01 0.0000e+00 0.0000e+00
       25  1    1    2    0    0 -5.0857140986e+01 -3.2765797879e+01 -1.4441527956e+01 1.3961949731e+02 1.2500000000e+02 0.0000e+00 0.0000e+00
</event>
<event>
 4      1 +2.4014000e-01 2.50000000e+02 7.54677100e-03 1.02464900e-01
      -11 -1    0    0    0    0 +0.0000000000e+00 +0.0000000000e+00 +1.2500000000e+02 1.2500000000e+02 0.0000000000e+00 0.0000e+00 1.0000e+00
       11 -1    0    0    0    0 -0.0000000000e+00 -0.0000000000e+00 -1.2500000000e+02 1.2500000000e+02 0.0000000000e+00 0.0000e+00 -1.0000e+00
       23  1    1    2    0    0 -6.1627401334e+01 +8.3609021949e+00 +8.7335501059e-01 1.1038050269e+02 9.1188000000e+01 0.0000e+00 0.0000e+00
       25  1    1    2    0    0 +6.1627401334e+01 -8.3609021949e+00 -8.7335501059e-01 1.3961949731e+02 1.2500000000e+02 0.0000e+00 0.0000e+00
</event>
<event>
 4      1 +2.4014000e-01 2.50000000e+02 7.54677100e-03 1.02464900e-01
      -11 -1    0    0    0    0 +0.0000000000e+00 +0.0000000000e+00 +1.2500000000e+02 1.2500000000e+02 0.0000000000e+00 0.0000e+00 -1.0000e+00
       11 -1    0    0    0    0 -0.0000000000e+00 -0.0000000000e+00 -1.2500000000e+02 1.2500000000e+02 0.0000000000e+00 0.0000e+00 1.0000e+00
       23  1    1    2    0    0 +4.2401310713e+01 +3.1308006977e+01 +3.3023348992e+01 1.1038050269e+02 9.1188000000e+01 0.0000e+00 -1.0000e+00
       25  1    1    2    0    0 -4.2401310713e+01 -3.1308006977e+01 -3.3023348992e+01 1.3961949731e+02 1.2500000000e+02 0.0000e+00 0.0000e+00
</event>
<event>
 4      1 +2.4014000e-01 2.50000000e+02 7.54677100e-03 1.02464900e-01
      -11 -1    0    0    0    0 +0.0000000000e+00 +0.0000000000e+00 +1.2500000000e+02 1.2500000000e+02 0.0000000000e+00 0.0000e+00 1.0000e+00
       11 -1    0    0    0    0 -0.0000000000e+00 -0.0000000000e+00 -1.2500000000e+02 1.2500000000e+02 0.0000000000e+00 0.0000e+00 -1.0000e+00
       23  1    1    2    0    0 +1.2868955794e+01 +5.9136221837e+01 -1.4349260374e+01 1.1038050269e+02 9.1188000000e+01 0.0000e+00 -1.0000e+00
       25  1    1    2    0    0 -1.2868955794e+01 -5.9136221837e+01 +1.4349260374e+01 1.3961949731e+02 1.2500000000e+02 0.0000e+00 0.0000e+00
</event>
<event>
 4      1 +2.4014000e-01 2.50000000e+02 7.54677100e-03 1.02464900e-01
      -11 -1    0    0    0    0 +0.0000000000e+00 +0.0000000000e+00 +1.2500000000e+02 1.2500000000e+02 0.0000000000e+00 0.0000e+00 -1.0000e+00
       11 -1    0    0    0    0 -0.0000000000e+00 -0.0000000000e+00 -1.2500000000e+02 1.2500000000e+02 0.0000000000e+00 0.0000e+00 1.0000e+00
       23  1    1    2    0    0 -8.4555679278e+00 -4.7044710511e+01 -3.9798274003e+01 1.1038050269e+02 9.1188000000e+01 0.0000e+00 1.0000e+00
       25  1    1    2    0    0 +8.4555679278e+00 +4.7044710511e+01 +3.9798274003e+01 1.3961949731e+02 1.2500000000e+02 0.0000e+00 0.0000e+00
</event>
<event>
 4      1 +2.4014000e-01 2.50000000e+02 7.54677100e-03 1.02464900e-01
      -11 -1    0    0    0    0 +0.0000000000e+00 +0.0000000000e+00 +1.2500000000e+02 1.2500000000e+02 0.0000000000e+00 0.0000e+00 -1.0000e+00
       11 -1    0    0    0    0 -0.0000000000e+00 -0.0000000000e+00 -1.2500000000e+02 1.2500000000e+02 0.0000000000e+00 0.0000e+00 1.0000e+00
       23  1    1    2    0    0 +4.1116996609e+01 -2.3099040099e+01 +4.0551584014e+01 1.1038050269e+02 9.1188000000e+01 0.0000e+00 1.0000e+00
       25  1    1    2    0    0 -4.1116996609e+01 +2.3099040099e+01 -4.0551584014e+01 1.3961949731e+02 1.2500000000e+02 0.0000e+00 0.0000e+00
</event>
<event>
 4      1 +2.4014000e-01 2.50000000e+02 7.54677100e-03 1.02464900e-01
      -11 -1    0    0    0    0 +0.0000000000e+00 +0.0000000000e+00 +1.2500000000e+02 1.2500000000e+02 0.0000000000e+00 0.0000e+00 1.0000e+00
       11 -1    0    0    0    0 -0.0000000000e+00 -0.0000000000e+00 -1.2500000000e+02 1.2500000000e+02 0.0000000000e+00 0.0000e+00 -1.0000e+00
       23  1    1    2    0    0 -2.6904594166e+01 +5.5946725420e+01 -3.8354604977e+00 1.1038050269e+02 9.1188000000e+01 0.0000e+00 -1.0000e+00
       25  1    1    2    0    0 +2.6904594166e+01 -5.5946725420e+01 +3.8354604977e+00 1.3961949731e+02 1.2500000000e+02 0.0000e+00 0.0000e+00
</event>
<event>
 4      1 +2.4014000e-01 2.50000000e+02 7.54677100e-03 1.02464900e-01
      -11 -1    0    0    0    0 +0.0000000000e+00 +0.0000000000e+00 +1.2500000000e+02 1.2500000000e+02 0.0000000000e+00 0.0000e+00 -1.0000e+00
       11 -1    0    0    0    0 -0.0000000000e+00 -0.0000000000e+00 -1.2500000000e+02 1.2500000000e+02 0.0000000000e+00 0.0000e+00 1.0000e+00
       23  1    1    2    0    0 -3.8496781725e+01 -4.7666333112e+01 +1.0701519246e+01 1.1038050269e+02 9.1188000000e+01 0.0000e+00 0.0000e+00
       25  1    1    2    0    0 +3.8496781725e+01 +4.7666333112e+01 -1.0701519246e+01 1.3961949731e+02 1.2500000000e+02 0.0000e+00 0.0000e+00
</event>
<event>
 4      1 +2.4014000e-01 2.50000000e+02 7.54677100e-03 1.02464900e-01
      -11 -1    0    0    0    0 +0.0000000000e+00 +0.0000000000e+00 +1.2500000000e+02 1.2500000000e+02 0.0000000000e+00 0.0000e+00 -1.0000e+00
       11 -1    0    0    0    0 -0.0000000000e+00 -0.0000000000e+00 -1.2500000000e+02 1.2500000000e+02 0.0000000000e+00 0.0000e+00 1.0000e+00
       23  1    1    2    0    0 +6.0931154861e+01 -1.0240901967e+01 +7.1499876824e+00 1.1038050269e+02 9.1188000000e+01 0.0000e+00 -1.0000e+00
       25  1    1    2    0    0 -6.0931154861e+01 +1.0240901967e+01 -7.1499876824e+00 1.3961949731e+02 1.2500000000e+02 0.0000e+00 0.0000e+00
</event>
<event>
 4      1 +2.4014000e-01 2.50000000e+02 7.54677100e-03 1.02464900e-01
      -11 -1    0    0    0    0 +0.0000000000e+00 +0.0000000000e+00 +1.2500000000e+02 1.2500000000e+02 0.0000000000e+00 0.0000e+00 1.0000e+00
       11 -1    0    0    0    0 -0.0000000000e+00 -0.0000000000e+00 -1.2500000000e+02 1.2500000000e+02 0.0000000000e+00 0.0000e+00 -1.0000e+00
       23  1    1    2    0    0 +1.9896072310e+01 +5.8814600561e+01 -3.6868817595e+00 1.1038050269e+02 9.1188000000e+01 0.0000e+00 0.0000e+00
       25  1    1    2    0    0 -1.9896072310e+01 -5.8814600561e+01 +3.6868817595e+00 1.3961949731e+02 1.2500000000e+02 0.0000e+00 0.0000e+00
</event>
<event>
 4      1 +2.4014000e-01 2.50000000e+02 7.54677100e-03 1.02464900e-01
      -11 -1    0    0    0    0 +0.0000000000e+00 +0.0000000000e+00 +1.2500000000e+02 1.2500000000e+02 0.0000000000e+00 0.0000e+00 1.0000e+00
       11 -1    0    0    0    0 -0.0000000000e+00 -0.0000000000e+00 -1.2500000000e+02 1.2500000000e+02 0.0000000000e+00 0.0000e+00 -1.0000e+00
       23  1    1    2    0    0 +3.4518817943e+01 -5.1631550559e+01 +3.3523461010e+00 1.1038050269e+02 9.1188000000e+01 0.0000e+00 -1.0000e+00
       25  1    1    2    0    0 -3.4518817943e+01 +5.1631550559e+01 -3.3523461010e+00 1.3961949731e+02 1.2500000000e+02 0.0000e+00 0.0000e+00
</event>
<event>
 4      1 +2.4014000e-01 2.50000000e+02 7.54677100e-03 1.02464900e-01
      -11 -1    0    0    0    0 +0.0000000000e+00 +0.0000000000e+00 +1.2500000000e+02 1.2500000000e+02 0.0000000000e+00 0.0000e+00 1.0000e+00
       11 -1    0    0    0    0 -0.0000000000e+00 -0.0000000000e+00 -1.2500000000e+02 1.2500000000e+02 0.0000000000e+00 0.0000e+00 -1.0000e+00
       23  1    1    2    0    0 +3.4555429235e+01 +8.5697087538e+00 -5.1000847365e+01 1.1038050269e+02 9.1188000000e+01 0.0000e+00 0.0000e+00
       25  1    1    2    0    0 -3.4555429235e+01 -8.5697087538e+00 +5.1000847365e+01 1.3961949731e+02 1.2500000000e+02 0.0000e+00 0.0000e+00
</event>
<event>
 4      1 +2.4014000e-01 2.50000000e+02 7.54677100e-03 1.02464900e-01
      -11 -1    0    0    0    0 +0.0000000000e+00 +0.0000000000e+00 +1.2500000000e+02 1.2500000000e+02 0.0000000000e+00 0.0000e+00 1.0000e+00
       11 -1    0    0    0    0 -0.0000000000e+00 -0.0000000000e+00 -1.2500000000e+02 1.2500000000e+02 0.0000000000e+00 0.0000e+00 -1.0000e+00
       23  1    1    2    0    0 +4.8037926344e+01 +1.0807493263e+01 -3.8002101936e+01 1.1038050269e+02 9.1188000000e+01 0.0000e+00 0.0000e+00
       25  1    1    2    0    0 -4.8037926344e+01 -1.0807493263e+01 +3.8002101936e+01 1.3961949731e+02 1.2500000000e+02 0.0000e+00 0.0000e+00
</event>
<event>
 4      1 +2.4014000e-01 2.50000000e+02 7.54677100e-03 1.02464900e-01
      -11 -1    0    0    0    0 +0.0000000000e+00 +0.0000000000e+00 +1.2500000000e+02 1.2500000000e+02 0.0000000000e+00 0.0000e+00 -1.0000e+00
       11 -1    0    0    0    0 -0.0000000000e+00 -0.0000000000e+00 -1.2500000000e+02 1.2500000000e+02 0.0000000000e+00 0.0000e+00 1.0000e+00
       23  1    1    2    0    0 -5.2160797656e+01 +1.7166128427e+01 +2.9209232313e+01 1.1038050269e+02 9.1188000000e+01 0.0000e+00 0.0000e+00
       25  1    1    2    0    0 +5.2160797656e+01 -1.7166128427e+01 -2.9209232313e+01 1.3961949731e+02 1.2500000000e+02 0.0000e+00 0.0000e+00
</event>
<event>
 4      1 +2.4014000e-01 2.50000000e+02 7.54677100e-03 1.02464900e-01
      -11 -1    0    0    0    0 +0.0000000000e+00 +0.0000000000e+00 +1.2500000000e+02 1.2500000000e+02 0.0000000000e+00 0.0000e+00 -1.0000e+00
       11 -1    0    0    0    0 -0.0000000000e+00 -0.0000000000e+00 -1.2500000000e+02 1.2500000000e+02 0.0000000000e+00 0.0000e+00 1.0000e+00
       23  1    1    2    0    0 -4.6148176947e+01 +4.1251166631e+01 +6.1066394810e+00 1.1038050269e+02 9.1188000000e+01 0.0000e+00 0.0000e+00
       25  1    1    2    0    0 +4.6148176947e+01 -4.1251166631e+01 -6.1066394810e+00 1.3961949731e+02 1.2500000000e+02 0.0000e+00 0.0000e+00
</event>
<event>
 4      1 +2.4014000e-01 2.50000000e+02 7.54677100e-03 1.02464900e-01
      -11 -1    0    0    0    0 +0.0000000000e+00 +0.0000000000e+00 +1.2500000000e+02 1.2500000000e+02 0.0000000000e+00 0.0000e+00 -1.0000e+00
       11 -1    0    0    0    0 -0.0000000000e+00 -0.0000000000e+00 -1.2500000000e+02 1.2500000000e+02 0.0000000000e+00 0.0000e+00 1.0000e+00
       23  1    1    2    0    0 -3.2585502079e+00 -4.7325288662e+01 -4.0228136090e+01 1.1038050269e+02 9.1188000000e+01 0.0000e+00 -1.0000e+00
       25  1    1    2    0    0 +3.2585502079e+00 +4.7325288662e+01 +4.0228136090e+01 1.3961949731e+02 1.2500000000e+02 0.0000e+00 0.0000e+00
</event>
<event>
 4      1 +2.4014000e-01 2.50000000e+02 7.54677100e-03 1.02464900e-01
      -11 -1    0    0    0    0 +0.0000000000e+00 +0.0000000000e+00 +1.2500000000e+02 1.2500000000e+02 0.0000000000e+00 0.0000e+00 1.0000e+00
       11 -1    0    0    0    0 -0.0000000000e+00 -0.0000000000e+00 -1.2500000000e+02 1.2500000000e+02 0.0000000000e+00 0.0000e+00 -1.0000e+00
       23  1    1    2    0    0 -2.8584939846e+01 +3.7970595696e+01 +4.0121554134e+01 1.1038050269e+02 9.1188000000e+01 0.0000e+00 0.0000e+00
       25  1    1    2    0    0 +2.8584939846e+01 -3.7970595696e+01 -4.0121554134e+01 1.3961949731e+02 1.2500000000e+02 0.0000e+00 0.0000e+00
</event>
<event>
 4      1 +2.4014000e-01 2.50000000e+02 7.54677100e-03 1.02464900e-01
      -11 -1    0    0    0    0 +0.0000000000e+00 +0.0000000000e+00 +1.2500000000e+02 1.2500000000e+02 0.0000000000e+00 0.0000e+00 1.0000e+00
       11 -1    0    0    0    0 -0.0000000000e+00 -0.0000000000e+00 -1.2500000000e+02 1.2500000000e+02 0.0000000000e+00 0.0000e+00 -1.0000e+00
       23  1    1    2    0    0 +6.0636323946e+00 +6.1516879967e+01 -6.8927404542e+00 1.1038050269e+02 9.1188000000e+01 0.0000e+00 0.0000e+00
       25  1    1    2    0    0 -6.0636323946e+00 -6.1516879967e+01 +6.8927404542e+00 1.3961949731e+02 1.2500000000e+02 0.0000e+00 0.0000e+00
</event>
<event>
 4      1 +2.4014000e-01 2.50000000e+02 7.54677100e-03 1.02464900e-01
      -11 -1    0    0    0    0 +0.0000000000e+00 +0.0000000000e+00 +1.2500000000e+02 1.2500000000e+02 0.0000000000e+00 0.0000e+00 1.0000e+00
       11 -1    0    0    0    0 -0.0000000000e+00 -0.0000000000e+00 -1.2500000000e+02 1.2500000000e+02 0.0000000000e+00 0.0000e+00 -1.0000e+00
       23  1    1    2    0    0 +3.3025753808e+01 -3.4898567632e+01 +3.9496754200e+01 1.1038050269e+02 9.1188000000e+01 0.0000e+00 1.0000e+00
       25  1    1    2    0    0 -3.3025753808e+01 +3.4898567632e+01 -3.9496754200e+01 1.3961949731e+02 1.2500000000e+02 0.0000e+00 0.0000e+00
</event>
<event>
 4      1 +2.4014000e-01 2.50000000e+02 7.54677100e-03 1.02464900e-01
      -11 -1    0    0    0    0 +0.0000000000e+00 +0.0000000000e+00 +1.2500000000e+02 1.2500000000e+02 0.0000000000e+00 0.0000e+00 -1.0000e+00
       11 -1    0    0    0    0 -0.0000000000e+00 -0.0000000000e+00 -1.2500000000e+02 1.2500000000e+02 0.0000000000e+00 0.0000e+00 1.0000e+00
       23  1    1    2    0    0 -5.0622381869e+01 +3.5502993119e+01 +6.7465519464e+00 1.1038050269e+02 9.1188000000e+01 0.0000e+00 0.0000e+00
       25  1    1    2    0    0 +5.0622381869e+01 -3.5502993119e+01 -6.7465519464e+00 1.3961949731e+02 1.2500000000e+02 0.0000e+00 0.0000e+00
</event>
<event>
 4      1 +2.4014000e-01 2.50000000e+02 7.54677100e-03 1.02464900e-01
      -11 -1    0    0    0    0 +0.0000000000e+00 +0.0000000000e+00 +1.2500000000e+02 1.2500000000e+02 0.0000000000e+00 0.0000e+00 -1.0000e+00
       11 -1    0    0    0    0 -0.0000000000e+00 -0.0000000000e+00 -1.2500000000e+02 1.2500000000e+02 0.0000000000e+00 0.0000e+00 1.0000e+00
       23  1    1    2    0    0 -2.0129615511e+01 -3.7062332967e+01 -4.5714178152e+01 1.1038050269e+02 9.1188000000e+01 0.0000e+00 -1.0000e+00
       25  1    1    2    0    0 +2.0129615511e+01 +3.7062332967e+01 +4.5714178152e+01 1.3961949731e+02 1.2500000000e+02 0.0000e+00 0.0000e+00
</event>
<event>
 4      1 +2.4014000e-01 2.50000000e+02 7.54677100e-03 1.02464900e-01
      -11 -1    0    0    0    0 +0.0000000000e+00 +0.0000000000e+00 +1.2500000000e+02 1.2500000000e+02 0.0000000000e+00 0.0000e+00 1.0000e+00
       11 -1    0    0    0    0 -0.0000000000e+00 -0.0000000000e+00 -1.2500000000e+02 1.2500000000e+02 0.0000000000e+00 0.0000e+00 -1.0000e+00
       23  1    1    2    0    0 +4.8387213721e+01 -3.3917811055e+01 -1.9412976877e+01 1.1038050269e+02 9.1188000000e+01 0.0000e+00 1.0000e+00
       25  1    1    2    0    0 -4.8387213721e+01 +3.3917811055e+01 +1.9412976877e+01 1.3961949731e+02 1.2500000000e+02 0.0000e+00 0.0000e+00
</event>
<event>
 4      1 +2.4014000e-01 2.50000000e+02 7.54677100e-03 1.02464900e-01
      -11 -1    0    0    0    0 +0.0000000000e+00 +0.0000000000e+00 +1.2500000000e+02 1.2500000000e+02 0.0000000000e+00 0.0000e+00 1.0000e+00
       11 -1    0    0    0    0 -0.0000000000e+00 -0.0000000000e+00 -1.2500000000e+02 1.2500000000e+02 0.0000000000e+00 0.0000e+00 -1.0000e+00
       23  1    1    2    0    0 -3.5772512475e+01 +4.8400747044e+01 -1.5693918137e+01 1.1038050269e+02 9.1188000000e+01 0.0000e+00 1.0000e+00
       25  1    1    2    0    0 +3.5772512475e+01 -4.8400747044e+01 +1.5693918137e+01 1.3961949731e+02 1.2500000000e+02 0.0000e+00 0.0000e+00
</event>
<event>
 4      1 +2.4014000e-01 2.50000000e+02 7.54677100e-03 1.02464900e-01
      -11 -1    0    0    0    0 +0.0000000000e+00 +0.0000000000e+00 +1.2500000000e+02 1.2500000000e+02 0.0000000000e+00 0.0000e+00 -1.0000e+00
       11 -1    0    0    0    0 -0.0000000000e+00 -0.0000000000e+00 -1.2500000000e+02 1.2500000000e+02 0.0000000000e+00 0.0000e+00 1.0000e+00
       23  1    1    2    0    0 -2.9863833588e+01 +5.4294639940e+01 +5.3709912447e+00 1.1038050269e+02 9.1188000000e+01 0.0000e+00 0.0000e+00
       25  1    1    2    0    0 +2.9863833588e+01 -5.4294639940e+01 -5.3709912447e+00 1.3961949731e+02 1.2500000000e+02 0.0000e+00 0.0000e+00
</event>
<event>
 4      1 +2.4014000e-01 2.50000000e+02 7.54677100e-03 1.02464900e-01
      -11 -1    0    0    0    0 +0.0000000000e+00 +0.0000000000e+00 +1.2500000000e+02 1.2500000000e+02 0.0000000000e+00 0.0000e+00 1.0000e+00
       11 -1    0    0    0    0 -0.0000000000e+00 -0.0000000000e+00 -1.2500000000e+02 1.2500000000e+02 0.0000000000e+00 0.0000e+00 -1.0000e+00
       23  1    1    2    0    0 -1.3219160182e+00 -5.5319377082e+01 +2.8401110665e+01 1.1038050269e+02 9.1188000000e+01 0.0000e+00 1.0000e+00
       25  1    1    2    0    0 +1.3219160182e+00 +5.5319377082e+01 -2.8401110665e+01 1.3961949731e+02 1.2500000000e+02 0.0000e+00 0.0000e+00
</event>
<event>
 4      1 +2.4014000e-01 2.50000000e+02 7.54677100e-03 1.02464900e-01
      -11 -1    0    0    0    0 +0.0000000000e+00 +0.0000000000e+00 +1.2500000000e+02 1.2500000000e+02 0.0000000000e+00 0.0000e+00 1.0000e+00
       11 -1    0    0    0    0 -0.0000000000e+00 -0.0000000000e+00 -1.2500000000e+02 1.2500000000e+02 0.0000000000e+00 0.0000e+00 -1.0000e+00
       23  1    1    2    0    0 +3.5859298993e+01 -2.0183699903e+01 -4.6640464873e+01 1.1038050269e+02 9.1188000000e+01 0.0000e+00 -1.0000e+00
       25  1    1    2    0    0 -3.5859298993e+01 +2.0183699903e+01 +4.6640464873e+01 1.3961949731e+02 1.2500000000e+02 0.0000e+00 0.0000e+00
</event>
<event>
 4      1 +2.4014000e-01 2.50000000e+02 7.54677100e-03 1.02464900e-01
      -11 -1    0    0    0    0 +0.0000000000e+00 +0.0000000000e+00 +1.2500000000e+02 1.2500000000e+02 0.0000000000e+00 0.0000e+00 1.0000e+00
       11 -1    0    0    0    0 -0.0000000000e+00 -0.0000000000e+00 -1.2500000000e+02 1.2500000000e+02 0.0000000000e+00 0.0000e+00 -1.0000e+00
       23  1    1    2    0    0 +2.7346250686e+01 -1.9798543012e+01 +5.2237958398e+01 1.1038050269e+02 9.1188000000e+01 0.0000e+00 1.0000e+00
       25  1    1    2    0    0 -2.7346250686e+01 +1.9798543012e+01 -5.2237958398e+01 1.3961949731e+02 1.2500000000e+02 0.0000e+00 0.0000e+00
</event>
<event>
 4      1 +2.4014000e-01 2.50000000e+02 7.54677100e-03 1.02464900e-01
      -11 -1    0    0    0    0 +0.0000000000e+00 +0.0000000000e+00 +1.2500000000e+02 1.2500000000e+02 0.0000000000e+00 0.0000e+00 -1.0000e+00
       11 -1    0    0    0    0 -0.0000000000e+00 -0.0000000000e+00 -1.2500000000e+02 1.2500000000e+02 0.0000000000e+00 0.0000e+00 1.0000e+00
       23  1    1    2    0    0 -1.1356552934e+01 -4.4927810570e+01 +4.1486438417e+01 1.1038050269e+02 9.1188000000e+01 0.0000e+00 -1.0000e+00
       25  1    1    2    0    0 +1.1356552934e+01 +4.4927810570e+01 -4.1486438417e+01 1.3961949731e+02 1.2500000000e+02 0.0000e+00 0.0000e+00
</event>
<event>
 4      1 +2.4014000e-01 2.50000000e+02 7.54677100e-03 1.02464900e-01
      -11 -1    0    0    0    0 +0.0000000000e+00 +0.0000000000e+00 +1.2500000000e+02 1.2500000000e+02 0.0000000000e+00 0.0000e+00 -1.0000e+00
       11 -1    0    0    0    0 -0.0000000000e+00 -0.0000000000e+00 -1.2500000000e+02 1.2500000000e+02 0.0000000000e+00 0.0000e+00 1.0000e+00
       23  1    1    2    0    0 -4.2245950316e+01 +3.2885660246e+01 -3.1660970638e+01 1.1038050269e+02 9.1188000000e+01 0.0000e+00 0.0000e+00
       25  1    1    2    0    0 +4.2245950316e+01 -3.2885660246e+01 +3.1660970638e+01 1.3961949731e+02 1.2500000000e+02 0.0000e+00 0.0000e+00
</event>
<event>
 4      1 +2.4014000e-01 2.50000000e+02 7.54677100e-03 1.02464900e-01
      -11 -1    0    0    0    0 +0.0000000000e+00 +0.0000000000e+00 +1.2500000000e+02 1.2500000000e+02 0.0000000000e+00 0.0000e+00 1.0000e+00
       11 -1    0    0    0    0 -0.0000000000e+00 -0.0000000000e+00 -1.2500000000e+02 1.2500000000e+02 0.0000000000e+00 0.0000e+00 -1.0000e+00
       23  1    1    2    0    0 +4.6965042947e+01 +5.2047066379e-01 +4.0775211599e+01 1.1038050269e+02 9.1188000000e+01 0.0000e+00 0.0000e+00
       25  1    1    2    0    0 -4.6965042947e+01 -5.2047066379e-01 -4.0775211599e+01 1.3961949731e+02 1.2500000000e+02 0.0000e+00 0.0000e+00
</event>
<event>
 4      1 +2.4014000e-01 2.50000000e+02 7.54677100e-03 1.02464900e-01
      -11 -1    0    0    0    0 +0.0000000000e+00 +0.0000000000e+00 +1.2500000000e+02 1.2500000000e+02 0.0000000000e+00 0.0000e+00 1.0000e+00
       11 -1    0    0    0    0 -0.0000000000e+00 -0.0000000000e+00 -1.2500000000e+02 1.2500000000e+02 0.0000000000e+00 0.0000e+00 -1.0000e+00
       23  1    1    2    0    0 +1.6939857382e+01 +5.6901927915e+01 +1.8542272275e+01 1.1038050269e+02 9.1188000000e+01 0.0000e+00 -1.0000e+00
       25  1    1    2    0    0 -1.6939857382e+01 -5.6901927915e+01 -1.8542272275e+01 1.3961949731e+02 1.2500000000e+02 0.0000e+00 0.0000e+00
</event>
<event>
 4      1 +2.4014000e-01 2.50000000e+02 7.54677100e-03 1.02464900e-01
      -11 -1    0    0    0    0 +0.0000000000e+00 +0.0000000000e+00 +1.2500000000e+02 1.2500000000e+02 0.0000000000e+00 0.0000e+00 1.0000e+00
       11 -1    0    0    0    0 -0.0000000000e+00 -0.0000000000e+00 -1.2500000000e+02 1.2500000000e+02 0.0000000000e+00 0.0000e+00 -1.0000e+00
       23  1    1    2    0    0 +5.2379817179e+01 -3.3309704915e+01 +3.9271287768e+00 1.1038050269e+02 9.1188000000e+01 0.0000e+00 0.0000e+00
       25  1    1    2    0    0 -5.2379817179e+01 +3.3309704915e+01 -3.9271287768e+00 1.3961949731e+02 1.2500000000e+02 0.0000e+00 0.0000e+00
</event>
<event>
 4      1 +2.4014000e-01 2.50000000e+02 7.54677100e-03 1.02464900e-01
      -11 -1    0    0    0    0 +0.0000000000e+00 +0.0000000000e+00 +1.2500000000e+02 1.2500000000e+02 0.0000000000e+00 0.0000e+00 1.0000e+00
       11 -1    0    0    0    0 -0.0000000000e+00 -0.0000000000e+00 -1.2500000000e+02 1.2500000000e+02 0.0000000000e+00 0.0000e+00 -1.0000e+00
       23  1    1    2    0    0 -3.1487721596e+01 +5.2659283483e+01 +1.0204277604e+01 1.1038050269e+02 9.1188000000e+01 0.0000e+00 1.0000e+00
       25  1    1    2    0    0 +3.1487721596e+01 -5.2659283483e+01 -1.0204277604e+01 1.3961949731e+02 1.2500000000e+02 0.0000e+00 0.0000e+00
</event>
<event>
 4      1 +2.4014000e-01 2.50000000e+02 7.54677100e-03 1.02464900e-01
      -11 -1    0    0    0    0 +0.0000000000e+00 +0.0000000000e+00 +1.2500000000e+02 1.2500000000e+02 0.0000000000e+00 0.0000e+00 -1.0000e+00
       11 -1    0    0    0    0 -0.0000000000e+00 -0.0000000000e+00 -1.2500000000e+02 1.2500000000e+02 0.0000000000e+00 0.0000e+00 1.0000e+00
       23  1    1    2    0    0 -1.3495298119e+01 +6.0469146236e+01 -5.4738753985e+00 1.1038050269e+02 9.1188000000e+01 0.0000e+00 1.0000e+00
       25  1    1    2    0    0 +1.3495298119e+01 -6.0469146236e+01 +5.4738753985e+00 1.3961949731e+02 1.2500000000e+02 0.0000e+00 0.0000e+00
</event>
<event>
 4      1 +2.4014000e-01 2.50000000e+02 7.54677100e-03 1.02464900e-01
      -11 -1    0    0    0    0 +0.0000000000e+00 +0.0000000000e+00 +1.2500000000e+02 1.2500000000e+02 0.0000000000e+00 0.0000e+00 -1.0000e+00
       11 -1    0    0    0    0 -0.0000000000e+00 -0.0000000000e+00 -1.2500000000e+02 1.2500000000e+02 0.0000000000e+00 0.0000e+00 1.0000e+00
       23  1    1    2    0    0 +3.5502398402e+01 +3.2927879342e+01 -3.9037654891e+01 1.1038050269e+02 9.1188000000e+01 0.0000e+00 1.0000e+00
       25  1    1    2    0    0 -3.5502398402e+01 -3.2927879342e+01 +3.9037654891e+01 1.3961949731e+02 1.2500000000e+02 0.0000e+00 0.0000e+00
</event>
<event>
 4      1 +2.4014000e-01 2.50000000e+02 7.54677100e-03 1.02464900e-01
      -11 -1    0    0    0    0 +0.0000000000e+00 +0.0000000000e+00 +1.2500000000e+02 1.2500000000e+02 0.0000000000e+00 0.0000e+00 -1.0000e+00
       11 -1    0    0    0    0 -0.0000000000e+00 -0.0000000000e+00 -1.2500000000e+02 1.2500000000e+02 0.0000000000e+00 0.0000e+00 1.0000e+00
       23  1    1    2    0    0 +3.3601572380e+00 +5.9305319670e+01 +1.8444306217e+01 1.1038050269e+02 9.1188000000e+01 0.0000e+00 0.0000e+00
       25  1    1    2    0    0 -3.3601572380e+00 -5.9305319670e+01 -1.8444306217e+01 1.3961949731e+02 1.2500000000e+02 0.0000e+00 0.0000e+00
</event>
<event>
 4      1 +2.4014000e-01 2.50000000e+02 7.54677100e-03 1.02464900e-01
      -11 -1    0    0    0    0 +0.0000000000e+00 +0.0000000000e+00 +1.2500000000e+02 1.2500000000e+02 0.0000000000e+00 0.0000e+00 1.0000e+00
       11 -1    0    0    0    0 -0.0000000000e+00 -0.0000000000e+00 -1.2500000000e+02 1.2500000000e+02 0.0000000000e+00 0.0000e+00 -1.0000e+00
       23  1    1    2    0    0 +6.1464566313e+01 -8.5761159727e+00 -4.1426262743e+00 1.1038050269e+02 9.1188000000e+01 0.0000e+00 1.0000e+00
       25  1    1    2    0    0 -6.1464566313e+01 +8.5761159727e+00 +4.1426262743e+00 1.3961949731e+02 1.2500000000e+02 0.0000e+00 0.0000e+00
</event>
<event>
 4      1 +2.4014000e-01 2.50000000e+02 7.54677100e-03 1.02464900e-01
      -11 -1    0    0    0    0 +0.0000000000e+00 +0.0000000000e+00 +1.2500000000e+02 1.2500000000e+02 0.0000000000e+00 0.0000e+00 -1.0000e+00
       11 -1    0    0    0    0 -0.0000000000e+00 -0.0000000000e+00 -1.2500000000e+02 1.2500000000e+02 0.0000000000e+00 0.0000e+00 1.0000e+00
       23  1    1    2    0    0 +1.2667398534e+01 +7.6488761162e+00 -6.0412215141e+01 1.1038050269e+02 9.1188000000e+01 0.0000e+00 1.0000e+00
       25  1    1    2    0    0 -1.2667398534e+01 -7.6488761162e+00 +6.0412215141e+01 1.3961949731e+02 1.2500000000e+02 0.0000e+00 0.0000e+00
</event>
<event>
 4      1 +2.4014000e-01 2.50000000e+02 7.54677100e-03 1.02464900e-01
      -11 -1    0    0    0    0 +0.0000000000e+00 +0.0000000000e+00 +1.2500000000e+02 1.2500000000e+02 0.0000000000e+00 0.0000e+00 1.0000e+00
       11 -1    0    0    0    0 -0.0000000000e+00 -0.0000000000e+00 -1.2500000000e+02 1.2500000000e+02 0.0000000000e+00 0.0000e+00 -1.0000e+00
       23  1    1    2    0    0 +3.0523539042e+01 -3.8465743805e+01 -3.8174653208e+01 1.1038050269e+02 9.1188000000e+01 0.0000e+00 0.0000e+00
       25  1    1    2    0    0 -3.0523539042e+01 +3.8465743805e+01 +3.8174653208e+01 1.3961949731e+02 1.2500000000e+02 0.0000e+00 0.0000e+00
</event>
<event>
 4      1 +2.4014000e-01 2.50000000e+02 7.54677100e-03 1.02464900e-01
      -11 -1    0    0    0    0 +0.0000000000e+00 +0.0000000000e+00 +1.2500000000e+02 1.2500000000e+02 0.0000000000e+00 0.0000e+00 -1.0000e+00
       11 -1    0    0    0    0 -0.0000000000e+00 -0.0000000000e+00 -1.2500000000e+02 1.2500000000e+02 0.0000000000e+00 0.0000e+00 1.0000e+00
       23  1    1    2    0    0 -4.7647462673e+01 -3.8271691229e+01 -1.1558589055e+01 1.1038050269e+02 9.1188000000e+01 0.0000e+00 0.0000e+00
       25  1    1    2    0    0 +4.7647462673e+01 +3.8271691229e+01 +1.1558589055e+01 1.3961949731e+02 1.2500000000e+02 0.0000e+00 0.0000e+00
</event>
<event>
 4      1 +2.4014000e-01 2.50000000e+02 7.54677100e-03 1.02464900e-01
      -11 -1    0    0    0    0 +0.0000000000e+00 +0.0000000000e+00 +1.2500000000e+02 1.2500000000e+02 0.0000000000e+00 0.0000e+00 1.0000e+00
       11 -1    0    0    0    0 -0.0000000000e+00 -0.0000000000e+00 -1.2500000000e+02 1.2500000000e+02 0.0000000000e+00 0.0000e+00 -1.0000e+00
       23  1    1    2    0    0 -8.9432811666e+00 -2.9364248075e+01 -5.4095865707e+01 1.1038050269e+02 9.1188000000e+01 0.0000e+00 -1.0000e+00
       25  1    1    2    0    0 +8.9432811666e+00 +2.9364248075e+01 +5.4095865707e+01 1.3961949731e+02 1.2500000000e+02 0.0000e+00 0.0000e+00
</event>
<event>
 4      1 +2.4014000e-01 2.50000000e+02 7.54677100e-03 1.02464900e-01
      -11 -1    0    0    0    0 +0.0000000000e+00 +0.0000000000e+00 +1.2500000000e+02 1.2500000000e+02 0.0000000000e+00 0.0000e+00 1.0000e+00
       11 -1    0    0    0    0 -0.0000000000e+00 -0.0000000000e+00 -1.2500000000e+02 1.2500000000e+02 0.0000000000e+00 0.0000e+00 -1.0000e+00
       23  1    1    2    0    0 +2.4362721249e+01 -4.2626001792e+01 -3.8184889867e+01 1.1038050269e+02 9.1188000000e+01 0.0000e+00 -1.0000e+00
       25  1    1    2    0    0 -2.4362721249e+01 +4.2626001792e+01 +3.8184889867e+01 1.3961949731e+02 1.2500000000e+02 0.0000e+00 0.0000e+00
</event>
<event>
 4      1 +2.4014000e-01 2.50000000e+02 7.54677100e-03 1.02464900e-01
      -11 -1    0    0    0    0 +0.0000000000e+00 +0.0000000000e+00 +1.2500000000e+02 1.2500000000e+02 0.0000000000e+00 0.0000e+00 -1.0000e+00
       11 -1    0    0    0    0 -0.0000000000e+00 -0.0000000000e+00 -1.2500000000e+02 1.2500000000e+02 0.0000000000e+00 0.0000e+00 1.0000e+00
       23  1    1    2    0    0 -1.2132351356e+01 -5.7604451638e+01 -2.0078277607e+01 1.1038050269e+02 9.1188000000e+01 0.0000e+00 0.0000e+00
       25  1    1    2    0    0 +1.2132351356e+01 +5.7604451638e+01 +2.0078277607e+01 1.3961949731e+02 1.2500000000e+02 0.0000e+00 0.0000e+00
</event>
<event>
 4      1 +2.4014000e-01 2.50000000e+02 7.54677100e-03 1.02464900e-01
      -11 -1    0    0    0    0 +0.0000000000e+00 +0.0000000000e+00 +1.2500000000e+02 1.2500000000e+02 0.0000000000e+00 0.0000e+00 1.0000e+00
       11 -1    0    0    0    0 -0.0000000000e+00 -0.0000000000e+00 -1.2500000000e+02 1.2500000000e+02 0.0000000000e+00 0.0000e+00 -1.0000e+00
       23  1    1    2    0    0 -5.9485214976e+01 -1.2255748631e+01 +1.3413047919e+01 1.1038050269e+02 9.1188000000e+01 0.0000e+00 1.0000e+00
       25  1    1    2    0    0 +5.9485214976e+01 +1.2255748631e+01 -1.3413047919e+01 1.3961949731e+02 1.2500000000e+02 0.0000e+00 0.0000e+00
</event>
<event>
 4      1 +2.4014000e-01 2.50000000e+02 7.54677100e-03 1.02464900e-01
      -11 -1    0    0    0    0 +0.0000000000e+00 +0.0000000000e+00 +1.2500000000e+02 1.2500000000e+02 0.0000000000e+00 0.0000e+00 -1.0000e+00
       11 -1    0    0    0    0 -0.0000000000e+00 -0.0000000000e+00 -1.2500000000e+02 1.2500000000e+02 0.0000000000e+00 0.0000e+00 1.0000e+00
       23  1    1    2    0    0 +4.6171533015e+01 -4.1633148290e+01 -1.8640097025e+00 1.1038050269e+02 9.1188000000e+01 0.0000e+00 -1.0000e+00
       25  1    1    2    0    0 -4.6171533015e+01 +4.1633148290e+01 +1.8640097025e+00 1.3961949731e+02 1.2500000000e+02 0.0000e+00 0.0000e+00
</event>
<event>
 4      1 +2.4014000e-01 2.50000000e+02 7.54677100e-03 1.02464900e-01
      -11 -1    0    0    0    0 +0.0000000000e+00 +0.0000000000e+00 +1.2500000000e+02 1.2500000000e+02 0.0000000000e+00 0.0000e+00 1.0000e+00
       11 -1    0    0    0    0 -0.0000000000e+00 -0.0000000000e+00 -1.2500000000e+02 1.2500000000e+02 0.0000000000e+00 0.0000e+00 -1.0000e+00
       23  1    1    2    0    0 -6.1384561354e+01 -9.8060215807e+00 +2.0932266361e+00 1.1038050269e+02 9.1188000000e+01 0.0000e+00 1.0000e+00
       25  1    1    2    0    0 +6.1384561354e+01 +9.8060215807e+00 -2.0932266361e+00 1.3961949731e+02 1.2500000000e+02 0.0000e+00 0.0000e+00
</event>
<event>
 4      1 +2.4014000e-01 2.50000000e+02 7.54677100e-03 1.02464900e-01
      -11 -1    0    0    0    0 +0.0000000000e+00 +0.0000000000e+00 +1.2500000000e+02 1.2500000000e+02 0.0000000000e+00 0.0000e+00 1.0000e+00
       11 -1    0    0    0    0 -0.0000000000e+00 -0.0000000000e+00 -1.2500000000e+02 1.2500000000e+02 0.0000000000e+00 0.0000e+00 -1.0000e+00
       23  1    1    2    0    0 -5.8474720087e+01 +1.0383787012e+01 -1.8479396844e+01 1.1038050269e+02 9.1188000000e+01 0.0000e+00 0.0000e+00
       25  1    1    2    0    0 +5.8474720087e+01 -1.0383787012e+01 +1.8479396844e+01 1.3961949731e+02 1.2500000000e+02 0.0000e+00 0.0000e+00
</event>
<event>
 4      1 +2.4014000e-01 2.50000000e+02 7.54677100e-03 1.02464900e-01
      -11 -1    0    0    0    0 +0.0000000000e+00 +0.0000000000e+00 +1.2500000000e+02 1.2500000000e+02 0.0000000000e+00 0.0000e+00 1.0000e+00
       11 -1    0    0    0    0 -0.0000000000e+00 -0.0000000000e+00 -1.2500000000e+02 1.2500000000e+02 0.0000000000e+00 0.0000e+00 -1.0000e+00
       23  1    1    2    0    0 +5.6219115813e+01 +1.8677039064e+01 +1.8952130716e+01 1.1038050269e+02 9.1188000000e+01 0.0000e+00 0.0000e+00
       25  1    1    2    0    0 -5.6219115813e+01 -1.8677039064e+01 -1.8952130716e+01 1.3961949731e+02 1.2500000000e+02 0.0000e+00 0.0000e+00
</event>
<event>
 4      1 +2.4014000e-01 2.50000000e+02 7.54677100e-03 1.02464900e-01
      -11 -1    0    0    0    0 +0.0000000000e+00 +0.0000000000e+00 +1.2500000000e+02 1.2500000000e+02 0.0000000000e+00 0.0000e+00 1.0000e+00
       11 -1    0    0    0    0 -0.0000000000e+00 -0.0000000000e+00 -1.2500000000e+02 1.2500000000e+02 0.0000000000e+00 0.0000e+00 -1.0000e+00
       23  1    1    2    0    0 -1.3953774492e+01 +5.1663095601e+01 -3.1698907868e+01 1.1038050269e+02 9.1188000000e+01 0.0000e+00 -1.0000e+00
       25  1    1    2    0    0 +1.3953774492e+01 -5.1663095601e+01 +3.1698907868e+01 1.3961949731e+02 1.2500000000e+02 0.0000e+00 0.0000e+00
</event>
<event>
 4      1 +2.4014000e-01 2.50000000e+02 7.54677100e-03 1.02464900e-01
      -11 -1    0    0    0    0 +0.0000000000e+00 +0.0000000000e+00 +1.2500000000e+02 1.2500000000e+02 0.0000000000e+00 0.0000e+00 -1.0000e+00
       11 -1    0    0    0    0 -0.0000000000e+00 -0.0000000000e+00 -1.2500000000e+02 1.2500000000e+02 0.0000000000e+00 0.0000e+00 1.0000e+00
       23  1    1    2    0    0 +4.1926773967e+01 +3.9190730955e+01 -2.3975743193e+01 1.1038050269e+02 9.1188000000e+01 0.0000e+00 1.0000e+00
       25  1    1    2    0    0 -4.1926773967e+01 -3.9190730955e+01 +2.3975743193e+01 1.3961949731e+02 1.2500000000e+02 0.0000e+00 0.0000e+00
</event>
<event>
 4      1 +2.4014000e-01 2.50000000e+02 7.54677100e-03 1.02464900e-01
      -11 -1    0    0    0    0 +0.0000000000e+00 +0.0000000000e+00 +1.2500000000e+02 1.2500000000e+02 0.0000000000e+00 0.0000e+00 -1.0000e+00
       11 -1    0    0    0    0 -0.0000000000e+00 -0.0000000000e+00 -1.2500000000e+02 1.2500000000e+02 0.0000000000e+00 0.0000e+00 1.0000e+00
       23  1    1    2    0    0 +7.4077808844e+00 -5.5234064503e+01 +2.7621131955e+01 1.1038050269e+02 9.1188000000e+01 0.0000e+00 -1.0000e+00
       25  1    1    2    0    0 -7.4077808844e+00 +5.5234064503e+01 -2.7621131955e+01 1.3961949731e+02 1.2500000000e+02 0.0000e+00 0.0000e+00
</event>
<event>
 4      1 +2.4014000e-01 2.50000000e+02 7.54677100e-03 1.02464900e-01
      -11 -1    0    0    0    0 +0.0000000000e+00 +0.0000000000e+00 +1.2500000000e+02 1.2500000000e+02 0.0000000000e+00 0.0000e+00 1.0000e+00
       11 -1    0    0    0    0 -0.0000000000e+00 -0.0000000000e+00 -1.2500000000e+02 1.2500000000e+02 0.0000000000e+00 0.0000e+00 -1.0000e+00
       23  1    1    2    0    0 -3.4636486088e+01 +1.9840496555e+01 -4.7699817165e+01 1.1038050269e+02 9.1188000000e+01 0.0000e+00 -1.0000e+00
       25  1    1    2    0    0 +3.4636486088e+01 -1.9840496555e+01 +4.7699817165e+01 1.3961949731e+02 1.2500000000e+02 0.0000e+00 0.0000e+00
</event>
<event>
 4      1 +2.4014000e-01 2.50000000e+02 7.54677100e-03 1.02464900e-01
      -11 -1    0    0    0    0 +0.0000000000e+00 +0.0000000000e+00 +1.2500000000e+02 1.2500000000e+02 0.0000000000e+00 0.0000e+00 1.0000e+00
       11 -1    0    0    0    0 -0.0000000000e+00 -0.0000000000e+00 -1.2500000000e+02 1.2500000000e+02 0.0000000000e+00 0.0000e+00 -1.0000e+00
       23  1    1    2    0    0 -3.1747189663e+01 -2.2043453894e+01 +4.8731982503e+01 1.1038050269e+02 9.1188000000e+01 0.0000e+00 0.0000e+00
       25  1    1    2    0    0 +3.1747189663e+01 +2.2043453894e+01 -4.8731982503e+01 1.3961949731e+02 1.2500000000e+02 0.0000e+00 0.0000e+00
</event>
<event>
 4      1 +2.4014000e-01 2.50000000e+02 7.54677100e-03 1.02464900e-01
      -11 -1    0    0    0    0 +0.0000000000e+00 +0.0000000000e+00 +1.2500000000e+02 1.2500000000e+02 0.0000000000e+00 0.0000e+00 1.0000e+00
       11 -1    0    0    0    0 -0.0000000000e+00 -0.0000000000e+00 -1.2500000000e+02 1.2500000000e+02 0.0000000000e+00 0.0000e+00 -1.0000e+00
       23  1    1    2    0    0 +2.4451153688e+01 -4.8332699624e+01 +3.0572786265e+01 1.1038050269e+02 9.1188000000e+01 0.0000e+00 1.0000e+00
       25  1    1    2    0    0 -2.4451153688e+01 +4.8332699624e+01 -3.0572786265e+01 1.3961949731e+02 1.2500000000e+02 0.0000e+00 0.0000e+00
</event>
<event>
 4      1 +2.4014000e-01 2.50000000e+02 7.54677100e-03 1.02464900e-01
      -11 -1    0    0    0    0 +0.0000000000e+00 +0.0000000000e+00 +1.2500000000e+02 1.2500000000e+02 0.0000000000e+00 0.0000e+00 1.0000e+00
       11 -1    0    0    0    0 -0.0000000000e+00 -0.0000000000e+00 -1.2500000000e+02 1.2500000000e+02 0.0000000000e+00 0.0000e+00 -1.0000e+00
       23  1    1    2    0    0 -1.1814567549e+01 +5.3738917689e+01 +2.9002564523e+01 1.1038050269e+02 9.1188000000e+01 0.0000e+00 1.0000e+00
       25  1    1    2    0    0 +1.1814567549e+01 -5.3738917689e+01 -2.9002564523e+01 1.3961949731e+02 1.2500000000e+02 0.0000e+00 0.0000e+00
</event>
<event>
 4      1 +2.4014000e-01 2.50000000e+02 7.54677100e-03 1.02464900e-01
      -11 -1    0    0    0    0 +0.0000000000e+00 +0.0000000000e+00 +1.2500000000e+02 1.2500000000e+02 0.0000000000e+00 0.0000e+00 1.0000e+00
       11 -1    0    0    0    0 -0.0000000000e+00 -0.0000000000e+00 -1.2500000000e+02 1.2500000000e+02 0.0000000000e+00 0.0000e+00 -1.0000e+00
       23  1    1    2    0    0 +5.7791077028e+01 +1.3533721731e+01 -1.8591229698e+01 1.1038050269e+02 9.1188000000e+01 0.0000e+00 0.0000e+00
       25  1    1    2    0    0 -5.7791077028e+01 -1.3533721731e+01 +1.8591229698e+01 1.3961949731e+02 1.2500000000e+02 0.0000e+00 0.0000e+00
</event>
<event>
 4      1 +2.4014000e-01 2.50000000e+02 7.54677100e-03 1.02464900e-01
      -11 -1    0    0    0    0 +0.0000000000e+00 +0.0000000000e+00 +1.2500000000e+02 1.2500000000e+02 0.0000000000e+00 0.0000e+00 1.0000e+00
       11 -1    0    0    0    0 -0.0000000000e+00 -0.0000000000e+00 -1.2500000000e+02 1.2500000000e+02 0.0000000000e+00 0.0000e+00 -1.0000e+00
       23  1    1    2    0    0 -5.7785914008e+01 +1.0458691163e+01 +2.0494095517e+01 1.1038050269e+02 9.1188000000e+01 0.0000e+00 0.0000e+00
       25  1    1    2    0    0 +5.7785914008e+01 -1.0458691163e+01 -2.0494095517e+01 1.3961949731e+02 1.2500000000e+02 0.0000e+00 0.0000e+00
</event>
<event>
 4      1 +2.4014000e-01 2.50000000e+02 7.54677100e-03 1.02464900e-01
      -11 -1    0    0    0    0 +0.0000000000e+00 +0.0000000000e+00 +1.2500000000e+02 1.2500000000e+02 0.0000000000e+00 0.0000e+00 1.0000e+00
       11 -1    0    0    0    0 -0.0000000000e+00 -0.0000000000e+00 -1.2500000000e+02 1.2500000000e+02 0.0000000000e+00 0.0000e+00 -1.0000e+00
       23  1    1    2    0    0 -1.4889068390e+01 -1.5543056234e+01 +5.8355231771e+01 1.1038050269e+02 9.1188000000e+01 0.0000e+00 1.0000e+00
       25  1    1    2    0    0 +1.4889068390e+01 +1.5543056234e+01 -5.8355231771e+01 1.3961949731e+02 1.2500000000e+02 0.0000e+00 0.0000e+00
</event>
<event>
 4      1 +2.4014000e-01 2.50000000e+02 7.54677100e-03 1.02464900e-01
      -11 -1    0    0    0    0 +0.0000000000e+00 +0.0000000000e+00 +1.2500000000e+02 1.2500000000e+02 0.0000000000e+00 0.0000e+00 1.0000e+00
       11 -1    0    0    0    0 -0.0000000000e+00 -0.0000000000e+00 -1.2500000000e+02 1.2500000000e+02 0.0000000000e+00 0.0000e+00 -1.0000e+00
       23  1    1    2    0    0 +4.5826255909e+01 -1.5710725493e+01 -3.9009375841e+01 1.1038050269e+02 9.1188000000e+01 0.0000e+00 0.0000e+00
       25  1    1    2    0    0 -4.5826255909e+01 +1.5710725493e+01 +3.9009375841e+01 1.3961949731e+02 1.2500000000e+02 0.0000e+00 0.0000e+00
</event>
<event>
 4      1 +2.4014000e-01 2.50000000e+02 7.54677100e-03 1.02464900e-01
      -11 -1    0    0    0    0 +0.0000000000e+00 +0.0000000000e+00 +1.2500000000e+02 1.2500000000e+02 0.0000000000e+00 0.0000e+00 1.0000e+00
       11 -1    0    0    0    0 -0.0000000000e+00 -0.0000000000e+00 -1.2500000000e+02 1.2500000000e+02 0.0000000000e+00 0.0000e+00 -1.0000e+00
       23  1    1    2    0    0 +3.3997808686e+01 -5.1419194469e+01 -8.2957503798e+00 1.1038050269e+02 9.1188000000e+01 0.0000e+00 -1.0000e+00
       25  1    1    2    0    0 -3.3997808686e+01 +5.1419194469e+01 +8.2957503798e+00 1.3961949731e+02 1.2500000000e+02 0.0000e+00 0.0000e+00
</event>
<event>
 4      1 +2.4014000e-01 2.50000000e+02 7.54677100e-03 1.02464900e-01
      -11 -1    0    0    0    0 +0.0000000000e+00 +0.0000000000e+00 +1.2500000000e+02 1.2500000000e+02 0.0000000000e+00 0.0000e+00 -1.0000e+00
       11 -1    0    0    0    0 -0.0000000000e+00 -0.0000000000e+00 -1.2500000000e+02 1.2500000000e+02 0.0000000000e+00 0.0000e+00 1.0000e+00
       23  1    1    2    0    0 +4.6698735983e+01 -1.8372248830e+01 +3.6746327165e+01 1.1038050269e+02 9.1188000000e+01 0.0000e+00 -1.0000e+00
       25  1    1    2    0    0 -4.6698735983e+01 +1.8372248830e+01 -3.6746327165e+01 1.3961949731e+02 1.2500000000e+02 0.0000e+00 0.0000e+00
</event>
<event>
 4      1 +2.4014000e-01 2.50000000e+02 7.54677100e-03 1.02464900e-01
      -11 -1    0    0    0    0 +0.0000000000e+00 +0.0000000000e+00 +1.2500000000e+02 1.2500000000e+02 0.0000000000e+00 0.0000e+00 -1.0000e+00
       11 -1    0    0    0    0 -0.0000000000e+00 -0.0000000000e+00 -1.2500000000e+02 1.2500000000e+02 0.0000000000e+00 0.0000e+00 1.0000e+00
       23  1    1    2    0    0 +3.1917915973e+01 +8.8530115003e+00 -5.2644798955e+01 1.1038050269e+02 9.1188000000e+01 0.0000e+00 1.0000e+00
       25  1    1    2    0    0 -3.1917915973e+01 -8.8530115003e+00 +5.2644798955e+01 1.3961949731e+02 1.2500000000e+02 0.0000e+00 0.0000e+00
</event>
<event>
 4      1 +2.4014000e-01 2.50000000e+02 7.54677100e-03 1.02464900e-01
      -11 -1    0    0    0    0 +0.0000000000e+00 +0.0000000000e+00 +1.2500000000e+02 1.2500000000e+02 0.0000000000e+00 0.0000e+00 1.0000e+00
       11 -1    0    0    0    0 -0.0000000000e+00 -0.0000000000e+00 -1.2500000000e+02 1.2500000000e+02 0.0000000000e+00 0.0000e+00 -1.0000e+00
       23  1    1    2    0    0 -3.2085430603e+01 -3.6025076615e+01 -3.9259687054e+01 1.1038050269e+02 9.1188000000e+01 0.0000e+00 0.0000e+00
       25  1    1    2    0    0 +3.2085430603e+01 +3.6025076615e+01 +3.9259687054e+01 1.3961949731e+02 1.2500000000e+02 0.0000e+00 0.0000e+00
</event>
<event>
 4      1 +2.4014000e-01 2.50000000e+02 7.54677100e-03 1.02464900e-01
      -11 -1    0    0    0    0 +0.0000000000e+00 +0.0000000000e+00 +1.2500000000e+02 1.2500000000e+02 0.0000000000e+00 0.0000e+00 1.0000e+00
       11 -1    0    0    0    0 -0.0000000000e+00 -0.0000000000e+00 -1.2500000000e+02 1.2500000000e+02 0.0000000000e+00 0.0000e+00 -1.0000e+00
       23  1    1    2    0    0 -4.1898230593e+01 -4.3120101160e+01 -1.5931075884e+01 1.1038050269e+02 9.1188000000e+01 0.0000e+00 1.0000e+00
       25  1    1    2    0    0 +4.1898230593e+01 +4.3120101160e+01 +1.5931075884e+01 1.3961949731e+02 1.2500000000e+02 0.0000e+00 0.0000e+00
</event>
<event>
 4      1 +2.4014000e-01 2.50000000e+02 7.54677100e-03 1.02464900e-01
      -11 -1    0    0    0    0 +0.0000000000e+00 +0.0000000000e+00 +1.2500000000e+02 1.2500000000e+02 0.0000000000e+00 0.0000e+00 -1.0000e+00
       11 -1    0    0    0    0 -0.0000000000e+00 -0.0000000000e+00 -1.2500000000e+02 1.2500000000e+02 0.0000000000e+00 0.0000e+00 1.0000e+00
       23  1    1    2    0    0 +5.2362340192e+01 -7.1166965304e+00 +3.2804603180e+01 1.1038050269e+02 9.1188000000e+01 0.0000e+00 0.0000e+00
       25  1    1    2    0    0 -5.2362340192e+01 +7.1166965304e+00 -3.2804603180e+01 1.3961949731e+02 1.2500000000e+02 0.0000e+00 0.0000e+00
</event>
<event>
 4      1 +2.4014000e-01 2.50000000e+02 7.54677100e-03 1.02464900e-01
      -11 -1    0    0    0    0 +0.0000000000e+00 +0.0000000000e+00 +1.2500000000e+02 1.2500000000e+02 0.0000000000e+00 0.0000e+00 1.0000e+00
       11 -1    0    0    0    0 -0.0000000000e+00 -0.0000000000e+00 -1.2500000000e+02 1.2500000000e+02 0.0000000000e+00 0.0000e+00 -1.0000e+00
       23  1    1    2    0    0 +6.0933433522e+00 +6.1513814293e+01 -6.8938992987e+00 1.1038050269e+02 9.1188000000e+01 0.0000e+00 0.0000e+00
       25  1    1    2    0    0 -6.0933433522e+00 -6.1513814293e+01 +6.8938992987e+00 1.3961949731e+02 1.2500000000e+02 0.0000e+00 0.0000e+00
</event>
<event>
 4      1 +2.4014000e-01 2.50000000e+02 7.54677100e-03 1.02464900e-01
      -11 -1    0    0    0    0 +0.0000000000e+00 +0.0000000000e+00 +1.2500000000e+02 1.2500000000e+02 0.0000000000e+00 0.0000e+00 -1.0000e+00
       11 -1    0    0    0    0 -0.0000000000e+00 -0.0000000000e+00 -1.2500000000e+02 1.2500000000e+02 0.0000000000e+00 0.0000e+00 1.0000e+00
       23  1    1    2    0    0 -2.8190311812e+01 +3.8422346146e+01 -3.9970409884e+01 1.1038050269e+02 9.1188000000e+01 0.0000e+00 1.0000e+00
       25  1    1    2    0    0 +2.8190311812e+01 -3.8422346146e+01 +3.9970409884e+01 1.3961949731e+02 1.2500000000e+02 0.0000e+00 0.0000e+00
</event>
<event>
 4      1 +2.4014000e-01 2.50000000e+02 7.54677100e-03 1.02464900e-01
      -11 -1    0    0    0    0 +0.0000000000e+00 +0.0000000000e+00 +1.2500000000e+02 1.2500000000e+02 0.0000000000e+00 0.0000e+00 1.0000e+00
       11 -1    0    0    0    0 -0.0000000000e+00 -0.0000000000e+00 -1.2500000000e+02 1.2500000000e+02 0.0000000000e+00 0.0000e+00 -1.0000e+00
       23  1    1    2    0    0 -3.5703095176e+01 -2.9537896221e+01 +4.1489826600e+01 1.1038050269e+02 9.1188000000e+01 0.0000e+00 1.0000e+00
       25  1    1    2    0    0 +3.5703095176e+01 +2.9537896221e+01 -4.1489826600e+01 1.3961949731e+02 1.2500000000e+02 0.0000e+00 0.0000e+00
</event>
<event>
 4      1 +2.4014000e-01 2.50000000e+02 7.54677100e-03 1.02464900e-01
      -11 -1    0    0    0    0 +0.0000000000e+00 +0.0000000000e+00 +1.2500000000e+02 1.2500000000e+02 0.0000000000e+00 0.0000e+00 -1.0000e+00
       11 -1    0    0    0    0 -0.0000000000e+00 -0.0000000000e+00 -1.2500000000e+02 1.2500000000e+02 0.0000000000e+00 0.0000e+00 1.0000e+00
       23  1    1    2    0    0 -4.4990609833e+01 +2.6073600561e+01 +3.4126476675e+01 1.1038050269e+02 9.1188000000e+01 0.0000e+00 -1.0000e+00
       25  1    1    2    0    0 +4.4990609833e+01 -2.6073600561e+01 -3.4126476675e+01 1.3961949731e+02 1.2500000000e+02 0.0000e+00 0.0000e+00
</event>
<event>
 4      1 +2.4014000e-01 2.50000000e+02 7.54677100e-03 1.02464900e-01
      -11 -1    0    0    0    0 +0.0000000000e+00 +0.0000000000e+00 +1.2500000000e+02 1.2500000000e+02 0.0000000000e+00 0.0000e+00 -1.0000e+00
       11 -1    0    0    0    0 -0.0000000000e+00 -0.0000000000e+00 -1.2500000000e+02 1.2500000000e+02 0.0000000000e+00 0.0000e+00 1.0000e+00
       23  1    1    2    0    0 +1.3983413527e+01 -4.9460002623e+01 +3.5025366755e+01 1.1038050269e+02 9.1188000000e+01 0.0000e+00 0.0000e+00
       25  1    1    2    0    0 -1.3983413527e+01 +4.9460002623e+01 -3.5025366755e+01 1.3961949731e+02 1.2500000000e+02 0.0000e+00 0.0000e+00
</event>
<event>
 4      1 +2.4014000e-01 2.50000000e+02 7.54677100e-03 1.02464900e-01
      -11 -1    0    0    0    0 +0.0000000000e+00 +0.0000000000e+00 +1.2500000000e+02 1.2500000000e+02 0.0000000000e+00 0.0000e+00 -1.0000e+00
       11 -1    0    0    0    0 -0.0000000000e+00 -0.0000000000e+00 -1.2500000000e+02 1.2500000000e+02 0.0000000000e+00 0.0000e+00 1.0000e+00
       23  1    1    2    0    0 +4.0880037806e+01 +2.8833252047e+01 +3.6960385754e+01 1.1038050269e+02 9.1188000000e+01 0.0000e+00 -1.0000e+00
       25  1    1    2    0    0 -4.0880037806e+01 -2.8833252047e+01 -3.6960385754e+01 1.3961949731e+02 1.2500000000e+02 0.0000e+00 0.0000e+00
</event>
<event>
 4      1 +2.4014000e-01 2.50000000e+02 7.54677100e-03 1.02464900e-01
      -11 -1    0    0    0    0 +0.0000000000e+00 +0.0000000000e+00 +1.2500000000e+02 1.2500000000e+02 0.0000000000e+00 0.0000e+00 1.0000e+00
       11 -1    0    0    0    0 -0.0000000000e+00 -0.0000000000e+00 -1.2500000000e+02 1.2500000000e+02 0.0000000000e+00 0.0000e+00 -1.0000e+00
       23  1    1    2    0    0 +5.9481719944e+01 -4.4069171298e-01 -1.8175115212e+01 1.1038050269e+02 9.1188000000e+01 0.0000e+00 0.0000e+00
       25  1    1    2    0    0 -5.9481719944e+01 +4.4069171298e-01 +1.8175115212e+01 1.3961949731e+02 1.2500000000e+02 0.0000e+00 0.0000e+00
</event>
<event>
 4      1 +2.4014000e-01 2.50000000e+02 7.54677100e-03 1.02464900e-01
      -11 -1    0    0    0    0 +0.0000000000e+00 +0.0000000000e+00 +1.2500000000e+02 1.2500000000e+02 0.0000000000e+00 0.0000e+00 1.0000e+00
       11 -1    0    0    0    0 -0.0000000000e+00 -0.0000000000e+00 -1.2500000000e+02 1.2500000000e+02 0.0000000000e+00 0.0000e+00 -1.0000e+00
       23  1    1    2    0    0 -2.7155096334e+01 -5.5500088309e+01 +7.1375745475e+00 1.1038050269e+02 9.1188000000e+01 0.0000e+00 0.0000e+00
       25  1    1    2    0    0 +2.7155096334e+01 +5.5500088309e+01 -7.1375745475e+00 1.3961949731e+02 1.2500000000e+02 0.0000e+00 0.0000e+00
</event>
<event>
 4      1 +2.4014000e-01 2.50000000e+02 7.54677100e-03 1.02464900e-01
      -11 -1    0    0    0    0 +0.0000000000e+00 +0.0000000000e+00 +1.2500000000e+02 1.2500000000e+02 0.0000000000e+00 0.0000e+00 -1.0000e+00
       11 -1    0    0    0    0 -0.0000000000e+00 -0.0000000000e+00 -1.2500000000e+02 1.2500000000e+02 0.0000000000e+00 0.0000e+00 1.0000e+00
       23  1    1    2    0    0 -1.6615777077e+01 +4.2222363798e+00 -5.9788733903e+01 1.1038050269e+02 9.1188000000e+01 0.0000e+00 1.0000e+00
       25  1    1    2    0    0 +1.6615777077e+01 -4.2222363798e+00 +5.9788733903e+01 1.3961949731e+02 1.2500000000e+02 0.0000e+00 0.0000e+00
</event>
<event>
 4      1 +2.4014000e-01 2.50000000e+02 7.54677100e-03 1.02464900e-01
      -11 -1    0    0    0    0 +0.0000000000e+00 +0.0000000000e+00 +1.2500000000e+02 1.2500000000e+02 0.0000000000e+00 0.0000e+00 -1.0000e+00
       11 -1    0    0    0    0 -0.0000000000e+00 -0.0000000000e+00 -1.2500000000e+02 1.2500000000e+02 0.0000000000e+00 0.0000e+00 1.0000e+00
       23  1    1    2    0    0 -3.5306767699e+01 +4.6744677380e+01 +2.0903858998e+01 1.1038050269e+02 9.1188000000e+01 0.0000e+00 0.0000e+00
       25  1    1    2    0    0 +3.5306767699e+01 -4.6744677380e+01 -2.0903858998e+01 1.3961949731e+02 1.2500000000e+02 0.0000e+00 0.0000e+00
</event>
<event>
 4      1 +2.4014000e-01 2.50000000e+02 7.54677100e-03 1.02464900e-01
      -11 -1    0    0    0    0 +0.0000000000e+00 +0.0000000000e+00 +1.2500000000e+02 1.2500000000e+02 0.0000000000e+00 0.0000e+00 1.0000e+00
       11 -1    0    0    0    0 -0.0000000000e+00 -0.0000000000e+00 -1.2500000000e+02 1.2500000000e+02 0.0000000000e+00 0.0000e+00 -1.0000e+00
       23  1    1    2    0    0 +3.7602087533e+01 +1.1313225945e+01 +4.8235857633e+01 1.1038050269e+02 9.1188000000e+01 0.0000e+00 0.0000e+00
       25  1    1    2    0    0 -3.7602087533e+01 -1.1313225945e+01 -4.8235857633e+01 1.3961949731e+02 1.2500000000e+02 0.0000e+00 0.0000e+00
</event>
<event>
 4      1 +2.4014000e-01 2.50000000e+02 7.54677100e-03 1.02464900e-01
      -11 -1    0    0    0    0 +0.0000000000e+00 +0.0000000000e+00 +1.2500000000e+02 1.2500000000e+02 0.0000000000e+00 0.0000e+00 -1.0000e+00
       11 -1    0    0    0    0 -0.0000000000e+00 -0.0000000000e+00 -1.2500000000e+02 1.2500000000e+02 0.0000000000e+00 0.0000e+00 1.0000e+00
       23  1    1    2    0    0 +3.6000954478e+01 -4.7202787778e+01 -1.8558882842e+01 1.1038050269e+02 9.1188000000e+01 0.0000e+00 -1.0000e+00
       25  1    1    2    0    0 -3.6000954478e+01 +4.7202787778e+01 +1.8558882842e+01 1.3961949731e+02 1.2500000000e+02 0.0000e+00 0.0000e+00
</event>
<event>
 4      1 +2.4014000e-01 2.50000000e+02 7.54677100e-03 1.02464900e-01
      -11 -1    0    0    0    0 +0.0000000000e+00 +0.0000000000e+00 +1.2500000000e+02 1.2500000000e+02 0.0000000000e+00 0.0000e+00 -1.0000e+00
       11 -1    0    0    0    0 -0.0000000000e+00 -0.0000000000e+00 -1.2500000000e+02 1.2500000000e+02 0.0000000000e+00 0.0000e+00 1.0000e+00
       23  1    1    2    0    0 +4.9853500444e+01 +3.4039403891e+01 -1.4985042739e+01 1.1038050269e+02 9.1188000000e+01 0.0000e+00 1.0000e+00
       25  1    1    2    0    0 -4.9853500444e+01 -3.4039403891e+01 +1.4985042739e+01 1.3961949731e+02 1.2500000000e+02 0.0000e+00 0.0000e+00
</event>
<event>
 4      1 +2.4014000e-01 2.50000000e+02 7.54677100e-03 1.02464900e-01
      -11 -1    0    0    0    0 +0.0000000000e+00 +0.0000000000e+00 +1.2500000000e+02 1.2500000000e+02 0.0000000000e+00 0.0000e+00 1.0000e+00
       11 -1    0    0    0    0 -0.0000000000e+00 -0.0000000000e+00 -1.2500000000e+02 1.2500000000e+02 0.0000000000e+00 0.0000e+00 -1.0000e+00
       23  1    1    2    0    0 +2.5366349073e+01 -6.5664833735e+00 -5.6409517463e+01 1.1038050269e+02 9.1188000000e+01 0.0000e+00 -1.0000e+00
       25  1    1    2    0    0 -2.5366349073e+01 +6.5664833735e+00 +5.6409517463e+01 1.3961949731e+02 1.2500000000e+02 0.0000e+00 0.0000e+00
</event>
<event>
 4      1 +2.4014000e-01 2.50000000e+02 7.54677100e-03 1.02464900e-01
      -11 -1    0    0    0    0 +0.0000000000e+00 +0.0000000000e+00 +1.2500000000e+02 1.2500000000e+02 0.0000000000e+00 0.0000e+00 1.0000e+00
       11 -1    0    0    0    0 -0.0000000000e+00 -0.0000000000e+00 -1.2500000000e+02 1.2500000000e+02 0.0000000000e+00 0.0000e+00 -1.0000e+00
       23  1    1    2    0    0 -5.2020282349e+01 +2.0961623535e+01 -2.6890604173e+01 1.1038050269e+02 9.1188000000e+01 0.0000e+00 0.0000e+00
       25  1    1    2    0    0 +5.2020282349e+01 -2.0961623535e+01 +2.6890604173e+01 1.3961949731e+02 1.2500000000e+02 0.0000e+00 0.0000e+00
</event>
<event>
 4      1 +2.4014000e-01 2.50000000e+02 7.54677100e-03 1.02464900e-01
      -11 -1    0    0    0    0 +0.0000000000e+00 +0.0000000000e+00 +1.2500000000e+02 1.2500000000e+02 0.0000000000e+00 0.0000e+00 -1.0000e+00
       11 -1    0    0    0    0 -0.0000000000e+00 -0.0000000000e+00 -1.2500000000e+02 1.2500000000e+02 0.0000000000e+00 0.0000e+00 1.0000e+00
       23  1    1    2    0    0 -3.8239785869e+01 -3.4822254310e+01 +3.4550447336e+01 1.1038050269e+02 9.1188000000e+01 0.0000e+00 -1.0000e+00
       25  1    1    2    0    0 +3.8239785869e+01 +3.4822254310e+01 -3.4550447336e+01 1.3961949731e+02 1.2500000000e+02 0.0000e+00 0.0000e+00
</event>
<event>
 4      1 +2.4014000e-01 2.50000000e+02 7.54677100e-03 1.02464900e-01
      -11 -1    0    0    0    0 +0.0000000000e+00 +0.0000000000e+00 +1.2500000000e+02 1.2500000000e+02 0.0000000000e+00 0.0000e+00 1.0000e+00
       11 -1    0    0    0    0 -0.0000000000e+00 -0.0000000000e+00 -1.2500000000e+02 1.2500000000e+02 0.0000000000e+00 0.0000e+00 -1.0000e+00
       23  1    1    2    0    0 +5.8452409294e+00 -3.0558947743e+01 -5.3857106318e+01 1.1038050269e+02 9.1188000000e+01 0.0000e+00 -1.0000e+00
       25  1    1    2    0    0 -5.8452409294e+00 +3.0558947743e+01 +5.3857106318e+01 1.3961949731e+02 1.2500000000e+02 0.0000e+00 0.0000e+00
</event>
<event>
 4      1 +2.4014000e-01 2.50000000e+02 7.54677100e-03 1.02464900e-01
      -11 -1    0    0    0    0 +0.0000000000e+00 +0.0000000000e+00 +1.2500000000e+02 1.2500000000e+02 0.0000000000e+00 0.0000e+00 1.0000e+00
       11 -1    0    0    0    0 -0.0000000000e+00 -0.0000000000e+00 -1.2500000000e+02 1.2500000000e+02 0.0000000000e+00 0.0000e+00 -1.0000e+00
       23  1    1    2    0    0 -6.8128021295e+00 +4.2888015603e+01 -4.4528730887e+01 1.1038050269e+02 9.1188000000e+01 0.0000e+00 0.0000e+00
       25  1    1    2    0    0 +6.8128021295e+00 -4.2888015603e+01 +4.4528730887e+01 1.3961949731e+02 1.2500000000e+02 0.0000e+00 0.0000e+00
</event>
<event>
 4      1 +2.4014000e-01 2.50000000e+02 7.54677100e-03 1.02464900e-01
      -11 -1    0    0    0    0 +0.0000000000e+00 +0.0000000000e+00 +1.2500000000e+02 1.2500000000e+02 0.0000000000e+00 0.0000e+00 -1.0000e+00
       11 -1    0    0    0    0 -0.0000000000e+00 -0.0000000000e+00 -1.2500000000e+02 1.2500000000e+02 0.0000000000e+00 0.0000e+00 1.0000e+00
       23  1    1    2    0    0 +8.7790503904e+00 -9.7930896235e+00 +6.0791674591e+01 1.1038050269e+02 9.1188000000e+01 0.0000e+00 -1.0000e+00
       25  1    1    2    0    0 -8.7790503904e+00 +9.7930896235e+00 -6.0791674591e+01 1.3961949731e+02 1.2500000000e+02 0.0000e+00 0.0000e+00
</event>
<event>
 4      1 +2.4014000e-01 2.50000000e+02 7.54677100e-03 1.02464900e-01
      -11 -1    0    0    0    0 +0.0000000000e+00 +0.0000000000e+00 +1.2500000000e+02 1.2500000000e+02 0.0000000000e+00 0.0000e+00 1.0000e+00
       11 -1    0    0    0    0 -0.0000000000e+00 -0.0000000000e+00 -1.2500000000e+02 1.2500000000e+02 0.0000000000e+00 0.0000e+00 -1.0000e+00
       23  1    1    2    0    0 +2.0380356653e+01 +5.8758903207e+01 -7.9773825881e-01 1.1038050269e+02 9.1188000000e+01 0.0000e+00 1.0000e+00
       25  1    1    2    0    0 -2.0380356653e+01 -5.8758903207e+01 +7.9773825881e-01 1.3961949731e+02 1.2500000000e+02 0.0000e+00 0.0000e+00
</event>
<event>
 4      1 +2.4014000e-01 2.50000000e+02 7.54677100e-03 1.02464900e-01
      -11 -1    0    0    0    0 +0.0000000000e+00 +0.0000000000e+00 +1.2500000000e+02 1.2500000000e+02 0.0000000000e+00 0.0000e+00 1.0000e+00
       11 -1    0    0    0    0 -0.0000000000e+00 -0.0000000000e+00 -1.2500000000e+02 1.2500000000e+02 0.0000000000e+00 0.0000e+00 -1.0000e+00
       23  1    1    2    0    0 +3.9073534932e+01 +8.9483012667e+00 -4.7558288468e+01 1.1038050269e+02 9.1188000000e+01 0.0000e+00 -1.0000e+00
       25  1    1    2    0    0 -3.9073534932e+01 -8.9483012667e+00 +4.7558288468e+01 1.3961949731e+02 1.2500000000e+02 0.0000e+00 0.0000e+00
</event>
<event>
 4      1 +2.4014000e-01 2.50000000e+02 7.54677100e-03 1.02464900e-01
      -11 -1    0    0    0    0 +0.0000000000e+00 +0.0000000000e+00 +1.2500000000e+02 1.2500000000e+02 0.0000000000e+00 0.0000e+00 -1.0000e+00
       11 -1    0    0    0    0 -0.0000000000e+00 -0.0000000000e+00 -1.2500000000e+02 1.2500000000e+02 0.0000000000e+00 0.0000e+00 1.0000e+00
       23  1    1    2    0    0 -2.3589555036e+01 +2.2029804336e+01 -5.3167891097e+01 1.1038050269e+02 9.1188000000e+01 0.0000e+00 1.0000e+00
       25  1    1    2    0    0 +2.3589555036e+01 -2.2029804336e+01 +5.3167891097e+01 1.3961949731e+02 1.2500000000e+02 0.0000e+00 0.0000e+00
</event>
<event>
 4      1 +2.4014000e-01 2.50000000e+02 7.54677100e-03 1.02464900e-01
      -11 -1    0    0    0    0 +0.0000000000e+00 +0.0000000000e+00 +1.2500000000e+02 1.2500000000e+02 0.0000000000e+00 0.0000e+00 1.0000e+00
       11 -1    0    0    0    0 -0.0000000000e+00 -0.0000000000e+00 -1.2500000000e+02 1.2500000000e+02 0.0000000000e+00 0.0000e+00 -1.0000e+00
       23  1    1    2    0    0 -3.7437325911e+01 +4.6792042784e+01 -1.6659993710e+01 1.1038050269e+02 9.1188000000e+01 0.0000e+00 0.0000e+00
       25  1    1    2    0    0 +3.7437325911e+01 -4.6792042784e+01 +1.6659993710e+01 1.3961949731e+02 1.2500000000e+02 0.0000e+00 0.0000e+00
</event>
<event>
 4      1 +2.4014000e-01 2.50000000e+02 7.54677100e-03 1.02464900e-01
      -11 -1    0    0    0    0 +0.0000000000e+00 +0.0000000000e+00 +1.2500000000e+02 1.2500000000e+02 0.0000000000e+00 0.0000e+00 -1.0000e+00
       11 -1    0    0    0    0 -0.0000000000e+00 -0.0000000000e+00 -1.2500000000e+02 1.2500000000e+02 0.0000000000e+00 0.0000e+00 1.0000e+00
       23  1    1    2    0    0 -3.2971962677e+01 +2.0565198802e+01 +4.8564661073e+01 1.1038050269e+02 9.1188000000e+01 0.0000e+00 -1.0000e+00
       25  1    1    2    0    0 +3.2971962677e+01 -2.0565198802e+01 -4.8564661073e+01 1.3961949731e+02 1.2500000000e+02 0.0000e+00 0.0000e+00
</event>
<event>
 4      1 +2.4014000e-01 2.50000000e+02 7.54677100e-03 1.02464900e-01
      -11 -1    0    0    0    0 +0.0000000000e+00 +0.0000000000e+00 +1.2500000000e+02 1.2500000000e+02 0.0000000000e+00 0.0000e+00 -1.0000e+00
       11 -1    0    0    0    0 -0.0000000000e+00 -0.0000000000e+00 -1.2500000000e+02 1.2500000000e+02 0.0000000000e+00 0.0000e+00 1.0000e+00
       23  1    1    2    0    0 -4.3915224928e+01 +4.2997814870e+01 -9.5522230725e+00 1.1038050269e+02 9.1188000000e+01 0.0000e+00 1.0000e+00
       25  1    1    2    0    0 +4.3915224928e+01 -4.2997814870e+01 +9.5522230725e+00 1.3961949731e+02 1.2500000000e+02 0.0000e+00 0.0000e+00
</event>
<event>
 4      1 +2.4014000e-01 2.50000000e+02 7.54677100e-03 1.02464900e-01
      -11 -1    0    0    0    0 +0.0000000000e+00 +0.0000000000e+00 +1.2500000000e+02 1.2500000000e+02 0.0000000000e+00 0.0000e+00 1.0000e+00
       11 -1    0    0    0    0 -0.0000000000e+00 -0.0000000000e+00 -1.2500000000e+02 1.2500000000e+02 0.0000000000e+00 0.0000e+00 -1.0000e+00
       23  1    1    2    0    0 +2.4135652387e+01 -5.6956027515e+01 +6.4873140179e+00 1.1038050269e+02 9.1188000000e+01 0.0000e+00 0.0000e+00
       25  1    1    2    0    0 -2.4135652387e+01 +5.6956027515e+01 -6.4873140179e+00 1.3961949731e+02 1.2500000000e+02 0.0000e+00 0.0000e+00
</event>
<event>
 4      1 +2.4014000e-01 2.50000000e+02 7.54677100e-03 1.02464900e-01
      -11 -1    0    0    0    0 +0.0000000000e+00 +0.0000000000e+00 +1.2500000000e+02 1.2500000000e+02 0.0000000000e+00 0.0000e+00 -1.0000e+00
       11 -1    0    0    0    0 -0.0000000000e+00 -0.0000000000e+00 -1.2500000000e+02 1.2500000000e+02 0.0000000000e+00 0.0000e+00 1.0000e+00
       23  1    1    2    0    0 +4.3490626067e+01 +1.1061850393e+01 -4.3067446405e+01 1.1038050269e+02 9.1188000000e+01 0.0000e+00 1.0000e+00
       25  1    1    2    0    0 -4.3490626067e+01 -1.1061850393e+01 +4.3067446405e+01 1.3961949731e+02 1.2500000000e+02 0.0000e+00 0.0000e+00
</event>
<event>
 4      1 +2.4014000e-01 2.50000000e+02 7.54677100e-03 1.02464900e-01
      -11 -1    0    0    0    0 +0.0000000000e+00 +0.0000000000e+00 +1.2500000000e+02 1.2500000000e+02 0.0000000000e+00 0.0000e+00 -1.0000e+00
       11 -1    0    0    0    0 -0.0000000000e+00 -0.0000000000e+00 -1.2500000000e+02 1.2500000000e+02 0.0000000000e+00 0.0000e+00 1.0000e+00
       23  1    1    2    0    0 -8.9773608288e+00 -5.1241833418e+01 -3.4092308959e+01 1.1038050269e+02 9.1188000000e+01 0.0000e+00 1.0000e+00
       25  1    1    2    0    0 +8.9773608288e+00 +5.1241833418e+01 +3.4092308959e+01 1.3961949731e+02 1.2500000000e+02 0.0000e+00 0.0000e+00
</event>
<event>
 4      1 +2.4014000e-01 2.50000000e+02 7.54677100e-03 1.02464900e-01
      -11 -1    0    0    0    0 +0.0000000000e+00 +0.0000000000e+00 +1.2500000000e+02 1.2500000000e+02 0.0000000000e+00 0.0000e+00 1.0000e+00
       11 -1    0    0    0    0 -0.0000000000e+00 -0.0000000000e+00 -1.2500000000e+02 1.2500000000e+02 0.0000000000e+00 0.0000e+00 -1.0000e+00
       23  1    1    2    0    0 +9.8653810195e+00 +2.5717837471e+01 -5.5766218473e+01 1.1038050269e+02 9.1188000000e+01 0.0000e+00 -1.0000e+00
       25  1    1    2    0    0 -9.8653810195e+00 -2.5717837471e+01 +5.5766218473e+01 1.3961949731e+02 1.2500000000e+02 0.0000e+00 0.0000e+00
</event>
<event>
 4      1 +2.4014000e-01 2.50000000e+02 7.54677100e-03 1.02464900e-01
      -11 -1    0    0    0    0 +0.0000000000e+00 +0.0000000000e+00 +1.2500000000e+02 1.2500000000e+02 0.0000000000e+00 0.0000e+00 1.0000e+00
       11 -1    0    0    0    0 -0.0000000000e+00 -0.0000000000e+00 -1.2500000000e+02 1.2500000000e+02 0.0000000000e+00 0.0000e+00 -1.0000e+00
       23  1    1    2    0    0 +5.1345936607e+01 +2.7530445975e+01 -2.1777818258e+01 1.1038050269e+02 9.1188000000e+01 0.0000e+00 0.0000e+00
       25  1    1    2    0    0 -5.1345936607e+01 -2.7530445975e+01 +2.1777818258e+01 1.3961949731e+02 1.2500000000e+02 0.0000e+00 0.0000e+00
</event>
<event>
 4      1 +2.4014000e-01 2.50000000e+02 7.54677100e-03 1.02464900e-01
      -11 -1    0    0    0    0 +0.0000000000e+00 +0.0000000000e+00 +1.2500000000e+02 1.2500000000e+02 0.0000000000e+00 0.0000e+00 1.0000e+00
       11 -1    0    0    0    0 -0.0000000000e+00 -0.0000000000e+00 -1.2500000000e+02 1.2500000000e+02 0.0000000000e+00 0.0000e+00 -1.0000e+00
       23  1    1    2    0    0 -1.4642094700e+01 +2.3310875041e+01 +5.5774691369e+01 1.1038050269e+02 9.1188000000e+01 0.0000e+00 1.0000e+00
       25  1    1    2    0    0 +1.4642094700e+01 -2.3310875041e+01 -5.5774691369e+01 1.3961949731e+02 1.2500000000e+02 0.0000e+00 0.0000e+00
</event>
<event>
 4      1 +2.4014000e-01 2.50000000e+02 7.54677100e-03 1.02464900e-01
      -11 -1    0    0    0    0 +0.0000000000e+00 +0.0000000000e+00 +1.2500000000e+02 1.2500000000e+02 0.0000000000e+00 0.0000e+00 -1.0000e+00
       11 -1    0    0    0    0 -0.0000000000e+00 -0.0000000000e+00 -1.2500000000e+02 1.2500000000e+02 0.0000000000e+00 0.0000e+00 1.0000e+00
       23  1    1    2    0    0 -4.3716989392e+01 +3.7518958996e+01 +2.3446888580e+01 1.1038050269e+02 9.1188000000e+01 0.0000e+00 0.0000e+00
       25  1    1    2    0    0 +4.3716989392e+01 -3.7518958996e+01 -2.3446888580e+01 1.3961949731e+02 1.2500000000e+02 0.0000e+00 0.0000e+00
</event>
<event>
 4      1 +2.4014000e-01 2.50000000e+02 7.54677100e-03 1.02464900e-01
      -11 -1    0    0    0    0 +0.0000000000e+00 +0.0000000000e+00 +1.2500000000e+02 1.2500000000e+02 0.0000000000e+00 0.0000e+00 -1.0000e+00
       11 -1    0    0    0    0 -0.0000000000e+00 -0.0000000000e+00 -1.2500000000e+02 1.2500000000e+02 0.0000000000e+00 0.0000e+00 1.0000e+00
       23  1    1    2    0    0 +3.0630350666e+01 -5.2625475571e+01 +1.2686408816e+01 1.1038050269e+02 9.1188000000e+01 0.0000e+00 0.0000e+00
       25  1    1    2    0    0 -3.0630350666e+01 +5.2625475571e+01 -1.2686408816e+01 1.3961949731e+02 1.2500000000e+02 0.0000e+00 0.0000e+00
</event>
<event>
 4      1 +2.4014000e-01 2.50000000e+02 7.54677100e-03 1.02464900e-01
      -11 -1    0    0    0    0 +0.0000000000e+00 +0.0000000000e+00 +1.2500000000e+02 1.2500000000e+02 0.0000000000e+00 0.0000e+00 -1.0000e+00
       11 -1    0    0    0    0 -0.0000000000e+00 -0.0000000000e+00 -1.2500000000e+02 1.2500000000e+02 0.0000000000e+00 0.0000e+00 1.0000e+00
       23  1    1    2    0    0 -1.5382124545e+01 -5.6083049660e+01 +2.2060956801e+01 1.1038050269e+02 9.1188000000e+01 0.0000e+00 0.0000e+00
       25  1    1    2    0    0 +1.5382124545e+01 +5.6083049660e+01 -2.2060956801e+01 1.3961949731e+02 1.2500000000e+02 0.0000e+00 0.0000e+00
</event>
<event>
 4      1 +2.4014000e-01 2.50000000e+02 7.54677100e-03 1.02464900e-01
      -11 -1    0    0    0    0 +0.0000000000e+00 +0.0000000000e+00 +1.2500000000e+02 1.2500000000e+02 0.0000000000e+00 0.0000e+00 -1.0000e+00
       11 -1    0    0    0    0 -0.0000000000e+00 -0.0000000000e+00 -1.2500000000e+02 1.2500000000e+02 0.0000000000e+00 0.0000e+00 1.0000e+00
       23  1    1    2    0    0 -1.7902401250e+01 +5.4273339836e+01 -2.4546132937e+01 1.1038050269e+02 9.1188000000e+01 0.0000e+00 1.0000e+00
       25  1    1    2    0    0 +1.7902401250e+01 -5.4273339836e+01 +2.4546132937e+01 1.3961949731e+02 1.2500000000e+02 0.0000e+00 0.0000e+00
</event>
<event>
 4      1 +2.4014000e-01 2.50000000e+02 7.54677100e-03 1.02464900e-01
      -11 -1    0    0    0    0 +0.0000000000e+00 +0.0000000000e+00 +1.2500000000e+02 1.2500000000e+02 0.0000000000e+00 0.0000e+00 1.0000e+00
       11 -1    0    0    0    0 -0.0000000000e+00 -0.0000000000e+00 -1.2500000000e+02 1.2500000000e+02 0.0000000000e+00 0.0000e+00 -1.0000e+00
       23  1    1    2    0    0 -4.0677732565e+01 +4.6863301943e+01 -4.2139095916e+00 1.1038050269e+02 9.1188000000e+01 0.0000e+00 -1.0000e+00
       25  1    1    2    0    0 +4.0677732565e+01 -4.6863301943e+01 +4.2139095916e+00 1.3961949731e+02 1.2500000000e+02 0.0000e+00 0.0000e+00
</event>
<event>
 4      1 +2.4014000e-01 2.50000000e+02 7.54677100e-03 1.02464900e-01
      -11 -1    0    0    0    0 +0.0000000000e+00 +0.0000000000e+00 +1.2500000000e+02 1.2500000000e+02 0.0000000000e+00 0.0000e+00 1.0000e+00
       11 -1    0    0    0    0 -0.0000000000e+00 -0.0000000000e+00 -1.2500000000e+02 1.2500000000e+02 0.0000000000e+00 0.0000e+00 -1.0000e+00
       23  1    1    2    0    0 -4.3368390134e+01 +1.8757633447e+01 +4.0446729835e+01 1.1038050269e+02 9.1188000000e+01 0.0000e+00 1.0000e+00
       25  1    1    2    0    0 +4.3368390134e+01 -1.8757633447e+01 -4.0446729835e+01 1.3961949731e+02 1.2500000000e+02 0.0000e+00 0.0000e+00
</event>
<event>
 4      1 +2.4014000e-01 2.50000000e+02 7.54677100e-03 1.02464900e-01
      -11 -1    0    0    0    0 +0.0000000000e+00 +0.0000000000e+00 +1.2500000000e+02 1.2500000000e+02 0.0000000000e+00 0.0000e+00 -1.0000e+00
       11 -1    0    0    0    0 -0.0000000000e+00 -0.0000000000e+00 -1.2500000000e+02 1.2500000000e+02 0.0000000000e+00 0.0000e+00 1.0000e+00
       23  1    1    2    0    0 -2.6551642163e+01 -4.6643632552e+01 +3.1432242530e+01 1.1038050269e+02 9.1188000000e+01 0.0000e+00 -1.0000e+00
       25  1    1    2    0    0 +2.6551642163e+01 +4.6643632552e+01 -3.1432242530e+01 1.3961949731e+02 1.2500000000e+02 0.0000e+00 0.0000e+00
</event>
<event>
 4      1 +2.4014000e-01 2.50000000e+02 7.54677100e-03 1.02464900e-01
      -11 -1    0    0    0    0 +0.0000000000e+00 +0.0000000000e+00 +1.2500000000e+02 1.2500000000e+02 0.0000000000e+00 0.0000e+00 1.0000e+00
       11 -1    0    0    0    0 -0.0000000000e+00 -0.0000000000e+00 -1.2500000000e+02 1.2500000000e+02 0.0000000000e+00 0.0000e+00 -1.0000e+00
       23  1    1    2    0    0 +3.9320327113e+01 -4.2799542312e+01 +2.2152089817e+01 1.1038050269e+02 9.1188000000e+01 0.0000e+00 1.0000e+00
       25  1    1    2    0    0 -3.9320327113e+01 +4.2799542312e+01 -2.2152089817e+01 1.3961949731e+02 1.2500000000e+02 0.0000e+00 0.0000e+00
</event>
<event>
 4      1 +2.4014000e-01 2.50000000e+02 7.54677100e-03 1.02464900e-01
      -11 -1    0    0    0    0 +0.0000000000e+00 +0.0000000000e+00 +1.2500000000e+02 1.2500000000e+02 0.0000000000e+00 0.0000e+00 1.0000e+00
       11 -1    0    0    0    0 -0.0000000000e+00 -0.0000000000e+00 -1.2500000000e+02 1.2500000000e+02 0.0000000000e+00 0.0000e+00 -1.0000e+00
       23  1    1    2    0    0 -5.2124145403e+01 -3.2834487594e+01 -8.5775241250e+00 1.1038050269e+02 9.1188000000e+01 0.0000e+00 0.0000e+00
       25  1    1    2    0    0 +5.2124145403e+01 +3.2834487594e+01 +8.5775241250e+00 1.3961949731e+02 1.2500000000e+02 0.0000e+00 0.0000e+00
</event>
<event>
 4      1 +2.4014000e-01 2.50000000e+02 7.54677100e-03 1.02464900e-01
      -11 -1    0    0    0    0 +0.0000000000e+00 +0.0000000000e+00 +1.2500000000e+02 1.2500000000e+02 0.0000000000e+00 0.0000e+00 1.0000e+00
       11 -1    0    0    0    0 -0.0000000000e+00 -0.0000000000e+00 -1.2500000000e+02 1.2500000000e+02 0.0000000000e+00 0.0000e+00 -1.0000e+00
       23  1    1    2    0    0 -2.6477791664e+01 -5.5404613972e+01 -9.8923874205e+00 1.1038050269e+02 9.1188000000e+01 0.0000e+00 0.0000e+00
       25  1    1    2    0    0 +2.6477791664e+01 +5.5404613972e+01 +9.8923874205e+00 1.3961949731e+02 1.2500000000e+02 0.0000e+00 0.0000e+00
</event>
<event>
 4      1 +2.4014000e-01 2.50000000e+02 7.54677100e-03 1.02464900e-01
      -11 -1    0    0    0    0 +0.0000000000e+00 +0.0000000000e+00 +1.2500000000e+02 1.2500000000e+02 0.0000000000e+00 0.0000e+00 -1.0000e+00
       11 -1    0    0    0    0 -0.0000000000e+00 -0.0000000000e+00 -1.2500000000e+02 1.2500000000e+02 0.0000000000e+00 0.0000e+00 1.0000e+00
       23  1    1    2    0    0 -6.8992707838e-01 -4.1764216295e+01 +4.6085553783e+01 1.1038050269e+02 9.1188000000e+01 0.0000e+00 0.0000e+00
       25  1    1    2    0    0 +6.8992707838e-01 +4.1764216295e+01 -4.6085553783e+01 1.3961949731e+02 1.2500000000e+02 0.0000e+00 0.0000e+00
</event>
<event>
 4      1 +2.4014000e-01 2.50000000e+02 7.54677100e-03 1.02464900e-01
      -11 -1    0    0    0    0 +0.0000000000e+00 +0.0000000000e+00 +1.2500000000e+02 1.2500000000e+02 0.0000000000e+00 0.0000e+00 -1.0000e+00
       11 -1    0    0    0    0 -0.0000000000e+00 -0.0000000000e+00 -1.2500000000e+02 1.2500000000e+02 0.0000000000e+00 0.0000e+00 1.0000e+00
       23  1    1    2    0    0 -2.0887912295e+00 +4.6564388845e+01 -4.1182504445e+01 1.1038050269e+02 9.1188000000e+01 0.0000e+00 1.0000e+00
       25  1    1    2    0    0 +2.0887912295e+00 -4.6564388845e+01 +4.1182504445e+01 1.3961949731e+02 1.2500000000e+02 0.0000e+00 0.0000e+00
</event>
<event>
 4      1 +2.4014000e-01 2.50000000e+02 7.54677100e-03 1.02464900e-01
      -11 -1    0    0    0    0 +0.0000000000e+00 +0.0000000000e+00 +1.2500000000e+02 1.2500000000e+02 0.0000000000e+00 0.0000e+00 -1.0000e+00
       11 -1    0    0    0    0 -0.0000000000e+00 -0.0000000000e+00 -1.2500000000e+02 1.2500000000e+02 0.0000000000e+00 0.0000e+00 1.0000e+00
       23  1    1    2    0    0 +1.7180557234e+01 +5.4811839933e+01 +2.3855705521e+01 1.1038050269e+02 9.1188000000e+01 0.0000e+00 -1.0000e+00
       25  1    1    2    0    0 -1.7180557234e+01 -5.4811839933e+01 -2.3855705521e+01 1.3961949731e+02 1.2500000000e+02 0.0000e+00 0.0000e+00
</event>
<event>
 4      1 +2.4014000e-01 2.50000000e+02 7.54677100e-03 1.02464900e-01
      -11 -1    0    0    0    0 +0.0000000000e+00 +0.0000000000e+00 +1.2500000000e+02 1.2500000000e+02 0.0000000000e+00 0.0000e+00 1.0000e+00
       11 -1    0    0    0    0 -0.0000000000e+00 -0.0000000000e+00 -1.2500000000e+02 1.2500000000e+02 0.0000000000e+00 0.0000e+00 -1.0000e+00
       23  1    1    2    0    0 -4.7781344050e+01 -2.8823057781e+00 -3.9714474739e+01 1.1038050269e+02 9.1188000000e+01 0.0000e+00 -1.0000e+00
       25  1    1    2    0    0 +4.7781344050e+01 +2.8823057781e+00 +3.9714474739e+01 1.3961949731e+02 1.2500000000e+02 0.0000e+00 0.0000e+00
</event>
<event>
 4      1 +2.4014000e-01 2.50000000e+02 7.54677100e-03 1.02464900e-01
      -11 -1    0    0    0    0 +0.0000000000e+00 +0.0000000000e+00 +1.2500000000e+02 1.2500000000e+02 0.0000000000e+00 0.0000e+00 1.0000e+00
       11 -1    0    0    0    0 -0.0000000000e+00 -0.0000000000e+00 -1.2500000000e+02 1.2500000000e+02 0.0000000000e+00 0.0000e+00 -1.0000e+00
       23  1    1    2    0    0 +3.9505160482e+01 +2.3338651359e+01 -4.1991114271e+01 1.1038050269e+02 9.1188000000e+01 0.0000e+00 -1.0000e+00
       25  1    1    2    0    0 -3.9505160482e+01 -2.3338651359e+01 +4.1991114271e+01 1.3961949731e+02 1.2500000000e+02 0.0000e+00 0.0000e+00
</event>
<event>
 4      1 +2.4014000e-01 2.50000000e+02 7.54677100e-03 1.02464900e-01
      -11 -1    0    0    0    0 +0.0000000000e+00 +0.0000000000e+00 +1.2500000000e+02 1.2500000000e+02 0.0000000000e+00 0.0000e+00 1.0000e+00
       11 -1    0    0    0    0 -0.0000000000e+00 -0.0000000000e+00 -1.2500000000e+02 1.2500000000e+02 0.0000000000e+00 0.0000e+00 -1.0000e+00
       23  1    1    2    0    0 -1.7659471714e+01 +5.5140688576e+01 -2.2721169683e+01 1.1038050269e+02 9.1188000000e+01 0.0000e+00 0.0000e+00
       25  1    1    2    0    0 +1.7659471714e+01 -5.5140688576e+01 +2.2721169683e+01 1.3961949731e+02 1.2500000000e+02 0.0000e+00 0.0000e+00
</event>
<event>
 4      1 +2.4014000e-01 2.50000000e+02 7.54677100e-03 1.02464900e-01
      -11 -1    0    0    0    0 +0.0000000000e+00 +0.0000000000e+00 +1.2500000000e+02 1.2500000000e+02 0.0000000000e+00 0.0000e+00 -1.0000e+00
       11 -1    0    0    0    0 -0.0000000000e+00 -0.0000000000e+00 -1.2500000000e+02 1.2500000000e+02 0.0000000000e+00 0.0000e+00 1.0000e+00
       23  1    1    2    0    0 +4.4803581223e+01 -3.5646131476e+01 +2.4302190231e+01 1.1038050269e+02 9.1188000000e+01 0.0000e+00 1.0000e+00
       25  1    1    2    0    0 -4.4803581223e+01 +3.5646131476e+01 -2.4302190231e+01 1.3961949731e+02 1.2500000000e+02 0.0000e+00 0.0000e+00
</event>
<event>
 4      1 +2.4014000e-01 2.50000000e+02 7.54677100e-03 1.02464900e-01
      -11 -1    0    0    0    0 +0.0000000000e+00 +0.0000000000e+00 +1.2500000000e+02 1.2500000000e+02 0.0000000000e+00 0.0000e+00 -1.0000e+00
       11 -1    0    0    0    0 -0.0000000000e+00 -0.0000000000e+00 -1.2500000000e+02 1.2500000000e+02 0.0000000000e+00 0.0000e+00 1.0000e+00
       23  1    1    2    0    0 -4.9036547977e+01 -4.7350570246e+00 -3.7968410912e+01 1.1038050269e+02 9.1188000000e+01 0.0000e+00 1.0000e+00
       25  1    1    2    0    0 +4.9036547977e+01 +4.7350570246e+00 +3.7968410912e+01 1.3961949731e+02 1.2500000000e+02 0.0000e+00 0.0000e+00
</event>
<event>
 4      1 +2.4014000e-01 2.50000000e+02 7.54677100e-03 1.02464900e-01
      -11 -1    0    0    0    0 +0.0000000000e+00 +0.0000000000e+00 +1.2500000000e+02 1.2500000000e+02 0.0000000000e+00 0.0000e+00 1.0000e+00
       11 -1    0    0    0    0 -0.0000000000e+00 -0.0000000000e+00 -1.2500000000e+02 1.2500000000e+02 0.0000000000e+00 0.0000e+00 -1.0000e+00
       23  1    1    2    0    0 -5.7037506038e+01 -1.5281685541e-01 -2.4805313577e+01 1.1038050269e+02 9.1188000000e+01 0.0000e+00 0.0000e+00
       25  1    1    2    0    0 +5.7037506038e+01 +1.5281685541e-01 +2.4805313577e+01 1.3961949731e+02 1.2500000000e+02 0.0000e+00 0.0000e+00
</event>
<event>
 4      1 +2.4014000e-01 2.50000000e+02 7.54677100e-03 1.02464900e-01
      -11 -1    0    0    0    0 +0.0000000000e+00 +0.0000000000e+00 +1.2500000000e+02 1.2500000000e+02 0.0000000000e+00 0.0000e+00 -1.0000e+00
       11 -1    0    0    0    0 -0.0000000000e+00 -0.0000000000e+00 -1.2500000000e+02 1.2500000000e+02 0.0000000000e+00 0.0000e+00 1.0000e+00
       23  1    1    2    0    0 -3.8220847597e+01 -3.9696556603e+00 -4.8908206597e+01 1.1038050269e+02 9.1188000000e+01 0.0000e+00 0.0000e+00
       25  1    1    2    0    0 +3.8220847597e+01 +3.9696556603e+00 +4.8908206597e+01 1.3961949731e+02 1.2500000000e+02 0.0000e+00 0.0000e+00
</event>
<event>
 4      1 +2.4014000e-01 2.50000000e+02 7.54677100e-03 1.02464900e-01
      -11 -1    0    0    0    0 +0.0000000000e+00 +0.0000000000e+00 +1.2500000000e+02 1.2500000000e+02 0.0000000000e+00 0.0000e+00 -1.0000e+00
       11 -1    0    0    0    0 -0.0000000000e+00 -0.0000000000e+00 -1.2500000000e+02 1.2500000000e+02 0.0000000000e+00 0.0000e+00 1.0000e+00
       23  1    1    2    0    0 -3.3536351808e+01 -9.2455370814e+00 -5.1560034728e+01 1.1038050269e+02 9.1188000000e+01 0.0000e+00 1.0000e+00
       25  1    1    2    0    0 +3.3536351808e+01 +9.2455370814e+00 +5.1560034728e+01 1.3961949731e+02 1.2500000000e+02 0.0000e+00 0.0000e+00
</event>
<event>
 4      1 +2.4014000e-01 2.50000000e+02 7.54677100e-03 1.02464900e-01
      -11 -1    0    0    0    0 +0.0000000000e+00 +0.0000000000e+00 +1.2500000000e+02 1.2500000000e+02 0.0000000000e+00 0.0000e+00 1.0000e+00
       11 -1    0    0    0    0 -0.0000000000e+00 -0.0000000000e+00 -1.2500000000e+02 1.2500000000e+02 0.0000000000e+00 0.0000e+00 -1.0000e+00
       23  1    1    2    0    0 -2.1549383466e+01 +5.2220206075e+01 -2.6024568765e+01 1.1038050269e+02 9.1188000000e+01 0.0000e+00 0.0000e+00
       25  1    1    2    0    0 +2.1549383466e+01 -5.2220206075e+01 +2.6024568765e+01 1.3961949731e+02 1.2500000000e+02 0.0000e+00 0.0000e+00
</event>
<event>
 4      1 +2.4014000e-01 2.50000000e+02 7.54677100e-03 1.02464900e-01
      -11 -1    0    0    0    0 +0.0000000000e+00 +0.0000000000e+00 +1.2500000000e+02 1.2500000000e+02 0.0000000000e+00 0.0000e+00 1.0000e+00
       11 -1    0    0    0    0 -0.0000000000e+00 -0.0000000000e+00 -1.2500000000e+02 1.2500000000e+02 0.0000000000e+00 0.0000e+00 -1.0000e+00
       23  1    1    2    0    0 +3.2050104789e+00 +5.3469909274e+00 -6.1884906282e+01 1.1038050269e+02 9.1188000000e+01 0.0000e+00 -1.0000e+00
       25  1    1    2    0    0 -3.2050104789e+00 -5.3469909274e+00 +6.1884906282e+01 1.3961949731e+02 1.2500000000e+02 0.0000e+00 0.0000e+00
</event>
<event>
 4      1 +2.4014000e-01 2.50000000e+02 7.54677100e-03 1.02464900e-01
      -11 -1    0    0    0    0 +0.0000000000e+00 +0.0000000000e+00 +1.2500000000e+02 1.2500000000e+02 0.0000000000e+00 0.0000e+00 -1.0000e+00
       11 -1    0    0    0    0 -0.0000000000e+00 -0.0000000000e+00 -1.2500000000e+02 1.2500000000e+02 0.0000000000e+00 0.0000e+00 1.0000e+00
       23  1    1    2    0    0 -4.4051288077e+01 -4.3724052329e+01 +4.0367432848e+00 1.1038050269e+02 9.1188000000e+01 0.0000e+00 1.0000e+00
       25  1    1    2    0    0 +4.4051288077e+01 +4.3724052329e+01 -4.0367432848e+00 1.3961949731e+02 1.2500000000e+02 0.0000e+00 0.0000e+00
</event>
<event>
 4      1 +2.4014000e-01 2.50000000e+02 7.54677100e-03 1.02464900e-01
      -11 -1    0    0    0    0 +0.0000000000e+00 +0.0000000000e+00 +1.2500000000e+02 1.2500000000e+02 0.0000000000e+00 0.0000e+00 1.0000e+00
       11 -1    0    0    0    0 -0.0000000000e+00 -0.0000000000e+00 -1.2500000000e+02 1.2500000000e+02 0.0000000000e+00 0.0000e+00 -1.0000e+00
       23  1    1    2    0    0 +4.5062314569e+01 +4.2759124783e+01 +3.1062973281e+00 1.1038050269e+02 9.1188000000e+01 0.0000e+00 -1.0000e+00
       25  1    1    2    0    0 -4.5062314569e+01 -4.2759124783e+01 -3.1062973281e+00 1.3961949731e+02 1.2500000000e+02 0.0000e+00 0.0000e+00
</event>
<event>
 4      1 +2.4014000e-01 2.50000000e+02 7.54677100e-03 1.02464900e-01
      -11 -1    0    0    0    0 +0.0000000000e+00 +0.0000000000e+00 +1.2500000000e+02 1.2500000000e+02 0.0000000000e+00 0.0000e+00 1.0000e+00
       11 -1    0    0    0    0 -0.0000000000e+00 -0.0000000000e+00 -1.2500000000e+02 1.2500000000e+02 0.0000000000e+00 0.0000e+00 -1.0000e+00
       23  1    1    2    0    0 -6.1614870370e+01 +2.3562812987e+00 -8.1645402461e+00 1.1038050269e+02 9.1188000000e+01 0.0000e+00 -1.0000e+00
       25  1    1    2    0    0 +6.1614870370e+01 -2.3562812987e+00 +8.1645402461e+00 1.3961949731e+02 1.2500000000e+02 0.0000e+00 0.0000e+00
</event>
<event>
 4      1 +2.4014000e-01 2.50000000e+02 7.54677100e-03 1.02464900e-01
      -11 -1    0    0    0    0 +0.0000000000e+00 +0.0000000000e+00 +1.2500000000e+02 1.2500000000e+02 0.0000000000e+00 0.0000e+00 -1.0000e+00
       11 -1    0    0    0    0 -0.0000000000e+00 -0.0000000000e+00 -1.2500000000e+02 1.2500000000e+02 0.0000000000e+00 0.0000e+00 1.0000e+00
       23  1    1    2    0    0 +4.0546654327e+01 +1.8487589266e+01 +4.3391034738e+01 1.1038050269e+02 9.1188000000e+01 0.0000e+00 -1.0000e+00
       25  1    1    2    0    0 -4.0546654327e+01 -1.8487589266e+01 -4.3391034738e+01 1.3961949731e+02 1.2500000000e+02 0.0000e+00 0.0000e+00
</event>
<event>
 4      1 +2.4014000e-01 2.50000000e+02 7.54677100e-03 1.02464900e-01
      -11 -1    0    0    0    0 +0.0000000000e+00 +0.0000000000e+00 +1.2500000000e+02 1.2500000000e+02 0.0000000000e+00 0.0000e+00 1.0000e+00
       11 -1    0    0    0    0 -0.0000000000e+00 -0.0000000000e+00 -1.2500000000e+02 1.2500000000e+02 0.0000000000e+00 0.0000e+00 -1.0000e+00
       23  1    1    2    0    0 +5.8288178246e+01 -1.9428943839e+01 +9.6751458781e+00 1.1038050269e+02 9.1188000000e+01 0.0000e+00 1.0000e+00
       25  1    1    2    0    0 -5.8288178246e+01 +1.9428943839e+01 -9.6751458781e+00 1.3961949731e+02 1.2500000000e+02 0.0000e+00 0.0000e+00
</event>
<event>
 4      1 +2.4014000e-01 2.50000000e+02 7.54677100e-03 1.02464900e-01
      -11 -1    0    0    0    0 +0.0000000000e+00 +0.0000000000e+00 +1.2500000000e+02 1.2500000000e+02 0.0000000000e+00 0.0000e+00 -1.0000e+00
       11 -1    0    0    0    0 -0.0000000000e+00 -0.0000000000e+00 -1.2500000000e+02 1.2500000000e+02 0.0000000000e+00 0.0000e+00 1.0000e+00
       23  1    1    2    0    0 -2.5507486094e+01 -1.2934668594e+01 -5.5232839246e+01 1.1038050269e+02 9.1188000000e+01 0.0000e+00 1.0000e+00
       25  1    1    2    0    0 +2.5507486094e+01 +1.2934668594e+01 +5.5232839246e+01 1.3961949731e+02 1.2500000000e+02 0.0000e+00 0.0000e+00
</event>
<event>
 4      1 +2.4014000e-01 2.50000000e+02 7.54677100e-03 1.02464900e-01
      -11 -1    0    0    0    0 +0.0000000000e+00 +0.0000000000e+00 +1.2500000000e+02 1.2500000000e+02 0.0000000000e+00 0.0000e+00 1.0000e+00
       11 -1    0    0    0    0 -0.0000000000e+00 -0.0000000000e+00 -1.2500000000e+02 1.2500000000e+02 0.0000000000e+00 0.0000e+00 -1.0000e+00
       23  1    1    2    0    0 +4.7929791141e+01 -3.8624479260e+01 +8.9156465107e+00 1.1038050269e+02 9.1188000000e+01 0.0000e+00 1.0000e+00
       25  1    1    2    0    0 -4.7929791141e+01 +3.8624479260e+01 -8.9156465107e+00 1.3961949731e+02 1.2500000000e+02 0.0000e+00 0.0000e+00
</event>
<event>
 4      1 +2.4014000e-01 2.50000000e+02 7.54677100e-03 1.02464900e-01
      -11 -1    0    0    0    0 +0.0000000000e+00 +0.0000000000e+00 +1.2500000000e+02 1.2500000000e+02 0.0000000000e+00 0.0000e+00 1.0000e+00
       11 -1    0    0    0    0 -0.0000000000e+00 -0.0000000000e+00 -1.2500000000e+02 1.2500000000e+02 0.0000000000e+00 0.0000e+00 -1.0000e+00
       23  1    1    2    0    0 -4.2790781641e+01 -2.8296133099e+01 -3.5169331638e+01 1.1038050269e+02 9.1188000000e+01 0.0000e+00 0.0000e+00
       25  1    1    2    0    0 +4.2790781641e+01 +2.8296133099e+01 +3.5169331638e+01 1.3961949731e+02 1.2500000000e+02 0.0000e+00 0.0000e+00
</event>
<event>
 4      1 +2.4014000e-01 2.50000000e+02 7.54677100e-03 1.02464900e-01
      -11 -1    0    0    0    0 +0.0000000000e+00 +0.0000000000e+00 +1.2500000000e+02 1.2500000000e+02 0.0000000000e+00 0.0000e+00 -1.0000e+00
       11 -1    0    0    0    0 -0.0000000000e+00 -0.0000000000e+00 -1.2500000000e+02 1.2500000000e+02 0.0000000000e+00 0.0000e+00 1.0000e+00
       23  1    1    2    0    0 +3.7458807046e+01 -2.6506829267e+01 +4.1986066814e+01 1.1038050269e+02 9.1188000000e+01 0.0000e+00 1.0000e+00
       25  1    1    2    0    0 -3.7458807046e+01 +2.6506829267e+01 -4.1986066814e+01 1.3961949731e+02 1.2500000000e+02 0.0000e+00 0.0000e+00
</event>
<event>
 4      1 +2.4014000e-01 2.50000000e+02 7.54677100e-03 1.02464900e-01
      -11 -1    0    0    0    0 +0.0000000000e+00 +0.0000000000e+00 +1.2500000000e+02 1.2500000000e+02 0.0000000000e+00 0.0000e+00 -1.0000e+00
       11 -1    0    0    0    0 -0.0000000000e+00 -0.0000000000e+00 -1.2500000000e+02 1.2500000000e+02 0.0000000000e+00 0.0000e+00 1.0000e+00
       23  1    1    2    0    0 -1.7906289314e+01 -2.3384800991e+01 -5.4782478178e+01 1.1038050269e+02 9.1188000000e+01 0.0000e+00 1.0000e+00
       25  1    1    2    0    0 +1.7906289314e+01 +2.3384800991e+01 +5.4782478178e+01 1.3961949731e+02 1.2500000000e+02 0.0000e+00 0.0000e+00
</event>
<event>
 4      1 +2.4014000e-01 2.50000000e+02 7.54677100e-03 1.02464900e-01
      -11 -1    0    0    0    0 +0.0000000000e+00 +0.0000000000e+00 +1.2500000000e+02 1.2500000000e+02 0.0000000000e+00 0.0000e+00 1.0000e+00
       11 -1    0    0    0    0 -0.0000000000e+00 -0.0000000000e+00 -1.2500000000e+02 1.2500000000e+02 0.0000000000e+00 0.0000e+00 -1.0000e+00
       23  1    1    2    0    0 -2.6064767098e+01 -4.8532392711e+01 +2.8876267133e+01 1.1038050269e+02 9.1188000000e+01 0.0000e+00 0.0000e+00
       25  1    1    2    0    0 +2.6064767098e+01 +4.8532392711e+01 -2.8876267133e+01 1.3961949731e+02 1.2500000000e+02 0.0000e+00 0.0000e+00
</event>
<event>
 4      1 +2.4014000e-01 2.50000000e+02 7.54677100e-03 1.02464900e-01
      -11 -1    0    0    0    0 +0.0000000000e+00 +0.0000000000e+00 +1.2500000000e+02 1.2500000000e+02 0.0000000000e+00 0.0000e+00 1.0000e+00
       11 -1    0    0    0    0 -0.0000000000e+00 -0.0000000000e+00 -1.2500000000e+02 1.2500000000e+02 0.0000000000e+00 0.0000e+00 -1.0000e+00
       23  1    1    2    0    0 +2.2483604028e+01 -3.1804337876e+01 -4.8493047665e+01 1.1038050269e+02 9.1188000000e+01 0.0000e+00 0.0000e+00
       25  1    1    2    0    0 -2.2483604028e+01 +3.1804337876e+01 +4.8493047665e+01 1.3961949731e+02 1.2500000000e+02 0.0000e+00 0.0000e+00
</event>
<event>
 4      1 +2.4014000e-01 2.50000000e+02 7.54677100e-03 1.02464900e-01
      -11 -1    0    0    0    0 +0.0000000000e+00 +0.0000000000e+00 +1.2500000000e+02 1.2500000000e+02 0.0000000000e+00 0.0000e+00 -1.0000e+00
       11 -1    0    0    0    0 -0.0000000000e+00 -0.0000000000e+00 -1.2500000000e+02 1.2500000000e+02 0.0000000000e+00 0.0000e+00 1.0000e+00
       23  1    1    2    0    0 +3.3709240075e+01 -4.8277021169e+01 -2.0040468815e+01 1.1038050269e+02 9.1188000000e+01 0.0000e+00 0.0000e+00
       25  1    1    2    0    0 -3.3709240075e+01 +4.8277021169e+01 +2.0040468815e+01 1.3961949731e+02 1.2500000000e+02 0.0000e+00 0.0000e+00
</event>
<event>
 4      1 +2.4014000e-01 2.50000000e+02 7.54677100e-03 1.02464900e-01
      -11 -1    0    0    0    0 +0.0000000000e+00 +0.0000000000e+00 +1.2500000000e+02 1.2500000000e+02 0.0000000000e+00 0.0000e+00 -1.0000e+00
       11 -1    0    0    0    0 -0.0000000000e+00 -0.0000000000e+00 -1.2500000000e+02 1.2500000000e+02 0.0000000000e+00 0.0000e+00 1.0000e+00
       23  1    1    2    0    0 +5.3568767851e+01 -2.9796889053e+01 -1.0542131824e+01 1.1038050269e+02 9.1188000000e+01 0.0000e+00 -1.0000e+00
       25  1    1    2    0    0 -5.3568767851e+01 +2.9796889053e+01 +1.0542131824e+01 1.3961949731e+02 1.2500000000e+02 0.0000e+00 0.0000e+00
</event>
<event>
 4      1 +2.4014000e-01 2.50000000e+02 7.54677100e-03 1.02464900e-01
      -11 -1    0    0    0    0 +0.0000000000e+00 +0.0000000000e+00 +1.2500000000e+02 1.2500000000e+02 0.0000000000e+00 0.0000e+00 1.0000e+00
       11 -1    0    0    0    0 -0.0000000000e+00 -0.0000000000e+00 -1.2500000000e+02 1.2500000000e+02 0.0000000000e+00 0.0000e+00 -1.0000e+00
       23  1    1    2    0    0 +5.1906028959e+00 +8.9015435545e+00 -6.1338602801e+01 1.1038050269e+02 9.1188000000e+01 0.0000e+00 -1.0000e+00
       25  1    1    2    0    0 -5.1906028959e+00 -8.9015435545e+00 +6.1338602801e+01 1.3961949731e+02 1.2500000000e+02 0.0000e+00 0.0000e+00
</event>
<event>
 4      1 +2.4014000e-01 2.50000000e+02 7.54677100e-03 1.02464900e-01
      -11 -1    0    0    0    0 +0.0000000000e+00 +0.0000000000e+00 +1.2500000000e+02 1.2500000000e+02 0.0000000000e+00 0.0000e+00 -1.0000e+00
       11 -1    0    0    0    0 -0.0000000000e+00 -0.0000000000e+00 -1.2500000000e+02 1.2500000000e+02 0.0000000000e+00 0.0000e+00 1.0000e+00
       23  1    1    2    0    0 +6.0549088662e+01 -1.4224798909e+01 +2.5882017074e-01 1.1038050269e+02 9.1188000000e+01 0.0000e+00 0.0000e+00
       25  1    1    2    0    0 -6.0549088662e+01 +1.4224798909e+01 -2.5882017074e-01 1.3961949731e+02 1.2500000000e+02 0.0000e+00 0.0000e+00
</event>
<event>
 4      1 +2.4014000e-01 2.50000000e+02 7.54677100e-03 1.02464900e-01
      -11 -1    0    0    0    0 +0.0000000000e+00 +0.0000000000e+00 +1.2500000000e+02 1.2500000000e+02 0.0000000000e+00 0.0000e+00 1.0000e+00
       11 -1    0    0    0    0 -0.0000000000e+00 -0.0000000000e+00 -1.2500000000e+02 1.2500000000e+02 0.0000000000e+00 0.0000e+00 -1.0000e+00
       23  1    1    2    0    0 -5.8077908085e+01 -1.4770437187e+01 +1.6655173592e+01 1.1038050269e+02 9.1188000000e+01 0.0000e+00 1.0000e+00
       25  1    1    2    0    0 +5.8077908085e+01 +1.4770437187e+01 -1.6655173592e+01 1.3961949731e+02 1.2500000000e+02 0.0000e+00 0.0000e+00
</event>
<event>
 4      1 +2.4014000e-01 2.50000000e+02 7.54677100e-03 1.02464900e-01
      -11 -1    0    0    0    0 +0.0000000000e+00 +0.0000000000e+00 +1.2500000000e+02 1.2500000000e+02 0.0000000000e+00 0.0000e+00 -1.0000e+00
       11 -1    0    0    0    0 -0.0000000000e+00 -0.0000000000e+00 -1.2500000000e+02 1.2500000000e+02 0.0000000000e+00 0.0000e+00 1.0000e+00
       23  1    1    2    0    0 -2.5842686517e+01 +1.9219154888e+01 -5.3210747680e+01 1.1038050269e+02 9.1188000000e+01 0.0000e+00 1.0000e+00
       25  1    1    2    0    0 +2.5842686517e+01 -1.9219154888e+01 +5.3210747680e+01 1.3961949731e+02 1.2500000000e+02 0.0000e+00 0.0000e+00
</event>
<event>
 4      1 +2.4014000e-01 2.50000000e+02 7.54677100e-03 1.02464900e-01
      -11 -1    0    0    0    0 +0.0000000000e+00 +0.0000000000e+00 +1.2500000000e+02 1.2500000000e+02 0.0000000000e+00 0.0000e+00 1.0000e+00
       11 -1    0    0    0    0 -0.0000000000e+00 -0.0000000000e+00 -1.2500000000e+02 1.2500000000e+02 0.0000000000e+00 0.0000e+00 -1.0000e+00
       23  1    1    2    0    0 +2.1774513851e+01 +3.6373507178e+01 -4.5513103078e+01 1.1038050269e+02 9.1188000000e+01 0.0000e+00 -1.0000e+00
       25  1    1    2    0    0 -2.1774513851e+01 -3.6373507178e+01 +4.5513103078e+01 1.3961949731e+02 1.2500000000e+02 0.0000e+00 0.0000e+00
</event>
<event>
 4      1 +2.4014000e-01 2.50000000e+02 7.54677100e-03 1.02464900e-01
      -11 -1    0    0    0    0 +0.0000000000e+00 +0.0000000000e+00 +1.2500000000e+02 1.2500000000e+02 0.0000000000e+00 0.0000e+00 1.0000e+00
       11 -1    0    0    0    0 -0.0000000000e+00 -0.0000000000e+00 -1.2500000000e+02 1.2500000000e+02 0.0000000000e+00 0.0000e+00 -1.0000e+00
       23  1    1    2    0    0 -1.1839867223e+00 -5.8679304773e+01 -2.0589837212e+01 1.1038050269e+02 9.1188000000e+01 0.0000e+00 0.0000e+00
       25  1    1    2    0    0 +1.1839867223e+00 +5.8679304773e+01 +2.0589837212e+01 1.3961949731e+02 1.2500000000e+02 0.0000e+00 0.0000e+00
</event>
<event>
 4      1 +2.4014000e-01 2.50000000e+02 7.54677100e-03 1.02464900e-01
      -11 -1    0    0    0    0 +0.0000000000e+00 +0.0000000000e+00 +1.2500000000e+02 1.2500000000e+02 0.0000000000e+00 0.0000e+00 1.0000e+00
       11 -1    0    0    0    0 -0.0000000000e+00 -0.0000000000e+00 -1.2500000000e+02 1.2500000000e+02 0.0000000000e+00 0.0000e+00 -1.0000e+00
       23  1    1    2    0    0 +9.3138007533e+00 -2.0292319048e+01 -5.8052380940e+01 1.1038050269e+02 9.1188000000e+01 0.0000e+00 0.0000e+00
       25  1    1    2    0    0 -9.3138007533e+00 +2.0292319048e+01 +5.8052380940e+01 1.3961949731e+02 1.2500000000e+02 0.0000e+00 0.0000e+00
</event>
<event>
 4      1 +2.4014000e-01 2.50000000e+02 7.54677100e-03 1.02464900e-01
      -11 -1    0    0    0    0 +0.0000000000e+00 +0.0000000000e+00 +1.2500000000e+02 1.2500000000e+02 0.0000000000e+00 0.0000e+00 1.0000e+00
       11 -1    0    0    0    0 -0.0000000000e+00 -0.0000000000e+00 -1.2500000000e+02 1.2500000000e+02 0.0000000000e+00 0.0000e+00 -1.0000e+00
       23  1    1    2    0    0 -1.0966614719e+01 +3.3755819119e+01 -5.1077216710e+01 1.1038050269e+02 9.1188000000e+01 0.0000e+00 -1.0000e+00
       25  1    1    2    0    0 +1.0966614719e+01 -3.3755819119e+01 +5.1077216710e+01 1.3961949731e+02 1.2500000000e+02 0.0000e+00 0.0000e+00
</event>
<event>
 4      1 +2.4014000e-01 2.50000000e+02 7.54677100e-03 1.02464900e-01
      -11 -1    0    0    0    0 +0.0000000000e+00 +0.0000000000e+00 +1.2500000000e+02 1.2500000000e+02 0.0000000000e+00 0.0000e+00 -1.0000e+00
       11 -1    0    0    0    0 -0.0000000000e+00 -0.0000000000e+00 -1.2500000000e+02 1.2500000000e+02 0.0000000000e+00 0.0000e+00 1.0000e+00
       23  1    1    2    0    0 -6.6657978072e+00 -6.1628667879e+01 +5.1067078151e+00 1.1038050269e+02 9.1188000000e+01 0.0000e+00 0.0000e+00
       25  1    1    2    0    0 +6.6657978072e+00 +6.1628667879e+01 -5.1067078151e+00 1.3961949731e+02 1.2500000000e+02 0.0000e+00 0.0000e+00
</event>
<event>
 4      1 +2.4014000e-01 2.50000000e+02 7.54677100e-03 1.02464900e-01
      -11 -1    0    0    0    0 +0.0000000000e+00 +0.0000000000e+00 +1.2500000000e+02 1.2500000000e+02 0.0000000000e+00 0.0000e+00 1.0000e+00
       11 -1    0    0    0    0 -0.0000000000e+00 -0.0000000000e+00 -1.2500000000e+02 1.2500000000e+02 0.0000000000e+00 0.0000e+00 -1.0000e+00
       23  1    1    2    0    0 -2.3233690948e+01 +4.3035648780e+01 +3.8428278242e+01 1.1038050269e+02 9.1188000000e+01 0.0000e+00 1.0000e+00
       25  1    1    2    0    0 +2.3233690948e+01 -4.3035648780e+01 -3.8428278242e+01 1.3961949731e+02 1.2500000000e+02 0.0000e+00 0.0000e+00
</event>
<event>
 4      1 +2.4014000e-01 2.50000000e+02 7.54677100e-03 1.02464900e-01
      -11 -1    0    0    0    0 +0.0000000000e+00 +0.0000000000e+00 +1.2500000000e+02 1.2500000000e+02 0.0000000000e+00 0.0000e+00 1.0000e+00
       11 -1    0    0    0    0 -0.0000000000e+00 -0.0000000000e+00 -1.2500000000e+02 1.2500000000e+02 0.0000000000e+00 0.0000e+00 -1.0000e+00
       23  1    1    2    0    0 +1.4544465793e+00 +1.9172868480e+01 +5.9151413585e+01 1.1038050269e+02 9.1188000000e+01 0.0000e+00 1.0000e+00
       25  1    1    2    0    0 -1.4544465793e+00 -1.9172868480e+01 -5.9151413585e+01 1.3961949731e+02 1.2500000000e+02 0.0000e+00 0.0000e+00
</event>
<event>
 4      1 +2.4014000e-01 2.50000000e+02 7.54677100e-03 1.02464900e-01
      -11 -1    0    0    0    0 +0.0000000000e+00 +0.0000000000e+00 +1.2500000000e+02 1.2500000000e+02 0.0000000000e+00 0.0000e+00 1.0000e+00
       11 -1    0    0    0    0 -0.0000000000e+00 -0.0000000000e+00 -1.2500000000e+02 1.2500000000e+02 0.0000000000e+00 0.0000e+00 -1.0000e+00
       23  1    1    2    0    0 -5.2519398964e+01 -3.1279911460e+01 -1.1484071627e+01 1.1038050269e+02 9.1188000000e+01 0.0000e+00 -1.0000e+00
       25  1    1    2    0    0 +5.2519398964e+01 +3.1279911460e+01 +1.1484071627e+01 1.3961949731e+02 1.2500000000e+02 0.0000e+00 0.0000e+00
</event>
<event>
 4      1 +2.4014000e-01 2.50000000e+02 7.54677100e-03 1.02464900e-01
      -11 -1    0    0    0    0 +0.0000000000e+00 +0.0000000000e+00 +1.2500000000e+02 1.2500000000e+02 0.0000000000e+00 0.0000e+00 1.0000e+00
       11 -1    0    0    0    0 -0.0000000000e+00 -0.0000000000e+00 -1.2500000000e+02 1.2500000000e+02 0.0000000000e+00 0.0000e+00 -1.0000e+00
       23  1    1    2    0    0 -3.5327551334e+01 +4.0343912832e+01 +3.1510900397e+01 1.1038050269e+02 9.1188000000e+01 0.0000e+00 1.0000e+00
       25  1    1    2    0    0 +3.5327551334e+01 -4.0343912832e+01 -3.1510900397e+01 1.3961949731e+02 1.2500000000e+02 0.0000e+00 0.0000e+00
</event>
<event>
 4      1 +2.4014000e-01 2.50000000e+02 7.54677100e-03 1.02464900e-01
      -11 -1    0    0    0    0 +0.0000000000e+00 +0.0000000000e+00 +1.2500000000e+02 1.2500000000e+02 0.0000000000e+00 0.0000e+00 1.0000e+00
       11 -1    0    0    0    0 -0.0000000000e+00 -0.0000000000e+00 -1.2500000000e+02 1.2500000000e+02 0.0000000000e+00 0.0000e+00 -1.0000e+00
       23  1    1    2    0    0 -2.3421112572e+01 +1.3820717443e+01 +5.5937851987e+01 1.1038050269e+02 9.1188000000e+01 0.0000e+00 1.0000e+00
       25  1    1    2    0    0 +2.3421112572e+01 -1.3820717443e+01 -5.5937851987e+01 1.3961949731e+02 1.2500000000e+02 0.0000e+00 0.0000e+00
</event>
<event>
 4      1 +2.4014000e-01 2.50000000e+02 7.54677100e-03 1.02464900e-01
      -11 -1    0    0    0    0 +0.0000000000e+00 +0.0000000000e+00 +1.2500000000e+02 1.2500000000e+02 0.0000000000e+00 0.0000e+00 -1.0000e+00
       11 -1    0    0    0    0 -0.0000000000e+00 -0.0000000000e+00 -1.2500000000e+02 1.2500000000e+02 0.0000000000e+00 0.0000e+00 1.0000e+00
       23  1    1    2    0    0 +2.0608086598e+01 -3.5693076289e+01 +4.6582347530e+01 1.1038050269e+02 9.1188000000e+01 0.0000e+00 -1.0000e+00
       25  1    1    2    0    0 -2.0608086598e+01 +3.5693076289e+01 -4.6582347530e+01 1.3961949731e+02 1.2500000000e+02 0.0000e+00 0.0000e+00
</event>
<event>
 4      1 +2.4014000e-01 2.50000000e+02 7.54677100e-03 1.02464900e-01
      -11 -1    0    0    0    0 +0.0000000000e+00 +0.0000000000e+00 +1.2500000000e+02 1.2500000000e+02 0.0000000000e+00 0.0000e+00 1.0000e+00
       11 -1    0    0    0    0 -0.0000000000e+00 -0.0000000000e+00 -1.2500000000e+02 1.2500000000e+02 0.0000000000e+00 0.0000e+00 -1.0000e+00
       23  1    1    2    0    0 -6.0294398627e+01 +2.3796893533e+00 -1.5083984965e+01 1.1038050269e+02 9.1188000000e+01 0.0000e+00 0.0000e+00
       25  1    1    2    0    0 +6.0294398627e+01 -2.3796893533e+00 +1.5083984965e+01 1.3961949731e+02 1.2500000000e+02 0.0000e+00 0.0000e+00
</event>
<event>
 4      1 +2.4014000e-01 2.50000000e+02 7.54677100e-03 1.02464900e-01
      -11 -1    0    0    0    0 +0.0000000000e+00 +0.0000000000e+00 +1.2500000000e+02 1.2500000000e+02 0.0000000000e+00 0.0000e+00 1.0000e+00
       11 -1    0    0    0    0 -0.0000000000e+00 -0.0000000000e+00 -1.2500000000e+02 1.2500000000e+02 0.0000000000e+00 0.0000e+00 -1.0000e+00
       23  1    1    2    0    0 -4.5890595718e+01 +2.3647941467e+01 -3.4690519147e+01 1.1038050269e+02 9.1188000000e+01 0.0000e+00 0.0000e+00
       25  1    1    2    0    0 +4.5890595718e+01 -2.3647941467e+01 +3.4690519147e+01 1.3961949731e+02 1.2500000000e+02 0.0000e+00 0.0000e+00
</event>
<event>
 4      1 +2.4014000e-01 2.50000000e+02 7.54677100e-03 1.02464900e-01
      -11 -1    0    0    0    0 +0.0000000000e+00 +0.0000000000e+00 +1.2500000000e+02 1.2500000000e+02 0.0000000000e+00 0.0000e+00 -1.0000e+00
       11 -1    0    0    0    0 -0.0000000000e+00 -0.0000000000e+00 -1.2500000000e+02 1.2500000000e+02 0.0000000000e+00 0.0000e+00 1.0000e+00
       23  1    1    2    0    0 +2.2520377029e+01 +3.3972299754e+01 +4.6982118913e+01 1.1038050269e+02 9.1188000000e+01 0.0000e+00 -1.0000e+00
       25  1    1    2    0    0 -2.2520377029e+01 -3.3972299754e+01 -4.6982118913e+01 1.3961949731e+02 1.2500000000e+02 0.0000e+00 0.0000e+00
</event>
<event>
 4      1 +2.4014000e-01 2.50000000e+02 7.54677100e-03 1.02464900e-01
      -11 -1    0    0    0    0 +0.0000000000e+00 +0.0000000000e+00 +1.2500000000e+02 1.2500000000e+02 0.0000000000e+00 0.0000e+00 -1.0000e+00
       11 -1    0    0    0    0 -0.0000000000e+00 -0.0000000000e+00 -1.2500000000e+02 1.2500000000e+02 0.0000000000e+00 0.0000e+00 1.0000e+00
       23  1    1    2    0    0 +5.9147098561e+01 -1.0763806372e+01 -1.5948831741e+01 1.1038050269e+02 9.1188000000e+01 0.0000e+00 0.0000e+00
       25  1    1    2    0    0 -5.9147098561e+01 +1.0763806372e+01 +1.5948831741e+01 1.3961949731e+02 1.2500000000e+02 0.0000e+00 0.0000e+00
</event>
<event>
 4      1 +2.4014000e-01 2.50000000e+02 7.54677100e-03 1.02464900e-01
      -11 -1    0    0    0    0 +0.0000000000e+00 +0.0000000000e+00 +1.2500000000e+02 1.2500000000e+02 0.0000000000e+00 0.0000e+00 1.0000e+00
       11 -1    0    0    0    0 -0.0000000000e+00 -0.0000000000e+00 -1.2500000000e+02 1.2500000000e+02 0.0000000000e+00 0.0000e+00 -1.0000e+00
       23  1    1    2    0    0 -3.4139097158e+01 +2.1675306246e+01 +4.7257879492e+01 1.1038050269e+02 9.1188000000e+01 0.0000e+00 -1.0000e+00
       25  1    1    2    0    0 +3.4139097158e+01 -2.1675306246e+01 -4.7257879492e+01 1.3961949731e+02 1.2500000000e+02 0.0000e+00 0.0000e+00
</event>
<event>
 4      1 +2.4014000e-01 2.50000000e+02 7.54677100e-03 1.02464900e-01
      -11 -1    0    0    0    0 +0.0000000000e+00 +0.0000000000e+00 +1.2500000000e+02 1.2500000000e+02 0.0000000000e+00 0.0000e+00 1.0000e+00
       11 -1    0    0    0    0 -0.0000000000e+00 -0.0000000000e+00 -1.2500000000e+02 1.2500000000e+02 0.0000000000e+00 0.0000e+00 -1.0000e+00
       23  1    1    2    0    0 +4.1880354018e+01 +4.4545155156e+00 +4.5768955292e+01 1.1038050269e+02 9.1188000000e+01 0.0000e+00 1.0000e+00
       25  1    1    2    0    0 -4.1880354018e+01 -4.4545155156e+00 -4.5768955292e+01 1.3961949731e+02 1.2500000000e+02 0.0000e+00 0.0000e+00
</event>
<event>
 4      1 +2.4014000e-01 2.50000000e+02 7.54677100e-03 1.02464900e-01
      -11 -1    0    0    0    0 +0.0000000000e+00 +0.0000000000e+00 +1.2500000000e+02 1.2500000000e+02 0.0000000000e+00 0.0000e+00 -1.0000e+00
       11 -1    0    0    0    0 -0.0000000000e+00 -0.0000000000e+00 -1.2500000000e+02 1.2500000000e+02 0.0000000000e+00 0.0000e+00 1.0000e+00
       23  1    1    2    0    0 +3.7146284907e+01 -4.8330148888e+01 -1.2367467635e+01 1.1038050269e+02 9.1188000000e+01 0.0000e+00 1.0000e+00
       25  1    1    2    0    0 -3.7146284907e+01 +4.8330148888e+01 +1.2367467635e+01 1.3961949731e+02 1.2500000000e+02 0.0000e+00 0.0000e+00
</event>
<event>
 4      1 +2.4014000e-01 2.50000000e+02 7.54677100e-03 1.02464900e-01
      -11 -1    0    0    0    0 +0.0000000000e+00 +0.0000000000e+00 +1.2500000000e+02 1.2500000000e+02 0.0000000000e+00 0.0000e+00 -1.0000e+00
       11 -1    0    0    0    0 -0.0000000000e+00 -0.0000000000e+00 -1.2500000000e+02 1.2500000000e+02 0.0000000000e+00 0.0000e+00 1.0000e+00
       23  1    1    2    0    0 -2.5144768378e+00 +6.0279707787e+01 +1.5120789165e+01 1.1038050269e+02 9.1188000000e+01 0.0000e+00 0.0000e+00
       25  1    1    2    0    0 +2.5144768378e+00 -6.0279707787e+01 -1.5120789165e+01 1.3961949731e+02 1.2500000000e+02 0.0000e+00 0.0000e+00
</event>
<event>
 4      1 +2.4014000e-01 2.50000000e+02 7.54677100e-03 1.02464900e-01
      -11 -1    0    0    0    0 +0.0000000000e+00 +0.0000000000e+00 +1.2500000000e+02 1.2500000000e+02 0.0000000000e+00 0.0000e+00 1.0000e+00
       11 -1    0    0    0    0 -0.0000000000e+00 -0.0000000000e+00 -1.2500000000e+02 1.2500000000e+02 0.0000000000e+00 0.0000e+00 -1.0000e+00
       23  1    1    2    0    0 +5.2748821995e+01 -3.2061482699e+01 -7.6306706726e+00 1.1038050269e+02 9.1188000000e+01 0.0000e+00 -1.0000e+00
       25  1    1    2    0    0 -5.2748821995e+01 +3.2061482699e+01 +7.6306706726e+00 1.3961949731e+02 1.2500000000e+02 0.0000e+00 0.0000e+00
</event>
<event>
 4      1 +2.4014000e-01 2.50000000e+02 7.54677100e-03 1.02464900e-01
      -11 -1    0    0    0    0 +0.0000000000e+00 +0.0000000000e+00 +1.2500000000e+02 1.2500000000e+02 0.0000000000e+00 0.0000e+00 -1.0000e+00
       11 -1    0    0    0    0 -0.0000000000e+00 -0.0000000000e+00 -1.2500000000e+02 1.2500000000e+02 0.0000000000e+00 0.0000e+00 1.0000e+00
       23  1    1    2    0    0 -2.9812093701e+01 -4.9736464649e+01 +2.2497270568e+01 1.1038050269e+02 9.1188000000e+01 0.0000e+00 0.0000e+00
       25  1    1    2    0    0 +2.9812093701e+01 +4.9736464649e+01 -2.2497270568e+01 1.3961949731e+02 1.2500000000e+02 0.0000e+00 0.0000e+00
</event>
<event>
 4      1 +2.4014000e-01 2.50000000e+02 7.54677100e-03 1.02464900e-01
      -11 -1    0    0    0    0 +0.0000000000e+00 +0.0000000000e+00 +1.2500000000e+02 1.2500000000e+02 0.0000000000e+00 0.0000e+00 -1.0000e+00
       11 -1    0    0    0    0 -0.0000000000e+00 -0.0000000000e+00 -1.2500000000e+02 1.2500000000e+02 0.0000000000e+00 0.0000e+00 1.0000e+00
       23  1    1    2    0    0 +1.3864787026e+01 +2.6021956006e+01 +5.4765221775e+01 1.1038050269e+02 9.1188000000e+01 0.0000e+00 -1.0000e+00
       25  1    1    2    0    0 -1.3864787026e+01 -2.6021956006e+01 -5.4765221775e+01 1.3961949731e+02 1.2500000000e+02 0.0000e+00 0.0000e+00
</event>
<event>
 4      1 +2.4014000e-01 2.50000000e+02 7.54677100e-03 1.02464900e-01
      -11 -1    0    0    0    0 +0.0000000000e+00 +0.0000000000e+00 +1.2500000000e+02 1.2500000000e+02 0.0000000000e+00 0.0000e+00 1.0000e+00
       11 -1    0    0    0    0 -0.0000000000e+00 -0.0000000000e+00 -1.2500000000e+02 1.2500000000e+02 0.0000000000e+00 0.0000e+00 -1.0000e+00
       23  1    1    2    0    0 +4.8398117180e+01 +3.2332317367e-02 +3.9066932791e+01 1.1038050269e+02 9.1188000000e+01 0.0000e+00 0.0000e+00
       25  1    1    2    0    0 -4.8398117180e+01 -3.2332317367e-02 -3.9066932791e+01 1.3961949731e+02 1.2500000000e+02 0.0000e+00 0.0000e+00
</event>
<event>
 4      1 +2.4014000e-01 2.50000000e+02 7.54677100e-03 1.02464900e-01
      -11 -1    0    0    0    0 +0.0000000000e+00 +0.0000000000e+00 +1.2500000000e+02 1.2500000000e+02 0.0000000000e+00 0.0000e+00 1.0000e+00
       11 -1    0    0    0    0 -0.0000000000e+00 -0.0000000000e+00 -1.2500000000e+02 1.2500000000e+02 0.0000000000e+00 0.0000e+00 -1.0000e+00
       23  1    1    2    0    0 -2.3023097406e+01 -3.8435985801e+01 -4.3141812792e+01 1.1038050269e+02 9.1188000000e+01 0.0000e+00 0.0000e+00
       25  1    1    2    0    0 +2.3023097406e+01 +3.8435985801e+01 +4.3141812792e+01 1.3961949731e+02 1.2500000000e+02 0.0000e+00 0.0000e+00
</event>
<event>
 4      1 +2.4014000e-01 2.50000000e+02 7.54677100e-03 1.02464900e-01
      -11 -1    0    0    0    0 +0.0000000000e+00 +0.0000000000e+00 +1.2500000000e+02 1.2500000000e+02 0.0000000000e+00 0.0000e+00 1.0000e+00
       11 -1    0    0    0    0 -0.0000000000e+00 -0.0000000000e+00 -1.2500000000e+02 1.2500000000e+02 0.0000000000e+00 0.0000e+00 -1.0000e+00
       23  1    1    2    0    0 -3.8955472385e+01 +4.8414193243e+01 +2.6722824603e+00 1.1038050269e+02 9.1188000000e+01 0.0000e+00 1.0000e+00
       25  1    1    2    0    0 +3.8955472385e+01 -4.8414193243e+01 -2.6722824603e+00 1.3961949731e+02 1.2500000000e+02 0.0000e+00 0.0000e+00
</event>
<event>
 4      1 +2.4014000e-01 2.50000000e+02 7.54677100e-03 1.02464900e-01
      -11 -1    0    0    0    0 +0.0000000000e+00 +0.0000000000e+00 +1.2500000000e+02 1.2500000000e+02 0.0000000000e+00 0.0000e+00 -1.0000e+00
       11 -1    0    0    0    0 -0.0000000000e+00 -0.0000000000e+00 -1.2500000000e+02 1.2500000000e+02 0.0000000000e+00 0.0000e+00 1.0000e+00
       23  1    1    2    0    0 -4.9582059566e+01 +3.1791681105e+01 -1.9987806568e+01 1.1038050269e+02 9.1188000000e+01 0.0000e+00 0.0000e+00
       25  1    1    2    0    0 +4.9582059566e+01 -3.1791681105e+01 +1.9987806568e+01 1.3961949731e+02 1.2500000000e+02 0.0000e+00 0.0000e+00
</event>
<event>
 4      1 +2.4014000e-01 2.50000000e+02 7.54677100e-03 1.02464900e-01
      -11 -1    0    0    0    0 +0.0000000000e+00 +0.0000000000e+00 +1.2500000000e+02 1.2500000000e+02 0.0000000000e+00 0.0000e+00 1.0000e+00
       11 -1    0    0    0    0 -0.0000000000e+00 -0.0000000000e+00 -1.2500000000e+02 1.2500000000e+02 0.0000000000e+00 0.0000e+00 -1.0000e+00
       23  1    1    2    0    0 +5.0507075232e+01 -3.0959006638e+00 +3.6167039971e+01 1.1038050269e+02 9.1188000000e+01 0.0000e+00 1.0000e+00
       25  1    1    2    0    0 -5.0507075232e+01 +3.0959006638e+00 -3.6167039971e+01 1.3961949731e+02 1.2500000000e+02 0.0000e+00 0.0000e+00
</event>
<event>
 4      1 +2.4014000e-01 2.50000000e+02 7.54677100e-03 1.02464900e-01
      -11 -1    0    0    0    0 +0.0000000000e+00 +0.0000000000e+00 +1.2500000000e+02 1.2500000000e+02 0.0000000000e+00 0.0000e+00 -1.0000e+00
       11 -1    0    0    0    0 -0.0000000000e+00 -0.0000000000e+00 -1.2500000000e+02 1.2500000000e+02 0.0000000000e+00 0.0000e+00 1.0000e+00
       23  1    1    2    0    0 -5.4741458448e+01 -7.3928919870e+00 -2.8588842311e+01 1.1038050269e+02 9.1188000000e+01 0.0000e+00 0.0000e+00
       25  1    1    2    0    0 +5.4741458448e+01 +7.3928919870e+00 +2.8588842311e+01 1.3961949731e+02 1.2500000000e+02 0.0000e+00 0.0000e+00
</event>
<event>
 4      1 +2.4014000e-01 2.50000000e+02 7.54677100e-03 1.02464900e-01
      -11 -1    0    0    0    0 +0.0000000000e+00 +0.0000000000e+00 +1.2500000000e+02 1.2500000000e+02 0.0000000000e+00 0.0000e+00 1.0000e+00
       11 -1    0    0    0    0 -0.0000000000e+00 -0.0000000000e+00 -1.2500000000e+02 1.2500000000e+02 0.0000000000e+00 0.0000e+00 -1.0000e+00
       23  1    1    2    0    0 +5.9991933664e+01 -6.1526146754e+00 +1.5222261906e+01 1.1038050269e+02 9.1188000000e+01 0.0000e+00 1.0000e+00
       25  1    1    2    0    0 -5.9991933664e+01 +6.1526146754e+00 -1.5222261906e+01 1.3961949731e+02 1.2500000000e+02 0.0000e+00 0.0000e+00
</event>
<event>
 4      1 +2.4014000e-01 2.50000000e+02 7.54677100e-03 1.02464900e-01
      -11 -1    0    0    0    0 +0.0000000000e+00 +0.0000000000e+00 +1.2500000000e+02 1.2500000000e+02 0.0000000000e+00 0.0000e+00 1.0000e+00
       11 -1    0    0    0    0 -0.0000000000e+00 -0.0000000000e+00 -1.2500000000e+02 1.2500000000e+02 0.0000000000e+00 0.0000e+00 -1.0000e+00
       23  1    1    2    0    0 -2.8036152536e+01 +5.1534750132e+01 -2.0657872820e+01 1.1038050269e+02 9.1188000000e+01 0.0000e+00 -1.0000e+00
       25  1    1    2    0    0 +2.8036152536e+01 -5.1534750132e+01 +2.0657872820e+01 1.3961949731e+02 1.2500000000e+02 0.0000e+00 0.0000e+00
</event>
<event>
 4      1 +2.4014000e-01 2.50000000e+02 7.54677100e-03 1.02464900e-01
      -11 -1    0    0    0    0 +0.0000000000e+00 +0.0000000000e+00 +1.2500000000e+02 1.2500000000e+02 0.0000000000e+00 0.0000e+00 1.0000e+00
       11 -1    0    0    0    0 -0.0000000000e+00 -0.0000000000e+00 -1.2500000000e+02 1.2500000000e+02 0.0000000000e+00 0.0000e+00 -1.0000e+00
       23  1    1    2    0    0 +8.1048300791e+00 -2.3098106202e+01 +5.7178608316e+01 1.1038050269e+02 9.1188000000e+01 0.0000e+00 1.0000e+00
       25  1    1    2    0    0 -8.1048300791e+00 +2.3098106202e+01 -5.7178608316e+01 1.3961949731e+02 1.2500000000e+02 0.0000e+00 0.0000e+00
</event>
<event>
 4      1 +2.4014000e-01 2.50000000e+02 7.54677100e-03 1.02464900e-01
      -11 -1    0    0    0    0 +0.0000000000e+00 +0.0000000000e+00 +1.2500000000e+02 1.2500000000e+02 0.0000000000e+00 0.0000e+00 -1.0000e+00
       11 -1    0    0    0    0 -0.0000000000e+00 -0.0000000000e+00 -1.2500000000e+02 1.2500000000e+02 0.0000000000e+00 0.0000e+00 1.0000e+00
       23  1    1    2    0    0 -1.1289239033e+00 -4.9399720016e+01 -3.7775616776e+01 1.1038050269e+02 9.1188000000e+01 0.0000e+00 1.0000e+00
       25  1    1    2    0    0 +1.1289239033e+00 +4.9399720016e+01 +3.7775616776e+01 1.3961949731e+02 1.2500000000e+02 0.0000e+00 0.0000e+00
</event>
<event>
 4      1 +2.4014000e-01 2.50000000e+02 7.54677100e-03 1.02464900e-01
      -11 -1    0    0    0    0 +0.0000000000e+00 +0.0000000000e+00 +1.2500000000e+02 1.2500000000e+02 0.0000000000e+00 0.0000e+00 1.0000e+00
       11 -1    0    0    0    0 -0.0000000000e+00 -0.0000000000e+00 -1.2500000000e+02 1.2500000000e+02 0.0000000000e+00 0.0000e+00 -1.0000e+00
       23  1    1    2    0    0 -3.1620265013e+01 +5.3388707747e+01 -4.2905425413e+00 1.1038050269e+02 9.1188000000e+01 0.0000e+00 -1.0000e+00
       25  1    1    2    0    0 +3.1620265013e+01 -5.3388707747e+01 +4.2905425413e+00 1.3961949731e+02 1.2500000000e+02 0.0000e+00 0.0000e+00
</event>
<event>
 4      1 +2.4014000e-01 2.50000000e+02 7.54677100e-03 1.02464900e-01
      -11 -1    0    0    0    0 +0.0000000000e+00 +0.0000000000e+00 +1.2500000000e+02 1.2500000000e+02 0.0000000000e+00 0.0000e+00 -1.0000e+00
       11 -1    0    0    0    0 -0.0000000000e+00 -0.0000000000e+00 -1.2500000000e+02 1.2500000000e+02 0.0000000000e+00 0.0000e+00 1.0000e+00
       23  1    1    2    0    0 -3.1517665436e-01 -6.2108703379e+01 -3.3186831596e+00 1.1038050269e+02 9.1188000000e+01 0.0000e+00 0.0000e+00
       25  1    1    2    0    0 +3.1517665436e-01 +6.2108703379e+01 +3.3186831596e+00 1.3961949731e+02 1.2500000000e+02 0.0000e+00 0.0000e+00
</event>
<event>
 4      1 +2.4014000e-01 2.50000000e+02 7.54677100e-03 1.02464900e-01
      -11 -1    0    0    0    0 +0.0000000000e+00 +0.0000000000e+00 +1.2500000000e+02 1.2500000000e+02 0.0000000000e+00 0.0000e+00 -1.0000e+00
       11 -1    0    0    0    0 -0.0000000000e+00 -0.0000000000e+00 -1.2500000000e+02 1.2500000000e+02 0.0000000000e+00 0.0000e+00 1.0000e+00
       23  1    1    2    0    0 +2.5443982848e+01 +5.4825690307e+01 -1.4674857711e+01 1.1038050269e+02 9.1188000000e+01 0.0000e+00 0.0000e+00
       25  1    1    2    0    0 -2.5443982848e+01 -5.4825690307e+01 +1.4674857711e+01 1.3961949731e+02 1.2500000000e+02 0.0000e+00 0.0000e+00
</event>
<event>
 4      1 +2.4014000e-01 2.50000000e+02 7.54677100e-03 1.02464900e-01
      -11 -1    0    0    0    0 +0.0000000000e+00 +0.0000000000e+00 +1.2500000000e+02 1.2500000000e+02 0.0000000000e+00 0.0000e+00 1.0000e+00
       11 -1    0    0    0    0 -0.0000000000e+00 -0.0000000000e+00 -1.2500000000e+02 1.2500000000e+02 0.0000000000e+00 0.0000e+00 -1.0000e+00
       23  1    1    2    0    0 -4.5184495757e+01 +7.8017420172e+00 +4.2024971080e+01 1.1038050269e+02 9.1188000000e+01 0.0000e+00 1.0000e+00
       25  1    1    2    0    0 +4.5184495757e+01 -7.8017420172e+00 -4.2024971080e+01 1.3961949731e+02 1.2500000000e+02 0.0000e+00 0.0000e+00
</event>
<event>
 4      1 +2.4014000e-01 2.50000000e+02 7.54677100e-03 1.02464900e-01
      -11 -1    0    0    0    0 +0.0000000000e+00 +0.0000000000e+00 +1.2500000000e+02 1.2500000000e+02 0.0000000000e+00 0.0000e+00 -1.0000e+00
       11 -1    0    0    0    0 -0.0000000000e+00 -0.0000000000e+00 -1.2500000000e+02 1.2500000000e+02 0.0000000000e+00 0.0000e+00 1.0000e+00
       23  1    1    2    0    0 +1.6896766077e+01 +5.8617705291e+01 -1.2127157630e+01 1.1038050269e+02 9.1188000000e+01 0.0000e+00 0.0000e+00
       25  1    1    2    0    0 -1.6896766077e+01 -5.8617705291e+01 +1.2127157630e+01 1.3961949731e+02 1.2500000000e+02 0.0000e+00 0.0000e+00
</event>
<event>
 4      1 +2.4014000e-01 2.50000000e+02 7.54677100e-03 1.02464900e-01
      -11 -1    0    0    0    0 +0.0000000000e+00 +0.0000000000e+00 +1.2500000000e+02 1.2500000000e+02 0.0000000000e+00 0.0000e+00 -1.0000e+00
       11 -1    0    0    0    0 -0.0000000000e+00 -0.0000000000e+00 -1.2500000000e+02 1.2500000000e+02 0.0000000000e+00 0.0000e+00 1.0000e+00
       23  1    1    2    0    0 +4.4762097016e+01 -3.3046083631e+01 +2.7801349913e+01 1.1038050269e+02 9.1188000000e+01 0.0000e+00 -1.0000e+00
       25  1    1    2    0    0 -4.4762097016e+01 +3.3046083631e+01 -2.7801349913e+01 1.3961949731e+02 1.2500000000e+02 0.0000e+00 0.0000e+00
</event>
<event>
 4      1 +2.4014000e-01 2.50000000e+02 7.54677100e-03 1.02464900e-01
      -11 -1    0    0    0    0 +0.0000000000e+00 +0.0000000000e+00 +1.2500000000e+02 1.2500000000e+02 0.0000000000e+00 0.0000e+00 1.0000e+00
       11 -1    0    0    0    0 -0.0000000000e+00 -0.0000000000e+00 -1.2500000000e+02 1.2500000000e+02 0.0000000000e+00 0.0000e+00 -1.0000e+00
       23  1    1    2    0    0 +6.9221957225e+00 -2.7123036367e+01 +5.5543029574e+01 1.1038050269e+02 9.1188000000e+01 0.0000e+00 1.0000e+00
       25  1    1    2    0    0 -6.9221957225e+00 +2.7123036367e+01 -5.5543029574e+01 1.3961949731e+02 1.2500000000e+02 0.0000e+00 0.0000e+00
</event>
<event>
 4      1 +2.4014000e-01 2.50000000e+02 7.54677100e-03 1.02464900e-01
      -11 -1    0    0    0    0 +0.0000000000e+00 +0.0000000000e+00 +1.2500000000e+02 1.2500000000e+02 0.0000000000e+00 0.0000e+00 1.0000e+00
       11 -1    0    0    0    0 -0.0000000000e+00 -0.0000000000e+00 -1.2500000000e+02 1.2500000000e+02 0.0000000000e+00 0.0000e+00 -1.0000e+00
       23  1    1    2    0    0 -5.2544996876e+01 +3.0568488488e+01 +1.3160351231e+01 1.1038050269e+02 9.1188000000e+01 0.0000e+00 0.0000e+00
       25  1    1    2    0    0 +5.2544996876e+01 -3.0568488488e+01 -1.3160351231e+01 1.3961949731e+02 1.2500000000e+02 0.0000e+00 0.0000e+00
</event>
<event>
 4      1 +2.4014000e-01 2.50000000e+02 7.54677100e-03 1.02464900e-01
      -11 -1    0    0    0    0 +0.0000000000e+00 +0.0000000000e+00 +1.2500000000e+02 1.2500000000e+02 0.0000000000e+00 0.0000e+00 1.0000e+00
       11 -1    0    0    0    0 -0.0000000000e+00 -0.0000000000e+00 -1.2500000000e+02 1.2500000000e+02 0.0000000000e+00 0.0000e+00 -1.0000e+00
       23  1    1    2    0    0 +4.5183537871e+01 +3.1772858044e+01 +2.8592611403e+01 1.1038050269e+02 9.1188000000e+01 0.0000e+00 0.0000e+00
       25  1    1    2    0    0 -4.5183537871e+01 -3.1772858044e+01 -2.8592611403e+01 1.3961949731e+02 1.2500000000e+02 0.0000e+00 0.0000e+00
</event>
<event>
 4      1 +2.4014000e-01 2.50000000e+02 7.54677100e-03 1.02464900e-01
      -11 -1    0    0    0    0 +0.0000000000e+00 +0.0000000000e+00 +1.2500000000e+02 1.2500000000e+02 0.0000000000e+00 0.0000e+00 -1.0000e+00
       11 -1    0    0    0    0 -0.0000000000e+00 -0.0000000000e+00 -1.2500000000e+02 1.2500000000e+02 0.0000000000e+00 0.0000e+00 1.0000e+00
       23  1    1    2    0    0 -5.4200529022e+01 -1.9435621211e+01 -2.3519424132e+01 1.1038050269e+02 9.1188000000e+01 0.0000e+00 1.0000e+00
       25  1    1    2    0    0 +5.4200529022e+01 +1.9435621211e+01 +2.3519424132e+01 1.3961949731e+02 1.2500000000e+02 0.0000e+00 0.0000e+00
</event>
<event>
 4      1 +2.4014000e-01 2.50000000e+02 7.54677100e-03 1.02464900e-01
      -11 -1    0    0    0    0 +0.0000000000e+00 +0.0000000000e+00 +1.2500000000e+02 1.2500000000e+02 0.0000000000e+00 0.0000e+00 -1.0000e+00
       11 -1    0    0    0    0 -0.0000000000e+00 -0.0000000000e+00 -1.2500000000e+02 1.2500000000e+02 0.0000000000e+00 0.0000e+00 1.0000e+00
       23  1    1    2    0    0 -2.3840403694e+01 +5.7446472973e+01 -3.7672840899e-01 1.1038050269e+02 9.1188000000e+01 0.0000e+00 1.0000e+00
       25  1    1    2    0    0 +2.3840403694e+01 -5.7446472973e+01 +3.7672840899e-01 1.3961949731e+02 1.2500000000e+02 0.0000e+00 0.0000e+00
</event>
<event>
 4      1 +2.4014000e-01 2.50000000e+02 7.54677100e-03 1.02464900e-01
      -11 -1    0    0    0    0 +0.0000000000e+00 +0.0000000000e+00 +1.2500000000e+02 1.2500000000e+02 0.0000000000e+00 0.0000e+00 1.0000e+00
       11 -1    0    0    0    0 -0.0000000000e+00 -0.0000000000e+00 -1.2500000000e+02 1.2500000000e+02 0.0000000000e+00 0.0000e+00 -1.0000e+00
       23  1    1    2    0    0 +4.9275834322e+01 -3.7385075391e+01 +6.5461683048e+00 1.1038050269e+02 9.1188000000e+01 0.0000e+00 0.0000e+00
       25  1    1    2    0    0 -4.9275834322e+01 +3.7385075391e+01 -6.5461683048e+00 1.3961949731e+02 1.2500000000e+02 0.0000e+00 0.0000e+00
</event>
<event>
 4      1 +2.4014000e-01 2.50000000e+02 7.54677100e-03 1.02464900e-01
      -11 -1    0    0    0    0 +0.0000000000e+00 +0.0000000000e+00 +1.2500000000e+02 1.2500000000e+02 0.0000000000e+00 0.0000e+00 -1.0000e+00
       11 -1    0    0    0    0 -0.0000000000e+00 -0.0000000000e+00 -1.2500000000e+02 1.2500000000e+02 0.0000000000e+00 0.0000e+00 1.0000e+00
       23  1    1    2    0    0 +2.8836631972e+01 -4.9285232781e+01 -2.4658031469e+01 1.1038050269e+02 9.1188000000e+01 0.0000e+00 1.0000e+00
       25  1    1    2    0    0 -2.8836631972e+01 +4.9285232781e+01 +2.4658031469e+01 1.3961949731e+02 1.2500000000e+02 0.0000e+00 0.0000e+00
</event>
<event>
 4      1 +2.4014000e-01 2.50000000e+02 7.54677100e-03 1.02464900e-01
      -11 -1    0    0    0    0 +0.0000000000e+00 +0.0000000000e+00 +1.2500000000e+02 1.2500000000e+02 0.0000000000e+00 0.0000e+00 -1.0000e+00
       11 -1    0    0    0    0 -0.0000000000e+00 -0.0000000000e+00 -1.2500000000e+02 1.2500000000e+02 0.0000000000e+00 0.0000e+00 1.0000e+00
       23  1    1    2    0    0 +1.6269747292e+01 -4.9887435511e+01 +3.3393758861e+01 1.1038050269e+02 9.1188000000e+01 0.0000e+00 -1.0000e+00
       25  1    1    2    0    0 -1.6269747292e+01 +4.9887435511e+01 -3.3393758861e+01 1.3961949731e+02 1.2500000000e+02 0.0000e+00 0.0000e+00
</event>
<event>
 4      1 +2.4014000e-01 2.50000000e+02 7.54677100e-03 1.02464900e-01
      -11 -1    0    0    0    0 +0.0000000000e+00 +0.0000000000e+00 +1.2500000000e+02 1.2500000000e+02 0.0000000000e+00 0.0000e+00 1.0000e+00
       11 -1    0    0    0    0 -0.0000000000e+00 -0.0000000000e+00 -1.2500000000e+02 1.2500000000e+02 0.0000000000e+00 0.0000e+00 -1.0000e+00
       23  1    1    2    0    0 -3.6046377091e+00 -7.2434039781e+00 -6.1669633658e+01 1.1038050269e+02 9.1188000000e+01 0.0000e+00 -1.0000e+00
       25  1    1    2    0    0 +3.6046377091e+00 +7.2434039781e+00 +6.1669633658e+01 1.3961949731e+02 1.2500000000e+02 0.0000e+00 0.0000e+00
</event>
<event>
 4      1 +2.4014000e-01 2.50000000e+02 7.54677100e-03 1.02464900e-01
      -11 -1    0    0    0    0 +0.0000000000e+00 +0.0000000000e+00 +1.2500000000e+02 1.2500000000e+02 0.0000000000e+00 0.0000e+00 -1.0000e+00
       11 -1    0    0    0    0 -0.0000000000e+00 -0.0000000000e+00 -1.2500000000e+02 1.2500000000e+02 0.0000000000e+00 0.0000e+00 1.0000e+00
       23  1    1    2    0    0 -5.3813988375e+01 +2.6847837959e+01 -1.5869854496e+01 1.1038050269e+02 9.1188000000e+01 0.0000e+00 0.0000e+00
       25  1    1    2    0    0 +5.3813988375e+01 -2.6847837959e+01 +1.5869854496e+01 1.3961949731e+02 1.2500000000e+02 0.0000e+00 0.0000e+00
</event>
<event>
 4      1 +2.4014000e-01 2.50000000e+02 7.54677100e-03 1.02464900e-01
      -11 -1    0    0    0    0 +0.0000000000e+00 +0.0000000000e+00 +1.2500000000e+02 1.2500000000e+02 0.0000000000e+00 0.0000e+00 1.0000e+00
       11 -1    0    0    0    0 -0.0000000000e+00 -0.0000000000e+00 -1.2500000000e+02 1.2500000000e+02 0.0000000000e+00 0.0000e+00 -1.0000e+00
       23  1    1    2    0    0 -1.0185294692e+01 -5.1272133823e+01 -3.3705075210e+01 1.1038050269e+02 9.1188000000e+01 0.0000e+00 0.0000e+00
       25  1    1    2    0    0 +1.0185294692e+01 +5.1272133823e+01 +3.3705075210e+01 1.3961949731e+02 1.2500000000e+02 0.0000e+00 0.0000e+00
</event>
<event>
 4      1 +2.4014000e-01 2.50000000e+02 7.54677100e-03 1.02464900e-01
      -11 -1    0    0    0    0 +0.0000000000e+00 +0.0000000000e+00 +1.2500000000e+02 1.2500000000e+02 0.0000000000e+00 0.0000e+00 -1.0000e+00
       11 -1    0    0    0    0 -0.0000000000e+00 -0.0000000000e+00 -1.2500000000e+02 1.2500000000e+02 0.0000000000e+00 0.0000e+00 1.0000e+00
       23  1    1    2    0    0 +5.6140906045e+01 +1.9389619422e+01 +1.8461997637e+01 1.1038050269e+02 9.1188000000e+01 0.0000e+00 0.0000e+00
       25  1    1    2    0    0 -5.6140906045e+01 -1.9389619422e+01 -1.8461997637e+01 1.3961949731e+02 1.2500000000e+02 0.0000e+00 0.0000e+00
</event>
<event>
 4      1 +2.4014000e-01 2.50000000e+02 7.54677100e-03 1.02464900e-01
      -11 -1    0    0    0    0 +0.0000000000e+00 +0.0000000000e+00 +1.2500000000e+02 1.2500000000e+02 0.0000000000e+00 0.0000e+00 1.0000e+00
       11 -1    0    0    0    0 -0.0000000000e+00 -0.0000000000e+00 -1.2500000000e+02 1.2500000000e+02 0.0000000000e+00 0.0000e+00 -1.0000e+00
       23  1    1    2    0    0 -1.2076793575e+01 +5.3078770412e+01 +3.0089852411e+01 1.1038050269e+02 9.1188000000e+01 0.0000e+00 0.0000e+00
       25  1    1    2    0    0 +1.2076793575e+01 -5.3078770412e+01 -3.0089852411e+01 1.3961949731e+02 1.2500000000e+02 0.0000e+00 0.0000e+00
</event>
<event>
 4      1 +2.4014000e-01 2.50000000e+02 7.54677100e-03 1.02464900e-01
      -11 -1    0    0    0    0 +0.0000000000e+00 +0.0000000000e+00 +1.2500000000e+02 1.2500000000e+02 0.0000000000e+00 0.0000e+00 1.0000e+00
       11 -1    0    0    0    0 -0.0000000000e+00 -0.0000000000e+00 -1.2500000000e+02 1.2500000000e+02 0.0000000000e+00 0.0000e+00 -1.0000e+00
       23  1    1    2    0    0 +5.2768084743e+01 +2.1702749833e+01 -2.4761339058e+01 1.1038050269e+02 9.1188000000e+01 0.0000e+00 0.0000e+00
       25  1    1    2    0    0 -5.2768084743e+01 -2.1702749833e+01 +2.4761339058e+01 1.3961949731e+02 1.2500000000e+02 0.0000e+00 0.0000e+00
</event>
<event>
 4      1 +2.4014000e-01 2.50000000e+02 7.54677100e-03 1.02464900e-01
      -11 -1    0    0    0    0 +0.0000000000e+00 +0.0000000000e+00 +1.2500000000e+02 1.2500000000e+02 0.0000000000e+00 0.0000e+00 -1.0000e+00
       11 -1    0    0    0    0 -0.0000000000e+00 -0.0000000000e+00 -1.2500000000e+02 1.2500000000e+02 0.0000000000e+00 0.0000e+00 1.0000e+00
       23  1    1    2    0    0 -5.6338610232e+01 -6.3963934249e+00 +2.5566602785e+01 1.1038050269e+02 9.1188000000e+01 0.0000e+00 -1.0000e+00
       25  1    1    2    0    0 +5.6338610232e+01 +6.3963934249e+00 -2.5566602785e+01 1.3961949731e+02 1.2500000000e+02 0.0000e+00 0.0000e+00
</event>
<event>
 4      1 +2.4014000e-01 2.50000000e+02 7.54677100e-03 1.02464900e-01
      -11 -1    0    0    0    0 +0.0000000000e+00 +0.0000000000e+00 +1.2500000000e+02 1.2500000000e+02 0.0000000000e+00 0.0000e+00 -1.0000e+00
       11 -1    0    0    0    0 -0.0000000000e+00 -0.0000000000e+00 -1.2500000000e+02 1.2500000000e+02 0.0000000000e+00 0.0000e+00 1.0000e+00
       23  1    1    2    0    0 -5.6245072061e+01 -1.9445234041e+01 -1.8082554346e+01 1.1038050269e+02 9.1188000000e+01 0.0000e+00 1.0000e+00
       25  1    1    2    0    0 +5.6245072061e+01 +1.9445234041e+01 +1.8082554346e+01 1.3961949731e+02 1.2500000000e+02 0.0000e+00 0.0000e+00
</event>
<event>
 4      1 +2.4014000e-01 2.50000000e+02 7.54677100e-03 1.02464900e-01
      -11 -1    0    0    0    0 +0.0000000000e+00 +0.0000000000e+00 +1.2500000000e+02 1.2500000000e+02 0.0000000000e+00 0.0000e+00 -1.0000e+00
       11 -1    0    0    0    0 -0.0000000000e+00 -0.0000000000e+00 -1.2500000000e+02 1.2500000000e+02 0.0000000000e+00 0.0000e+00 1.0000e+00
       23  1    1    2    0    0 -5.6594786035e+01 -2.5277324535e+01 +5.1663418061e+00 1.1038050269e+02 9.1188000000e+01 0.0000e+00 -1.0000e+00
       25  1    1    2    0    0 +5.6594786035e+01 +2.5277324535e+01 -5.1663418061e+00 1.3961949731e+02 1.2500000000e+02 0.0000e+00 0.0000e+00
</event>
<event>
 4      1 +2.4014000e-01 2.50000000e+02 7.54677100e-03 1.02464900e-01
      -11 -1    0    0    0    0 +0.0000000000e+00 +0.0000000000e+00 +1.2500000000e+02 1.2500000000e+02 0.0000000000e+00 0.0000e+00 1.0000e+00
       11 -1    0    0    0    0 -0.0000000000e+00 -0.0000000000e+00 -1.2500000000e+02 1.2500000000e+02 0.0000000000e+00 0.0000e+00 -1.0000e+00
       23  1    1    2    0    0 +4.5160842329e+01 +7.8947892521e+00 -4.2033018598e+01 1.1038050269e+02 9.1188000000e+01 0.0000e+00 -1.0000e+00
       25  1    1    2    0    0 -4.5160842329e+01 -7.8947892521e+00 +4.2033018598e+01 1.3961949731e+02 1.2500000000e+02 0.0000e+00 0.0000e+00
</event>
<event>
 4      1 +2.4014000e-01 2.50000000e+02 7.54677100e-03 1.02464900e-01
      -11 -1    0    0    0    0 +0.0000000000e+00 +0.0000000000e+00 +1.2500000000e+02 1.2500000000e+02 0.0000000000e+00 0.0000e+00 1.0000e+00
       11 -1    0    0    0    0 -0.0000000000e+00 -0.0000000000e+00 -1.2500000000e+02 1.2500000000e+02 0.0000000000e+00 0.0000e+00 -1.0000e+00
       23  1    1    2    0    0 -2.0383198860e+01 +5.8726370086e+01 +2.0839122760e+00 1.1038050269e+02 9.1188000000e+01 0.0000e+00 -1.0000e+00
       25  1    1    2    0    0 +2.0383198860e+01 -5.8726370086e+01 -2.0839122760e+00 1.3961949731e+02 1.2500000000e+02 0.0000e+00 0.0000e+00
</event>
<event>
 4      1 +2.4014000e-01 2.50000000e+02 7.54677100e-03 1.02464900e-01
      -11 -1    0    0    0    0 +0.0000000000e+00 +0.0000000000e+00 +1.2500000000e+02 1.2500000000e+02 0.0000000000e+00 0.0000e+00 -1.0000e+00
       11 -1    0    0    0    0 -0.0000000000e+00 -0.0000000000e+00 -1.2500000000e+02 1.2500000000e+02 0.0000000000e+00 0.0000e+00 1.0000e+00
       23  1    1    2    0    0 +2.8284277040e+01 +7.9589215783e+00 +5.4820245068e+01 1.1038050269e+02 9.1188000000e+01 0.0000e+00 -1.0000e+00
       25  1    1    2    0    0 -2.8284277040e+01 -7.9589215783e+00 -5.4820245068e+01 1.3961949731e+02 1.2500000000e+02 0.0000e+00 0.0000e+00
</event>
<event>
 4      1 +2.4014000e-01 2.50000000e+02 7.54677100e-03 1.02464900e-01
      -11 -1    0    0    0    0 +0.0000000000e+00 +0.0000000000e+00 +1.2500000000e+02 1.2500000000e+02 0.0000000000e+00 0.0000e+00 -1.0000e+00
       11 -1    0    0    0    0 -0.0000000000e+00 -0.0000000000e+00 -1.2500000000e+02 1.2500000000e+02 0.0000000000e+00 0.0000e+00 1.0000e+00
       23  1    1    2    0    0 +6.7138056462e+00 +2.7484260844e+01 -5.5390831816e+01 1.1038050269e+02 9.1188000000e+01 0.0000e+00 1.0000e+00
       25  1    1    2    0    0 -6.7138056462e+00 -2.7484260844e+01 +5.5390831816e+01 1.3961949731e+02 1.2500000000e+02 0.0000e+00 0.0000e+00
</event>
<event>
 4      1 +2.4014000e-01 2.50000000e+02 7.54677100e-03 1.02464900e-01
      -11 -1    0    0    0    0 +0.0000000000e+00 +0.0000000000e+00 +1.2500000000e+02 1.2500000000e+02 0.0000000000e+00 0.0000e+00 -1.0000e+00
       11 -1    0    0    0    0 -0.0000000000e+00 -0.0000000000e+00 -1.2500000000e+02 1.2500000000e+02 0.0000000000e+00 0.0000e+00 1.0000e+00
       23  1    1    2    0    0 -5.3717938351e+01 +2.5052163552e+01 +1.8851425155e+01 1.1038050269e+02 9.1188000000e+01 0.0000e+00 -1.0000e+00
       25  1    1    2    0    0 +5.3717938351e+01 -2.5052163552e+01 -1.8851425155e+01 1.3961949731e+02 1.2500000000e+02 0.0000e+00 0.0000e+00
</event>
<event>
 4      1 +2.4014000e-01 2.50000000e+02 7.54677100e-03 1.02464900e-01
      -11 -1    0    0    0    0 +0.0000000000e+00 +0.0000000000e+00 +1.2500000000e+02 1.2500000000e+02 0.0000000000e+00 0.0000e+00 -1.0000e+00
       11 -1    0    0    0    0 -0.0000000000e+00 -0.0000000000e+00 -1.2500000000e+02 1.2500000000e+02 0.0000000000e+00 0.0000e+00 1.0000e+00
       23  1    1    2    0    0 +3.0957895130e+01 -5.1690681889e+01 -1.5436520481e+01 1.1038050269e+02 9.1188000000e+01 0.0000e+00 -1.0000e+00
       25  1    1    2    0    0 -3.0957895130e+01 +5.1690681889e+01 +1.5436520481e+01 1.3961949731e+02 1.2500000000e+02 0.0000e+00 0.0000e+00
</event>
<event>
 4      1 +2.4014000e-01 2.50000000e+02 7.54677100e-03 1.02464900e-01
      -11 -1    0    0    0    0 +0.0000000000e+00 +0.0000000000e+00 +1.2500000000e+02 1.2500000000e+02 0.0000000000e+00 0.0000e+00 1.0000e+00
       11 -1    0    0    0    0 -0.0000000000e+00 -0.0000000000e+00 -1.2500000000e+02 1.2500000000e+02 0.0000000000e+00 0.0000e+00 -1.0000e+00
       23  1    1    2    0    0 +4.4061254996e+01 +2.7844547991e+01 +3.3939519517e+01 1.1038050269e+02 9.1188000000e+01 0.0000e+00 0.0000e+00
       25  1    1    2    0    0 -4.4061254996e+01 -2.7844547991e+01 -3.3939519517e+01 1.3961949731e+02 1.2500000000e+02 0.0000e+00 0.0000e+00
</event>
<event>
 4      1 +2.4014000e-01 2.50000000e+02 7.54677100e-03 1.02464900e-01
      -11 -1    0    0    0    0 +0.0000000000e+00 +0.0000000000e+00 +1.2500000000e+02 1.2500000000e+02 0.0000000000e+00 0.0000e+00 -1.0000e+00
       11 -1    0    0    0    0 -0.0000000000e+00 -0.0000000000e+00 -1.2500000000e+02 1.2500000000e+02 0.0000000000e+00 0.0000e+00 1.0000e+00
       23  1    1    2    0    0 -2.2073549919e+00 +5.4658768374e+01 +2.9599842118e+01 1.1038050269e+02 9.1188000000e+01 0.0000e+00 -1.0000e+00
       25  1    1    2    0    0 +2.2073549919e+00 -5.4658768374e+01 -2.9599842118e+01 1.3961949731e+02 1.2500000000e+02 0.0000e+00 0.0000e+00
</event>
<event>
 4      1 +2.4014000e-01 2.50000000e+02 7.54677100e-03 1.02464900e-01
      -11 -1    0    0    0    0 +0.0000000000e+00 +0.0000000000e+00 +1.2500000000e+02 1.2500000000e+02 0.0000000000e+00 0.0000e+00 -1.0000e+00
       11 -1    0    0    0    0 -0.0000000000e+00 -0.0000000000e+00 -1.2500000000e+02 1.2500000000e+02 0.0000000000e+00 0.0000e+00 1.0000e+00
       23  1    1    2    0    0 -5.4549901146e+01 +2.2378304976e+01 +1.9802115570e+01 1.1038050269e+02 9.1188000000e+01 0.0000e+00 0.0000e+00
       25  1    1    2    0    0 +5.4549901146e+01 -2.2378304976e+01 -1.9802115570e+01 1.3961949731e+02 1.2500000000e+02 0.0000e+00 0.0000e+00
</event>
<event>
 4      1 +2.4014000e-01 2.50000000e+02 7.54677100e-03 1.02464900e-01
      -11 -1    0    0    0    0 +0.0000000000e+00 +0.0000000000e+00 +1.2500000000e+02 1.2500000000e+02 0.0000000000e+00 0.0000e+00 1.0000e+00
       11 -1    0    0    0    0 -0.0000000000e+00 -0.0000000000e+00 -1.2500000000e+02 1.2500000000e+02 0.0000000000e+00 0.0000e+00 -1.0000e+00
       23  1    1    2    0    0 +5.4861898349e+01 +2.2456720162e+01 -1.8827423052e+01 1.1038050269e+02 9.1188000000e+01 0.0000e+00 -1.0000e+00
       25  1    1    2    0    0 -5.4861898349e+01 -2.2456720162e+01 +1.8827423052e+01 1.3961949731e+02 1.2500000000e+02 0.0000e+00 0.0000e+00
</event>
<event>
 4      1 +2.4014000e-01 2.50000000e+02 7.54677100e-03 1.02464900e-01
      -11 -1    0    0    0    0 +0.0000000000e+00 +0.0000000000e+00 +1.2500000000e+02 1.2500000000e+02 0.0000000000e+00 0.0000e+00 1.0000e+00
       11 -1    0    0    0    0 -0.0000000000e+00 -0.0000000000e+00 -1.2500000000e+02 1.2500000000e+02 0.0000000000e+00 0.0000e+00 -1.0000e+00
       23  1    1    2    0    0 -3.9979709121e+01 +9.2345647886e+00 -4.6743445545e+01 1.1038050269e+02 9.1188000000e+01 0.0000e+00 0.0000e+00
       25  1    1    2    0    0 +3.9979709121e+01 -9.2345647886e+00 +4.6743445545e+01 1.3961949731e+02 1.2500000000e+02 0.0000e+00 0.0000e+00
</event>
<event>
 4      1 +2.4014000e-01 2.50000000e+02 7.54677100e-03 1.02464900e-01
      -11 -1    0    0    0    0 +0.0000000000e+00 +0.0000000000e+00 +1.2500000000e+02 1.2500000000e+02 0.0000000000e+00 0.0000e+00 1.0000e+00
       11 -1    0    0    0    0 -0.0000000000e+00 -0.0000000000e+00 -1.2500000000e+02 1.2500000000e+02 0.0000000000e+00 0.0000e+00 -1.0000e+00
       23  1    1    2    0    0 -5.6504262228e+01 +9.4369668244e+00 +2.4224286097e+01 1.1038050269e+02 9.1188000000e+01 0.0000e+00 -1.0000e+00
       25  1    1    2    0    0 +5.6504262228e+01 -9.4369668244e+00 -2.4224286097e+01 1.3961949731e+02 1.2500000000e+02 0.0000e+00 0.0000e+00
</event>
<event>
 4      1 +2.4014000e-01 2.50000000e+02 7.54677100e-03 1.02464900e-01
      -11 -1    0    0    0    0 +0.0000000000e+00 +0.0000000000e+00 +1.2500000000e+02 1.2500000000e+02 0.0000000000e+00 0.0000e+00 -1.0000e+00
       11 -1    0    0    0    0 -0.0000000000e+00 -0.0000000000e+00 -1.2500000000e+02 1.2500000000e+02 0.0000000000e+00 0.0000e+00 1.0000e+00
       23  1    1    2    0    0 +2.1687598143e+01 +4.2112258733e+01 +4.0308929294e+01 1.1038050269e+02 9.1188000000e+01 0.0000e+00 -1.0000e+00
       25  1    1    2    0    0 -2.1687598143e+01 -4.2112258733e+01 -4.0308929294e+01 1.3961949731e+02 1.2500000000e+02 0.0000e+00 0.0000e+00
</event>
<event>
 4      1 +2.4014000e-01 2.50000000e+02 7.54677100e-03 1.02464900e-01
      -11 -1    0    0    0    0 +0.0000000000e+00 +0.0000000000e+00 +1.2500000000e+02 1.2500000000e+02 0.0000000000e+00 0.0000e+00 1.0000e+00
       11 -1    0    0    0    0 -0.0000000000e+00 -0.0000000000e+00 -1.2500000000e+02 1.2500000000e+02 0.0000000000e+00 0.0000e+00 -1.0000e+00
       23  1    1    2    0    0 +6.1661287141e+01 -4.8309137225e+00 +6.5690159326e+00 1.1038050269e+02 9.1188000000e+01 0.0000e+00 0.0000e+00
       25  1    1    2    0    0 -6.1661287141e+01 +4.8309137225e+00 -6.5690159326e+00 1.3961949731e+02 1.2500000000e+02 0.0000e+00 0.0000e+00
</event>
<event>
 4      1 +2.4014000e-01 2.50000000e+02 7.54677100e-03 1.02464900e-01
      -11 -1    0    0    0    0 +0.0000000000e+00 +0.0000000000e+00 +1.2500000000e+02 1.2500000000e+02 0.0000000000e+00 0.0000e+00 -1.0000e+00
       11 -1    0    0    0    0 -0.0000000000e+00 -0.0000000000e+00 -1.2500000000e+02 1.2500000000e+02 0.0000000000e+00 0.0000e+00 1.0000e+00
       23  1    1    2    0    0 +8.9940478515e+00 -2.6188869294e+01 -5.5694292868e+01 1.1038050269e+02 9.1188000000e+01 0.0000e+00 1.0000e+00
       25  1    1    2    0    0 -8.9940478515e+00 +2.6188869294e+01 +5.5694292868e+01 1.3961949731e+02 1.2500000000e+02 0.0000e+00 0.0000e+00
</event>
<event>
 4      1 +2.4014000e-01 2.50000000e+02 7.54677100e-03 1.02464900e-01
      -11 -1    0    0    0    0 +0.0000000000e+00 +0.0000000000e+00 +1.2500000000e+02 1.2500000000e+02 0.0000000000e+00 0.0000e+00 -1.0000e+00
       11 -1    0    0    0    0 -0.0000000000e+00 -0.0000000000e+00 -1.2500000000e+02 1.2500000000e+02 0.0000000000e+00 0.0000e+00 1.0000e+00
       23  1    1    2    0    0 -9.2520232318e+00 -6.1435517504e+01 +2.9464020046e+00 1.1038050269e+02 9.1188000000e+01 0.0000e+00 1.0000e+00
       25  1    1    2    0    0 +9.2520232318e+00 +6.1435517504e+01 -2.9464020046e+00 1.3961949731e+02 1.2500000000e+02 0.0000e+00 0.0000e+00
</event>
<event>
 4      1 +2.4014000e-01 2.50000000e+02 7.54677100e-03 1.02464900e-01
      -11 -1    0    0    0    0 +0.0000000000e+00 +0.0000000000e+00 +1.2500000000e+02 1.2500000000e+02 0.0000000000e+00 0.0000e+00 -1.0000e+00
       11 -1    0    0    0    0 -0.0000000000e+00 -0.0000000000e+00 -1.2500000000e+02 1.2500000000e+02 0.0000000000e+00 0.0000e+00 1.0000e+00
       23  1    1    2    0    0 -2.7418171812e+00 -5.4689368634e+01 +2.9498464819e+01 1.1038050269e+02 9.1188000000e+01 0.0000e+00 -1.0000e+00
       25  1    1    2    0    0 +2.7418171812e+00 +5.4689368634e+01 -2.9498464819e+01 1.3961949731e+02 1.2500000000e+02 0.0000e+00 0.0000e+00
</event>
<event>
 4      1 +2.4014000e-01 2.50000000e+02 7.54677100e-03 1.02464900e-01
      -11 -1    0    0    0    0 +0.0000000000e+00 +0.0000000000e+00 +1.2500000000e+02 1.2500000000e+02 0.0000000000e+00 0.0000e+00 -1.0000e+00
       11 -1    0    0    0    0 -0.0000000000e+00 -0.0000000000e+00 -1.2500000000e+02 1.2500000000e+02 0.0000000000e+00 0.0000e+00 1.0000e+00
       23  1    1    2    0    0 +9.0124207844e+00 -2.4261542018e+00 +6.1493853978e+01 1.1038050269e+02 9.1188000000e+01 0.0000e+00 -1.0000e+00
       25  1    1    2    0    0 -9.0124207844e+00 +2.4261542018e+00 -6.1493853978e+01 1.3961949731e+02 1.2500000000e+02 0.0000e+00 0.0000e+00
</event>
<event>
 4      1 +2.4014000e-01 2.50000000e+02 7.54677100e-03 1.02464900e-01
      -11 -1    0    0    0    0 +0.0000000000e+00 +0.0000000000e+00 +1.2500000000e+02 1.2500000000e+02 0.0000000000e+00 0.0000e+00 -1.0000e+00
       11 -1    0    0    0    0 -0.0000000000e+00 -0.0000000000e+00 -1.2500000000e+02 1.2500000000e+02 0.0000000000e+00 0.0000e+00 1.0000e+00
       23  1    1    2    0    0 -1.4622906779e+01 +2.4101956822e+01 +5.5442495474e+01 1.1038050269e+02 9.1188000000e+01 0.0000e+00 -1.0000e+00
       25  1    1    2    0    0 +1.4622906779e+01 -2.4101956822e+01 -5.5442495474e+01 1.3961949731e+02 1.2500000000e+02 0.0000e+00 0.0000e+00
</event>
<event>
 4      1 +2.4014000e-01 2.50000000e+02 7.54677100e-03 1.02464900e-01
      -11 -1    0    0    0    0 +0.0000000000e+00 +0.0000000000e+00 +1.2500000000e+02 1.2500000000e+02 0.0000000000e+00 0.0000e+00 1.0000e+00
       11 -1    0    0    0    0 -0.0000000000e+00 -0.0000000000e+00 -1.2500000000e+02 1.2500000000e+02 0.0000000000e+00 0.0000e+00 -1.0000e+00
       23  1    1    2    0    0 +1.5796689251e+01 +5.4164160746e+01 -2.6178470717e+01 1.1038050269e+02 9.1188000000e+01 0.0000e+00 -1.0000e+00
       25  1    1    2    0    0 -1.5796689251e+01 -5.4164160746e+01 +2.6178470717e+01 1.3961949731e+02 1.2500000000e+02 0.0000e+00 0.0000e+00
</event>
<event>
 4      1 +2.4014000e-01 2.50000000e+02 7.54677100e-03 1.02464900e-01
      -11 -1    0    0    0    0 +0.0000000000e+00 +0.0000000000e+00 +1.2500000000e+02 1.2500000000e+02 0.0000000000e+00 0.0000e+00 1.0000e+00
       11 -1    0    0    0    0 -0.0000000000e+00 -0.0000000000e+00 -1.2500000000e+02 1.2500000000e+02 0.0000000000e+00 0.0000e+00 -1.0000e+00
       23  1    1    2    0    0 -2.7826100699e+01 -1.3437951767e+01 -5.3979010753e+01 1.1038050269e+02 9.1188000000e+01 0.0000e+00 0.0000e+00
       25  1    1    2    0    0 +2.7826100699e+01 +1.3437951767e+01 +5.3979010753e+01 1.3961949731e+02 1.2500000000e+02 0.0000e+00 0.0000e+00
</event>
<event>
 4      1 +2.4014000e-01 2.50000000e+02 7.54677100e-03 1.02464900e-01
      -11 -1    0    0    0    0 +0.0000000000e+00 +0.0000000000e+00 +1.2500000000e+02 1.2500000000e+02 0.0000000000e+00 0.0000e+00 -1.0000e+00
       11 -1    0    0    0    0 -0.0000000000e+00 -0.0000000000e+00 -1.2500000000e+02 1.2500000000e+02 0.0000000000e+00 0.0000e+00 1.0000e+00
       23  1    1    2    0    0 +5.4228746425e+01 +2.6017734364e+01 -1.5840599403e+01 1.1038050269e+02 9.1188000000e+01 0.0000e+00 -1.0000e+00
       25  1    1    2    0    0 -5.4228746425e+01 -2.6017734364e+01 +1.5840599403e+01 1.3961949731e+02 1.2500000000e+02 0.0000e+00 0.0000e+00
</event>
<event>
 4      1 +2.4014000e-01 2.50000000e+02 7.54677100e-03 1.02464900e-01
      -11 -1    0    0    0    0 +0.0000000000e+00 +0.0000000000e+00 +1.2500000000e+02 1.2500000000e+02 0.0000000000e+00 0.0000e+00 1.0000e+00
       11 -1    0    0    0    0 -0.0000000000e+00 -0.0000000000e+00 -1.2500000000e+02 1.2500000000e+02 0.0000000000e+00 0.0000e+00 -1.0000e+00
       23  1    1    2    0    0 +2.1304227510e+01 +5.7260313131e+01 -1.1661494757e+01 1.1038050269e+02 9.1188000000e+01 0.0000e+00 -1.0000e+00
       25  1    1    2    0    0 -2.1304227510e+01 -5.7260313131e+01 +1.1661494757e+01 1.3961949731e+02 1.2500000000e+02 0.0000e+00 0.0000e+00
</event>
<event>
 4      1 +2.4014000e-01 2.50000000e+02 7.54677100e-03 1.02464900e-01
      -11 -1    0    0    0    0 +0.0000000000e+00 +0.0000000000e+00 +1.2500000000e+02 1.2500000000e+02 0.0000000000e+00 0.0000e+00 1.0000e+00
       11 -1    0    0    0    0 -0.0000000000e+00 -0.0000000000e+00 -1.2500000000e+02 1.2500000000e+02 0.0000000000e+00 0.0000e+00 -1.0000e+00
       23  1    1    2    0    0 +3.5902710106e+01 +4.8896413679e+01 -1.3738273764e+01 1.1038050269e+02 9.1188000000e+01 0.0000e+00 0.0000e+00
       25  1    1    2    0    0 -3.5902710106e+01 -4.8896413679e+01 +1.3738273764e+01 1.3961949731e+02 1.2500000000e+02 0.0000e+00 0.0000e+00
</event>
<event>
 4      1 +2.4014000e-01 2.50000000e+02 7.54677100e-03 1.02464900e-01
      -11 -1    0    0    0    0 +0.0000000000e+00 +0.0000000000e+00 +1.2500000000e+02 1.2500000000e+02 0.0000000000e+00 0.0000e+00 1.0000e+00
       11 -1    0    0    0    0 -0.0000000000e+00 -0.0000000000e+00 -1.2500000000e+02 1.2500000000e+02 0.0000000000e+00 0.0000e+00 -1.0000e+00
       23  1    1    2    0    0 -6.0869392650e+01 +6.6740874744e+00 -1.0907686487e+01 1.1038050269e+02 9.1188000000e+01 0.0000e+00 -1.0000e+00
       25  1    1    2    0    0 +6.0869392650e+01 -6.6740874744e+00 +1.0907686487e+01 1.3961949731e+02 1.2500000000e+02 0.0000e+00 0.0000e+00
</event>
<event>
 4      1 +2.4014000e-01 2.50000000e+02 7.54677100e-03 1.02464900e-01
      -11 -1    0    0    0    0 +0.0000000000e+00 +0.0000000000e+00 +1.2500000000e+02 1.2500000000e+02 0.0000000000e+00 0.0000e+00 1.0000e+00
       11 -1    0    0    0    0 -0.0000000000e+00 -0.0000000000e+00 -1.2500000000e+02 1.2500000000e+02 0.0000000000e+00 0.0000e+00 -1.0000e+00
       23  1    1    2    0    0 +4.8487166613e+01 -3.7219142551e+01 +1.1503657299e+01 1.1038050269e+02 9.1188000000e+01 0.0000e+00 0.0000e+00
       25  1    1    2    0    0 -4.8487166613e+01 +3.7219142551e+01 -1.1503657299e+01 1.3961949731e+02 1.2500000000e+02 0.0000e+00 0.0000e+00
</event>
<event>
 4      1 +2.4014000e-01 2.50000000e+02 7.54677100e-03 1.02464900e-01
      -11 -1    0    0    0    0 +0.0000000000e+00 +0.0000000000e+00 +1.2500000000e+02 1.2500000000e+02 0.0000000000e+00 0.0000e+00 1.0000e+00
       11 -1    0    0    0    0 -0.0000000000e+00 -0.0000000000e+00 -1.2500000000e+02 1.2500000000e+02 0.0000000000e+00 0.0000e+00 -1.0000e+00
       23  1    1    2    0    0 -1.0640579146e+01 +1.4056932883e+01 +5.9647168776e+01 1.1038050269e+02 9.1188000000e+01 0.0000e+00 1.0000e+00
       25  1    1    2    0    0 +1.0640579146e+01 -1.4056932883e+01 -5.9647168776e+01 1.3961949731e+02 1.2500000000e+02 0.0000e+00 0.0000e+00
</event>
<event>
 4      1 +2.4014000e-01 2.50000000e+02 7.54677100e-03 1.02464900e-01
      -11 -1    0    0    0    0 +0.0000000000e+00 +0.0000000000e+00 +1.2500000000e+02 1.2500000000e+02 0.0000000000e+00 0.0000e+00 1.0000e+00
       11 -1    0    0    0    0 -0.0000000000e+00 -0.0000000000e+00 -1.2500000000e+02 1.2500000000e+02 0.0000000000e+00 0.0000e+00 -1.0000e+00
       23  1    1    2    0    0 +2.1986346695e+01 -4.0884267231e+01 -4.1396633699e+01 1.1038050269e+02 9.1188000000e+01 0.0000e+00 -1.0000e+00
       25  1    1    2    0    0 -2.1986346695e+01 +4.0884267231e+01 +4.1396633699e+01 1.3961949731e+02 1.2500000000e+02 0.0000e+00 0.0000e+00
</event>
<event>
 4      1 +2.4014000e-01 2.50000000e+02 7.54677100e-03 1.02464900e-01
      -11 -1    0    0    0    0 +0.0000000000e+00 +0.0000000000e+00 +1.2500000000e+02 1.2500000000e+02 0.0000000000e+00 0.0000e+00 1.0000e+00
       11 -1    0    0    0    0 -0.0000000000e+00 -0.0000000000e+00 -1.2500000000e+02 1.2500000000e+02 0.0000000000e+00 0.0000e+00 -1.0000e+00
       23  1    1    2    0    0 +4.6010512770e-01 -1.0001598903e+01 +6.1386972171e+01 1.1038050269e+02 9.1188000000e+01 0.0000e+00 1.0000e+00
       25  1    1    2    0    0 -4.6010512770e-01 +1.0001598903e+01 -6.1386972171e+01 1.3961949731e+02 1.2500000000e+02 0.0000e+00 0.0000e+00
</event>
<event>
 4      1 +2.4014000e-01 2.50000000e+02 7.54677100e-03 1.02464900e-01
      -11 -1    0    0    0    0 +0.0000000000e+00 +0.0000000000e+00 +1.2500000000e+02 1.2500000000e+02 0.0000000000e+00 0.0000e+00 1.0000e+00
       11 -1    0    0    0    0 -0.0000000000e+00 -0.0000000000e+00 -1.2500000000e+02 1.2500000000e+02 0.0000000000e+00 0.0000e+00 -1.0000e+00
       23  1    1    2    0    0 +5.8053079312e+01 +1.3710738921e+01 -1.7619865218e+01 1.1038050269e+02 9.1188000000e+01 0.0000e+00 0.0000e+00
       25  1    1    2    0    0 -5.8053079312e+01 -1.3710738921e+01 +1.7619865218e+01 1.3961949731e+02 1.2500000000e+02 0.0000e+00 0.0000e+00
</event>
<event>
 4      1 +2.4014000e-01 2.50000000e+02 7.54677100e-03 1.02464900e-01
      -11 -1    0    0    0    0 +0.0000000000e+00 +0.0000000000e+00 +1.2500000000e+02 1.2500000000e+02 0.0000000000e+00 0.0000e+00 1.0000e+00
       11 -1    0    0    0    0 -0.0000000000e+00 -0.0000000000e+00 -1.2500000000e+02 1.2500000000e+02 0.0000000000e+00 0.0000e+00 -1.0000e+00
       23  1    1    2    0    0 +6.1653390679e+01 +4.6694448201e+00 -6.7571985711e+00 1.1038050269e+02 9.1188000000e+01 0.0000e+00 0.0000e+00
       25  1    1    2    0    0 -6.1653390679e+01 -4.6694448201e+00 +6.7571985711e+00 1.3961949731e+02 1.2500000000e+02 0.0000e+00 0.0000e+00
</event>
<event>
 4      1 +2.4014000e-01 2.50000000e+02 7.54677100e-03 1.02464900e-01
      -11 -1    0    0    0    0 +0.0000000000e+00 +0.0000000000e+00 +1.2500000000e+02 1.2500000000e+02 0.0000000000e+00 0.0000e+00 -1.0000e+00
       11 -1    0    0    0    0 -0.0000000000e+00 -0.0000000000e+00 -1.2500000000e+02 1.2500000000e+02 0.0000000000e+00 0.0000e+00 1.0000e+00
       23  1    1    2    0    0 -4.7639276149e+01 +2.3863890246e+01 -3.2087663360e+01 1.1038050269e+02 9.1188000000e+01 0.0000e+00 1.0000e+00
       25  1    1    2    0    0 +4.7639276149e+01 -2.3863890246e+01 +3.2087663360e+01 1.3961949731e+02 1.2500000000e+02 0.0000e+00 0.0000e+00
</event>
<event>
 4      1 +2.4014000e-01 2.50000000e+02 7.54677100e-03 1.02464900e-01
      -11 -1    0    0    0    0 +0.0000000000e+00 +0.0000000000e+00 +1.2500000000e+02 1.2500000000e+02 0.0000000000e+00 0.0000e+00 -1.0000e+00
       11 -1    0    0    0    0 -0.0000000000e+00 -0.0000000000e+00 -1.2500000000e+02 1.2500000000e+02 0.0000000000e+00 0.0000e+00 1.0000e+00
       23  1    1    2    0    0 +3.3160902155e+01 -5.1973187620e+01 +8.2308180960e+00 1.1038050269e+02 9.1188000000e+01 0.0000e+00 1.0000e+00
       25  1    1    2    0    0 -3.3160902155e+01 +5.1973187620e+01 -8.2308180960e+00 1.3961949731e+02 1.2500000000e+02 0.0000e+00 0.0000e+00
</event>
<event>
 4      1 +2.4014000e-01 2.50000000e+02 7.54677100e-03 1.02464900e-01
      -11 -1    0    0    0    0 +0.0000000000e+00 +0.0000000000e+00 +1.2500000000e+02 1.2500000000e+02 0.0000000000e+00 0.0000e+00 1.0000e+00
       11 -1    0    0    0    0 -0.0000000000e+00 -0.0000000000e+00 -1.2500000000e+02 1.2500000000e+02 0.0000000000e+00 0.0000e+00 -1.0000e+00
       23  1    1    2    0    0 -3.9533975901e+01 -1.2389517873e+01 -4.6391471479e+01 1.1038050269e+02 9.1188000000e+01 0.0000e+00 -1.0000e+00
       25  1    1    2    0    0 +3.9533975901e+01 +1.2389517873e+01 +4.6391471479e+01 1.3961949731e+02 1.2500000000e+02 0.0000e+00 0.0000e+00
</event>
<event>
 4      1 +2.4014000e-01 2.50000000e+02 7.54677100e-03 1.02464900e-01
      -11 -1    0    0    0    0 +0.0000000000e+00 +0.0000000000e+00 +1.2500000000e+02 1.2500000000e+02 0.0000000000e+00 0.0000e+00 -1.0000e+00
       11 -1    0    0    0    0 -0.0000000000e+00 -0.0000000000e+00 -1.2500000000e+02 1.2500000000e+02 0.0000000000e+00 0.0000e+00 1.0000e+00
       23  1    1    2    0    0 -5.4682149605e+00 -1.2895461610e+01 -6.0600410268e+01 1.1038050269e+02 9.1188000000e+01 0.0000e+00 1.0000e+00
       25  1    1    2    0    0 +5.4682149605e+00 +1.2895461610e+01 +6.0600410268e+01 1.3961949731e+02 1.2500000000e+02 0.0000e+00 0.0000e+00
</event>
<event>
 4      1 +2.4014000e-01 2.50000000e+02 7.54677100e-03 1.02464900e-01
      -11 -1    0    0    0    0 +0.0000000000e+00 +0.0000000000e+00 +1.2500000000e+02 1.2500000000e+02 0.0000000000e+00 0.0000e+00 1.0000e+00
       11 -1    0    0    0    0 -0.0000000000e+00 -0.0000000000e+00 -1.2500000000e+02 1.2500000000e+02 0.0000000000e+00 0.0000e+00 -1.0000e+00
       23  1    1    2    0    0 +5.6332715430e+01 +2.2342447198e+01 +1.4001580452e+01 1.1038050269e+02 9.1188000000e+01 0.0000e+00 1.0000e+00
       25  1    1    2    0    0 -5.6332715430e+01 -2.2342447198e+01 -1.4001580452e+01 1.3961949731e+02 1.2500000000e+02 0.0000e+00 0.0000e+00
</event>
<event>
 4      1 +2.4014000e-01 2.50000000e+02 7.54677100e-03 1.02464900e-01
      -11 -1    0    0    0    0 +0.0000000000e+00 +0.0000000000e+00 +1.2500000000e+02 1.2500000000e+02 0.0000000000e+00 0.0000e+00 1.0000e+00
       11 -1    0    0    0    0 -0.0000000000e+00 -0.0000000000e+00 -1.2500000000e+02 1.2500000000e+02 0.0000000000e+00 0.0000e+00 -1.0000e+00
       23  1    1    2    0    0 -4.5502435620e+01 -1.5329948335e+01 +3.9536376495e+01 1.1038050269e+02 9.1188000000e+01 0.0000e+00 1.0000e+00
       25  1    1    2    0    0 +4.5502435620e+01 +1.5329948335e+01 -3.9536376495e+01 1.3961949731e+02 1.2500000000e+02 0.0000e+00 0.0000e+00
</event>
<event>
 4      1 +2.4014000e-01 2.50000000e+02 7.54677100e-03 1.02464900e-01
      -11 -1    0    0    0    0 +0.0000000000e+00 +0.0000000000e+00 +1.2500000000e+02 1.2500000000e+02 0.0000000000e+00 0.0000e+00 1.0000e+00
       11 -1    0    0    0    0 -0.0000000000e+00 -0.0000000000e+00 -1.2500000000e+02 1.2500000000e+02 0.0000000000e+00 0.0000e+00 -1.0000e+00
       23  1    1    2    0    0 -2.4588389567e+01 -5.2532699937e+01 -2.2457305391e+01 1.1038050269e+02 9.1188000000e+01 0.0000e+00 0.0000e+00
       25  1    1    2    0    0 +2.4588389567e+01 +5.2532699937e+01 +2.2457305391e+01 1.3961949731e+02 1.2500000000e+02 0.0000e+00 0.0000e+00
</event>
<event>
 4      1 +2.4014000e-01 2.50000000e+02 7.54677100e-03 1.02464900e-01
      -11 -1    0    0    0    0 +0.0000000000e+00 +0.0000000000e+00 +1.2500000000e+02 1.2500000000e+02 0.0000000000e+00 0.0000e+00 -1.0000e+00
       11 -1    0    0    0    0 -0.0000000000e+00 -0.0000000000e+00 -1.2500000000e+02 1.2500000000e+02 0.0000000000e+00 0.0000e+00 1.0000e+00
       23  1    1    2    0    0 +4.9726150338e+01 +3.3662360986e+01 +1.6209856725e+01 1.1038050269e+02 9.1188000000e+01 0.0000e+00 0.0000e+00
       25  1    1    2    0    0 -4.9726150338e+01 -3.3662360986e+01 -1.6209856725e+01 1.3961949731e+02 1.2500000000e+02 0.0000e+00 0.0000e+00
</event>
<event>
 4      1 +2.4014000e-01 2.50000000e+02 7.54677100e-03 1.02464900e-01
      -11 -1    0    0    0    0 +0.0000000000e+00 +0.0000000000e+00 +1.2500000000e+02 1.2500000000e+02 0.0000000000e+00 0.0000e+00 1.0000e+00
       11 -1    0    0    0    0 -0.0000000000e+00 -0.0000000000e+00 -1.2500000000e+02 1.2500000000e+02 0.0000000000e+00 0.0000e+00 -1.0000e+00
       23  1    1    2    0    0 -5.3321582557e+01 -1.8326984341e+01 +2.6258989093e+01 1.1038050269e+02 9.1188000000e+01 0.0000e+00 0.0000e+00
       25  1    1    2    0    0 +5.3321582557e+01 +1.8326984341e+01 -2.6258989093e+01 1.3961949731e+02 1.2500000000e+02 0.0000e+00 0.0000e+00
</event>
<event>
 4      1 +2.4014000e-01 2.50000000e+02 7.54677100e-03 1.02464900e-01
      -11 -1    0    0    0    0 +0.0000000000e+00 +0.0000000000e+00 +1.2500000000e+02 1.2500000000e+02 0.0000000000e+00 0.0000e+00 1.0000e+00
       11 -1    0    0    0    0 -0.0000000000e+00 -0.0000000000e+00 -1.2500000000e+02 1.2500000000e+02 0.0000000000e+00 0.0000e+00 -1.0000e+00
       23  1    1    2    0    0 +2.8337348547e+01 +3.4525952021e+01 -4.3284608627e+01 1.1038050269e+02 9.1188000000e+01 0.0000e+00 -1.0000e+00
       25  1    1    2    0    0 -2.8337348547e+01 -3.4525952021e+01 +4.3284608627e+01 1.3961949731e+02 1.2500000000e+02 0.0000e+00 0.0000e+00
</event>
<event>
 4      1 +2.4014000e-01 2.50000000e+02 7.54677100e-03 1.02464900e-01
      -11 -1    0    0    0    0 +0.0000000000e+00 +0.0000000000e+00 +1.2500000000e+02 1.2500000000e+02 0.0000000000e+00 0.0000e+00 1.0000e+00
       11 -1    0    0    0    0 -0.0000000000e+00 -0.0000000000e+00 -1.2500000000e+02 1.2500000000e+02 0.0000000000e+00 0.0000e+00 -1.0000e+00
       23  1    1    2    0    0 -6.1925061581e+01 +1.2439627398e+00 +5.6871200571e+00 1.1038050269e+02 9.1188000000e+01 0.0000e+00 0.0000e+00
       25  1    1    2    0    0 +6.1925061581e+01 -1.2439627398e+00 -5.6871200571e+00 1.3961949731e+02 1.2500000000e+02 0.0000e+00 0.0000e+00
</event>
<event>
 4      1 +2.4014000e-01 2.50000000e+02 7.54677100e-03 1.02464900e-01
      -11 -1    0    0    0    0 +0.0000000000e+00 +0.0000000000e+00 +1.2500000000e+02 1.2500000000e+02 0.0000000000e+00 0.0000e+00 1.0000e+00
       11 -1    0    0    0    0 -0.0000000000e+00 -0.0000000000e+00 -1.2500000000e+02 1.2500000000e+02 0.0000000000e+00 0.0000e+00 -1.0000e+00
       23  1    1    2    0    0 +5.0470121332e+01 -3.6171993852e+01 +3.5996865340e+00 1.1038050269e+02 9.1188000000e+01 0.0000e+00 0.0000e+00
       25  1    1    2    0    0 -5.0470121332e+01 +3.6171993852e+01 -3.5996865340e+00 1.3961949731e+02 1.2500000000e+02 0.0000e+00 0.0000e+00
</event>
<event>
 4      1 +2.4014000e-01 2.50000000e+02 7.54677100e-03 1.02464900e-01
      -11 -1    0    0    0    0 +0.0000000000e+00 +0.0000000000e+00 +1.2500000000e+02 1.2500000000e+02 0.0000000000e+00 0.0000e+00 -1.0000e+00
       11 -1    0    0    0    0 -0.0000000000e+00 -0.0000000000e+00 -1.2500000000e+02 1.2500000000e+02 0.0000000000e+00 0.0000e+00 1.0000e+00
       23  1    1    2    0    0 +2.2347930031e+01 +4.6409846147e+01 -3.4861156515e+01 1.1038050269e+02 9.1188000000e+01 0.0000e+00 1.0000e+00
       25  1    1    2    0    0 -2.2347930031e+01 -4.6409846147e+01 +3.4861156515e+01 1.3961949731e+02 1.2500000000e+02 0.0000e+00 0.0000e+00
</event>
<event>
 4      1 +2.4014000e-01 2.50000000e+02 7.54677100e-03 1.02464900e-01
      -11 -1    0    0    0    0 +0.0000000000e+00 +0.0000000000e+00 +1.2500000000e+02 1.2500000000e+02 0.0000000000e+00 0.0000e+00 1.0000e+00
       11 -1    0    0    0    0 -0.0000000000e+00 -0.0000000000e+00 -1.2500000000e+02 1.2500000000e+02 0.0000000000e+00 0.0000e+00 -1.0000e+00
       23  1    1    2    0    0 +4.6254453288e+01 -5.5869934282e+00 +4.1205765193e+01 1.1038050269e+02 9.1188000000e+01 0.0000e+00 0.0000e+00
       25  1    1    2    0    0 -4.6254453288e+01 +5.5869934282e+00 -4.1205765193e+01 1.3961949731e+02 1.2500000000e+02 0.0000e+00 0.0000e+00
</event>
<event>
 4      1 +2.4014000e-01 2.50000000e+02 7.54677100e-03 1.02464900e-01
      -11 -1    0    0    0    0 +0.0000000000e+00 +0.0000000000e+00 +1.2500000000e+02 1.2500000000e+02 0.0000000000e+00 0.0000e+00 -1.0000e+00
       11 -1    0    0    0    0 -0.0000000000e+00 -0.0000000000e+00 -1.2500000000e+02 1.2500000000e+02 0.0000000000e+00 0.0000e+00 1.0000e+00
       23  1    1    2    0    0 -4.3644237664e+01 -4.1273113260e+01 +1.6134270056e+01 1.1038050269e+02 9.1188000000e+01 0.0000e+00 -1.0000e+00
       25  1    1    2    0    0 +4.3644237664e+01 +4.1273113260e+01 -1.6134270056e+01 1.3961949731e+02 1.2500000000e+02 0.0000e+00 0.0000e+00
</event>
<event>
 4      1 +2.4014000e-01 2.50000000e+02 7.54677100e-03 1.02464900e-01
      -11 -1    0    0    0    0 +0.0000000000e+00 +0.0000000000e+00 +1.2500000000e+02 1.2500000000e+02 0.0000000000e+00 0.0000e+00 1.0000e+00
       11 -1    0    0    0    0 -0.0000000000e+00 -0.0000000000e+00 -1.2500000000e+02 1.2500000000e+02 0.0000000000e+00 0.0000e+00 -1.0000e+00
       23  1    1    2    0    0 +1.1462191799e+01 +5.4102182088e+01 -2.8463592222e+01 1.1038050269e+02 9.1188000000e+01 0.0000e+00 -1.0000e+00
       25  1    1    2    0    0 -1.1462191799e+01 -5.4102182088e+01 +2.8463592222e+01 1.3961949731e+02 1.2500000000e+02 0.0000e+00 0.0000e+00
</event>
<event>
 4      1 +2.4014000e-01 2.50000000e+02 7.54677100e-03 1.02464900e-01
      -11 -1    0    0    0    0 +0.0000000000e+00 +0.0000000000e+00 +1.2500000000e+02 1.2500000000e+02 0.0000000000e+00 0.0000e+00 1.0000e+00
       11 -1    0    0    0    0 -0.0000000000e+00 -0.0000000000e+00 -1.2500000000e+02 1.2500000000e+02 0.0000000000e+00 0.0000e+00 -1.0000e+00
       23  1    1    2    0    0 -2.3684795471e+00 -2.2907438672e+01 -5.7777535321e+01 1.1038050269e+02 9.1188000000e+01 0.0000e+00 0.0000e+00
       25  1    1    2    0    0 +2.3684795471e+00 +2.2907438672e+01 +5.7777535321e+01 1.3961949731e+02 1.2500000000e+02 0.0000e+00 0.0000e+00
</event>
<event>
 4      1 +2.4014000e-01 2.50000000e+02 7.54677100e-03 1.02464900e-01
      -11 -1    0    0    0    0 +0.0000000000e+00 +0.0000000000e+00 +1.2500000000e+02 1.2500000000e+02 0.0000000000e+00 0.0000e+00 1.0000e+00
       11 -1    0    0    0    0 -0.0000000000e+00 -0.0000000000e+00 -1.2500000000e+02 1.2500000000e+02 0.0000000000e+00 0.0000e+00 -1.0000e+00
       23  1    1    2    0    0 -1.3002051340e+00 +2.2664246016e+01 -5.7907214134e+01 1.1038050269e+02 9.1188000000e+01 0.0000e+00 -1.0000e+00
       25  1    1    2    0    0 +1.3002051340e+00 -2.2664246016e+01 +5.7907214134e+01 1.3961949731e+02 1.2500000000e+02 0.0000e+00 0.0000e+00
</event>
<event>
 4      1 +2.4014000e-01 2.50000000e+02 7.54677100e-03 1.02464900e-01
      -11 -1    0    0    0    0 +0.0000000000e+00 +0.0000000000e+00 +1.2500000000e+02 1.2500000000e+02 0.0000000000e+00 0.0000e+00 1.0000e+00
       11 -1    0    0    0    0 -0.0000000000e+00 -0.0000000000e+00 -1.2500000000e+02 1.2500000000e+02 0.0000000000e+00 0.0000e+00 -1.0000e+00
       23  1    1    2    0    0 +1.0350605707e+01 +4.1371516908e+01 +4.5275452288e+01 1.1038050269e+02 9.1188000000e+01 0.0000e+00 1.0000e+00
       25  1    1    2    0    0 -1.0350605707e+01 -4.1371516908e+01 -4.5275452288e+01 1.3961949731e+02 1.2500000000e+02 0.0000e+00 0.0000e+00
</event>
<event>
 4      1 +2.4014000e-01 2.50000000e+02 7.54677100e-03 1.02464900e-01
      -11 -1    0    0    0    0 +0.0000000000e+00 +0.0000000000e+00 +1.2500000000e+02 1.2500000000e+02 0.0000000000e+00 0.0000e+00 1.0000e+00
       11 -1    0    0    0    0 -0.0000000000e+00 -0.0000000000e+00 -1.2500000000e+02 1.2500000000e+02 0.0000000000e+00 0.0000e+00 -1.0000e+00
       23  1    1    2    0    0 -3.0813803736e+01 -4.3625505709e+01 +3.1873637706e+01 1.1038050269e+02 9.1188000000e+01 0.0000e+00 0.0000e+00
       25  1    1    2    0    0 +3.0813803736e+01 +4.3625505709e+01 -3.1873637706e+01 1.3961949731e+02 1.2500000000e+02 0.0000e+00 0.0000e+00
</event>
<event>
 4      1 +2.4014000e-01 2.50000000e+02 7.54677100e-03 1.02464900e-01
      -11 -1    0    0    0    0 +0.0000000000e+00 +0.0000000000e+00 +1.2500000000e+02 1.2500000000e+02 0.0000000000e+00 0.0000e+00 1.0000e+00
       11 -1    0    0    0    0 -0.0000000000e+00 -0.0000000000e+00 -1.2500000000e+02 1.2500000000e+02 0.0000000000e+00 0.0000e+00 -1.0000e+00
       23  1    1    2    0    0 +4.9804616825e+01 +3.4028094822e+01 +1.5172110445e+01 1.1038050269e+02 9.1188000000e+01 0.0000e+00 0.0000e+00
       25  1    1    2    0    0 -4.9804616825e+01 -3.4028094822e+01 -1.5172110445e+01 1.3961949731e+02 1.2500000000e+02 0.0000e+00 0.0000e+00
</event>
<event>
 4      1 +2.4014000e-01 2.50000000e+02 7.54677100e-03 1.02464900e-01
      -11 -1    0    0    0    0 +0.0000000000e+00 +0.0000000000e+00 +1.2500000000e+02 1.2500000000e+02 0.0000000000e+00 0.0000e+00 1.0000e+00
       11 -1    0    0    0    0 -0.0000000000e+00 -0.0000000000e+00 -1.2500000000e+02 1.2500000000e+02 0.0000000000e+00 0.0000e+00 -1.0000e+00
       23  1    1    2    0    0 +4.2621955513e+01 -2.9026244056e+00 -4.5205615906e+01 1.1038050269e+02 9.1188000000e+01 0.0000e+00 0.0000e+00
       25  1    1    2    0    0 -4.2621955513e+01 +2.9026244056e+00 +4.5205615906e+01 1.3961949731e+02 1.2500000000e+02 0.0000e+00 0.0000e+00
</event>
<event>
 4      1 +2.4014000e-01 2.50000000e+02 7.54677100e-03 1.02464900e-01
      -11 -1    0    0    0    0 +0.0000000000e+00 +0.0000000000e+00 +1.2500000000e+02 1.2500000000e+02 0.0000000000e+00 0.0000e+00 1.0000e+00
       11 -1    0    0    0    0 -0.0000000000e+00 -0.0000000000e+00 -1.2500000000e+02 1.2500000000e+02 0.0000000000e+00 0.0000e+00 -1.0000e+00
       23  1    1    2    0    0 +1.3227403001e+01 +5.3525200292e+01 +2.8787024390e+01 1.1038050269e+02 9.1188000000e+01 0.0000e+00 0.0000e+00
       25  1    1    2    0    0 -1.3227403001e+01 -5.3525200292e+01 -2.8787024390e+01 1.3961949731e+02 1.2500000000e+02 0.0000e+00 0.0000e+00
</event>
<event>
 4      1 +2.4014000e-01 2.50000000e+02 7.54677100e-03 1.02464900e-01
      -11 -1    0    0    0    0 +0.0000000000e+00 +0.0000000000e+00 +1.2500000000e+02 1.2500000000e+02 0.0000000000e+00 0.0000e+00 1.0000e+00
       11 -1    0    0    0    0 -0.0000000000e+00 -0.0000000000e+00 -1.2500000000e+02 1.2500000000e+02 0.0000000000e+00 0.0000e+00 -1.0000e+00
       23  1    1    2    0    0 -6.0613985334e+01 +8.4943680862e+00 -1.1063205792e+01 1.1038050269e+02 9.1188000000e+01 0.0000e+00 -1.0000e+00
       25  1    1    2    0    0 +6.0613985334e+01 -8.4943680862e+00 +1.1063205792e+01 1.3961949731e+02 1.2500000000e+02 0.0000e+00 0.0000e+00
</event>
<event>
 4      1 +2.4014000e-01 2.50000000e+02 7.54677100e-03 1.02464900e-01
      -11 -1    0    0    0    0 +0.0000000000e+00 +0.0000000000e+00 +1.2500000000e+02 1.2500000000e+02 0.0000000000e+00 0.0000e+00 -1.0000e+00
       11 -1    0    0    0    0 -0.0000000000e+00 -0.0000000000e+00 -1.2500000000e+02 1.2500000000e+02 0.0000000000e+00 0.0000e+00 1.0000e+00
       23  1    1    2    0    0 +2.5254878418e+01 +3.0317228036e+01 +4.8079734088e+01 1.1038050269e+02 9.1188000000e+01 0.0000e+00 0.0000e+00
       25  1    1    2    0    0 -2.5254878418e+01 -3.0317228036e+01 -4.8079734088e+01 1.3961949731e+02 1.2500000000e+02 0.0000e+00 0.0000e+00
</event>
<event>
 4      1 +2.4014000e-01 2.50000000e+02 7.54677100e-03 1.02464900e-01
      -11 -1    0    0    0    0 +0.0000000000e+00 +0.0000000000e+00 +1.2500000000e+02 1.2500000000e+02 0.0000000000e+00 0.0000e+00 -1.0000e+00
       11 -1    0    0    0    0 -0.0000000000e+00 -0.0000000000e+00 -1.2500000000e+02 1.2500000000e+02 0.0000000000e+00 0.0000e+00 1.0000e+00
       23  1    1    2    0    0 +5.4776669443e+01 +1.4025700580e+01 -2.5911392044e+01 1.1038050269e+02 9.1188000000e+01 0.0000e+00 0.0000e+00
       25  1    1    2    0    0 -5.4776669443e+01 -1.4025700580e+01 +2.5911392044e+01 1.3961949731e+02 1.2500000000e+02 0.0000e+00 0.0000e+00
</event>
<event>
 4      1 +2.4014000e-01 2.50000000e+02 7.54677100e-03 1.02464900e-01
      -11 -1    0    0    0    0 +0.0000000000e+00 +0.0000000000e+00 +1.2500000000e+02 1.2500000000e+02 0.0000000000e+00 0.0000e+00 1.0000e+00
       11 -1    0    0    0    0 -0.0000000000e+00 -0.0000000000e+00 -1.2500000000e+02 1.2500000000e+02 0.0000000000e+00 0.0000e+00 -1.0000e+00
       23  1    1    2    0    0 +2.3908512519e+01 +5.6626290597e+01 -9.5105347912e+00 1.1038050269e+02 9.1188000000e+01 0.0000e+00 0.0000e+00
       25  1    1    2    0    0 -2.3908512519e+01 -5.6626290597e+01 +9.5105347912e+00 1.3961949731e+02 1.2500000000e+02 0.0000e+00 0.0000e+00
</event>
<event>
 4      1 +2.4014000e-01 2.50000000e+02 7.54677100e-03 1.02464900e-01
      -11 -1    0    0    0    0 +0.0000000000e+00 +0.0000000000e+00 +1.2500000000e+02 1.2500000000e+02 0.0000000000e+00 0.0000e+00 -1.0000e+00
       11 -1    0    0    0    0 -0.0000000000e+00 -0.0000000000e+00 -1.2500000000e+02 1.2500000000e+02 0.0000000000e+00 0.0000e+00 1.0000e+00
       23  1    1    2    0    0 +4.9638626431e+01 -3.6825820842e+01 +6.9620194587e+00 1.1038050269e+02 9.1188000000e+01 0.0000e+00 0.0000e+00
       25  1    1    2    0    0 -4.9638626431e+01 +3.6825820842e+01 -6.9620194587e+00 1.3961949731e+02 1.2500000000e+02 0.0000e+00 0.0000e+00
</event>
<event>
 4      1 +2.4014000e-01 2.50000000e+02 7.54677100e-03 1.02464900e-01
      -11 -1    0    0    0    0 +0.0000000000e+00 +0.0000000000e+00 +1.2500000000e+02 1.2500000000e+02 0.0000000000e+00 0.0000e+00 1.0000e+00
       11 -1    0    0    0    0 -0.0000000000e+00 -0.0000000000e+00 -1.2500000000e+02 1.2500000000e+02 0.0000000000e+00 0.0000e+00 -1.0000e+00
       23  1    1    2    0    0 -4.1578100203e+01 +4.5200532138e+01 +9.8375559802e+00 1.1038050269e+02 9.1188000000e+01 0.0000e+00 0.0000e+00
       25  1    1    2    0    0 +4.1578100203e+01 -4.5200532138e+01 -9.8375559802e+00 1.3961949731e+02 1.2500000000e+02 0.0000e+00 0.0000e+00
</event>
<event>
 4      1 +2.4014000e-01 2.50000000e+02 7.54677100e-03 1.02464900e-01
      -11 -1    0    0    0    0 +0.0000000000e+00 +0.0000000000e+00 +1.2500000000e+02 1.2500000000e+02 0.0000000000e+00 0.0000e+00 1.0000e+00
       11 -1    0    0    0    0 -0.0000000000e+00 -0.0000000000e+00 -1.2500000000e+02 1.2500000000e+02 0.0000000000e+00 0.0000e+00 -1.0000e+00
       23  1    1    2    0    0 +2.6608965111e+01 -2.5426111013e+01 +5.0140601154e+01 1.1038050269e+02 9.1188000000e+01 0.0000e+00 1.0000e+00
       25  1    1    2    0    0 -2.6608965111e+01 +2.5426111013e+01 -5.0140601154e+01 1.3961949731e+02 1.2500000000e+02 0.0000e+00 0.0000e+00
</event>
<event>
 4      1 +2.4014000e-01 2.50000000e+02 7.54677100e-03 1.02464900e-01
      -11 -1    0    0    0    0 +0.0000000000e+00 +0.0000000000e+00 +1.2500000000e+02 1.2500000000e+02 0.0000000000e+00 0.0000e+00 1.0000e+00
       11 -1    0    0    0    0 -0.0000000000e+00 -0.0000000000e+00 -1.2500000000e+02 1.2500000000e+02 0.0000000000e+00 0.0000e+00 -1.0000e+00
       23  1    1    2    0    0 +1.6772624967e+01 +1.1140251097e+01 +5.8848771328e+01 1.1038050269e+02 9.1188000000e+01 0.0000e+00 1.0000e+00
       25  1    1    2    0    0 -1.6772624967e+01 -1.1140251097e+01 -5.8848771328e+01 1.3961949731e+02 1.2500000000e+02 0.0000e+00 0.0000e+00
</event>
<event>
 4      1 +2.4014000e-01 2.50000000e+02 7.54677100e-03 1.02464900e-01
      -11 -1    0    0    0    0 +0.0000000000e+00 +0.0000000000e+00 +1.2500000000e+02 1.2500000000e+02 0.0000000000e+00 0.0000e+00 1.0000e+00
       11 -1    0    0    0    0 -0.0000000000e+00 -0.0000000000e+00 -1.2500000000e+02 1.2500000000e+02 0.0000000000e+00 0.0000e+00 -1.0000e+00
       23  1    1    2    0    0 +5.5107977107e+01 -3.0378660983e+00 -2.8679021225e+01 1.1038050269e+02 9.1188000000e+01 0.0000e+00 0.0000e+00
       25  1    1    2    0    0 -5.5107977107e+01 +3.0378660983e+00 +2.8679021225e+01 1.3961949731e+02 1.2500000000e+02 0.0000e+00 0.0000e+00
</event>
<event>
 4      1 +2.4014000e-01 2.50000000e+02 7.54677100e-03 1.02464900e-01
      -11 -1    0    0    0    0 +0.0000000000e+00 +0.0000000000e+00 +1.2500000000e+02 1.2500000000e+02 0.0000000000e+00 0.0000e+00 1.0000e+00
       11 -1    0    0    0    0 -0.0000000000e+00 -0.0000000000e+00 -1.2500000000e+02 1.2500000000e+02 0.0000000000e+00 0.0000e+00 -1.0000e+00
       23  1    1    2    0    0 -4.4488653894e+01 -3.6189500387e+01 +2.4076622813e+01 1.1038050269e+02 9.1188000000e+01 0.0000e+00 1.0000e+00
       25  1    1    2    0    0 +4.4488653894e+01 +3.6189500387e+01 -2.4076622813e+01 1.3961949731e+02 1.2500000000e+02 0.0000e+00 0.0000e+00
</event>
<event>
 4      1 +2.4014000e-01 2.50000000e+02 7.54677100e-03 1.02464900e-01
      -11 -1    0    0    0    0 +0.0000000000e+00 +0.0000000000e+00 +1.2500000000e+02 1.2500000000e+02 0.0000000000e+00 0.0000e+00 -1.0000e+00
       11 -1    0    0    0    0 -0.0000000000e+00 -0.0000000000e+00 -1.2500000000e+02 1.2500000000e+02 0.0000000000e+00 0.0000e+00 1.0000e+00
       23  1    1    2    0    0 -3.8766926794e+01 +3.8945999923e+01 +2.9136549325e+01 1.1038050269e+02 9.1188000000e+01 0.0000e+00 -1.0000e+00
       25  1    1    2    0    0 +3.8766926794e+01 -3.8945999923e+01 -2.9136549325e+01 1.3961949731e+02 1.2500000000e+02 0.0000e+00 0.0000e+00
</event>
<event>
 4      1 +2.4014000e-01 2.50000000e+02 7.54677100e-03 1.02464900e-01
      -11 -1    0    0    0    0 +0.0000000000e+00 +0.0000000000e+00 +1.2500000000e+02 1.2500000000e+02 0.0000000000e+00 0.0000e+00 1.0000e+00
       11 -1    0    0    0    0 -0.0000000000e+00 -0.0000000000e+00 -1.2500000000e+02 1.2500000000e+02 0.0000000000e+00 0.0000e+00 -1.0000e+00
       23  1    1    2    0    0 +2.3546145119e+01 -4.5498028074e+01 +3.5271979262e+01 1.1038050269e+02 9.1188000000e+01 0.0000e+00 1.0000e+00
       25  1    1    2    0    0 -2.3546145119e+01 +4.5498028074e+01 -3.5271979262e+01 1.3961949731e+02 1.2500000000e+02 0.0000e+00 0.0000e+00
</event>
<event>
 4      1 +2.4014000e-01 2.50000000e+02 7.54677100e-03 1.02464900e-01
      -11 -1    0    0    0    0 +0.0000000000e+00 +0.0000000000e+00 +1.2500000000e+02 1.2500000000e+02 0.0000000000e+00 0.0000e+00 1.0000e+00
       11 -1    0    0    0    0 -0.0000000000e+00 -0.0000000000e+00 -1.2500000000e+02 1.2500000000e+02 0.0000000000e+00 0.0000e+00 -1.0000e+00
       23  1    1    2    0    0 -5.1587991436e+01 -1.7671355192e+01 +2.9916657148e+01 1.1038050269e+02 9.1188000000e+01 0.0000e+00 0.0000e+00
       25  1    1    2    0    0 +5.1587991436e+01 +1.7671355192e+01 -2.9916657148e+01 1.3961949731e+02 1.2500000000e+02 0.0000e+00 0.0000e+00
</event>
<event>
 4      1 +2.4014000e-01 2.50000000e+02 7.54677100e-03 1.02464900e-01
      -11 -1    0    0    0    0 +0.0000000000e+00 +0.0000000000e+00 +1.2500000000e+02 1.2500000000e+02 0.0000000000e+00 0.0000e+00 -1.0000e+00
       11 -1    0    0    0    0 -0.0000000000e+00 -0.0000000000e+00 -1.2500000000e+02 1.2500000000e+02 0.0000000000e+00 0.0000e+00 1.0000e+00
       23  1    1    2    0    0 +4.4226835767e+01 +1.4194769709e+00 +4.3710137415e+01 1.1038050269e+02 9.1188000000e+01 0.0000e+00 -1.0000e+00
       25  1    1    2    0    0 -4.4226835767e+01 -1.4194769709e+00 -4.3710137415e+01 1.3961949731e+02 1.2500000000e+02 0.0000e+00 0.0000e+00
</event>
<event>
 4      1 +2.4014000e-01 2.50000000e+02 7.54677100e-03 1.02464900e-01
      -11 -1    0    0    0    0 +0.0000000000e+00 +0.0000000000e+00 +1.2500000000e+02 1.2500000000e+02 0.0000000000e+00 0.0000e+00 -1.0000e+00
       11 -1    0    0    0    0 -0.0000000000e+00 -0.0000000000e+00 -1.2500000000e+02 1.2500000000e+02 0.0000000000e+00 0.0000e+00 1.0000e+00
       23  1    1    2    0    0 -3.0048686282e+01 -5.4434889126e+01 +1.5884987172e+00 1.1038050269e+02 9.1188000000e+01 0.0000e+00 0.0000e+00
       25  1    1    2    0    0 +3.0048686282e+01 +5.4434889126e+01 -1.5884987172e+00 1.3961949731e+02 1.2500000000e+02 0.0000e+00 0.0000e+00
</event>
<event>
 4      1 +2.4014000e-01 2.50000000e+02 7.54677100e-03 1.02464900e-01
      -11 -1    0    0    0    0 +0.0000000000e+00 +0.0000000000e+00 +1.2500000000e+02 1.2500000000e+02 0.0000000000e+00 0.0000e+00 -1.0000e+00
       11 -1    0    0    0    0 -0.0000000000e+00 -0.0000000000e+00 -1.2500000000e+02 1.2500000000e+02 0.0000000000e+00 0.0000e+00 1.0000e+00
       23  1    1    2    0    0 -3.6247884332e+01 -5.0466762358e+01 -2.7929926884e+00 1.1038050269e+02 9.1188000000e+01 0.0000e+00 -1.0000e+00
       25  1    1    2    0    0 +3.6247884332e+01 +5.0466762358e+01 +2.7929926884e+00 1.3961949731e+02 1.2500000000e+02 0.0000e+00 0.0000e+00
</event>
<event>
 4      1 +2.4014000e-01 2.50000000e+02 7.54677100e-03 1.02464900e-01
      -11 -1    0    0    0    0 +0.0000000000e+00 +0.0000000000e+00 +1.2500000000e+02 1.2500000000e+02 0.0000000000e+00 0.0000e+00 -1.0000e+00
       11 -1    0    0    0    0 -0.0000000000e+00 -0.0000000000e+00 -1.2500000000e+02 1.2500000000e+02 0.0000000000e+00 0.0000e+00 1.0000e+00
       23  1    1    2    0    0 -2.1558072604e+01 +5.8279691399e+01 -2.7076014669e+00 1.1038050269e+02 9.1188000000e+01 0.0000e+00 -1.0000e+00
       25  1    1    2    0    0 +2.1558072604e+01 -5.8279691399e+01 +2.7076014669e+00 1.3961949731e+02 1.2500000000e+02 0.0000e+00 0.0000e+00
</event>
<event>
 4      1 +2.4014000e-01 2.50000000e+02 7.54677100e-03 1.02464900e-01
      -11 -1    0    0    0    0 +0.0000000000e+00 +0.0000000000e+00 +1.2500000000e+02 1.2500000000e+02 0.0000000000e+00 0.0000e+00 -1.0000e+00
       11 -1    0    0    0    0 -0.0000000000e+00 -0.0000000000e+00 -1.2500000000e+02 1.2500000000e+02 0.0000000000e+00 0.0000e+00 1.0000e+00
       23  1    1    2    0    0 -5.6483237859e+01 -1.6101951639e+01 -2.0468879404e+01 1.1038050269e+02 9.1188000000e+01 0.0000e+00 1.0000e+00
       25  1    1    2    0    0 +5.6483237859e+01 +1.6101951639e+01 +2.0468879404e+01 1.3961949731e+02 1.2500000000e+02 0.0000e+00 0.0000e+00
</event>
<event>
 4      1 +2.4014000e-01 2.50000000e+02 7.54677100e-03 1.02464900e-01
      -11 -1    0    0    0    0 +0.0000000000e+00 +0.0000000000e+00 +1.2500000000e+02 1.2500000000e+02 0.0000000000e+00 0.0000e+00 -1.0000e+00
       11 -1    0    0    0    0 -0.0000000000e+00 -0.0000000000e+00 -1.2500000000e+02 1.2500000000e+02 0.0000000000e+00 0.0000e+00 1.0000e+00
       23  1    1    2    0    0 -4.4205215378e+01 +1.5727696634e+01 +4.0830656640e+01 1.1038050269e+02 9.1188000000e+01 0.0000e+00 0.0000e+00
       25  1    1    2    0    0 +4.4205215378e+01 -1.5727696634e+01 -4.0830656640e+01 1.3961949731e+02 1.2500000000e+02 0.0000e+00 0.0000e+00
</event>
<event>
 4      1 +2.4014000e-01 2.50000000e+02 7.54677100e-03 1.02464900e-01
      -11 -1    0    0    0    0 +0.0000000000e+00 +0.0000000000e+00 +1.2500000000e+02 1.2500000000e+02 0.0000000000e+00 0.0000e+00 -1.0000e+00
       11 -1    0    0    0    0 -0.0000000000e+00 -0.0000000000e+00 -1.2500000000e+02 1.2500000000e+02 0.0000000000e+00 0.0000e+00 1.0000e+00
       23  1    1    2    0    0 -4.8795060971e+00 -6.2004633756e+01 -4.6887387644e-01 1.1038050269e+02 9.1188000000e+01 0.0000e+00 1.0000e+00
       25  1    1    2    0    0 +4.8795060971e+00 +6.2004633756e+01 +4.6887387644e-01 1.3961949731e+02 1.2500000000e+02 0.0000e+00 0.0000e+00
</event>
<event>
 4      1 +2.4014000e-01 2.50000000e+02 7.54677100e-03 1.02464900e-01
      -11 -1    0    0    0    0 +0.0000000000e+00 +0.0000000000e+00 +1.2500000000e+02 1.2500000000e+02 0.0000000000e+00 0.0000e+00 -1.0000e+00
       11 -1    0    0    0    0 -0.0000000000e+00 -0.0000000000e+00 -1.2500000000e+02 1.2500000000e+02 0.0000000000e+00 0.0000e+00 1.0000e+00
       23  1    1    2    0    0 -1.6629442663e+00 -6.1229187777e+01 -1.0808571143e+01 1.1038050269e+02 9.1188000000e+01 0.0000e+00 0.0000e+00
       25  1    1    2    0    0 +1.6629442663e+00 +6.1229187777e+01 +1.0808571143e+01 1.3961949731e+02 1.2500000000e+02 0.0000e+00 0.0000e+00
</event>
<event>
 4      1 +2.4014000e-01 2.50000000e+02 7.54677100e-03 1.02464900e-01
      -11 -1    0    0    0    0 +0.0000000000e+00 +0.0000000000e+00 +1.2500000000e+02 1.2500000000e+02 0.0000000000e+00 0.0000e+00 -1.0000e+00
       11 -1    0    0    0    0 -0.0000000000e+00 -0.0000000000e+00 -1.2500000000e+02 1.2500000000e+02 0.0000000000e+00 0.0000e+00 1.0000e+00
       23  1    1    2    0    0 -4.8391179817e+01 +3.8846816520e+01 -4.2216811614e+00 1.1038050269e+02 9.1188000000e+01 0.0000e+00 0.0000e+00
       25  1    1    2    0    0 +4.8391179817e+01 -3.8846816520e+01 +4.2216811614e+00 1.3961949731e+02 1.2500000000e+02 0.0000e+00 0.0000e+00
</event>
<event>
 4      1 +2.4014000e-01 2.50000000e+02 7.54677100e-03 1.02464900e-01
      -11 -1    0    0    0    0 +0.0000000000e+00 +0.0000000000e+00 +1.2500000000e+02 1.2500000000e+02 0.0000000000e+00 0.0000e+00 -1.0000e+00
       11 -1    0    0    0    0 -0.0000000000e+00 -0.0000000000e+00 -1.2500000000e+02 1.2500000000e+02 0.0000000000e+00 0.0000e+00 1.0000e+00
       23  1    1    2    0    0 -2.1486187932e+01 -5.7884299233e+01 +7.5070406989e+00 1.1038050269e+02 9.1188000000e+01 0.0000e+00 0.0000e+00
       25  1    1    2    0    0 +2.1486187932e+01 +5.7884299233e+01 -7.5070406989e+00 1.3961949731e+02 1.2500000000e+02 0.0000e+00 0.0000e+00
</event>
<event>
 4      1 +2.4014000e-01 2.50000000e+02 7.54677100e-03 1.02464900e-01
      -11 -1    0    0    0    0 +0.0000000000e+00 +0.0000000000e+00 +1.2500000000e+02 1.2500000000e+02 0.0000000000e+00 0.0000e+00 -1.0000e+00
       11 -1    0    0    0    0 -0.0000000000e+00 -0.0000000000e+00 -1.2500000000e+02 1.2500000000e+02 0.0000000000e+00 0.0000e+00 1.0000e+00
       23  1    1    2    0    0 +8.3781559994e+00 -5.3431679745e+01 +3.0715893791e+01 1.1038050269e+02 9.1188000000e+01 0.0000e+00 -1.0000e+00
       25  1    1    2    0    0 -8.3781559994e+00 +5.3431679745e+01 -3.0715893791e+01 1.3961949731e+02 1.2500000000e+02 0.0000e+00 0.0000e+00
</event>
<event>
 4      1 +2.4014000e-01 2.50000000e+02 7.54677100e-03 1.02464900e-01
      -11 -1    0    0    0    0 +0.0000000000e+00 +0.0000000000e+00 +1.2500000000e+02 1.2500000000e+02 0.0000000000e+00 0.0000e+00 1.0000e+00
       11 -1    0    0    0    0 -0.0000000000e+00 -0.0000000000e+00 -1.2500000000e+02 1.2500000000e+02 0.0000000000e+00 0.0000e+00 -1.0000e+00
       23  1    1    2    0    0 +3.6397203275e+01 +4.3663017982e+01 +2.5246553906e+01 1.1038050269e+02 9.1188000000e+01 0.0000e+00 1.0000e+00
       25  1    1    2    0    0 -3.6397203275e+01 -4.3663017982e+01 -2.5246553906e+01 1.3961949731e+02 1.2500000000e+02 0.0000e+00 0.0000e+00
</event>
<event>
 4      1 +2.4014000e-01 2.50000000e+02 7.54677100e-03 1.02464900e-01
      -11 -1    0    0    0    0 +0.0000000000e+00 +0.0000000000e+00 +1.2500000000e+02 1.2500000000e+02 0.0000000000e+00 0.0000e+00 -1.0000e+00
       11 -1    0    0    0    0 -0.0000000000e+00 -0.0000000000e+00 -1.2500000000e+02 1.2500000000e+02 0.0000000000e+00 0.0000e+00 1.0000e+00
       23  1    1    2    0    0 +4.2959208103e+01 -1.3480814256e+01 -4.2911281917e+01 1.1038050269e+02 9.1188000000e+01 0.0000e+00 1.0000e+00
       25  1    1    2    0    0 -4.2959208103e+01 +1.3480814256e+01 +4.2911281917e+01 1.3961949731e+02 1.2500000000e+02 0.0000e+00 0.0000e+00
</event>
<event>
 4      1 +2.4014000e-01 2.50000000e+02 7.54677100e-03 1.02464900e-01
      -11 -1    0    0    0    0 +0.0000000000e+00 +0.0000000000e+00 +1.2500000000e+02 1.2500000000e+02 0.0000000000e+00 0.0000e+00 -1.0000e+00
       11 -1    0    0    0    0 -0.0000000000e+00 -0.0000000000e+00 -1.2500000000e+02 1.2500000000e+02 0.0000000000e+00 0.0000e+00 1.0000e+00
       23  1    1    2    0    0 +3.2925204847e+00 -5.8226733508e+01 +2.1619686480e+01 1.1038050269e+02 9.1188000000e+01 0.0000e+00 0.0000e+00
       25  1    1    2    0    0 -3.2925204847e+00 +5.8226733508e+01 -2.1619686480e+01 1.3961949731e+02 1.2500000000e+02 0.0000e+00 0.0000e+00
</event>
<event>
 4      1 +2.4014000e-01 2.50000000e+02 7.54677100e-03 1.02464900e-01
      -11 -1    0    0    0    0 +0.0000000000e+00 +0.0000000000e+00 +1.2500000000e+02 1.2500000000e+02 0.0000000000e+00 0.0000e+00 1.0000e+00
       11 -1    0    0    0    0 -0.0000000000e+00 -0.0000000000e+00 -1.2500000000e+02 1.2500000000e+02 0.0000000000e+00 0.0000e+00 -1.0000e+00
       23  1    1    2    0    0 -5.8648556546e+00 -5.4201565949e+01 +2.9939902246e+01 1.1038050269e+02 9.1188000000e+01 0.0000e+00 0.0000e+00
       25  1    1    2    0    0 +5.8648556546e+00 +5.4201565949e+01 -2.9939902246e+01 1.3961949731e+02 1.2500000000e+02 0.0000e+00 0.0000e+00
</event>
<event>
 4      1 +2.4014000e-01 2.50000000e+02 7.54677100e-03 1.02464900e-01
      -11 -1    0    0    0    0 +0.0000000000e+00 +0.0000000000e+00 +1.2500000000e+02 1.2500000000e+02 0.0000000000e+00 0.0000e+00 -1.0000e+00
       11 -1    0    0    0    0 -0.0000000000e+00 -0.0000000000e+00 -1.2500000000e+02 1.2500000000e+02 0.0000000000e+00 0.0000e+00 1.0000e+00
       23  1    1    2    0    0 +1.4140562367e+01 +1.4061780711e+01 +5.8914470623e+01 1.1038050269e+02 9.1188000000e+01 0.0000e+00 -1.0000e+00
       25  1    1    2    0    0 -1.4140562367e+01 -1.4061780711e+01 -5.8914470623e+01 1.3961949731e+02 1.2500000000e+02 0.0000e+00 0.0000e+00
</event>
<event>
 4      1 +2.4014000e-01 2.50000000e+02 7.54677100e-03 1.02464900e-01
      -11 -1    0    0    0    0 +0.0000000000e+00 +0.0000000000e+00 +1.2500000000e+02 1.2500000000e+02 0.0000000000e+00 0.0000e+00 1.0000e+00
       11 -1    0    0    0    0 -0.0000000000e+00 -0.0000000000e+00 -1.2500000000e+02 1.2500000000e+02 0.0000000000e+00 0.0000e+00 -1.0000e+00
       23  1    1    2    0    0 +1.7710201590e+01 +5.2291164972e+01 -2.8645887231e+01 1.1038050269e+02 9.1188000000e+01 0.0000e+00 0.0000e+00
       25  1    1    2    0    0 -1.7710201590e+01 -5.2291164972e+01 +2.8645887231e+01 1.3961949731e+02 1.2500000000e+02 0.0000e+00 0.0000e+00
</event>
<event>
 4      1 +2.4014000e-01 2.50000000e+02 7.54677100e-03 1.02464900e-01
      -11 -1    0    0    0    0 +0.0000000000e+00 +0.0000000000e+00 +1.2500000000e+02 1.2500000000e+02 0.0000000000e+00 0.0000e+00 1.0000e+00
       11 -1    0    0    0    0 -0.0000000000e+00 -0.0000000000e+00 -1.2500000000e+02 1.2500000000e+02 0.0000000000e+00 0.0000e+00 -1.0000e+00
       23  1    1    2    0    0 +5.3846751083e+01 +2.8279584672e+01 +1.3015241766e+01 1.1038050269e+02 9.1188000000e+01 0.0000e+00 -1.0000e+00
       25  1    1    2    0    0 -5.3846751083e+01 -2.8279584672e+01 -1.3015241766e+01 1.3961949731e+02 1.2500000000e+02 0.0000e+00 0.0000e+00
</event>
<event>
 4      1 +2.4014000e-01 2.50000000e+02 7.54677100e-03 1.02464900e-01
      -11 -1    0    0    0    0 +0.0000000000e+00 +0.0000000000e+00 +1.2500000000e+02 1.2500000000e+02 0.0000000000e+00 0.0000e+00 1.0000e+00
       11 -1    0    0    0    0 -0.0000000000e+00 -0.0000000000e+00 -1.2500000000e+02 1.2500000000e+02 0.0000000000e+00 0.0000e+00 -1.0000e+00
       23  1    1    2    0    0 -2.1226958906e+01 -5.8124180849e+01 +6.2928408494e+00 1.1038050269e+02 9.1188000000e+01 0.0000e+00 0.0000e+00
       25  1    1    2    0    0 +2.1226958906e+01 +5.8124180849e+01 -6.2928408494e+00 1.3961949731e+02 1.2500000000e+02 0.0000e+00 0.0000e+00
</event>
<event>
 4      1 +2.4014000e-01 2.50000000e+02 7.54677100e-03 1.02464900e-01
      -11 -1    0    0    0    0 +0.0000000000e+00 +0.0000000000e+00 +1.2500000000e+02 1.2500000000e+02 0.0000000000e+00 0.0000e+00 1.0000e+00
       11 -1    0    0    0    0 -0.0000000000e+00 -0.0000000000e+00 -1.2500000000e+02 1.2500000000e+02 0.0000000000e+00 0.0000e+00 -1.0000e+00
       23  1    1    2    0    0 -2.8295015422e+01 -2.9311868732e+01 +4.6997983823e+01 1.1038050269e+02 9.1188000000e+01 0.0000e+00 1.0000e+00
       25  1    1    2    0    0 +2.8295015422e+01 +2.9311868732e+01 -4.6997983823e+01 1.3961949731e+02 1.2500000000e+02 0.0000e+00 0.0000e+00
</event>
<event>
 4      1 +2.4014000e-01 2.50000000e+02 7.54677100e-03 1.02464900e-01
      -11 -1    0    0    0    0 +0.0000000000e+00 +0.0000000000e+00 +1.2500000000e+02 1.2500000000e+02 0.0000000000e+00 0.0000e+00 1.0000e+00
       11 -1    0    0    0    0 -0.0000000000e+00 -0.0000000000e+00 -1.2500000000e+02 1.2500000000e+02 0.0000000000e+00 0.0000e+00 -1.0000e+00
       23  1    1    2    0    0 +4.2369078425e+01 +4.4486643879e+01 +9.7161586749e+00 1.1038050269e+02 9.1188000000e+01 0.0000e+00 0.0000e+00
       25  1    1    2    0    0 -4.2369078425e+01 -4.4486643879e+01 -9.7161586749e+00 1.3961949731e+02 1.2500000000e+02 0.0000e+00 0.0000e+00
</event>
<event>
 4      1 +2.4014000e-01 2.50000000e+02 7.54677100e-03 1.02464900e-01
      -11 -1    0    0    0    0 +0.0000000000e+00 +0.0000000000e+00 +1.2500000000e+02 1.2500000000e+02 0.0000000000e+00 0.0000e+00 -1.0000e+00
       11 -1    0    0    0    0 -0.0000000000e+00 -0.0000000000e+00 -1.2500000000e+02 1.2500000000e+02 0.0000000000e+00 0.0000e+00 1.0000e+00
       23  1    1    2    0    0 +1.4565002167e+01 -3.8954599181e+01 +4.6249366960e+01 1.1038050269e+02 9.1188000000e+01 0.0000e+00 -1.0000e+00
       25  1    1    2    0    0 -1.4565002167e+01 +3.8954599181e+01 -4.6249366960e+01 1.3961949731e+02 1.2500000000e+02 0.0000e+00 0.0000e+00
</event>
<event>
 4      1 +2.4014000e-01 2.50000000e+02 7.54677100e-03 1.02464900e-01
      -11 -1    0    0    0    0 +0.0000000000e+00 +0.0000000000e+00 +1.2500000000e+02 1.2500000000e+02 0.0000000000e+00 0.0000e+00 1.0000e+00
       11 -1    0    0    0    0 -0.0000000000e+00 -0.0000000000e+00 -1.2500000000e+02 1.2500000000e+02 0.0000000000e+00 0.0000e+00 -1.0000e+00
       23  1    1    2    0    0 +2.8358380430e+01 +1.4908493250e+01 -5.3311754032e+01 1.1038050269e+02 9.1188000000e+01 0.0000e+00 -1.0000e+00
       25  1    1    2    0    0 -2.8358380430e+01 -1.4908493250e+01 +5.3311754032e+01 1.3961949731e+02 1.2500000000e+02 0.0000e+00 0.0000e+00
</event>
<event>
 4      1 +2.4014000e-01 2.50000000e+02 7.54677100e-03 1.02464900e-01
      -11 -1    0    0    0    0 +0.0000000000e+00 +0.0000000000e+00 +1.2500000000e+02 1.2500000000e+02 0.0000000000e+00 0.0000e+00 1.0000e+00
       11 -1    0    0    0    0 -0.0000000000e+00 -0.0000000000e+00 -1.2500000000e+02 1.2500000000e+02 0.0000000000e+00 0.0000e+00 -1.0000e+00
       23  1    1    2    0    0 -2.8946476148e+01 -4.8034265078e+01 -2.6896373857e+01 1.1038050269e+02 9.1188000000e+01 0.0000e+00 -1.0000e+00
       25  1    1    2    0    0 +2.8946476148e+01 +4.8034265078e+01 +2.6896373857e+01 1.3961949731e+02 1.2500000000e+02 0.0000e+00 0.0000e+00
</event>
<event>
 4      1 +2.4014000e-01 2.50000000e+02 7.54677100e-03 1.02464900e-01
      -11 -1    0    0    0    0 +0.0000000000e+00 +0.0000000000e+00 +1.2500000000e+02 1.2500000000e+02 0.0000000000e+00 0.0000e+00 1.0000e+00
       11 -1    0    0    0    0 -0.0000000000e+00 -0.0000000000e+00 -1.2500000000e+02 1.2500000000e+02 0.0000000000e+00 0.0000e+00 -1.0000e+00
       23  1    1    2    0    0 -5.2630479266e+01 -1.2410697940e+01 +3.0734528766e+01 1.1038050269e+02 9.1188000000e+01 0.0000e+00 0.0000e+00
       25  1    1    2    0    0 +5.2630479266e+01 +1.2410697940e+01 -3.0734528766e+01 1.3961949731e+02 1.2500000000e+02 0.0000e+00 0.0000e+00
</event>
<event>
 4      1 +2.4014000e-01 2.50000000e+02 7.54677100e-03 1.02464900e-01
      -11 -1    0    0    0    0 +0.0000000000e+00 +0.0000000000e+00 +1.2500000000e+02 1.2500000000e+02 0.0000000000e+00 0.0000e+00 1.0000e+00
       11 -1    0    0    0    0 -0.0000000000e+00 -0.0000000000e+00 -1.2500000000e+02 1.2500000000e+02 0.0000000000e+00 0.0000e+00 -1.0000e+00
       23  1    1    2    0    0 +4.5222316058e+01 -4.1464883401e+01 -1.0208310566e+01 1.1038050269e+02 9.1188000000e+01 0.0000e+00 -1.0000e+00
       25  1    1    2    0    0 -4.5222316058e+01 +4.1464883401e+01 +1.0208310566e+01 1.3961949731e+02 1.2500000000e+02 0.0000e+00 0.0000e+00
</event>
<event>
 4      1 +2.4014000e-01 2.50000000e+02 7.54677100e-03 1.02464900e-01
      -11 -1    0    0    0    0 +0.0000000000e+00 +0.0000000000e+00 +1.2500000000e+02 1.2500000000e+02 0.0000000000e+00 0.0000e+00 1.0000e+00
       11 -1    0    0    0    0 -0.0000000000e+00 -0.0000000000e+00 -1.2500000000e+02 1.2500000000e+02 0.0000000000e+00 0.0000e+00 -1.0000e+00
       23  1    1    2    0    0 +1.9233541272e+01 -3.1876069283e+01 -4.9825607140e+01 1.1038050269e+02 9.1188000000e+01 0.0000e+00 -1.0000e+00
       25  1    1    2    0    0 -1.9233541272e+01 +3.1876069283e+01 +4.9825607140e+01 1.3961949731e+02 1.2500000000e+02 0.0000e+00 0.0000e+00
</event>
<event>
 4      1 +2.4014000e-01 2.50000000e+02 7.54677100e-03 1.02464900e-01
      -11 -1    0    0    0    0 +0.0000000000e+00 +0.0000000000e+00 +1.2500000000e+02 1.2500000000e+02 0.0000000000e+00 0.0000e+00 1.0000e+00
       11 -1    0    0    0    0 -0.0000000000e+00 -0.0000000000e+00 -1.2500000000e+02 1.2500000000e+02 0.0000000000e+00 0.0000e+00 -1.0000e+00
       23  1    1    2    0    0 +2.0434405236e+01 +5.1237310293e+01 -2.8736338429e+01 1.1038050269e+02 9.1188000000e+01 0.0000e+00 0.0000e+00
       25  1    1    2    0    0 -2.0434405236e+01 -5.1237310293e+01 +2.8736338429e+01 1.3961949731e+02 1.2500000000e+02 0.0000e+00 0.0000e+00
</event>
<event>
 4      1 +2.4014000e-01 2.50000000e+02 7.54677100e-03 1.02464900e-01
      -11 -1    0    0    0    0 +0.0000000000e+00 +0.0000000000e+00 +1.2500000000e+02 1.2500000000e+02 0.0000000000e+00 0.0000e+00 -1.0000e+00
       11 -1    0    0    0    0 -0.0000000000e+00 -0.0000000000e+00 -1.2500000000e+02 1.2500000000e+02 0.0000000000e+00 0.0000e+00 1.0000e+00
       23  1    1    2    0    0 -1.7465573488e+01 -5.3664800217e+01 +2.6146643955e+01 1.1038050269e+02 9.1188000000e+01 0.0000e+00 0.0000e+00
       25  1    1    2    0    0 +1.7465573488e+01 +5.3664800217e+01 -2.6146643955e+01 1.3961949731e+02 1.2500000000e+02 0.0000e+00 0.0000e+00
</event>
<event>
 4      1 +2.4014000e-01 2.50000000e+02 7.54677100e-03 1.02464900e-01
      -11 -1    0    0    0    0 +0.0000000000e+00 +0.0000000000e+00 +1.2500000000e+02 1.2500000000e+02 0.0000000000e+00 0.0000e+00 1.0000e+00
       11 -1    0    0    0    0 -0.0000000000e+00 -0.0000000000e+00 -1.2500000000e+02 1.2500000000e+02 0.0000000000e+00 0.0000e+00 -1.0000e+00
       23  1    1    2    0    0 +1.9656098241e+01 +1.5876263058e+00 +5.8989162346e+01 1.1038050269e+02 9.1188000000e+01 0.0000e+00 1.0000e+00
       25  1    1    2    0    0 -1.9656098241e+01 -1.5876263058e+00 -5.8989162346e+01 1.3961949731e+02 1.2500000000e+02 0.0000e+00 0.0000e+00
</event>
<event>
 4      1 +2.4014000e-01 2.50000000e+02 7.54677100e-03 1.02464900e-01
      -11 -1    0    0    0    0 +0.0000000000e+00 +0.0000000000e+00 +1.2500000000e+02 1.2500000000e+02 0.0000000000e+00 0.0000e+00 1.0000e+00
       11 -1    0    0    0    0 -0.0000000000e+00 -0.0000000000e+00 -1.2500000000e+02 1.2500000000e+02 0.0000000000e+00 0.0000e+00 -1.0000e+00
       23  1    1    2    0    0 -1.1880974898e+01 +5.4624184133e+01 +2.7269854656e+01 1.1038050269e+02 9.1188000000e+01 0.0000e+00 1.0000e+00
       25  1    1    2    0    0 +1.1880974898e+01 -5.4624184133e+01 -2.7269854656e+01 1.3961949731e+02 1.2500000000e+02 0.0000e+00 0.0000e+00
</event>
<event>
 4      1 +2.4014000e-01 2.50000000e+02 7.54677100e-03 1.02464900e-01
      -11 -1    0    0    0    0 +0.0000000000e+00 +0.0000000000e+00 +1.2500000000e+02 1.2500000000e+02 0.0000000000e+00 0.0000e+00 1.0000e+00
       11 -1    0    0    0    0 -0.0000000000e+00 -0.0000000000e+00 -1.2500000000e+02 1.2500000000e+02 0.0000000000e+00 0.0000e+00 -1.0000e+00
       23  1    1    2    0    0 +1.6484013064e+01 -2.3034818979e+01 -5.5373987192e+01 1.1038050269e+02 9.1188000000e+01 0.0000e+00 0.0000e+00
       25  1    1    2    0    0 -1.6484013064e+01 +2.3034818979e+01 +5.5373987192e+01 1.3961949731e+02 1.2500000000e+02 0.0000e+00 0.0000e+00
</event>
<event>
 4      1 +2.4014000e-01 2.50000000e+02 7.54677100e-03 1.02464900e-01
      -11 -1    0    0    0    0 +0.0000000000e+00 +0.0000000000e+00 +1.2500000000e+02 1.2500000000e+02 0.0000000000e+00 0.0000e+00 1.0000e+00
       11 -1    0    0    0    0 -0.0000000000e+00 -0.0000000000e+00 -1.2500000000e+02 1.2500000000e+02 0.0000000000e+00 0.0000e+00 -1.0000e+00
       23  1    1    2    0    0 -5.4190469511e+01 -2.9319361835e+01 -8.5071772894e+00 1.1038050269e+02 9.1188000000e+01 0.0000e+00 0.0000e+00
       25  1    1    2    0    0 +5.4190469511e+01 +2.9319361835e+01 +8.5071772894e+00 1.3961949731e+02 1.2500000000e+02 0.0000e+00 0.0000e+00
</event>
<event>
 4      1 +2.4014000e-01 2.50000000e+02 7.54677100e-03 1.02464900e-01
      -11 -1    0    0    0    0 +0.0000000000e+00 +0.0000000000e+00 +1.2500000000e+02 1.2500000000e+02 0.0000000000e+00 0.0000e+00 1.0000e+00
       11 -1    0    0    0    0 -0.0000000000e+00 -0.0000000000e+00 -1.2500000000e+02 1.2500000000e+02 0.0000000000e+00 0.0000e+00 -1.0000e+00
       23  1    1    2    0    0 +4.9618982999e+01 +3.0895791687e+01 -2.1260541192e+01 1.1038050269e+02 9.1188000000e+01 0.0000e+00 -1.0000e+00
       25  1    1    2    0    0 -4.9618982999e+01 -3.0895791687e+01 +2.1260541192e+01 1.3961949731e+02 1.2500000000e+02 0.0000e+00 0.0000e+00
</event>
<event>
 4      1 +2.4014000e-01 2.50000000e+02 7.54677100e-03 1.02464900e-01
      -11 -1    0    0    0    0 +0.0000000000e+00 +0.0000000000e+00 +1.2500000000e+02 1.2500000000e+02 0.0000000000e+00 0.0000e+00 1.0000e+00
       11 -1    0    0    0    0 -0.0000000000e+00 -0.0000000000e+00 -1.2500000000e+02 1.2500000000e+02 0.0000000000e+00 0.0000e+00 -1.0000e+00
       23  1    1    2    0    0 +2.3745847537e+01 +9.2343091121e+00 -5.6740340937e+01 1.1038050269e+02 9.1188000000e+01 0.0000e+00 -1.0000e+00
       25  1    1    2    0    0 -2.3745847537e+01 -9.2343091121e+00 +5.6740340937e+01 1.3961949731e+02 1.2500000000e+02 0.0000e+00 0.0000e+00
</event>
<event>
 4      1 +2.4014000e-01 2.50000000e+02 7.54677100e-03 1.02464900e-01
      -11 -1    0    0    0    0 +0.0000000000e+00 +0.0000000000e+00 +1.2500000000e+02 1.2500000000e+02 0.0000000000e+00 0.0000e+00 1.0000e+00
       11 -1    0    0    0    0 -0.0000000000e+00 -0.0000000000e+00 -1.2500000000e+02 1.2500000000e+02 0.0000000000e+00 0.0000e+00 -1.0000e+00
       23  1    1    2    0    0 -1.9537438067e+01 -3.5111963518e+01 -4.7476758118e+01 1.1038050269e+02 9.1188000000e+01 0.0000e+00 -1.0000e+00
       25  1    1    2    0    0 +1.9537438067e+01 +3.5111963518e+01 +4.7476758118e+01 1.3961949731e+02 1.2500000000e+02 0.0000e+00 0.0000e+00
</event>
<event>
 4      1 +2.4014000e-01 2.50000000e+02 7.54677100e-03 1.02464900e-01
      -11 -1    0    0    0    0 +0.0000000000e+00 +0.0000000000e+00 +1.2500000000e+02 1.2500000000e+02 0.0000000000e+00 0.0000e+00 1.0000e+00
       11 -1    0    0    0    0 -0.0000000000e+00 -0.0000000000e+00 -1.2500000000e+02 1.2500000000e+02 0.0000000000e+00 0.0000e+00 -1.0000e+00
       23  1    1    2    0    0 +3.0496363090e+01 +5.3839998242e+01 +6.3111375560e+00 1.1038050269e+02 9.1188000000e+01 0.0000e+00 1.0000e+00
       25  1    1    2    0    0 -3.0496363090e+01 -5.3839998242e+01 -6.3111375560e+00 1.3961949731e+02 1.2500000000e+02 0.0000e+00 0.0000e+00
</event>
<event>
 4      1 +2.4014000e-01 2.50000000e+02 7.54677100e-03 1.02464900e-01
      -11 -1    0    0    0    0 +0.0000000000e+00 +0.0000000000e+00 +1.2500000000e+02 1.2500000000e+02 0.0000000000e+00 0.0000e+00 -1.0000e+00
       11 -1    0    0    0    0 -0.0000000000e+00 -0.0000000000e+00 -1.2500000000e+02 1.2500000000e+02 0.0000000000e+00 0.0000e+00 1.0000e+00
       23  1    1    2    0    0 +1.6882969065e+01 -4.3748118648e+01 +4.0861614015e+01 1.1038050269e+02 9.1188000000e+01 0.0000e+00 -1.0000e+00
       25  1    1    2    0    0 -1.6882969065e+01 +4.3748118648e+01 -4.0861614015e+01 1.3961949731e+02 1.2500000000e+02 0.0000e+00 0.0000e+00
</event>
<event>
 4      1 +2.4014000e-01 2.50000000e+02 7.54677100e-03 1.02464900e-01
      -11 -1    0    0    0    0 +0.0000000000e+00 +0.0000000000e+00 +1.2500000000e+02 1.2500000000e+02 0.0000000000e+00 0.0000e+00 -1.0000e+00
       11 -1    0    0    0    0 -0.0000000000e+00 -0.0000000000e+00 -1.2500000000e+02 1.2500000000e+02 0.0000000000e+00 0.0000e+00 1.0000e+00
       23  1    1    2    0    0 -2.6141814896e+01 +3.5140422270e+01 -4.4162883355e+01 1.1038050269e+02 9.1188000000e+01 0.0000e+00 1.0000e+00
       25  1    1    2    0    0 +2.6141814896e+01 -3.5140422270e+01 +4.4162883355e+01 1.3961949731e+02 1.2500000000e+02 0.0000e+00 0.0000e+00
</event>
<event>
 4      1 +2.4014000e-01 2.50000000e+02 7.54677100e-03 1.02464900e-01
      -11 -1    0    0    0    0 +0.0000000000e+00 +0.0000000000e+00 +1.2500000000e+02 1.2500000000e+02 0.0000000000e+00 0.0000e+00 -1.0000e+00
       11 -1    0    0    0    0 -0.0000000000e+00 -0.0000000000e+00 -1.2500000000e+02 1.2500000000e+02 0.0000000000e+00 0.0000e+00 1.0000e+00
       23  1    1    2    0    0 +5.1217849440e+01 +1.8434657628e+01 +3.0091515855e+01 1.1038050269e+02 9.1188000000e+01 0.0000e+00 -1.0000e+00
       25  1    1    2    0    0 -5.1217849440e+01 -1.8434657628e+01 -3.0091515855e+01 1.3961949731e+02 1.2500000000e+02 0.0000e+00 0.0000e+00
</event>
<event>
 4      1 +2.4014000e-01 2.50000000e+02 7.54677100e-03 1.02464900e-01
      -11 -1    0    0    0    0 +0.0000000000e+00 +0.0000000000e+00 +1.2500000000e+02 1.2500000000e+02 0.0000000000e+00 0.0000e+00 1.0000e+00
       11 -1    0    0    0    0 -0.0000000000e+00 -0.0000000000e+00 -1.2500000000e+02 1.2500000000e+02 0.0000000000e+00 0.0000e+00 -1.0000e+00
       23  1    1    2    0    0 +4.7924807104e+01 +2.2625624797e+01 -3.2556074644e+01 1.1038050269e+02 9.1188000000e+01 0.0000e+00 0.0000e+00
       25  1    1    2    0    0 -4.7924807104e+01 -2.2625624797e+01 +3.2556074644e+01 1.3961949731e+02 1.2500000000e+02 0.0000e+00 0.0000e+00
</event>
<event>
 4      1 +2.4014000e-01 2.50000000e+02 7.54677100e-03 1.02464900e-01
      -11 -1    0    0    0    0 +0.0000000000e+00 +0.0000000000e+00 +1.2500000000e+02 1.2500000000e+02 0.0000000000e+00 0.0000e+00 1.0000e+00
       11 -1    0    0    0    0 -0.0000000000e+00 -0.0000000000e+00 -1.2500000000e+02 1.2500000000e+02 0.0000000000e+00 0.0000e+00 -1.0000e+00
       23  1    1    2    0    0 -1.4113334088e+01 -5.0818219436e+01 +3.2968566907e+01 1.1038050269e+02 9.1188000000e+01 0.0000e+00 0.0000e+00
       25  1    1    2    0    0 +1.4113334088e+01 +5.0818219436e+01 -3.2968566907e+01 1.3961949731e+02 1.2500000000e+02 0.0000e+00 0.0000e+00
</event>
<event>
 4      1 +2.4014000e-01 2.50000000e+02 7.54677100e-03 1.02464900e-01
      -11 -1    0    0    0    0 +0.0000000000e+00 +0.0000000000e+00 +1.2500000000e+02 1.2500000000e+02 0.0000000000e+00 0.0000e+00 -1.0000e+00
       11 -1    0    0    0    0 -0.0000000000e+00 -0.0000000000e+00 -1.2500000000e+02 1.2500000000e+02 0.0000000000e+00 0.0000e+00 1.0000e+00
       23  1    1    2    0    0 +2.2687209730e+01 -5.4394461606e+01 +1.9878055511e+01 1.1038050269e+02 9.1188000000e+01 0.0000e+00 0.0000e+00
       25  1    1    2    0    0 -2.2687209730e+01 +5.4394461606e+01 -1.9878055511e+01 1.3961949731e+02 1.2500000000e+02 0.0000e+00 0.0000e+00
</event>
<event>
 4      1 +2.4014000e-01 2.50000000e+02 7.54677100e-03 1.02464900e-01
      -11 -1    0    0    0    0 +0.0000000000e+00 +0.0000000000e+00 +1.2500000000e+02 1.2500000000e+02 0.0000000000e+00 0.0000e+00 1.0000e+00
       11 -1    0    0    0    0 -0.0000000000e+00 -0.0000000000e+00 -1.2500000000e+02 1.2500000000e+02 0.0000000000e+00 0.0000e+00 -1.0000e+00
       23  1    1    2    0    0 -4.4239952197e+01 -4.2413602395e+01 -1.0607402657e+01 1.1038050269e+02 9.1188000000e+01 0.0000e+00 0.0000e+00
       25  1    1    2    0    0 +4.4239952197e+01 +4.2413602395e+01 +1.0607402657e+01 1.3961949731e+02 1.2500000000e+02 0.0000e+00 0.0000e+00
</event>
<event>
 4      1 +2.4014000e-01 2.50000000e+02 7.54677100e-03 1.02464900e-01
      -11 -1    0    0    0    0 +0.0000000000e+00 +0.0000000000e+00 +1.2500000000e+02 1.2500000000e+02 0.0000000000e+00 0.0000e+00 1.0000e+00
       11 -1    0    0    0    0 -0.0000000000e+00 -0.0000000000e+00 -1.2500000000e+02 1.2500000000e+02 0.0000000000e+00 0.0000e+00 -1.0000e+00
       23  1    1    2    0    0 -2.5720105735e+01 -5.5450785595e+01 +1.1501763668e+01 1.1038050269e+02 9.1188000000e+01 0.0000e+00 0.0000e+00
       25  1    1    2    0    0 +2.5720105735e+01 +5.5450785595e+01 -1.1501763668e+01 1.3961949731e+02 1.2500000000e+02 0.0000e+00 0.0000e+00
</event>
<event>
 4      1 +2.4014000e-01 2.50000000e+02 7.54677100e-03 1.02464900e-01
      -11 -1    0    0    0    0 +0.0000000000e+00 +0.0000000000e+00 +1.2500000000e+02 1.2500000000e+02 0.0000000000e+00 0.0000e+00 1.0000e+00
       11 -1    0    0    0    0 -0.0000000000e+00 -0.0000000000e+00 -1.2500000000e+02 1.2500000000e+02 0.0000000000e+00 0.0000e+00 -1.0000e+00
       23  1    1    2    0    0 +5.9314840973e+01 +1.8699723616e+01 +8.2097913402e-01 1.1038050269e+02 9.1188000000e+01 0.0000e+00 0.0000e+00
       25  1    1    2    0    0 -5.9314840973e+01 -1.8699723616e+01 -8.2097913402e-01 1.3961949731e+02 1.2500000000e+02 0.0000e+00 0.0000e+00
</event>
<event>
 4      1 +2.4014000e-01 2.50000000e+02 7.54677100e-03 1.02464900e-01
      -11 -1    0    0    0    0 +0.0000000000e+00 +0.0000000000e+00 +1.2500000000e+02 1.2500000000e+02 0.0000000000e+00 0.0000e+00 -1.0000e+00
       11 -1    0    0    0    0 -0.0000000000e+00 -0.0000000000e+00 -1.2500000000e+02 1.2500000000e+02 0.0000000000e+00 0.0000e+00 1.0000e+00
       23  1    1    2    0    0 -3.4869956131e+01 -2.5958952762e+01 -4.4483962959e+01 1.1038050269e+02 9.1188000000e+01 0.0000e+00 1.0000e+00
       25  1    1    2    0    0 +3.4869956131e+01 +2.5958952762e+01 +4.4483962959e+01 1.3961949731e+02 1.2500000000e+02 0.0000e+00 0.0000e+00
</event>
<event>
 4      1 +2.4014000e-01 2.50000000e+02 7.54677100e-03 1.02464900e-01
      -11 -1    0    0    0    0 +0.0000000000e+00 +0.0000000000e+00 +1.2500000000e+02 1.2500000000e+02 0.0000000000e+00 0.0000e+00 1.0000e+00
       11 -1    0    0    0    0 -0.0000000000e+00 -0.0000000000e+00 -1.2500000000e+02 1.2500000000e+02 0.0000000000e+00 0.0000e+00 -1.0000e+00
       23  1    1    2    0    0 -3.4788273023e+01 -2.3533558836e+01 +4.5875393167e+01 1.1038050269e+02 9.1188000000e+01 0.0000e+00 1.0000e+00
       25  1    1    2    0    0 +3.4788273023e+01 +2.3533558836e+01 -4.5875393167e+01 1.3961949731e+02 1.2500000000e+02 0.0000e+00 0.0000e+00
</event>
<event>
 4      1 +2.4014000e-01 2.50000000e+02 7.54677100e-03 1.02464900e-01
      -11 -1    0    0    0    0 +0.0000000000e+00 +0.0000000000e+00 +1.2500000000e+02 1.2500000000e+02 0.0000000000e+00 0.0000e+00 -1.0000e+00
       11 -1    0    0    0    0 -0.0000000000e+00 -0.0000000000e+00 -1.2500000000e+02 1.2500000000e+02 0.0000000000e+00 0.0000e+00 1.0000e+00
       23  1    1    2    0    0 -4.1025393223e+01 +2.1485273728e+01 -4.1519924776e+01 1.1038050269e+02 9.1188000000e+01 0.0000e+00 1.0000e+00
       25  1    1    2    0    0 +4.1025393223e+01 -2.1485273728e+01 +4.1519924776e+01 1.3961949731e+02 1.2500000000e+02 0.0000e+00 0.0000e+00
</event>
<event>
 4      1 +2.4014000e-01 2.50000000e+02 7.54677100e-03 1.02464900e-01
      -11 -1    0    0    0    0 +0.0000000000e+00 +0.0000000000e+00 +1.2500000000e+02 1.2500000000e+02 0.0000000000e+00 0.0000e+00 1.0000e+00
       11 -1    0    0    0    0 -0.0000000000e+00 -0.0000000000e+00 -1.2500000000e+02 1.2500000000e+02 0.0000000000e+00 0.0000e+00 -1.0000e+00
       23  1    1    2    0    0 -1.6436745210e+01 +2.9617473887e+01 -5.2165531504e+01 1.1038050269e+02 9.1188000000e+01 0.0000e+00 -1.0000e+00
       25  1    1    2    0    0 +1.6436745210e+01 -2.9617473887e+01 +5.2165531504e+01 1.3961949731e+02 1.2500000000e+02 0.0000e+00 0.0000e+00
</event>
<event>
 4      1 +2.4014000e-01 2.50000000e+02 7.54677100e-03 1.02464900e-01
      -11 -1    0    0    0    0 +0.0000000000e+00 +0.0000000000e+00 +1.2500000000e+02 1.2500000000e+02 0.0000000000e+00 0.0000e+00 1.0000e+00
       11 -1    0    0    0    0 -0.0000000000e+00 -0.0000000000e+00 -1.2500000000e+02 1.2500000000e+02 0.0000000000e+00 0.0000e+00 -1.0000e+00
       23  1    1    2    0    0 +1.2465970073e+01 +5.9150861289e+01 +1.4641694865e+01 1.1038050269e+02 9.1188000000e+01 0.0000e+00 1.0000e+00
       25  1    1    2    0    0 -1.2465970073e+01 -5.9150861289e+01 -1.4641694865e+01 1.3961949731e+02 1.2500000000e+02 0.0000e+00 0.0000e+00
</event>
<event>
 4      1 +2.4014000e-01 2.50000000e+02 7.54677100e-03 1.02464900e-01
      -11 -1    0    0    0    0 +0.0000000000e+00 +0.0000000000e+00 +1.2500000000e+02 1.2500000000e+02 0.0000000000e+00 0.0000e+00 1.0000e+00
       11 -1    0    0    0    0 -0.0000000000e+00 -0.0000000000e+00 -1.2500000000e+02 1.2500000000e+02 0.0000000000e+00 0.0000e+00 -1.0000e+00
       23  1    1    2    0    0 -3.4094298772e+01 +4.4835763188e+01 -2.6380620923e+01 1.1038050269e+02 9.1188000000e+01 0.0000e+00 0.0000e+00
       25  1    1    2    0    0 +3.4094298772e+01 -4.4835763188e+01 +2.6380620923e+01 1.3961949731e+02 1.2500000000e+02 0.0000e+00 0.0000e+00
</event>
<event>
 4      1 +2.4014000e-01 2.50000000e+02 7.54677100e-03 1.02464900e-01
      -11 -1    0    0    0    0 +0.0000000000e+00 +0.0000000000e+00 +1.2500000000e+02 1.2500000000e+02 0.0000000000e+00 0.0000e+00 1.0000e+00
       11 -1    0    0    0    0 -0.0000000000e+00 -0.0000000000e+00 -1.2500000000e+02 1.2500000000e+02 0.0000000000e+00 0.0000e+00 -1.0000e+00
       23  1    1    2    0    0 -5.4367654325e+00 +4.9705166082e+01 -3.6992459719e+01 1.1038050269e+02 9.1188000000e+01 0.0000e+00 0.0000e+00
       25  1    1    2    0    0 +5.4367654325e+00 -4.9705166082e+01 +3.6992459719e+01 1.3961949731e+02 1.2500000000e+02 0.0000e+00 0.0000e+00
</event>
<event>
 4      1 +2.4014000e-01 2.50000000e+02 7.54677100e-03 1.02464900e-01
      -11 -1    0    0    0    0 +0.0000000000e+00 +0.0000000000e+00 +1.2500000000e+02 1.2500000000e+02 0.0000000000e+00 0.0000e+00 -1.0000e+00
       11 -1    0    0    0    0 -0.0000000000e+00 -0.0000000000e+00 -1.2500000000e+02 1.2500000000e+02 0.0000000000e+00 0.0000e+00 1.0000e+00
       23  1    1    2    0    0 -6.1933800924e+01 -5.4526370211e+00 -1.7541614106e+00 1.1038050269e+02 9.1188000000e+01 0.0000e+00 0.0000e+00
       25  1    1    2    0    0 +6.1933800924e+01 +5.4526370211e+00 +1.7541614106e+00 1.3961949731e+02 1.2500000000e+02 0.0000e+00 0.0000e+00
</event>
<event>
 4      1 +2.4014000e-01 2.50000000e+02 7.54677100e-03 1.02464900e-01
      -11 -1    0    0    0    0 +0.0000000000e+00 +0.0000000000e+00 +1.2500000000e+02 1.2500000000e+02 0.0000000000e+00 0.0000e+00 1.0000e+00
       11 -1    0    0    0    0 -0.0000000000e+00 -0.0000000000e+00 -1.2500000000e+02 1.2500000000e+02 0.0000000000e+00 0.0000e+00 -1.0000e+00
       23  1    1    2    0    0 -5.9413212291e+01 +9.8321242739e+00 +1.5556463840e+01 1.1038050269e+02 9.1188000000e+01 0.0000e+00 1.0000e+00
       25  1    1    2    0    0 +5.9413212291e+01 -9.8321242739e+00 -1.5556463840e+01 1.3961949731e+02 1.2500000000e+02 0.0000e+00 0.0000e+00
</event>
<event>
 4      1 +2.4014000e-01 2.50000000e+02 7.54677100e-03 1.02464900e-01
      -11 -1    0    0    0    0 +0.0000000000e+00 +0.0000000000e+00 +1.2500000000e+02 1.2500000000e+02 0.0000000000e+00 0.0000e+00 1.0000e+00
       11 -1    0    0    0    0 -0.0000000000e+00 -0.0000000000e+00 -1.2500000000e+02 1.2500000000e+02 0.0000000000e+00 0.0000e+00 -1.0000e+00
       23  1    1    2    0    0 -5.8548739343e+01 -1.0880425791e+01 +1.7951754389e+01 1.1038050269e+02 9.1188000000e+01 0.0000e+00 0.0000e+00
       25  1    1    2    0    0 +5.8548739343e+01 +1.0880425791e+01 -1.7951754389e+01 1.3961949731e+02 1.2500000000e+02 0.0000e+00 0.0000e+00
</event>
<event>
 4      1 +2.4014000e-01 2.50000000e+02 7.54677100e-03 1.02464900e-01
      -11 -1    0    0    0    0 +0.0000000000e+00 +0.0000000000e+00 +1.2500000000e+02 1.2500000000e+02 0.0000000000e+00 0.0000e+00 1.0000e+00
       11 -1    0    0    0    0 -0.0000000000e+00 -0.0000000000e+00 -1.2500000000e+02 1.2500000000e+02 0.0000000000e+00 0.0000e+00 -1.0000e+00
       23  1    1    2    0    0 +1.3492077625e+01 +1.7445515746e+01 -5.8156872779e+01 1.1038050269e+02 9.1188000000e+01 0.0000e+00 0.0000e+00
       25  1    1    2    0    0 -1.3492077625e+01 -1.7445515746e+01 +5.8156872779e+01 1.3961949731e+02 1.2500000000e+02 0.0000e+00 0.0000e+00
</event>
<event>
 4      1 +2.4014000e-01 2.50000000e+02 7.54677100e-03 1.02464900e-01
      -11 -1    0    0    0    0 +0.0000000000e+00 +0.0000000000e+00 +1.2500000000e+02 1.2500000000e+02 0.0000000000e+00 0.0000e+00 1.0000e+00
       11 -1    0    0    0    0 -0.0000000000e+00 -0.0000000000e+00 -1.2500000000e+02 1.2500000000e+02 0.0000000000e+00 0.0000e+00 -1.0000e+00
       23  1    1    2    0    0 -5.8396610401e+01 -9.1066556645e+00 -1.9378048042e+01 1.1038050269e+02 9.1188000000e+01 0.0000e+00 0.0000e+00
       25  1    1    2    0    0 +5.8396610401e+01 +9.1066556645e+00 +1.9378048042e+01 1.3961949731e+02 1.2500000000e+02 0.0000e+00 0.0000e+00
</event>
<event>
 4      1 +2.4014000e-01 2.50000000e+02 7.54677100e-03 1.02464900e-01
      -11 -1    0    0    0    0 +0.0000000000e+00 +0.0000000000e+00 +1.2500000000e+02 1.2500000000e+02 0.0000000000e+00 0.0000e+00 1.0000e+00
       11 -1    0    0    0    0 -0.0000000000e+00 -0.0000000000e+00 -1.2500000000e+02 1.2500000000e+02 0.0000000000e+00 0.0000e+00 -1.0000e+00
       23  1    1    2    0    0 +4.2478734036e+01 -2.2203736965e-01 -4.5432498101e+01 1.1038050269e+02 9.1188000000e+01 0.0000e+00 1.0000e+00
       25  1    1    2    0    0 -4.2478734036e+01 +2.2203736965e-01 +4.5432498101e+01 1.3961949731e+02 1.2500000000e+02 0.0000e+00 0.0000e+00
</event>
<event>
 4      1 +2.4014000e-01 2.50000000e+02 7.54677100e-03 1.02464900e-01
      -11 -1    0    0    0    0 +0.0000000000e+00 +0.0000000000e+00 +1.2500000000e+02 1.2500000000e+02 0.0000000000e+00 0.0000e+00 1.0000e+00
       11 -1    0    0    0    0 -0.0000000000e+00 -0.0000000000e+00 -1.2500000000e+02 1.2500000000e+02 0.0000000000e+00 0.0000e+00 -1.0000e+00
       23  1    1    2    0    0 +6.1021365291e+00 -3.4551953841e+01 +5.1356892870e+01 1.1038050269e+02 9.1188000000e+01 0.0000e+00 0.0000e+00
       25  1    1    2    0    0 -6.1021365291e+00 +3.4551953841e+01 -5.1356892870e+01 1.3961949731e+02 1.2500000000e+02 0.0000e+00 0.0000e+00
</event>
<event>
 4      1 +2.4014000e-01 2.50000000e+02 7.54677100e-03 1.02464900e-01
      -11 -1    0    0    0    0 +0.0000000000e+00 +0.0000000000e+00 +1.2500000000e+02 1.2500000000e+02 0.0000000000e+00 0.0000e+00 -1.0000e+00
       11 -1    0    0    0    0 -0.0000000000e+00 -0.0000000000e+00 -1.2500000000e+02 1.2500000000e+02 0.0000000000e+00 0.0000e+00 1.0000e+00
       23  1    1    2    0    0 +5.8728252318e+01 +1.5756923047e+01 +1.3088765618e+01 1.1038050269e+02 9.1188000000e+01 0.0000e+00 1.0000e+00
       25  1    1    2    0    0 -5.8728252318e+01 -1.5756923047e+01 -1.3088765618e+01 1.3961949731e+02 1.2500000000e+02 0.0000e+00 0.0000e+00
</event>
<event>
 4      1 +2.4014000e-01 2.50000000e+02 7.54677100e-03 1.02464900e-01
      -11 -1    0    0    0    0 +0.0000000000e+00 +0.0000000000e+00 +1.2500000000e+02 1.2500000000e+02 0.0000000000e+00 0.0000e+00 -1.0000e+00
       11 -1    0    0    0    0 -0.0000000000e+00 -0.0000000000e+00 -1.2500000000e+02 1.2500000000e+02 0.0000000000e+00 0.0000e+00 1.0000e+00
       23  1    1    2    0    0 -2.3536429593e+01 +4.7202146677e+01 -3.2963583857e+01 1.1038050269e+02 9.1188000000e+01 0.0000e+00 0.0000e+00
       25  1    1    2    0    0 +2.3536429593e+01 -4.7202146677e+01 +3.2963583857e+01 1.3961949731e+02 1.2500000000e+02 0.0000e+00 0.0000e+00
</event>
<event>
 4      1 +2.4014000e-01 2.50000000e+02 7.54677100e-03 1.02464900e-01
      -11 -1    0    0    0    0 +0.0000000000e+00 +0.0000000000e+00 +1.2500000000e+02 1.2500000000e+02 0.0000000000e+00 0.0000e+00 1.0000e+00
       11 -1    0    0    0    0 -0.0000000000e+00 -0.0000000000e+00 -1.2500000000e+02 1.2500000000e+02 0.0000000000e+00 0.0000e+00 -1.0000e+00
       23  1    1    2    0    0 +4.6265127819e+01 +1.0045460206e+01 +4.0338947765e+01 1.1038050269e+02 9.1188000000e+01 0.0000e+00 1.0000e+00
       25  1    1    2    0    0 -4.6265127819e+01 -1.0045460206e+01 -4.0338947765e+01 1.3961949731e+02 1.2500000000e+02 0.0000e+00 0.0000e+00
</event>
<event>
 4      1 +2.4014000e-01 2.50000000e+02 7.54677100e-03 1.02464900e-01
      -11 -1    0    0    0    0 +0.0000000000e+00 +0.0000000000e+00 +1.2500000000e+02 1.2500000000e+02 0.0000000000e+00 0.0000e+00 -1.0000e+00
       11 -1    0    0    0    0 -0.0000000000e+00 -0.0000000000e+00 -1.2500000000e+02 1.2500000000e+02 0.0000000000e+00 0.0000e+00 1.0000e+00
       23  1    1    2    0    0 +1.1134283487e+01 -1.1716940598e+01 +6.0061177677e+01 1.1038050269e+02 9.1188000000e+01 0.0000e+00 -1.0000e+00
       25  1    1    2    0    0 -1.1134283487e+01 +1.1716940598e+01 -6.0061177677e+01 1.3961949731e+02 1.2500000000e+02 0.0000e+00 0.0000e+00
</event>
<event>
 4      1 +2.4014000e-01 2.50000000e+02 7.54677100e-03 1.02464900e-01
      -11 -1    0    0    0    0 +0.0000000000e+00 +0.0000000000e+00 +1.2500000000e+02 1.2500000000e+02 0.0000000000e+00 0.0000e+00 1.0000e+00
       11 -1    0    0    0    0 -0.0000000000e+00 -0.0000000000e+00 -1.2500000000e+02 1.2500000000e+02 0.0000000000e+00 0.0000e+00 -1.0000e+00
       23  1    1    2    0    0 +1.7751997327e+01 -5.6442696303e+01 +1.9175313676e+01 1.1038050269e+02 9.1188000000e+01 0.0000e+00 1.0000e+00
       25  1    1    2    0    0 -1.7751997327e+01 +5.6442696303e+01 -1.9175313676e+01 1.3961949731e+02 1.2500000000e+02 0.0000e+00 0.0000e+00
</event>
<event>
 4      1 +2.4014000e-01 2.50000000e+02 7.54677100e-03 1.02464900e-01
      -11 -1    0    0    0    0 +0.0000000000e+00 +0.0000000000e+00 +1.2500000000e+02 1.2500000000e+02 0.0000000000e+00 0.0000e+00 1.0000e+00
       11 -1    0    0    0    0 -0.0000000000e+00 -0.0000000000e+00 -1.2500000000e+02 1.2500000000e+02 0.0000000000e+00 0.0000e+00 -1.0000e+00
       23  1    1    2    0    0 -5.5202844691e+00 +4.1271555726e+01 -4.6203778817e+01 1.1038050269e+02 9.1188000000e+01 0.0000e+00 0.0000e+00
       25  1    1    2    0    0 +5.5202844691e+00 -4.1271555726e+01 +4.6203778817e+01 1.3961949731e+02 1.2500000000e+02 0.0000e+00 0.0000e+00
</event>
<event>
 4      1 +2.4014000e-01 2.50000000e+02 7.54677100e-03 1.02464900e-01
      -11 -1    0    0    0    0 +0.0000000000e+00 +0.0000000000e+00 +1.2500000000e+02 1.2500000000e+02 0.0000000000e+00 0.0000e+00 1.0000e+00
       11 -1    0    0    0    0 -0.0000000000e+00 -0.0000000000e+00 -1.2500000000e+02 1.2500000000e+02 0.0000000000e+00 0.0000e+00 -1.0000e+00
       23  1    1    2    0    0 +4.4361850693e+01 +3.7206841212e+00 -4.3437158544e+01 1.1038050269e+02 9.1188000000e+01 0.0000e+00 -1.0000e+00
       25  1    1    2    0    0 -4.4361850693e+01 -3.7206841212e+00 +4.3437158544e+01 1.3961949731e+02 1.2500000000e+02 0.0000e+00 0.0000e+00
</event>
<event>
 4      1 +2.4014000e-01 2.50000000e+02 7.54677100e-03 1.02464900e-01
      -11 -1    0    0    0    0 +0.0000000000e+00 +0.0000000000e+00 +1.2500000000e+02 1.2500000000e+02 0.0000000000e+00 0.0000e+00 1.0000e+00
       11 -1    0    0    0    0 -0.0000000000e+00 -0.0000000000e+00 -1.2500000000e+02 1.2500000000e+02 0.0000000000e+00 0.0000e+00 -1.0000e+00
       23  1    1    2    0    0 +8.6035182416e+00 +3.6433766991e+01 -4.9670555930e+01 1.1038050269e+02 9.1188000000e+01 0.0000e+00 -1.0000e+00
       25  1    1    2    0    0 -8.6035182416e+00 -3.6433766991e+01 +4.9670555930e+01 1.3961949731e+02 1.2500000000e+02 0.0000e+00 0.0000e+00
</event>
<event>
 4      1 +2.4014000e-01 2.50000000e+02 7.54677100e-03 1.02464900e-01
      -11 -1    0    0    0    0 +0.0000000000e+00 +0.0000000000e+00 +1.2500000000e+02 1.2500000000e+02 0.0000000000e+00 0.0000e+00 1.0000e+00
       11 -1    0    0    0    0 -0.0000000000e+00 -0.0000000000e+00 -1.2500000000e+02 1.2500000000e+02 0.0000000000e+00 0.0000e+00 -1.0000e+00
       23  1    1    2    0    0 -5.8867668848e+01 -4.3036137074e+00 +1.9613273647e+01 1.1038050269e+02 9.1188000000e+01 0.0000e+00 0.0000e+00
       25  1    1    2    0    0 +5.8867668848e+01 +4.3036137074e+00 -1.9613273647e+01 1.3961949731e+02 1.2500000000e+02 0.0000e+00 0.0000e+00
</event>
<event>
 4      1 +2.4014000e-01 2.50000000e+02 7.54677100e-03 1.02464900e-01
      -11 -1    0    0    0    0 +0.0000000000e+00 +0.0000000000e+00 +1.2500000000e+02 1.2500000000e+02 0.0000000000e+00 0.0000e+00 -1.0000e+00
       11 -1    0    0    0    0 -0.0000000000e+00 -0.0000000000e+00 -1.2500000000e+02 1.2500000000e+02 0.0000000000e+00 0.0000e+00 1.0000e+00
       23  1    1    2    0    0 +2.8509340647e+01 +1.3658686904e+01 -5.3565490734e+01 1.1038050269e+02 9.1188000000e+01 0.0000e+00 1.0000e+00
       25  1    1    2    0    0 -2.8509340647e+01 -1.3658686904e+01 +5.3565490734e+01 1.3961949731e+02 1.2500000000e+02 0.0000e+00 0.0000e+00
</event>
<event>
 4      1 +2.4014000e-01 2.50000000e+02 7.54677100e-03 1.02464900e-01
      -11 -1    0    0    0    0 +0.0000000000e+00 +0.0000000000e+00 +1.2500000000e+02 1.2500000000e+02 0.0000000000e+00 0.0000e+00 -1.0000e+00
       11 -1    0    0    0    0 -0.0000000000e+00 -0.0000000000e+00 -1.2500000000e+02 1.2500000000e+02 0.0000000000e+00 0.0000e+00 1.0000e+00
       23  1    1    2    0    0 +1.7910264517e+01 -5.8402185350e+01 +1.1705178380e+01 1.1038050269e+02 9.1188000000e+01 0.0000e+00 0.0000e+00
       25  1    1    2    0    0 -1.7910264517e+01 +5.8402185350e+01 -1.1705178380e+01 1.3961949731e+02 1.2500000000e+02 0.0000e+00 0.0000e+00
</event>
<event>
 4      1 +2.4014000e-01 2.50000000e+02 7.54677100e-03 1.02464900e-01
      -11 -1    0    0    0    0 +0.0000000000e+00 +0.0000000000e+00 +1.2500000000e+02 1.2500000000e+02 0.0000000000e+00 0.0000e+00 -1.0000e+00
       11 -1    0    0    0    0 -0.0000000000e+00 -0.0000000000e+00 -1.2500000000e+02 1.2500000000e+02 0.0000000000e+00 0.0000e+00 1.0000e+00
       23  1    1    2    0    0 -4.9952922892e+01 -2.8893223262e+01 -2.3205412596e+01 1.1038050269e+02 9.1188000000e+01 0.0000e+00 1.0000e+00
       25  1    1    2    0    0 +4.9952922892e+01 +2.8893223262e+01 +2.3205412596e+01 1.3961949731e+02 1.2500000000e+02 0.0000e+00 0.0000e+00
</event>
<event>
 4      1 +2.4014000e-01 2.50000000e+02 7.54677100e-03 1.02464900e-01
      -11 -1    0    0    0    0 +0.0000000000e+00 +0.0000000000e+00 +1.2500000000e+02 1.2500000000e+02 0.0000000000e+00 0.0000e+00 -1.0000e+00
       11 -1    0    0    0    0 -0.0000000000e+00 -0.0000000000e+00 -1.2500000000e+02 1.2500000000e+02 0.0000000000e+00 0.0000e+00 1.0000e+00
       23  1    1    2    0    0 -4.0338373110e+01 +2.6443642422e+01 -3.9270261776e+01 1.1038050269e+02 9.1188000000e+01 0.0000e+00 0.0000e+00
       25  1    1    2    0    0 +4.0338373110e+01 -2.6443642422e+01 +3.9270261776e+01 1.3961949731e+02 1.2500000000e+02 0.0000e+00 0.0000e+00
</event>
<event>
 4      1 +2.4014000e-01 2.50000000e+02 7.54677100e-03 1.02464900e-01
      -11 -1    0    0    0    0 +0.0000000000e+00 +0.0000000000e+00 +1.2500000000e+02 1.2500000000e+02 0.0000000000e+00 0.0000e+00 1.0000e+00
       11 -1    0    0    0    0 -0.0000000000e+00 -0.0000000000e+00 -1.2500000000e+02 1.2500000000e+02 0.0000000000e+00 0.0000e+00 -1.0000e+00
       23  1    1    2    0    0 -5.9156148764e+01 -5.9381458930e+00 +1.8272726025e+01 1.1038050269e+02 9.1188000000e+01 0.0000e+00 1.0000e+00
       25  1    1    2    0    0 +5.9156148764e+01 +5.9381458930e+00 -1.8272726025e+01 1.3961949731e+02 1.2500000000e+02 0.0000e+00 0.0000e+00
</event>
<event>
 4      1 +2.4014000e-01 2.50000000e+02 7.54677100e-03 1.02464900e-01
      -11 -1    0    0    0    0 +0.0000000000e+00 +0.0000000000e+00 +1.2500000000e+02 1.2500000000e+02 0.0000000000e+00 0.0000e+00 -1.0000e+00
       11 -1    0    0    0    0 -0.0000000000e+00 -0.0000000000e+00 -1.2500000000e+02 1.2500000000e+02 0.0000000000e+00 0.0000e+00 1.0000e+00
       23  1    1    2    0    0 -4.8985374229e+01 -1.1081283365e+01 +3.6691174693e+01 1.1038050269e+02 9.1188000000e+01 0.0000e+00 0.0000e+00
       25  1    1    2    0    0 +4.8985374229e+01 +1.1081283365e+01 -3.6691174693e+01 1.3961949731e+02 1.2500000000e+02 0.0000e+00 0.0000e+00
</event>
<event>
 4      1 +2.4014000e-01 2.50000000e+02 7.54677100e-03 1.02464900e-01
      -11 -1    0    0    0    0 +0.0000000000e+00 +0.0000000000e+00 +1.2500000000e+02 1.2500000000e+02 0.0000000000e+00 0.0000e+00 1.0000e+00
       11 -1    0    0    0    0 -0.0000000000e+00 -0.0000000000e+00 -1.2500000000e+02 1.2500000000e+02 0.0000000000e+00 0.0000e+00 -1.0000e+00
       23  1    1    2    0    0 -3.3226731131e+00 -6.2046577391e+01 +2.7903596667e+00 1.1038050269e+02 9.1188000000e+01 0.0000e+00 1.0000e+00
       25  1    1    2    0    0 +3.3226731131e+00 +6.2046577391e+01 -2.7903596667e+00 1.3961949731e+02 1.2500000000e+02 0.0000e+00 0.0000e+00
</event>
<event>
 4      1 +2.4014000e-01 2.50000000e+02 7.54677100e-03 1.02464900e-01
      -11 -1    0    0    0    0 +0.0000000000e+00 +0.0000000000e+00 +1.2500000000e+02 1.2500000000e+02 0.0000000000e+00 0.0000e+00 -1.0000e+00
       11 -1    0    0    0    0 -0.0000000000e+00 -0.0000000000e+00 -1.2500000000e+02 1.2500000000e+02 0.0000000000e+00 0.0000e+00 1.0000e+00
       23  1    1    2    0    0 -5.0044161313e+01 -4.2506162526e+00 -3.6689483638e+01 1.1038050269e+02 9.1188000000e+01 0.0000e+00 1.0000e+00
       25  1    1    2    0    0 +5.0044161313e+01 +4.2506162526e+00 +3.6689483638e+01 1.3961949731e+02 1.2500000000e+02 0.0000e+00 0.0000e+00
</event>
<event>
 4      1 +2.4014000e-01 2.50000000e+02 7.54677100e-03 1.02464900e-01
      -11 -1    0    0    0    0 +0.0000000000e+00 +0.0000000000e+00 +1.2500000000e+02 1.2500000000e+02 0.0000000000e+00 0.0000e+00 -1.0000e+00
       11 -1    0    0    0    0 -0.0000000000e+00 -0.0000000000e+00 -1.2500000000e+02 1.2500000000e+02 0.0000000000e+00 0.0000e+00 1.0000e+00
       23  1    1    2    0    0 -2.9548521043e+01 -4.2056437565e+01 -3.5024919603e+01 1.1038050269e+02 9.1188000000e+01 0.0000e+00 1.0000e+00
       25  1    1    2    0    0 +2.9548521043e+01 +4.2056437565e+01 +3.5024919603e+01 1.3961949731e+02 1.2500000000e+02 0.0000e+00 0.0000e+00
</event>
<event>
 4      1 +2.4014000e-01 2.50000000e+02 7.54677100e-03 1.02464900e-01
      -11 -1    0    0    0    0 +0.0000000000e+00 +0.0000000000e+00 +1.2500000000e+02 1.2500000000e+02 0.0000000000e+00 0.0000e+00 1.0000e+00
       11 -1    0    0    0    0 -0.0000000000e+00 -0.0000000000e+00 -1.2500000000e+02 1.2500000000e+02 0.0000000000e+00 0.0000e+00 -1.0000e+00
       23  1    1    2    0    0 +2.3762812649e+01 -9.3361295426e+00 -5.6716571210e+01 1.1038050269e+02 9.1188000000e+01 0.0000e+00 -1.0000e+00
       25  1    1    2    0    0 -2.3762812649e+01 +9.3361295426e+00 +5.6716571210e+01 1.3961949731e+02 1.2500000000e+02 0.0000e+00 0.0000e+00
</event>
<event>
 4      1 +2.4014000e-01 2.50000000e+02 7.54677100e-03 1.02464900e-01
      -11 -1    0    0    0    0 +0.0000000000e+00 +0.0000000000e+00 +1.2500000000e+02 1.2500000000e+02 0.0000000000e+00 0.0000e+00 1.0000e+00
       11 -1    0    0    0    0 -0.0000000000e+00 -0.0000000000e+00 -1.2500000000e+02 1.2500000000e+02 0.0000000000e+00 0.0000e+00 -1.0000e+00
       23  1    1    2    0    0 +4.4442082181e+01 +3.5944876932e+01 +2.4524909447e+01 1.1038050269e+02 9.1188000000e+01 0.0000e+00 0.0000e+00
       25  1    1    2    0    0 -4.4442082181e+01 -3.5944876932e+01 -2.4524909447e+01 1.3961949731e+02 1.2500000000e+02 0.0000e+00 0.0000e+00
</event>
<event>
 4      1 +2.4014000e-01 2.50000000e+02 7.54677100e-03 1.02464900e-01
      -11 -1    0    0    0    0 +0.0000000000e+00 +0.0000000000e+00 +1.2500000000e+02 1.2500000000e+02 0.0000000000e+00 0.0000e+00 1.0000e+00
       11 -1    0    0    0    0 -0.0000000000e+00 -0.0000000000e+00 -1.2500000000e+02 1.2500000000e+02 0.0000000000e+00 0.0000e+00 -1.0000e+00
       23  1    1    2    0    0 -3.6142083612e+01 +4.0805193816e+00 -5.0454961930e+01 1.1038050269e+02 9.1188000000e+01 0.0000e+00 -1.0000e+00
       25  1    1    2    0    0 +3.6142083612e+01 -4.0805193816e+00 +5.0454961930e+01 1.3961949731e+02 1.2500000000e+02 0.0000e+00 0.0000e+00
</event>
<event>
 4      1 +2.4014000e-01 2.50000000e+02 7.54677100e-03 1.02464900e-01
      -11 -1    0    0    0    0 +0.0000000000e+00 +0.0000000000e+00 +1.2500000000e+02 1.2500000000e+02 0.0000000000e+00 0.0000e+00 1.0000e+00
       11 -1    0    0    0    0 -0.0000000000e+00 -0.0000000000e+00 -1.2500000000e+02 1.2500000000e+02 0.0000000000e+00 0.0000e+00 -1.0000e+00
       23  1    1    2    0    0 -2.0531655888e+01 -5.4361794780e+01 +2.2177700613e+01 1.1038050269e+02 9.1188000000e+01 0.0000e+00 0.0000e+00
       25  1    1    2    0    0 +2.0531655888e+01 +5.4361794780e+01 -2.2177700613e+01 1.3961949731e+02 1.2500000000e+02 0.0000e+00 0.0000e+00
</event>
<event>
 4      1 +2.4014000e-01 2.50000000e+02 7.54677100e-03 1.02464900e-01
      -11 -1    0    0    0    0 +0.0000000000e+00 +0.0000000000e+00 +1.2500000000e+02 1.2500000000e+02 0.0000000000e+00 0.0000e+00 -1.0000e+00
       11 -1    0    0    0    0 -0.0000000000e+00 -0.0000000000e+00 -1.2500000000e+02 1.2500000000e+02 0.0000000000e+00 0.0000e+00 1.0000e+00
       23  1    1    2    0    0 +2.8483730551e+01 +4.2819493402e+01 -3.4982454293e+01 1.1038050269e+02 9.1188000000e+01 0.0000e+00 0.0000e+00
       25  1    1    2    0    0 -2.8483730551e+01 -4.2819493402e+01 +3.4982454293e+01 1.3961949731e+02 1.2500000000e+02 0.0000e+00 0.0000e+00
</event>
<event>
 4      1 +2.4014000e-01 2.50000000e+02 7.54677100e-03 1.02464900e-01
      -11 -1    0    0    0    0 +0.0000000000e+00 +0.0000000000e+00 +1.2500000000e+02 1.2500000000e+02 0.0000000000e+00 0.0000e+00 1.0000e+00
       11 -1    0    0    0    0 -0.0000000000e+00 -0.0000000000e+00 -1.2500000000e+02 1.2500000000e+02 0.0000000000e+00 0.0000e+00 -1.0000e+00
       23  1    1    2    0    0 -4.7114754515e+01 +1.2106719724e-01 +4.0605286347e+01 1.1038050269e+02 9.1188000000e+01 0.0000e+00 1.0000e+00
       25  1    1    2    0    0 +4.7114754515e+01 -1.2106719724e-01 -4.0605286347e+01 1.3961949731e+02 1.2500000000e+02 0.0000e+00 0.0000e+00
</event>
<event>
 4      1 +2.4014000e-01 2.50000000e+02 7.54677100e-03 1.02464900e-01
      -11 -1    0    0    0    0 +0.0000000000e+00 +0.0000000000e+00 +1.2500000000e+02 1.2500000000e+02 0.0000000000e+00 0.0000e+00 -1.0000e+00
       11 -1    0    0    0    0 -0.0000000000e+00 -0.0000000000e+00 -1.2500000000e+02 1.2500000000e+02 0.0000000000e+00 0.0000e+00 1.0000e+00
       23  1    1    2    0    0 +5.6026904391e+01 +1.5159554817e+01 -2.2355713181e+01 1.1038050269e+02 9.1188000000e+01 0.0000e+00 0.0000e+00
       25  1    1    2    0    0 -5.6026904391e+01 -1.5159554817e+01 +2.2355713181e+01 1.3961949731e+02 1.2500000000e+02 0.0000e+00 0.0000e+00
</event>
<event>
 4      1 +2.4014000e-01 2.50000000e+02 7.54677100e-03 1.02464900e-01
      -11 -1    0    0    0    0 +0.0000000000e+00 +0.0000000000e+00 +1.2500000000e+02 1.2500000000e+02 0.0000000000e+00 0.0000e+00 -1.0000e+00
       11 -1    0    0    0    0 -0.0000000000e+00 -0.0000000000e+00 -1.2500000000e+02 1.2500000000e+02 0.0000000000e+00 0.0000e+00 1.0000e+00
       23  1    1    2    0    0 -6.5786303450e+00 -5.7123544554e+01 +2.3711311857e+01 1.1038050269e+02 9.1188000000e+01 0.0000e+00 0.0000e+00
       25  1    1    2    0    0 +6.5786303450e+00 +5.7123544554e+01 -2.3711311857e+01 1.3961949731e+02 1.2500000000e+02 0.0000e+00 0.0000e+00
</event>
<event>
 4      1 +2.4014000e-01 2.50000000e+02 7.54677100e-03 1.02464900e-01
      -11 -1    0    0    0    0 +0.0000000000e+00 +0.0000000000e+00 +1.2500000000e+02 1.2500000000e+02 0.0000000000e+00 0.0000e+00 -1.0000e+00
       11 -1    0    0    0    0 -0.0000000000e+00 -0.0000000000e+00 -1.2500000000e+02 1.2500000000e+02 0.0000000000e+00 0.0000e+00 1.0000e+00
       23  1    1    2    0    0 -5.6692169821e+01 -2.5260147537e+01 -4.0653237301e+00 1.1038050269e+02 9.1188000000e+01 0.0000e+00 1.0000e+00
       25  1    1    2    0    0 +5.6692169821e+01 +2.5260147537e+01 +4.0653237301e+00 1.3961949731e+02 1.2500000000e+02 0.0000e+00 0.0000e+00
</event>
<event>
 4      1 +2.4014000e-01 2.50000000e+02 7.54677100e-03 1.02464900e-01
      -11 -1    0    0    0    0 +0.0000000000e+00 +0.0000000000e+00 +1.2500000000e+02 1.2500000000e+02 0.0000000000e+00 0.0000e+00 -1.0000e+00
       11 -1    0    0    0    0 -0.0000000000e+00 -0.0000000000e+00 -1.2500000000e+02 1.2500000000e+02 0.0000000000e+00 0.0000e+00 1.0000e+00
       23  1    1    2    0    0 -3.3330022814e+01 -1.0838083584e+01 -5.1383358718e+01 1.1038050269e+02 9.1188000000e+01 0.0000e+00 1.0000e+00
       25  1    1    2    0    0 +3.3330022814e+01 +1.0838083584e+01 +5.1383358718e+01 1.3961949731e+02 1.2500000000e+02 0.0000e+00 0.0000e+00
</event>
<event>
 4      1 +2.4014000e-01 2.50000000e+02 7.54677100e-03 1.02464900e-01
      -11 -1    0    0    0    0 +0.0000000000e+00 +0.0000000000e+00 +1.2500000000e+02 1.2500000000e+02 0.0000000000e+00 0.0000e+00 1.0000e+00
       11 -1    0    0    0    0 -0.0000000000e+00 -0.0000000000e+00 -1.2500000000e+02 1.2500000000e+02 0.0000000000e+00 0.0000e+00 -1.0000e+00
       23  1    1    2    0    0 -2.7245541717e+01 -2.2736736942e+01 -5.1081555178e+01 1.1038050269e+02 9.1188000000e+01 0.0000e+00 -1.0000e+00
       25  1    1    2    0    0 +2.7245541717e+01 +2.2736736942e+01 +5.1081555178e+01 1.3961949731e+02 1.2500000000e+02 0.0000e+00 0.0000e+00
</event>
<event>
 4      1 +2.4014000e-01 2.50000000e+02 7.54677100e-03 1.02464900e-01
      -11 -1    0    0    0    0 +0.0000000000e+00 +0.0000000000e+00 +1.2500000000e+02 1.2500000000e+02 0.0000000000e+00 0.0000e+00 1.0000e+00
       11 -1    0    0    0    0 -0.0000000000e+00 -0.0000000000e+00 -1.2500000000e+02 1.2500000000e+02 0.0000000000e+00 0.0000e+00 -1.0000e+00
       23  1    1    2    0    0 +3.0216469582e+00 -5.7735063680e+01 +2.2937656836e+01 1.1038050269e+02 9.1188000000e+01 0.0000e+00 1.0000e+00
       25  1    1    2    0    0 -3.0216469582e+00 +5.7735063680e+01 -2.2937656836e+01 1.3961949731e+02 1.2500000000e+02 0.0000e+00 0.0000e+00
</event>
<event>
 4      1 +2.4014000e-01 2.50000000e+02 7.54677100e-03 1.02464900e-01
      -11 -1    0    0    0    0 +0.0000000000e+00 +0.0000000000e+00 +1.2500000000e+02 1.2500000000e+02 0.0000000000e+00 0.0000e+00 -1.0000e+00
       11 -1    0    0    0    0 -0.0000000000e+00 -0.0000000000e+00 -1.2500000000e+02 1.2500000000e+02 0.0000000000e+00 0.0000e+00 1.0000e+00
       23  1    1    2    0    0 +5.8028600643e+01 +9.3049902951e+00 +2.0364250359e+01 1.1038050269e+02 9.1188000000e+01 0.0000e+00 0.0000e+00
       25  1    1    2    0    0 -5.8028600643e+01 -9.3049902951e+00 -2.0364250359e+01 1.3961949731e+02 1.2500000000e+02 0.0000e+00 0.0000e+00
</event>
<event>
 4      1 +2.4014000e-01 2.50000000e+02 7.54677100e-03 1.02464900e-01
      -11 -1    0    0    0    0 +0.0000000000e+00 +0.0000000000e+00 +1.2500000000e+02 1.2500000000e+02 0.0000000000e+00 0.0000e+00 -1.0000e+00
       11 -1    0    0    0    0 -0.0000000000e+00 -0.0000000000e+00 -1.2500000000e+02 1.2500000000e+02 0.0000000000e+00 0.0000e+00 1.0000e+00
       23  1    1    2    0    0 -6.0982939958e+01 +1.1660504001e+01 -3.7037427181e+00 1.1038050269e+02 9.1188000000e+01 0.0000e+00 0.0000e+00
       25  1    1    2    0    0 +6.0982939958e+01 -1.1660504001e+01 +3.7037427181e+00 1.3961949731e+02 1.2500000000e+02 0.0000e+00 0.0000e+00
</event>
<event>
 4      1 +2.4014000e-01 2.50000000e+02 7.54677100e-03 1.02464900e-01
      -11 -1    0    0    0    0 +0.0000000000e+00 +0.0000000000e+00 +1.2500000000e+02 1.2500000000e+02 0.0000000000e+00 0.0000e+00 -1.0000e+00
       11 -1    0    0    0    0 -0.0000000000e+00 -0.0000000000e+00 -1.2500000000e+02 1.2500000000e+02 0.0000000000e+00 0.0000e+00 1.0000e+00
       23  1    1    2    0    0 +3.8332105453e+01 -4.7728327883e+01 -1.1011831758e+01 1.1038050269e+02 9.1188000000e+01 0.0000e+00 1.0000e+00
       25  1    1    2    0    0 -3.8332105453e+01 +4.7728327883e+01 +1.1011831758e+01 1.3961949731e+02 1.2500000000e+02 0.0000e+00 0.0000e+00
</event>
<event>
 4      1 +2.4014000e-01 2.50000000e+02 7.54677100e-03 1.02464900e-01
      -11 -1    0    0    0    0 +0.0000000000e+00 +0.0000000000e+00 +1.2500000000e+02 1.2500000000e+02 0.0000000000e+00 0.0000e+00 1.0000e+00
       11 -1    0    0    0    0 -0.0000000000e+00 -0.0000000000e+00 -1.2500000000e+02 1.2500000000e+02 0.0000000000e+00 0.0000e+00 -1.0000e+00
       23  1    1    2    0    0 +9.4111983164e+00 -4.7685423235e+01 -3.8808939522e+01 1.1038050269e+02 9.1188000000e+01 0.0000e+00 0.0000e+00
       25  1    1    2    0    0 -9.4111983164e+00 +4.7685423235e+01 +3.8808939522e+01 1.3961949731e+02 1.2500000000e+02 0.0000e+00 0.0000e+00
</event>
<event>
 4      1 +2.4014000e-01 2.50000000e+02 7.54677100e-03 1.02464900e-01
      -11 -1    0    0    0    0 +0.0000000000e+00 +0.0000000000e+00 +1.2500000000e+02 1.2500000000e+02 0.0000000000e+00 0.0000e+00 -1.0000e+00
       11 -1    0    0    0    0 -0.0000000000e+00 -0.0000000000e+00 -1.2500000000e+02 1.2500000000e+02 0.0000000000e+00 0.0000e+00 1.0000e+00
       23  1    1    2    0    0 -4.2776642874e+01 -9.7216260174e+00 +4.4093682559e+01 1.1038050269e+02 9.1188000000e+01 0.0000e+00 -1.0000e+00
       25  1    1    2    0    0 +4.2776642874e+01 +9.7216260174e+00 -4.4093682559e+01 1.3961949731e+02 1.2500000000e+02 0.0000e+00 0.0000e+00
</event>
<event>
 4      1 +2.4014000e-01 2.50000000e+02 7.54677100e-03 1.02464900e-01
      -11 -1    0    0    0    0 +0.0000000000e+00 +0.0000000000e+00 +1.2500000000e+02 1.2500000000e+02 0.0000000000e+00 0.0000e+00 1.0000e+00
       11 -1    0    0    0    0 -0.0000000000e+00 -0.0000000000e+00 -1.2500000000e+02 1.2500000000e+02 0.0000000000e+00 0.0000e+00 -1.0000e+00
       23  1    1    2    0    0 +1.4347948698e+01 -3.6211198879e+01 -4.8492158887e+01 1.1038050269e+02 9.1188000000e+01 0.0000e+00 -1.0000e+00
       25  1    1    2    0    0 -1.4347948698e+01 +3.6211198879e+01 +4.8492158887e+01 1.3961949731e+02 1.2500000000e+02 0.0000e+00 0.0000e+00
</event>
<event>
 4      1 +2.4014000e-01 2.50000000e+02 7.54677100e-03 1.02464900e-01
      -11 -1    0    0    0    0 +0.0000000000e+00 +0.0000000000e+00 +1.2500000000e+02 1.2500000000e+02 0.0000000000e+00 0.0000e+00 1.0000e+00
       11 -1    0    0    0    0 -0.0000000000e+00 -0.0000000000e+00 -1.2500000000e+02 1.2500000000e+02 0.0000000000e+00 0.0000e+00 -1.0000e+00
       23  1    1    2    0    0 -1.0178527368e+01 +4.6155242638e+01 -4.0431363906e+01 1.1038050269e+02 9.1188000000e+01 0.0000e+00 -1.0000e+00
       25  1    1    2    0    0 +1.0178527368e+01 -4.6155242638e+01 +4.0431363906e+01 1.3961949731e+02 1.2500000000e+02 0.0000e+00 0.0000e+00
</event>
<event>
 4      1 +2.4014000e-01 2.50000000e+02 7.54677100e-03 1.02464900e-01
      -11 -1    0    0    0    0 +0.0000000000e+00 +0.0000000000e+00 +1.2500000000e+02 1.2500000000e+02 0.0000000000e+00 0.0000e+00 -1.0000e+00
       11 -1    0    0    0    0 -0.0000000000e+00 -0.0000000000e+00 -1.2500000000e+02 1.2500000000e+02 0.0000000000e+00 0.0000e+00 1.0000e+00
       23  1    1    2    0    0 -2.8411249975e+01 +5.1559950531e+01 +2.0074272235e+01 1.1038050269e+02 9.1188000000e+01 0.0000e+00 0.0000e+00
       25  1    1    2    0    0 +2.8411249975e+01 -5.1559950531e+01 -2.0074272235e+01 1.3961949731e+02 1.2500000000e+02 0.0000e+00 0.0000e+00
</event>
<event>
 4      1 +2.4014000e-01 2.50000000e+02 7.54677100e-03 1.02464900e-01
      -11 -1    0    0    0    0 +0.0000000000e+00 +0.0000000000e+00 +1.2500000000e+02 1.2500000000e+02 0.0000000000e+00 0.0000e+00 1.0000e+00
       11 -1    0    0    0    0 -0.0000000000e+00 -0.0000000000e+00 -1.2500000000e+02 1.2500000000e+02 0.0000000000e+00 0.0000e+00 -1.0000e+00
       23  1    1    2    0    0 -8.7982447560e+00 -5.6518762974e+01 +2.4429988759e+01 1.1038050269e+02 9.1188000000e+01 0.0000e+00 1.0000e+00
       25  1    1    2    0    0 +8.7982447560e+00 +5.6518762974e+01 -2.4429988759e+01 1.3961949731e+02 1.2500000000e+02 0.0000e+00 0.0000e+00
</event>
<event>
 4      1 +2.4014000e-01 2.50000000e+02 7.54677100e-03 1.02464900e-01
      -11 -1    0    0    0    0 +0.0000000000e+00 +0.0000000000e+00 +1.2500000000e+02 1.2500000000e+02 0.0000000000e+00 0.0000e+00 -1.0000e+00
       11 -1    0    0    0    0 -0.0000000000e+00 -0.0000000000e+00 -1.2500000000e+02 1.2500000000e+02 0.0000000000e+00 0.0000e+00 1.0000e+00
       23  1    1    2    0    0 -2.8801447457e+01 -2.0226208537e+01 -5.1283341762e+01 1.1038050269e+02 9.1188000000e+01 0.0000e+00 1.0000e+00
       25  1    1    2    0    0 +2.8801447457e+01 +2.0226208537e+01 +5.1283341762e+01 1.3961949731e+02 1.2500000000e+02 0.0000e+00 0.0000e+00
</event>
<event>
 4      1 +2.4014000e-01 2.50000000e+02 7.54677100e-03 1.02464900e-01
      -11 -1    0    0    0    0 +0.0000000000e+00 +0.0000000000e+00 +1.2500000000e+02 1.2500000000e+02 0.0000000000e+00 0.0000e+00 1.0000e+00
       11 -1    0    0    0    0 -0.0000000000e+00 -0.0000000000e+00 -1.2500000000e+02 1.2500000000e+02 0.0000000000e+00 0.0000e+00 -1.0000e+00
       23  1    1    2    0    0 +4.0911570763e+01 +4.4326522888e+01 +1.5165974283e+01 1.1038050269e+02 9.1188000000e+01 0.0000e+00 0.0000e+00
       25  1    1    2    0    0 -4.0911570763e+01 -4.4326522888e+01 -1.5165974283e+01 1.3961949731e+02 1.2500000000e+02 0.0000e+00 0.0000e+00
</event>
<event>
 4      1 +2.4014000e-01 2.50000000e+02 7.54677100e-03 1.02464900e-01
      -11 -1    0    0    0    0 +0.0000000000e+00 +0.0000000000e+00 +1.2500000000e+02 1.2500000000e+02 0.0000000000e+00 0.0000e+00 1.0000e+00
       11 -1    0    0    0    0 -0.0000000000e+00 -0.0000000000e+00 -1.2500000000e+02 1.2500000000e+02 0.0000000000e+00 0.0000e+00 -1.0000e+00
       23  1    1    2    0    0 +2.9532586741e+01 +2.3038997492e+01 +4.9655160302e+01 1.1038050269e+02 9.1188000000e+01 0.0000e+00 0.0000e+00
       25  1    1    2    0    0 -2.9532586741e+01 -2.3038997492e+01 -4.9655160302e+01 1.3961949731e+02 1.2500000000e+02 0.0000e+00 0.0000e+00
</event>
<event>
 4      1 +2.4014000e-01 2.50000000e+02 7.54677100e-03 1.02464900e-01
      -11 -1    0    0    0    0 +0.0000000000e+00 +0.0000000000e+00 +1.2500000000e+02 1.2500000000e+02 0.0000000000e+00 0.0000e+00 1.0000e+00
       11 -1    0    0    0    0 -0.0000000000e+00 -0.0000000000e+00 -1.2500000000e+02 1.2500000000e+02 0.0000000000e+00 0.0000e+00 -1.0000e+00
       23  1    1    2    0    0 +5.5904579094e+01 -2.6114918989e+01 -7.8289892181e+00 1.1038050269e+02 9.1188000000e+01 0.0000e+00 0.0000e+00
       25  1    1    2    0    0 -5.5904579094e+01 +2.6114918989e+01 +7.8289892181e+00 1.3961949731e+02 1.2500000000e+02 0.0000e+00 0.0000e+00
</event>
<event>
 4      1 +2.4014000e-01 2.50000000e+02 7.54677100e-03 1.02464900e-01
      -11 -1    0    0    0    0 +0.0000000000e+00 +0.0000000000e+00 +1.2500000000e+02 1.2500000000e+02 0.0000000000e+00 0.0000e+00 1.0000e+00
       11 -1    0    0    0    0 -0.0000000000e+00 -0.0000000000e+00 -1.2500000000e+02 1.2500000000e+02 0.0000000000e+00 0.0000e+00 -1.0000e+00
       23  1    1    2    0    0 -5.3081977787e+01 +1.3240463574e+01 +2.9590501655e+01 1.1038050269e+02 9.1188000000e+01 0.0000e+00 0.0000e+00
       25  1    1    2    0    0 +5.3081977787e+01 -1.3240463574e+01 -2.9590501655e+01 1.3961949731e+02 1.2500000000e+02 0.0000e+00 0.0000e+00
</event>
<event>
 4      1 +2.4014000e-01 2.50000000e+02 7.54677100e-03 1.02464900e-01
      -11 -1    0    0    0    0 +0.0000000000e+00 +0.0000000000e+00 +1.2500000000e+02 1.2500000000e+02 0.0000000000e+00 0.0000e+00 -1.0000e+00
       11 -1    0    0    0    0 -0.0000000000e+00 -0.0000000000e+00 -1.2500000000e+02 1.2500000000e+02 0.0000000000e+00 0.0000e+00 1.0000e+00
       23  1    1    2    0    0 +1.7836033308e+01 -5.7808735038e+01 +1.4444033328e+01 1.1038050269e+02 9.1188000000e+01 0.0000e+00 -1.0000e+00
       25  1    1    2    0    0 -1.7836033308e+01 +5.7808735038e+01 -1.4444033328e+01 1.3961949731e+02 1.2500000000e+02 0.0000e+00 0.0000e+00
</event>
<event>
 4      1 +2.4014000e-01 2.50000000e+02 7.54677100e-03 1.02464900e-01
      -11 -1    0    0    0    0 +0.0000000000e+00 +0.0000000000e+00 +1.2500000000e+02 1.2500000000e+02 0.0000000000e+00 0.0000e+00 1.0000e+00
       11 -1    0    0    0    0 -0.0000000000e+00 -0.0000000000e+00 -1.2500000000e+02 1.2500000000e+02 0.0000000000e+00 0.0000e+00 -1.0000e+00
       23  1    1    2    0    0 -4.2161032550e+01 +2.7392030371e+01 +3.6615953301e+01 1.1038050269e+02 9.1188000000e+01 0.0000e+00 0.0000e+00
       25  1    1    2    0    0 +4.2161032550e+01 -2.7392030371e+01 -3.6615953301e+01 1.3961949731e+02 1.2500000000e+02 0.0000e+00 0.0000e+00
</event>
<event>
 4      1 +2.4014000e-01 2.50000000e+02 7.54677100e-03 1.02464900e-01
      -11 -1    0    0    0    0 +0.0000000000e+00 +0.0000000000e+00 +1.2500000000e+02 1.2500000000e+02 0.0000000000e+00 0.0000e+00 -1.0000e+00
       11 -1    0    0    0    0 -0.0000000000e+00 -0.0000000000e+00 -1.2500000000e+02 1.2500000000e+02 0.0000000000e+00 0.0000e+00 1.0000e+00
       23  1    1    2    0    0 +3.1484141549e+01 +5.3425438089e+01 +4.8036887539e+00 1.1038050269e+02 9.1188000000e+01 0.0000e+00 1.0000e+00
       25  1    1    2    0    0 -3.1484141549e+01 -5.3425438089e+01 -4.8036887539e+00 1.3961949731e+02 1.2500000000e+02 0.0000e+00 0.0000e+00
</event>
<event>
 4      1 +2.4014000e-01 2.50000000e+02 7.54677100e-03 1.02464900e-01
      -11 -1    0    0    0    0 +0.0000000000e+00 +0.0000000000e+00 +1.2500000000e+02 1.2500000000e+02 0.0000000000e+00 0.0000e+00 1.0000e+00
       11 -1    0    0    0    0 -0.0000000000e+00 -0.0000000000e+00 -1.2500000000e+02 1.2500000000e+02 0.0000000000e+00 0.0000e+00 -1.0000e+00
       23  1    1    2    0    0 +1.5170277671e+01 -5.4924410258e+01 +2.4935433882e+01 1.1038050269e+02 9.1188000000e+01 0.0000e+00 0.0000e+00
       25  1    1    2    0    0 -1.5170277671e+01 +5.4924410258e+01 -2.4935433882e+01 1.3961949731e+02 1.2500000000e+02 0.0000e+00 0.0000e+00
</event>
<event>
 4      1 +2.4014000e-01 2.50000000e+02 7.54677100e-03 1.02464900e-01
      -11 -1    0    0    0    0 +0.0000000000e+00 +0.0000000000e+00 +1.2500000000e+02 1.2500000000e+02 0.0000000000e+00 0.0000e+00 1.0000e+00
       11 -1    0    0    0    0 -0.0000000000e+00 -0.0000000000e+00 -1.2500000000e+02 1.2500000000e+02 0.0000000000e+00 0.0000e+00 -1.0000e+00
       23  1    1    2    0    0 +5.6181822953e+01 -8.0868765652e+00 +2.5432444373e+01 1.1038050269e+02 9.1188000000e+01 0.0000e+00 1.0000e+00
       25  1    1    2    0    0 -5.6181822953e+01 +8.0868765652e+00 -2.5432444373e+01 1.3961949731e+02 1.2500000000e+02 0.0000e+00 0.0000e+00
</event>
<event>
 4      1 +2.4014000e-01 2.50000000e+02 7.54677100e-03 1.02464900e-01
      -11 -1    0    0    0    0 +0.0000000000e+00 +0.0000000000e+00 +1.2500000000e+02 1.2500000000e+02 0.0000000000e+00 0.0000e+00 1.0000e+00
       11 -1    0    0    0    0 -0.0000000000e+00 -0.0000000000e+00 -1.2500000000e+02 1.2500000000e+02 0.0000000000e+00 0.0000e+00 -1.0000e+00
       23  1    1    2    0    0 +2.6399148921e+01 +3.8795667508e+01 -4.0823830645e+01 1.1038050269e+02 9.1188000000e+01 0.0000e+00 -1.0000e+00
       25  1    1    2    0    0 -2.6399148921e+01 -3.8795667508e+01 +4.0823830645e+01 1.3961949731e+02 1.2500000000e+02 0.0000e+00 0.0000e+00
</event>
<event>
 4      1 +2.4014000e-01 2.50000000e+02 7.54677100e-03 1.02464900e-01
      -11 -1    0    0    0    0 +0.0000000000e+00 +0.0000000000e+00 +1.2500000000e+02 1.2500000000e+02 0.0000000000e+00 0.0000e+00 -1.0000e+00
       11 -1    0    0    0    0 -0.0000000000e+00 -0.0000000000e+00 -1.2500000000e+02 1.2500000000e+02 0.0000000000e+00 0.0000e+00 1.0000e+00
       23  1    1    2    0    0 -4.1078001705e+01 +4.4039453654e+01 +1.5547614849e+01 1.1038050269e+02 9.1188000000e+01 0.0000e+00 -1.0000e+00
       25  1    1    2    0    0 +4.1078001705e+01 -4.4039453654e+01 -1.5547614849e+01 1.3961949731e+02 1.2500000000e+02 0.0000e+00 0.0000e+00
</event>
<event>
 4      1 +2.4014000e-01 2.50000000e+02 7.54677100e-03 1.02464900e-01
      -11 -1    0    0    0    0 +0.0000000000e+00 +0.0000000000e+00 +1.2500000000e+02 1.2500000000e+02 0.0000000000e+00 0.0000e+00 -1.0000e+00
       11 -1    0    0    0    0 -0.0000000000e+00 -0.0000000000e+00 -1.2500000000e+02 1.2500000000e+02 0.0000000000e+00 0.0000e+00 1.0000e+00
       23  1    1    2    0    0 -3.6895298516e+01 -4.6014774699e+01 -1.9747948917e+01 1.1038050269e+02 9.1188000000e+01 0.0000e+00 0.0000e+00
       25  1    1    2    0    0 +3.6895298516e+01 +4.6014774699e+01 +1.9747948917e+01 1.3961949731e+02 1.2500000000e+02 0.0000e+00 0.0000e+00
</event>
<event>
 4      1 +2.4014000e-01 2.50000000e+02 7.54677100e-03 1.02464900e-01
      -11 -1    0    0    0    0 +0.0000000000e+00 +0.0000000000e+00 +1.2500000000e+02 1.2500000000e+02 0.0000000000e+00 0.0000e+00 -1.0000e+00
       11 -1    0    0    0    0 -0.0000000000e+00 -0.0000000000e+00 -1.2500000000e+02 1.2500000000e+02 0.0000000000e+00 0.0000e+00 1.0000e+00
       23  1    1    2    0    0 +3.2469822577e+01 +5.2803595290e+01 +5.1083241837e+00 1.1038050269e+02 9.1188000000e+01 0.0000e+00 0.0000e+00
       25  1    1    2    0    0 -3.2469822577e+01 -5.2803595290e+01 -5.1083241837e+00 1.3961949731e+02 1.2500000000e+02 0.0000e+00 0.0000e+00
</event>
<event>
 4      1 +2.4014000e-01 2.50000000e+02 7.54677100e-03 1.02464900e-01
      -11 -1    0    0    0    0 +0.0000000000e+00 +0.0000000000e+00 +1.2500000000e+02 1.2500000000e+02 0.0000000000e+00 0.0000e+00 -1.0000e+00
       11 -1    0    0    0    0 -0.0000000000e+00 -0.0000000000e+00 -1.2500000000e+02 1.2500000000e+02 0.0000000000e+00 0.0000e+00 1.0000e+00
       23  1    1    2    0    0 -5.5275045446e+01 -1.2284890980e+00 -2.8491475833e+01 1.1038050269e+02 9.1188000000e+01 0.0000e+00 1.0000e+00
       25  1    1    2    0    0 +5.5275045446e+01 +1.2284890980e+00 +2.8491475833e+01 1.3961949731e+02 1.2500000000e+02 0.0000e+00 0.0000e+00
</event>
<event>
 4      1 +2.4014000e-01 2.50000000e+02 7.54677100e-03 1.02464900e-01
      -11 -1    0    0    0    0 +0.0000000000e+00 +0.0000000000e+00 +1.2500000000e+02 1.2500000000e+02 0.0000000000e+00 0.0000e+00 1.0000e+00
       11 -1    0    0    0    0 -0.0000000000e+00 -0.0000000000e+00 -1.2500000000e+02 1.2500000000e+02 0.0000000000e+00 0.0000e+00 -1.0000e+00
       23  1    1    2    0    0 -5.9158340674e+01 -9.7196295754e+00 -1.6565734491e+01 1.1038050269e+02 9.1188000000e+01 0.0000e+00 0.0000e+00
       25  1    1    2    0    0 +5.9158340674e+01 +9.7196295754e+00 +1.6565734491e+01 1.3961949731e+02 1.2500000000e+02 0.0000e+00 0.0000e+00
</event>
<event>
 4      1 +2.4014000e-01 2.50000000e+02 7.54677100e-03 1.02464900e-01
      -11 -1    0    0    0    0 +0.0000000000e+00 +0.0000000000e+00 +1.2500000000e+02 1.2500000000e+02 0.0000000000e+00 0.0000e+00 1.0000e+00
       11 -1    0    0    0    0 -0.0000000000e+00 -0.0000000000e+00 -1.2500000000e+02 1.2500000000e+02 0.0000000000e+00 0.0000e+00 -1.0000e+00
       23  1    1    2    0    0 -5.2209136972e+01 -3.3347866894e+01 -5.5434483737e+00 1.1038050269e+02 9.1188000000e+01 0.0000e+00 0.0000e+00
       25  1    1    2    0    0 +5.2209136972e+01 +3.3347866894e+01 +5.5434483737e+00 1.3961949731e+02 1.2500000000e+02 0.0000e+00 0.0000e+00
</event>
<event>
 4      1 +2.4014000e-01 2.50000000e+02 7.54677100e-03 1.02464900e-01
      -11 -1    0    0    0    0 +0.0000000000e+00 +0.0000000000e+00 +1.2500000000e+02 1.2500000000e+02 0.0000000000e+00 0.0000e+00 1.0000e+00
       11 -1    0    0    0    0 -0.0000000000e+00 -0.0000000000e+00 -1.2500000000e+02 1.2500000000e+02 0.0000000000e+00 0.0000e+00 -1.0000e+00
       23  1    1    2    0    0 +1.3432273175e+01 +4.0221890469e+01 -4.5501402111e+01 1.1038050269e+02 9.1188000000e+01 0.0000e+00 -1.0000e+00
       25  1    1    2    0    0 -1.3432273175e+01 -4.0221890469e+01 +4.5501402111e+01 1.3961949731e+02 1.2500000000e+02 0.0000e+00 0.0000e+00
</event>
<event>
 4      1 +2.4014000e-01 2.50000000e+02 7.54677100e-03 1.02464900e-01
      -11 -1    0    0    0    0 +0.0000000000e+00 +0.0000000000e+00 +1.2500000000e+02 1.2500000000e+02 0.0000000000e+00 0.0000e+00 -1.0000e+00
       11 -1    0    0    0    0 -0.0000000000e+00 -0.0000000000e+00 -1.2500000000e+02 1.2500000000e+02 0.0000000000e+00 0.0000e+00 1.0000e+00
       23  1    1    2    0    0 +6.0068990913e+01 +8.8617299516e+00 -1.3482956005e+01 1.1038050269e+02 9.1188000000e+01 0.0000e+00 1.0000e+00
       25  1    1    2    0    0 -6.0068990913e+01 -8.8617299516e+00 +1.3482956005e+01 1.3961949731e+02 1.2500000000e+02 0.0000e+00 0.0000e+00
</event>
<event>
 4      1 +2.4014000e-01 2.50000000e+02 7.54677100e-03 1.02464900e-01
      -11 -1    0    0    0    0 +0.0000000000e+00 +0.0000000000e+00 +1.2500000000e+02 1.2500000000e+02 0.0000000000e+00 0.0000e+00 1.0000e+00
       11 -1    0    0    0    0 -0.0000000000e+00 -0.0000000000e+00 -1.2500000000e+02 1.2500000000e+02 0.0000000000e+00 0.0000e+00 -1.0000e+00
       23  1    1    2    0    0 -1.1413807728e+00 +5.8621259424e+01 +2.0756907841e+01 1.1038050269e+02 9.1188000000e+01 0.0000e+00 0.0000e+00
       25  1    1    2    0    0 +1.1413807728e+00 -5.8621259424e+01 -2.0756907841e+01 1.3961949731e+02 1.2500000000e+02 0.0000e+00 0.0000e+00
</event>
<event>
 4      1 +2.4014000e-01 2.50000000e+02 7.54677100e-03 1.02464900e-01
      -11 -1    0    0    0    0 +0.0000000000e+00 +0.0000000000e+00 +1.2500000000e+02 1.2500000000e+02 0.0000000000e+00 0.0000e+00 1.0000e+00
       11 -1    0    0    0    0 -0.0000000000e+00 -0.0000000000e+00 -1.2500000000e+02 1.2500000000e+02 0.0000000000e+00 0.0000e+00 -1.0000e+00
       23  1    1    2    0    0 -7.1411350027e+00 -1.5746718691e+01 +5.9746540243e+01 1.1038050269e+02 9.1188000000e+01 0.0000e+00 1.0000e+00
       25  1    1    2    0    0 +7.1411350027e+00 +1.5746718691e+01 -5.9746540243e+01 1.3961949731e+02 1.2500000000e+02 0.0000e+00 0.0000e+00
</event>
<event>
 4      1 +2.4014000e-01 2.50000000e+02 7.54677100e-03 1.02464900e-01
      -11 -1    0    0    0    0 +0.0000000000e+00 +0.0000000000e+00 +1.2500000000e+02 1.2500000000e+02 0.0000000000e+00 0.0000e+00 -1.0000e+00
       11 -1    0    0    0    0 -0.0000000000e+00 -0.0000000000e+00 -1.2500000000e+02 1.2500000000e+02 0.0000000000e+00 0.0000e+00 1.0000e+00
       23  1    1    2    0    0 -3.8223318237e+01 -1.4396589728e+01 +4.6907570570e+01 1.1038050269e+02 9.1188000000e+01 0.0000e+00 -1.0000e+00
       25  1    1    2    0    0 +3.8223318237e+01 +1.4396589728e+01 -4.6907570570e+01 1.3961949731e+02 1.2500000000e+02 0.0000e+00 0.0000e+00
</event>
<event>
 4      1 +2.4014000e-01 2.50000000e+02 7.54677100e-03 1.02464900e-01
      -11 -1    0    0    0    0 +0.0000000000e+00 +0.0000000000e+00 +1.2500000000e+02 1.2500000000e+02 0.0000000000e+00 0.0000e+00 -1.0000e+00
       11 -1    0    0    0    0 -0.0000000000e+00 -0.0000000000e+00 -1.2500000000e+02 1.2500000000e+02 0.0000000000e+00 0.0000e+00 1.0000e+00
       23  1    1    2    0    0 -6.1020595580e+01 -1.0688835062e+01 +5.5533548215e+00 1.1038050269e+02 9.1188000000e+01 0.0000e+00 0.0000e+00
       25  1    1    2    0    0 +6.1020595580e+01 +1.0688835062e+01 -5.5533548215e+00 1.3961949731e+02 1.2500000000e+02 0.0000e+00 0.0000e+00
</event>
<event>
 4      1 +2.4014000e-01 2.50000000e+02 7.54677100e-03 1.02464900e-01
      -11 -1    0    0    0    0 +0.0000000000e+00 +0.0000000000e+00 +1.2500000000e+02 1.2500000000e+02 0.0000000000e+00 0.0000e+00 1.0000e+00
       11 -1    0    0    0    0 -0.0000000000e+00 -0.0000000000e+00 -1.2500000000e+02 1.2500000000e+02 0.0000000000e+00 0.0000e+00 -1.0000e+00
       23  1    1    2    0    0 -5.6411730037e+01 -2.5079978310e+01 +7.5706955984e+00 1.1038050269e+02 9.1188000000e+01 0.0000e+00 -1.0000e+00
       25  1    1    2    0    0 +5.6411730037e+01 +2.5079978310e+01 -7.5706955984e+00 1.3961949731e+02 1.2500000000e+02 0.0000e+00 0.0000e+00
</event>
<event>
 4      1 +2.4014000e-01 2.50000000e+02 7.54677100e-03 1.02464900e-01
      -11 -1    0    0    0    0 +0.0000000000e+00 +0.0000000000e+00 +1.2500000000e+02 1.2500000000e+02 0.0000000000e+00 0.0000e+00 1.0000e+00
       11 -1    0    0    0    0 -0.0000000000e+00 -0.0000000000e+00 -1.2500000000e+02 1.2500000000e+02 0.0000000000e+00 0.0000e+00 -1.0000e+00
       23  1    1    2    0    0 -5.7195237569e+01 +5.1509833461e+00 +2.3890922956e+01 1.1038050269e+02 9.1188000000e+01 0.0000e+00 0.0000e+00
       25  1    1    2    0    0 +5.7195237569e+01 -5.1509833461e+00 -2.3890922956e+01 1.3961949731e+02 1.2500000000e+02 0.0000e+00 0.0000e+00
</event>
<event>
 4      1 +2.4014000e-01 2.50000000e+02 7.54677100e-03 1.02464900e-01
      -11 -1    0    0    0    0 +0.0000000000e+00 +0.0000000000e+00 +1.2500000000e+02 1.2500000000e+02 0.0000000000e+00 0.0000e+00 1.0000e+00
       11 -1    0    0    0    0 -0.0000000000e+00 -0.0000000000e+00 -1.2500000000e+02 1.2500000000e+02 0.0000000000e+00 0.0000e+00 -1.0000e+00
       23  1    1    2    0    0 -4.3704946131e+01 +2.7823358426e+01 +3.4414276678e+01 1.1038050269e+02 9.1188000000e+01 0.0000e+00 0.0000e+00
       25  1    1    2    0    0 +4.3704946131e+01 -2.7823358426e+01 -3.4414276678e+01 1.3961949731e+02 1.2500000000e+02 0.0000e+00 0.0000e+00
</event>
<event>
 4      1 +2.4014000e-01 2.50000000e+02 7.54677100e-03 1.02464900e-01
      -11 -1    0    0    0    0 +0.0000000000e+00 +0.0000000000e+00 +1.2500000000e+02 1.2500000000e+02 0.0000000000e+00 0.0000e+00 -1.0000e+00
       11 -1    0    0    0    0 -0.0000000000e+00 -0.0000000000e+00 -1.2500000000e+02 1.2500000000e+02 0.0000000000e+00 0.0000e+00 1.0000e+00
       23  1    1    2    0    0 +3.4455384522e+01 +2.2874783003e+01 -4.6456160083e+01 1.1038050269e+02 9.1188000000e+01 0.0000e+00 1.0000e+00
       25  1    1    2    0    0 -3.4455384522e+01 -2.2874783003e+01 +4.6456160083e+01 1.3961949731e+02 1.2500000000e+02 0.0000e+00 0.0000e+00
</event>
<event>
 4      1 +2.4014000e-01 2.50000000e+02 7.54677100e-03 1.02464900e-01
      -11 -1    0    0    0    0 +0.0000000000e+00 +0.0000000000e+00 +1.2500000000e+02 1.2500000000e+02 0.0000000000e+00 0.0000e+00 -1.0000e+00
       11 -1    0    0    0    0 -0.0000000000e+00 -0.0000000000e+00 -1.2500000000e+02 1.2500000000e+02 0.0000000000e+00 0.0000e+00 1.0000e+00
       23  1    1    2    0    0 +4.5556664539e+01 -1.6475710071e+01 -3.9009554258e+01 1.1038050269e+02 9.1188000000e+01 0.0000e+00 1.0000e+00
       25  1    1    2    0    0 -4.5556664539e+01 +1.6475710071e+01 +3.9009554258e+01 1.3961949731e+02 1.2500000000e+02 0.0000e+00 0.0000e+00
</event>
<event>
 4      1 +2.4014000e-01 2.50000000e+02 7.54677100e-03 1.02464900e-01
      -11 -1    0    0    0    0 +0.0000000000e+00 +0.0000000000e+00 +1.2500000000e+02 1.2500000000e+02 0.0000000000e+00 0.0000e+00 -1.0000e+00
       11 -1    0    0    0    0 -0.0000000000e+00 -0.0000000000e+00 -1.2500000000e+02 1.2500000000e+02 0.0000000000e+00 0.0000e+00 1.0000e+00
       23  1    1    2    0    0 +6.2061979416e+01 +4.0945765450e+00 +3.8624292255e-01 1.1038050269e+02 9.1188000000e+01 0.0000e+00 0.0000e+00
       25  1    1    2    0    0 -6.2061979416e+01 -4.0945765450e+00 -3.8624292255e-01 1.3961949731e+02 1.2500000000e+02 0.0000e+00 0.0000e+00
</event>
<event>
 4      1 +2.4014000e-01 2.50000000e+02 7.54677100e-03 1.02464900e-01
      -11 -1    0    0    0    0 +0.0000000000e+00 +0.0000000000e+00 +1.2500000000e+02 1.2500000000e+02 0.0000000000e+00 0.0000e+00 1.0000e+00
       11 -1    0    0    0    0 -0.0000000000e+00 -0.0000000000e+00 -1.2500000000e+02 1.2500000000e+02 0.0000000000e+00 0.0000e+00 -1.0000e+00
       23  1    1    2    0    0 -4.8705544919e+01 +3.4908565791e+01 +1.6666312076e+01 1.1038050269e+02 9.1188000000e+01 0.0000e+00 1.0000e+00
       25  1    1    2    0    0 +4.8705544919e+01 -3.4908565791e+01 -1.6666312076e+01 1.3961949731e+02 1.2500000000e+02 0.0000e+00 0.0000e+00
</event>
<event>
 4      1 +2.4014000e-01 2.50000000e+02 7.54677100e-03 1.02464900e-01
      -11 -1    0    0    0    0 +0.0000000000e+00 +0.0000000000e+00 +1.2500000000e+02 1.2500000000e+02 0.0000000000e+00 0.0000e+00 1.0000e+00
       11 -1    0    0    0    0 -0.0000000000e+00 -0.0000000000e+00 -1.2500000000e+02 1.2500000000e+02 0.0000000000e+00 0.0000e+00 -1.0000e+00
       23  1    1    2    0    0 +4.7719491412e+01 +3.7734709685e+01 +1.2943950478e+01 1.1038050269e+02 9.1188000000e+01 0.0000e+00 1.0000e+00
       25  1    1    2    0    0 -4.7719491412e+01 -3.7734709685e+01 -1.2943950478e+01 1.3961949731e+02 1.2500000000e+02 0.0000e+00 0.0000e+00
</event>
<event>
 4      1 +2.4014000e-01 2.50000000e+02 7.54677100e-03 1.02464900e-01
      -11 -1    0    0    0    0 +0.0000000000e+00 +0.0000000000e+00 +1.2500000000e+02 1.2500000000e+02 0.0000000000e+00 0.0000e+00 -1.0000e+00
       11 -1    0    0    0    0 -0.0000000000e+00 -0.0000000000e+00 -1.2500000000e+02 1.2500000000e+02 0.0000000000e+00 0.0000e+00 1.0000e+00
       23  1    1    2    0    0 +1.0514822071e+01 -2.4102175755e+01 -5.6366015207e+01 1.1038050269e+02 9.1188000000e+01 0.0000e+00 1.0000e+00
       25  1    1    2    0    0 -1.0514822071e+01 +2.4102175755e+01 +5.6366015207e+01 1.3961949731e+02 1.2500000000e+02 0.0000e+00 0.0000e+00
</event>
<event>
 4      1 +2.4014000e-01 2.50000000e+02 7.54677100e-03 1.02464900e-01
      -11 -1    0    0    0    0 +0.0000000000e+00 +0.0000000000e+00 +1.2500000000e+02 1.2500000000e+02 0.0000000000e+00 0.0000e+00 1.0000e+00
       11 -1    0    0    0    0 -0.0000000000e+00 -0.0000000000e+00 -1.2500000000e+02 1.2500000000e+02 0.0000000000e+00 0.0000e+00 -1.0000e+00
       23  1    1    2    0    0 +4.0717540961e+01 +4.2317263243e+01 -2.0492318545e+01 1.1038050269e+02 9.1188000000e+01 0.0000e+00 0.0000e+00
       25  1    1    2    0    0 -4.0717540961e+01 -4.2317263243e+01 +2.0492318545e+01 1.3961949731e+02 1.2500000000e+02 0.0000e+00 0.0000e+00
</event>
<event>
 4      1 +2.4014000e-01 2.50000000e+02 7.54677100e-03 1.02464900e-01
      -11 -1    0    0    0    0 +0.0000000000e+00 +0.0000000000e+00 +1.2500000000e+02 1.2500000000e+02 0.0000000000e+00 0.0000e+00 -1.0000e+00
       11 -1    0    0    0    0 -0.0000000000e+00 -0.0000000000e+00 -1.2500000000e+02 1.2500000000e+02 0.0000000000e+00 0.0000e+00 1.0000e+00
       23  1    1    2    0    0 +3.8389954181e+01 -3.1246327913e+01 +3.7662746044e+01 1.1038050269e+02 9.1188000000e+01 0.0000e+00 0.0000e+00
       25  1    1    2    0    0 -3.8389954181e+01 +3.1246327913e+01 -3.7662746044e+01 1.3961949731e+02 1.2500000000e+02 0.0000e+00 0.0000e+00
</event>
<event>
 4      1 +2.4014000e-01 2.50000000e+02 7.54677100e-03 1.02464900e-01
      -11 -1    0    0    0    0 +0.0000000000e+00 +0.0000000000e+00 +1.2500000000e+02 1.2500000000e+02 0.0000000000e+00 0.0000e+00 1.0000e+00
       11 -1    0    0    0    0 -0.0000000000e+00 -0.0000000000e+00 -1.2500000000e+02 1.2500000000e+02 0.0000000000e+00 0.0000e+00 -1.0000e+00
       23  1    1    2    0    0 +2.6637451086e+01 +1.5880856635e+01 +5.3915198431e+01 1.1038050269e+02 9.1188000000e+01 0.0000e+00 1.0000e+00
       25  1    1    2    0    0 -2.6637451086e+01 -1.5880856635e+01 -5.3915198431e+01 1.3961949731e+02 1.2500000000e+02 0.0000e+00 0.0000e+00
</event>
<event>
 4      1 +2.4014000e-01 2.50000000e+02 7.54677100e-03 1.02464900e-01
      -11 -1    0    0    0    0 +0.0000000000e+00 +0.0000000000e+00 +1.2500000000e+02 1.2500000000e+02 0.0000000000e+00 0.0000e+00 -1.0000e+00
       11 -1    0    0    0    0 -0.0000000000e+00 -0.0000000000e+00 -1.2500000000e+02 1.2500000000e+02 0.0000000000e+00 0.0000e+00 1.0000e+00
       23  1    1    2    0    0 +5.8500495812e+01 -6.2028017839e+00 +2.0194585152e+01 1.1038050269e+02 9.1188000000e+01 0.0000e+00 -1.0000e+00
       25  1    1    2    0    0 -5.8500495812e+01 +6.2028017839e+00 -2.0194585152e+01 1.3961949731e+02 1.2500000000e+02 0.0000e+00 0.0000e+00
</event>
<event>
 4      1 +2.4014000e-01 2.50000000e+02 7.54677100e-03 1.02464900e-01
      -11 -1    0    0    0    0 +0.0000000000e+00 +0.0000000000e+00 +1.2500000000e+02 1.2500000000e+02 0.0000000000e+00 0.0000e+00 -1.0000e+00
       11 -1    0    0    0    0 -0.0000000000e+00 -0.0000000000e+00 -1.2500000000e+02 1.2500000000e+02 0.0000000000e+00 0.0000e+00 1.0000e+00
       23  1    1    2    0    0 -5.4605584494e+00 +5.8944343679e+01 -1.9087972110e+01 1.1038050269e+02 9.1188000000e+01 0.0000e+00 1.0000e+00
       25  1    1    2    0    0 +5.4605584494e+00 -5.8944343679e+01 +1.9087972110e+01 1.3961949731e+02 1.2500000000e+02 0.0000e+00 0.0000e+00
</event>
<event>
 4      1 +2.4014000e-01 2.50000000e+02 7.54677100e-03 1.02464900e-01
      -11 -1    0    0    0    0 +0.0000000000e+00 +0.0000000000e+00 +1.2500000000e+02 1.2500000000e+02 0.0000000000e+00 0.0000e+00 -1.0000e+00
       11 -1    0    0    0    0 -0.0000000000e+00 -0.0000000000e+00 -1.2500000000e+02 1.2500000000e+02 0.0000000000e+00 0.0000e+00 1.0000e+00
       23  1    1    2    0    0 -4.3772891115e+01 -3.7453633318e+01 +2.3447033594e+01 1.1038050269e+02 9.1188000000e+01 0.0000e+00 -1.0000e+00
       25  1    1    2    0    0 +4.3772891115e+01 +3.7453633318e+01 -2.3447033594e+01 1.3961949731e+02 1.2500000000e+02 0.0000e+00 0.0000e+00
</event>
<event>
 4      1 +2.4014000e-01 2.50000000e+02 7.54677100e-03 1.02464900e-01
      -11 -1    0    0    0    0 +0.0000000000e+00 +0.0000000000e+00 +1.2500000000e+02 1.2500000000e+02 0.0000000000e+00 0.0000e+00 1.0000e+00
       11 -1    0    0    0    0 -0.0000000000e+00 -0.0000000000e+00 -1.2500000000e+02 1.2500000000e+02 0.0000000000e+00 0.0000e+00 -1.0000e+00
       23  1    1    2    0    0 -1.0279081362e+01 +5.6956538558e+01 +2.2779315869e+01 1.1038050269e+02 9.1188000000e+01 0.0000e+00 -1.0000e+00
       25  1    1    2    0    0 +1.0279081362e+01 -5.6956538558e+01 -2.2779315869e+01 1.3961949731e+02 1.2500000000e+02 0.0000e+00 0.0000e+00
</event>
<event>
 4      1 +2.4014000e-01 2.50000000e+02 7.54677100e-03 1.02464900e-01
      -11 -1    0    0    0    0 +0.0000000000e+00 +0.0000000000e+00 +1.2500000000e+02 1.2500000000e+02 0.0000000000e+00 0.0000e+00 -1.0000e+00
       11 -1    0    0    0    0 -0.0000000000e+00 -0.0000000000e+00 -1.2500000000e+02 1.2500000000e+02 0.0000000000e+00 0.0000e+00 1.0000e+00
       23  1    1    2    0    0 +1.5710351616e+00 -6.1660072519e+01 -8.0107012877e+00 1.1038050269e+02 9.1188000000e+01 0.0000e+00 0.0000e+00
       25  1    1    2    0    0 -1.5710351616e+00 +6.1660072519e+01 +8.0107012877e+00 1.3961949731e+02 1.2500000000e+02 0.0000e+00 0.0000e+00
</event>
<event>
 4      1 +2.4014000e-01 2.50000000e+02 7.54677100e-03 1.02464900e-01
      -11 -1    0    0    0    0 +0.0000000000e+00 +0.0000000000e+00 +1.2500000000e+02 1.2500000000e+02 0.0000000000e+00 0.0000e+00 -1.0000e+00
       11 -1    0    0    0    0 -0.0000000000e+00 -0.0000000000e+00 -1.2500000000e+02 1.2500000000e+02 0.0000000000e+00 0.0000e+00 1.0000e+00
       23  1    1    2    0    0 -5.3842777990e+00 -5.5081543160e+01 +2.8383748613e+01 1.1038050269e+02 9.1188000000e+01 0.0000e+00 -1.0000e+00
       25  1    1    2    0    0 +5.3842777990e+00 +5.5081543160e+01 -2.8383748613e+01 1.3961949731e+02 1.2500000000e+02 0.0000e+00 0.0000e+00
</event>
<event>
 4      1 +2.4014000e-01 2.50000000e+02 7.54677100e-03 1.02464900e-01
      -11 -1    0    0    0    0 +0.0000000000e+00 +0.0000000000e+00 +1.2500000000e+02 1.2500000000e+02 0.0000000000e+00 0.0000e+00 1.0000e+00
       11 -1    0    0    0    0 -0.0000000000e+00 -0.0000000000e+00 -1.2500000000e+02 1.2500000000e+02 0.0000000000e+00 0.0000e+00 -1.0000e+00
       23  1    1    2    0    0 -5.3471132529e+01 -2.4981569829e+01 +1.9630669490e+01 1.1038050269e+02 9.1188000000e+01 0.0000e+00 0.0000e+00
       25  1    1    2    0    0 +5.3471132529e+01 +2.4981569829e+01 -1.9630669490e+01 1.3961949731e+02 1.2500000000e+02 0.0000e+00 0.0000e+00
</event>
<event>
 4      1 +2.4014000e-01 2.50000000e+02 7.54677100e-03 1.02464900e-01
      -11 -1    0    0    0    0 +0.0000000000e+00 +0.0000000000e+00 +1.2500000000e+02 1.2500000000e+02 0.0000000000e+00 0.0000e+00 1.0000e+00
       11 -1    0    0    0    0 -0.0000000000e+00 -0.0000000000e+00 -1.2500000000e+02 1.2500000000e+02 0.0000000000e+00 0.0000e+00 -1.0000e+00
       23  1    1    2    0    0 +7.9628294705e+00 -3.3286379823e+01 -5.1934711848e+01 1.1038050269e+02 9.1188000000e+01 0.0000e+00 -1.0000e+00
       25  1    1    2    0    0 -7.9628294705e+00 +3.3286379823e+01 +5.1934711848e+01 1.3961949731e+02 1.2500000000e+02 0.0000e+00 0.0000e+00
</event>
<event>
 4      1 +2.4014000e-01 2.50000000e+02 7.54677100e-03 1.02464900e-01
      -11 -1    0    0    0    0 +0.0000000000e+00 +0.0000000000e+00 +1.2500000000e+02 1.2500000000e+02 0.0000000000e+00 0.0000e+00 1.0000e+00
       11 -1    0    0    0    0 -0.0000000000e+00 -0.0000000000e+00 -1.2500000000e+02 1.2500000000e+02 0.0000000000e+00 0.0000e+00 -1.0000e+00
       23  1    1    2    0    0 -5.2091554224e+01 +1.8133459204e+01 +2.8744593675e+01 1.1038050269e+02 9.1188000000e+01 0.0000e+00 1.0000e+00
       25  1    1    2    0    0 +5.2091554224e+01 -1.8133459204e+01 -2.8744593675e+01 1.3961949731e+02 1.2500000000e+02 0.0000e+00 0.0000e+00
</event>
<event>
 4      1 +2.4014000e-01 2.50000000e+02 7.54677100e-03 1.02464900e-01
      -11 -1    0    0    0    0 +0.0000000000e+00 +0.0000000000e+00 +1.2500000000e+02 1.2500000000e+02 0.0000000000e+00 0.0000e+00 -1.0000e+00
       11 -1    0    0    0    0 -0.0000000000e+00 -0.0000000000e+00 -1.2500000000e+02 1.2500000000e+02 0.0000000000e+00 0.0000e+00 1.0000e+00
       23  1    1    2    0    0 -3.3611063137e+01 -4.4004003221e+01 -2.8329281053e+01 1.1038050269e+02 9.1188000000e+01 0.0000e+00 0.0000e+00
       25  1    1    2    0    0 +3.3611063137e+01 +4.4004003221e+01 +2.8329281053e+01 1.3961949731e+02 1.2500000000e+02 0.0000e+00 0.0000e+00
</event>
<event>
 4      1 +2.4014000e-01 2.50000000e+02 7.54677100e-03 1.02464900e-01
      -11 -1    0    0    0    0 +0.0000000000e+00 +0.0000000000e+00 +1.2500000000e+02 1.2500000000e+02 0.0000000000e+00 0.0000e+00 1.0000e+00
       11 -1    0    0    0    0 -0.0000000000e+00 -0.0000000000e+00 -1.2500000000e+02 1.2500000000e+02 0.0000000000e+00 0.0000e+00 -1.0000e+00
       23  1    1    2    0    0 -4.7763384877e+01 +1.2799558640e+01 +3.7728429511e+01 1.1038050269e+02 9.1188000000e+01 0.0000e+00 -1.0000e+00
       25  1    1    2    0    0 +4.7763384877e+01 -1.2799558640e+01 -3.7728429511e+01 1.3961949731e+02 1.2500000000e+02 0.0000e+00 0.0000e+00
</event>
<event>
 4      1 +2.4014000e-01 2.50000000e+02 7.54677100e-03 1.02464900e-01
      -11 -1    0    0    0    0 +0.0000000000e+00 +0.0000000000e+00 +1.2500000000e+02 1.2500000000e+02 0.0000000000e+00 0.0000e+00 -1.0000e+00
       11 -1    0    0    0    0 -0.0000000000e+00 -0.0000000000e+00 -1.2500000000e+02 1.2500000000e+02 0.0000000000e+00 0.0000e+00 1.0000e+00
       23  1    1    2    0    0 +6.1167850608e+01 -8.3064529027e+00 -7.6223960664e+00 1.1038050269e+02 9.1188000000e+01 0.0000e+00 0.0000e+00
       25  1    1    2    0    0 -6.1167850608e+01 +8.3064529027e+00 +7.6223960664e+00 1.3961949731e+02 1.2500000000e+02 0.0000e+00 0.0000e+00
</event>
<event>
 4      1 +2.4014000e-01 2.50000000e+02 7.54677100e-03 1.02464900e-01
      -11 -1    0    0    0    0 +0.0000000000e+00 +0.0000000000e+00 +1.2500000000e+02 1.2500000000e+02 0.0000000000e+00 0.0000e+00 -1.0000e+00
       11 -1    0    0    0    0 -0.0000000000e+00 -0.0000000000e+00 -1.2500000000e+02 1.2500000000e+02 0.0000000000e+00 0.0000e+00 1.0000e+00
       23  1    1    2    0    0 +2.4924534784e+01 -2.2770768655e+01 -5.2238526877e+01 1.1038050269e+02 9.1188000000e+01 0.0000e+00 1.0000e+00
       25  1    1    2    0    0 -2.4924534784e+01 +2.2770768655e+01 +5.2238526877e+01 1.3961949731e+02 1.2500000000e+02 0.0000e+00 0.0000e+00
</event>
<event>
 4      1 +2.4014000e-01 2.50000000e+02 7.54677100e-03 1.02464900e-01
      -11 -1    0    0    0    0 +0.0000000000e+00 +0.0000000000e+00 +1.2500000000e+02 1.2500000000e+02 0.0000000000e+00 0.0000e+00 -1.0000e+00
       11 -1    0    0    0    0 -0.0000000000e+00 -0.0000000000e+00 -1.2500000000e+02 1.2500000000e+02 0.0000000000e+00 0.0000e+00 1.0000e+00
       23  1    1    2    0    0 -6.2017706066e+00 -2.9166592697e+01 -5.4584356197e+01 1.1038050269e+02 9.1188000000e+01 0.0000e+00 1.0000e+00
       25  1    1    2    0    0 +6.2017706066e+00 +2.9166592697e+01 +5.4584356197e+01 1.3961949731e+02 1.2500000000e+02 0.0000e+00 0.0000e+00
</event>
<event>
 4      1 +2.4014000e-01 2.50000000e+02 7.54677100e-03 1.02464900e-01
      -11 -1    0    0    0    0 +0.0000000000e+00 +0.0000000000e+00 +1.2500000000e+02 1.2500000000e+02 0.0000000000e+00 0.0000e+00 -1.0000e+00
       11 -1    0    0    0    0 -0.0000000000e+00 -0.0000000000e+00 -1.2500000000e+02 1.2500000000e+02 0.0000000000e+00 0.0000e+00 1.0000e+00
       23  1    1    2    0    0 -2.6239029509e+01 +5.3873815549e+01 +1.6665214016e+01 1.1038050269e+02 9.1188000000e+01 0.0000e+00 0.0000e+00
       25  1    1    2    0    0 +2.6239029509e+01 -5.3873815549e+01 -1.6665214016e+01 1.3961949731e+02 1.2500000000e+02 0.0000e+00 0.0000e+00
</event>
<event>
 4      1 +2.4014000e-01 2.50000000e+02 7.54677100e-03 1.02464900e-01
      -11 -1    0    0    0    0 +0.0000000000e+00 +0.0000000000e+00 +1.2500000000e+02 1.2500000000e+02 0.0000000000e+00 0.0000e+00 -1.0000e+00
       11 -1    0    0    0    0 -0.0000000000e+00 -0.0000000000e+00 -1.2500000000e+02 1.2500000000e+02 0.0000000000e+00 0.0000e+00 1.0000e+00
       23  1    1    2    0    0 +6.0629135333e+01 +6.0142901463e+00 -1.2511606309e+01 1.1038050269e+02 9.1188000000e+01 0.0000e+00 -1.0000e+00
       25  1    1    2    0    0 -6.0629135333e+01 -6.0142901463e+00 +1.2511606309e+01 1.3961949731e+02 1.2500000000e+02 0.0000e+00 0.0000e+00
</event>
<event>
 4      1 +2.4014000e-01 2.50000000e+02 7.54677100e-03 1.02464900e-01
      -11 -1    0    0    0    0 +0.0000000000e+00 +0.0000000000e+00 +1.2500000000e+02 1.2500000000e+02 0.0000000000e+00 0.0000e+00 1.0000e+00
       11 -1    0    0    0    0 -0.0000000000e+00 -0.0000000000e+00 -1.2500000000e+02 1.2500000000e+02 0.0000000000e+00 0.0000e+00 -1.0000e+00
       23  1    1    2    0    0 +4.4022953043e+01 -2.2618584142e+00 -4.3880150770e+01 1.1038050269e+02 9.1188000000e+01 0.0000e+00 0.0000e+00
       25  1    1    2    0    0 -4.4022953043e+01 +2.2618584142e+00 +4.3880150770e+01 1.3961949731e+02 1.2500000000e+02 0.0000e+00 0.0000e+00
</event>
<event>
 4      1 +2.4014000e-01 2.50000000e+02 7.54677100e-03 1.02464900e-01
      -11 -1    0    0    0    0 +0.0000000000e+00 +0.0000000000e+00 +1.2500000000e+02 1.2500000000e+02 0.0000000000e+00 0.0000e+00 -1.0000e+00
       11 -1    0    0    0    0 -0.0000000000e+00 -0.0000000000e+00 -1.2500000000e+02 1.2500000000e+02 0.0000000000e+00 0.0000e+00 1.0000e+00
       23  1    1    2    0    0 -5.4920705916e+01 -2.3080592013e+01 -1.7877537966e+01 1.1038050269e+02 9.1188000000e+01 0.0000e+00 0.0000e+00
       25  1    1    2    0    0 +5.4920705916e+01 +2.3080592013e+01 +1.7877537966e+01 1.3961949731e+02 1.2500000000e+02 0.0000e+00 0.0000e+00
</event>
<event>
 4      1 +2.4014000e-01 2.50000000e+02 7.54677100e-03 1.02464900e-01
      -11 -1    0    0    0    0 +0.0000000000e+00 +0.0000000000e+00 +1.2500000000e+02 1.2500000000e+02 0.0000000000e+00 0.0000e+00 1.0000e+00
       11 -1    0    0    0    0 -0.0000000000e+00 -0.0000000000e+00 -1.2500000000e+02 1.2500000000e+02 0.0000000000e+00 0.0000e+00 -1.0000e+00
       23  1    1    2    0    0 -1.6799784148e+01 +5.4906363473e+01 +2.3909465332e+01 1.1038050269e+02 9.1188000000e+01 0.0000e+00 1.0000e+00
       25  1    1    2    0    0 +1.6799784148e+01 -5.4906363473e+01 -2.3909465332e+01 1.3961949731e+02 1.2500000000e+02 0.0000e+00 0.0000e+00
</event>
<event>
 4      1 +2.4014000e-01 2.50000000e+02 7.54677100e-03 1.02464900e-01
      -11 -1    0    0    0    0 +0.0000000000e+00 +0.0000000000e+00 +1.2500000000e+02 1.2500000000e+02 0.0000000000e+00 0.0000e+00 1.0000e+00
       11 -1    0    0    0    0 -0.0000000000e+00 -0.0000000000e+00 -1.2500000000e+02 1.2500000000e+02 0.0000000000e+00 0.0000e+00 -1.0000e+00
       23  1    1    2    0    0 -6.2097782308e+01 +9.7987143180e-01 -3.3925380046e+00 1.1038050269e+02 9.1188000000e+01 0.0000e+00 -1.0000e+00
       25  1    1    2    0    0 +6.2097782308e+01 -9.7987143180e-01 +3.3925380046e+00 1.3961949731e+02 1.2500000000e+02 0.0000e+00 0.0000e+00
</event>
<event>
 4      1 +2.4014000e-01 2.50000000e+02 7.54677100e-03 1.02464900e-01
      -11 -1    0    0    0    0 +0.0000000000e+00 +0.0000000000e+00 +1.2500000000e+02 1.2500000000e+02 0.0000000000e+00 0.0000e+00 1.0000e+00
       11 -1    0    0    0    0 -0.0000000000e+00 -0.0000000000e+00 -1.2500000000e+02 1.2500000000e+02 0.0000000000e+00 0.0000e+00 -1.0000e+00
       23  1    1    2    0    0 -9.8650537809e-01 -6.2111210895e+01 -3.1350148220e+00 1.1038050269e+02 9.1188000000e+01 0.0000e+00 0.0000e+00
       25  1    1    2    0    0 +9.8650537809e-01 +6.2111210895e+01 +3.1350148220e+00 1.3961949731e+02 1.2500000000e+02 0.0000e+00 0.0000e+00
</event>
<event>
 4      1 +2.4014000e-01 2.50000000e+02 7.54677100e-03 1.02464900e-01
      -11 -1    0    0    0    0 +0.0000000000e+00 +0.0000000000e+00 +1.2500000000e+02 1.2500000000e+02 0.0000000000e+00 0.0000e+00 1.0000e+00
       11 -1    0    0    0    0 -0.0000000000e+00 -0.0000000000e+00 -1.2500000000e+02 1.2500000000e+02 0.0000000000e+00 0.0000e+00 -1.0000e+00
       23  1    1    2    0    0 +1.4034646723e+01 +4.5593795073e+01 +3.9910381755e+01 1.1038050269e+02 9.1188000000e+01 0.0000e+00 1.0000e+00
       25  1    1    2    0    0 -1.4034646723e+01 -4.5593795073e+01 -3.9910381755e+01 1.3961949731e+02 1.2500000000e+02 0.0000e+00 0.0000e+00
</event>
<event>
 4      1 +2.4014000e-01 2.50000000e+02 7.54677100e-03 1.02464900e-01
      -11 -1    0    0    0    0 +0.0000000000e+00 +0.0000000000e+00 +1.2500000000e+02 1.2500000000e+02 0.0000000000e+00 0.0000e+00 1.0000e+00
       11 -1    0    0    0    0 -0.0000000000e+00 -0.0000000000e+00 -1.2500000000e+02 1.2500000000e+02 0.0000000000e+00 0.0000e+00 -1.0000e+00
       23  1    1    2    0    0 +4.7588513619e+01 +3.8831246922e+01 -9.8016153582e+00 1.1038050269e+02 9.1188000000e+01 0.0000e+00 0.0000e+00
       25  1    1    2    0    0 -4.7588513619e+01 -3.8831246922e+01 +9.8016153582e+00 1.3961949731e+02 1.2500000000e+02 0.0000e+00 0.0000e+00
</event>
<event>
 4      1 +2.4014000e-01 2.50000000e+02 7.54677100e-03 1.02464900e-01
      -11 -1    0    0    0    0 +0.0000000000e+00 +0.0000000000e+00 +1.2500000000e+02 1.2500000000e+02 0.0000000000e+00 0.0000e+00 1.0000e+00
       11 -1    0    0    0    0 -0.0000000000e+00 -0.0000000000e+00 -1.2500000000e+02 1.2500000000e+02 0.0000000000e+00 0.0000e+00 -1.0000e+00
       23  1    1    2    0    0 +6.1636740761e+01 -3.5042821699e+00 +7.5654626102e+00 1.1038050269e+02 9.1188000000e+01 0.0000e+00 0.0000e+00
       25  1    1    2    0    0 -6.1636740761e+01 +3.5042821699e+00 -7.5654626102e+00 1.3961949731e+02 1.2500000000e+02 0.0000e+00 0.0000e+00
</event>
<event>
 4      1 +2.4014000e-01 2.50000000e+02 7.54677100e-03 1.02464900e-01
      -11 -1    0    0    0    0 +0.0000000000e+00 +0.0000000000e+00 +1.2500000000e+02 1.2500000000e+02 0.0000000000e+00 0.0000e+00 1.0000e+00
       11 -1    0    0    0    0 -0.0000000000e+00 -0.0000000000e+00 -1.2500000000e+02 1.2500000000e+02 0.0000000000e+00 0.0000e+00 -1.0000e+00
       23  1    1    2    0    0 +3.5313265312e+01 -2.1334654181e+01 -4.6544708117e+01 1.1038050269e+02 9.1188000000e+01 0.0000e+00 -1.0000e+00
       25  1    1    2    0    0 -3.5313265312e+01 +2.1334654181e+01 +4.6544708117e+01 1.3961949731e+02 1.2500000000e+02 0.0000e+00 0.0000e+00
</event>
<event>
 4      1 +2.4014000e-01 2.50000000e+02 7.54677100e-03 1.02464900e-01
      -11 -1    0    0    0    0 +0.0000000000e+00 +0.0000000000e+00 +1.2500000000e+02 1.2500000000e+02 0.0000000000e+00 0.0000e+00 1.0000e+00
       11 -1    0    0    0    0 -0.0000000000e+00 -0.0000000000e+00 -1.2500000000e+02 1.2500000000e+02 0.0000000000e+00 0.0000e+00 -1.0000e+00
       23  1    1    2    0    0 +5.8291235478e+01 +2.0519542598e+01 +7.0487068099e+00 1.1038050269e+02 9.1188000000e+01 0.0000e+00 0.0000e+00
       25  1    1    2    0    0 -5.8291235478e+01 -2.0519542598e+01 -7.0487068099e+00 1.3961949731e+02 1.2500000000e+02 0.0000e+00 0.0000e+00
</event>
<event>
 4      1 +2.4014000e-01 2.50000000e+02 7.54677100e-03 1.02464900e-01
      -11 -1    0    0    0    0 +0.0000000000e+00 +0.0000000000e+00 +1.2500000000e+02 1.2500000000e+02 0.0000000000e+00 0.0000e+00 1.0000e+00
       11 -1    0    0    0    0 -0.0000000000e+00 -0.0000000000e+00 -1.2500000000e+02 1.2500000000e+02 0.0000000000e+00 0.0000e+00 -1.0000e+00
       23  1    1    2    0    0 +4.6615815474e+01 +3.8547357691e+01 -1.4480020453e+01 1.1038050269e+02 9.1188000000e+01 0.0000e+00 0.0000e+00
       25  1    1    2    0    0 -4.6615815474e+01 -3.8547357691e+01 +1.4480020453e+01 1.3961949731e+02 1.2500000000e+02 0.0000e+00 0.0000e+00
</event>
<event>
 4      1 +2.4014000e-01 2.50000000e+02 7.54677100e-03 1.02464900e-01
      -11 -1    0    0    0    0 +0.0000000000e+00 +0.0000000000e+00 +1.2500000000e+02 1.2500000000e+02 0.0000000000e+00 0.0000e+00 1.0000e+00
       11 -1    0    0    0    0 -0.0000000000e+00 -0.0000000000e+00 -1.2500000000e+02 1.2500000000e+02 0.0000000000e+00 0.0000e+00 -1.0000e+00
       23  1    1    2    0    0 -5.0951996008e+01 +3.2655213400e+01 -1.4357408202e+01 1.1038050269e+02 9.1188000000e+01 0.0000e+00 -1.0000e+00
       25  1    1    2    0    0 +5.0951996008e+01 -3.2655213400e+01 +1.4357408202e+01 1.3961949731e+02 1.2500000000e+02 0.0000e+00 0.0000e+00
</event>
<event>
 4      1 +2.4014000e-01 2.50000000e+02 7.54677100e-03 1.02464900e-01
      -11 -1    0    0    0    0 +0.0000000000e+00 +0.0000000000e+00 +1.2500000000e+02 1.2500000000e+02 0.0000000000e+00 0.0000e+00 -1.0000e+00
       11 -1    0    0    0    0 -0.0000000000e+00 -0.0000000000e+00 -1.2500000000e+02 1.2500000000e+02 0.0000000000e+00 0.0000e+00 1.0000e+00
       23  1    1    2    0    0 +5.2512222829e+01 -2.8034506261e+01 -1.8031554064e+01 1.1038050269e+02 9.1188000000e+01 0.0000e+00 1.0000e+00
       25  1    1    2    0    0 -5.2512222829e+01 +2.8034506261e+01 +1.8031554064e+01 1.3961949731e+02 1.2500000000e+02 0.0000e+00 0.0000e+00
</event>
<event>
 4      1 +2.4014000e-01 2.50000000e+02 7.54677100e-03 1.02464900e-01
      -11 -1    0    0    0    0 +0.0000000000e+00 +0.0000000000e+00 +1.2500000000e+02 1.2500000000e+02 0.0000000000e+00 0.0000e+00 1.0000e+00
       11 -1    0    0    0    0 -0.0000000000e+00 -0.0000000000e+00 -1.2500000000e+02 1.2500000000e+02 0.0000000000e+00 0.0000e+00 -1.0000e+00
       23  1    1    2    0    0 -4.9314863840e+01 -2.8190283178e+01 +2.5336853957e+01 1.1038050269e+02 9.1188000000e+01 0.0000e+00 1.0000e+00
       25  1    1    2    0    0 +4.9314863840e+01 +2.8190283178e+01 -2.5336853957e+01 1.3961949731e+02 1.2500000000e+02 0.0000e+00 0.0000e+00
</event>
<event>
 4      1 +2.4014000e-01 2.50000000e+02 7.54677100e-03 1.02464900e-01
      -11 -1    0    0    0    0 +0.0000000000e+00 +0.0000000000e+00 +1.2500000000e+02 1.2500000000e+02 0.0000000000e+00 0.0000e+00 1.0000e+00
       11 -1    0    0    0    0 -0.0000000000e+00 -0.0000000000e+00 -1.2500000000e+02 1.2500000000e+02 0.0000000000e+00 0.0000e+00 -1.0000e+00
       23  1    1    2    0    0 -3.2222636763e+01 -1.9422981747e+01 +4.9528309983e+01 1.1038050269e+02 9.1188000000e+01 0.0000e+00 1.0000e+00
       25  1    1    2    0    0 +3.2222636763e+01 +1.9422981747e+01 -4.9528309983e+01 1.3961949731e+02 1.2500000000e+02 0.0000e+00 0.0000e+00
</event>
<event>
 4      1 +2.4014000e-01 2.50000000e+02 7.54677100e-03 1.02464900e-01
      -11 -1    0    0    0    0 +0.0000000000e+00 +0.0000000000e+00 +1.2500000000e+02 1.2500000000e+02 0.0000000000e+00 0.0000e+00 -1.0000e+00
       11 -1    0    0    0    0 -0.0000000000e+00 -0.0000000000e+00 -1.2500000000e+02 1.2500000000e+02 0.0000000000e+00 0.0000e+00 1.0000e+00
       23  1    1    2    0    0 +2.1809458234e+01 -4.2909014765e+01 -3.9392486760e+01 1.1038050269e+02 9.1188000000e+01 0.0000e+00 1.0000e+00
       25  1    1    2    0    0 -2.1809458234e+01 +4.2909014765e+01 +3.9392486760e+01 1.3961949731e+02 1.2500000000e+02 0.0000e+00 0.0000e+00
</event>
<event>
 4      1 +2.4014000e-01 2.50000000e+02 7.54677100e-03 1.02464900e-01
      -11 -1    0    0    0    0 +0.0000000000e+00 +0.0000000000e+00 +1.2500000000e+02 1.2500000000e+02 0.0000000000e+00 0.0000e+00 -1.0000e+00
       11 -1    0    0    0    0 -0.0000000000e+00 -0.0000000000e+00 -1.2500000000e+02 1.2500000000e+02 0.0000000000e+00 0.0000e+00 1.0000e+00
       23  1    1    2    0    0 +5.4642517985e+01 -2.7160677353e+01 +1.2045615950e+01 1.1038050269e+02 9.1188000000e+01 0.0000e+00 1.0000e+00
       25  1    1    2    0    0 -5.4642517985e+01 +2.7160677353e+01 -1.2045615950e+01 1.3961949731e+02 1.2500000000e+02 0.0000e+00 0.0000e+00
</event>
<event>
 4      1 +2.4014000e-01 2.50000000e+02 7.54677100e-03 1.02464900e-01
      -11 -1    0    0    0    0 +0.0000000000e+00 +0.0000000000e+00 +1.2500000000e+02 1.2500000000e+02 0.0000000000e+00 0.0000e+00 1.0000e+00
       11 -1    0    0    0    0 -0.0000000000e+00 -0.0000000000e+00 -1.2500000000e+02 1.2500000000e+02 0.0000000000e+00 0.0000e+00 -1.0000e+00
       23  1    1    2    0    0 -5.6946792619e+01 +2.4137952498e+01 +6.5594275138e+00 1.1038050269e+02 9.1188000000e+01 0.0000e+00 1.0000e+00
       25  1    1    2    0    0 +5.6946792619e+01 -2.4137952498e+01 -6.5594275138e+00 1.3961949731e+02 1.2500000000e+02 0.0000e+00 0.0000e+00
</event>
<event>
 4      1 +2.4014000e-01 2.50000000e+02 7.54677100e-03 1.02464900e-01
      -11 -1    0    0    0    0 +0.0000000000e+00 +0.0000000000e+00 +1.2500000000e+02 1.2500000000e+02 0.0000000000e+00 0.0000e+00 1.0000e+00
       11 -1    0    0    0    0 -0.0000000000e+00 -0.0000000000e+00 -1.2500000000e+02 1.2500000000e+02 0.0000000000e+00 0.0000e+00 -1.0000e+00
       23  1    1    2    0    0 -4.0762175066e+01 -2.3156444907e+01 +4.0875765104e+01 1.1038050269e+02 9.1188000000e+01 0.0000e+00 1.0000e+00
       25  1    1    2    0    0 +4.0762175066e+01 +2.3156444907e+01 -4.0875765104e+01 1.3961949731e+02 1.2500000000e+02 0.0000e+00 0.0000e+00
</event>
<event>
 4      1 +2.4014000e-01 2.50000000e+02 7.54677100e-03 1.02464900e-01
      -11 -1    0    0    0    0 +0.0000000000e+00 +0.0000000000e+00 +1.2500000000e+02 1.2500000000e+02 0.0000000000e+00 0.0000e+00 1.0000e+00
       11 -1    0    0    0    0 -0.0000000000e+00 -0.0000000000e+00 -1.2500000000e+02 1.2500000000e+02 0.0000000000e+00 0.0000e+00 -1.0000e+00
       23  1    1    2    0    0 -4.6748227960e+01 +4.1002566322e+01 -1.4130701684e+00 1.1038050269e+02 9.1188000000e+01 0.0000e+00 0.0000e+00
       25  1    1    2    0    0 +4.6748227960e+01 -4.1002566322e+01 +1.4130701684e+00 1.3961949731e+02 1.2500000000e+02 0.0000e+00 0.0000e+00
</event>
<event>
 4      1 +2.4014000e-01 2.50000000e+02 7.54677100e-03 1.02464900e-01
      -11 -1    0    0    0    0 +0.0000000000e+00 +0.0000000000e+00 +1.2500000000e+02 1.2500000000e+02 0.0000000000e+00 0.0000e+00 1.0000e+00
       11 -1    0    0    0    0 -0.0000000000e+00 -0.0000000000e+00 -1.2500000000e+02 1.2500000000e+02 0.0000000000e+00 0.0000e+00 -1.0000e+00
       23  1    1    2    0    0 -6.1958149035e+01 -1.9620767215e+00 -5.0933341458e+00 1.1038050269e+02 9.1188000000e+01 0.0000e+00 0.0000e+00
       25  1    1    2    0    0 +6.1958149035e+01 +1.9620767215e+00 +5.0933341458e+00 1.3961949731e+02 1.2500000000e+02 0.0000e+00 0.0000e+00
</event>
<event>
 4      1 +2.4014000e-01 2.50000000e+02 7.54677100e-03 1.02464900e-01
      -11 -1    0    0    0    0 +0.0000000000e+00 +0.0000000000e+00 +1.2500000000e+02 1.2500000000e+02 0.0000000000e+00 0.0000e+00 -1.0000e+00
       11 -1    0    0    0    0 -0.0000000000e+00 -0.0000000000e+00 -1.2500000000e+02 1.2500000000e+02 0.0000000000e+00 0.0000e+00 1.0000e+00
       23  1    1    2    0    0 -4.0257204817e+01 -4.3626133410e+01 +1.8566689895e+01 1.1038050269e+02 9.1188000000e+01 0.0000e+00 0.0000e+00
       25  1    1    2    0    0 +4.0257204817e+01 +4.3626133410e+01 -1.8566689895e+01 1.3961949731e+02 1.2500000000e+02 0.0000e+00 0.0000e+00
</event>
<event>
 4      1 +2.4014000e-01 2.50000000e+02 7.54677100e-03 1.02464900e-01
      -11 -1    0    0    0    0 +0.0000000000e+00 +0.0000000000e+00 +1.2500000000e+02 1.2500000000e+02 0.0000000000e+00 0.0000e+00 1.0000e+00
       11 -1    0    0    0    0 -0.0000000000e+00 -0.0000000000e+00 -1.2500000000e+02 1.2500000000e+02 0.0000000000e+00 0.0000e+00 -1.0000e+00
       23  1    1    2    0    0 +4.6618004655e+01 +4.8737465113e-01 -4.1171933857e+01 1.1038050269e+02 9.1188000000e+01 0.0000e+00 -1.0000e+00
       25  1    1    2    0    0 -4.6618004655e+01 -4.8737465113e-01 +4.1171933857e+01 1.3961949731e+02 1.2500000000e+02 0.0000e+00 0.0000e+00
</event>
<event>
 4      1 +2.4014000e-01 2.50000000e+02 7.54677100e-03 1.02464900e-01
      -11 -1    0    0    0    0 +0.0000000000e+00 +0.0000000000e+00 +1.2500000000e+02 1.2500000000e+02 0.0000000000e+00 0.0000e+00 1.0000e+00
       11 -1    0    0    0    0 -0.0000000000e+00 -0.0000000000e+00 -1.2500000000e+02 1.2500000000e+02 0.0000000000e+00 0.0000e+00 -1.0000e+00
       23  1    1    2    0    0 -4.4810143019e+01 -2.9430158032e+01 -3.1536025597e+01 1.1038050269e+02 9.1188000000e+01 0.0000e+00 0.0000e+00
       25  1    1    2    0    0 +4.4810143019e+01 +2.9430158032e+01 +3.1536025597e+01 1.3961949731e+02 1.2500000000e+02 0.0000e+00 0.0000e+00
</event>
<event>
 4      1 +2.4014000e-01 2.50000000e+02 7.54677100e-03 1.02464900e-01
      -11 -1    0    0    0    0 +0.0000000000e+00 +0.0000000000e+00 +1.2500000000e+02 1.2500000000e+02 0.0000000000e+00 0.0000e+00 1.0000e+00
       11 -1    0    0    0    0 -0.0000000000e+00 -0.0000000000e+00 -1.2500000000e+02 1.2500000000e+02 0.0000000000e+00 0.0000e+00 -1.0000e+00
       23  1    1    2    0    0 -3.2095001504e+01 +5.0077397430e+01 -1.8187060640e+01 1.1038050269e+02 9.1188000000e+01 0.0000e+00 0.0000e+00
       25  1    1    2    0    0 +3.2095001504e+01 -5.0077397430e+01 +1.8187060640e+01 1.3961949731e+02 1.2500000000e+02 0.0000e+00 0.0000e+00
</event>
<event>
 4      1 +2.4014000e-01 2.50000000e+02 7.54677100e-03 1.02464900e-01
      -11 -1    0    0    0    0 +0.0000000000e+00 +0.0000000000e+00 +1.2500000000e+02 1.2500000000e+02 0.0000000000e+00 0.0000e+00 -1.0000e+00
       11 -1    0    0    0    0 -0.0000000000e+00 -0.0000000000e+00 -1.2500000000e+02 1.2500000000e+02 0.0000000000e+00 0.0000e+00 1.0000e+00
       23  1    1    2    0    0 +4.3249985140e+01 +3.1945424039e+01 +3.1265519314e+01 1.1038050269e+02 9.1188000000e+01 0.0000e+00 -1.0000e+00
       25  1    1    2    0    0 -4.3249985140e+01 -3.1945424039e+01 -3.1265519314e+01 1.3961949731e+02 1.2500000000e+02 0.0000e+00 0.0000e+00
</event>
<event>
 4      1 +2.4014000e-01 2.50000000e+02 7.54677100e-03 1.02464900e-01
      -11 -1    0    0    0    0 +0.0000000000e+00 +0.0000000000e+00 +1.2500000000e+02 1.2500000000e+02 0.0000000000e+00 0.0000e+00 1.0000e+00
       11 -1    0    0    0    0 -0.0000000000e+00 -0.0000000000e+00 -1.2500000000e+02 1.2500000000e+02 0.0000000000e+00 0.0000e+00 -1.0000e+00
       23  1    1    2    0    0 -2.9765506794e+01 -5.0122090995e+01 +2.1688582924e+01 1.1038050269e+02 9.1188000000e+01 0.0000e+00 -1.0000e+00
       25  1    1    2    0    0 +2.9765506794e+01 +5.0122090995e+01 -2.1688582924e+01 1.3961949731e+02 1.2500000000e+02 0.0000e+00 0.0000e+00
</event>
<event>
 4      1 +2.4014000e-01 2.50000000e+02 7.54677100e-03 1.02464900e-01
      -11 -1    0    0    0    0 +0.0000000000e+00 +0.0000000000e+00 +1.2500000000e+02 1.2500000000e+02 0.0000000000e+00 0.0000e+00 -1.0000e+00
       11 -1    0    0    0    0 -0.0000000000e+00 -0.0000000000e+00 -1.2500000000e+02 1.2500000000e+02 0.0000000000e+00 0.0000e+00 1.0000e+00
       23  1    1    2    0    0 +5.8281414777e+01 +1.9861334115e+01 -8.7981889315e+00 1.1038050269e+02 9.1188000000e+01 0.0000e+00 -1.0000e+00
       25  1    1    2    0    0 -5.8281414777e+01 -1.9861334115e+01 +8.7981889315e+00 1.3961949731e+02 1.2500000000e+02 0.0000e+00 0.0000e+00
</event>
<event>
 4      1 +2.4014000e-01 2.50000000e+02 7.54677100e-03 1.02464900e-01
      -11 -1    0    0    0    0 +0.0000000000e+00 +0.0000000000e+00 +1.2500000000e+02 1.2500000000e+02 0.0000000000e+00 0.0000e+00 -1.0000e+00
       11 -1    0    0    0    0 -0.0000000000e+00 -0.0000000000e+00 -1.2500000000e+02 1.2500000000e+02 0.0000000000e+00 0.0000e+00 1.0000e+00
       23  1    1    2    0    0 +2.2882098901e+00 -5.4501388229e+01 +2.9882550197e+01 1.1038050269e+02 9.1188000000e+01 0.0000e+00 -1.0000e+00
       25  1    1    2    0    0 -2.2882098901e+00 +5.4501388229e+01 -2.9882550197e+01 1.3961949731e+02 1.2500000000e+02 0.0000e+00 0.0000e+00
</event>
<event>
 4      1 +2.4014000e-01 2.50000000e+02 7.54677100e-03 1.02464900e-01
      -11 -1    0    0    0    0 +0.0000000000e+00 +0.0000000000e+00 +1.2500000000e+02 1.2500000000e+02 0.0000000000e+00 0.0000e+00 1.0000e+00
       11 -1    0    0    0    0 -0.0000000000e+00 -0.0000000000e+00 -1.2500000000e+02 1.2500000000e+02 0.0000000000e+00 0.0000e+00 -1.0000e+00
       23  1    1    2    0    0 -4.3065232697e+01 +4.4286267666e+01 +7.2605963028e+00 1.1038050269e+02 9.1188000000e+01 0.0000e+00 1.0000e+00
       25  1    1    2    0    0 +4.3065232697e+01 -4.4286267666e+01 -7.2605963028e+00 1.3961949731e+02 1.2500000000e+02 0.0000e+00 0.0000e+00
</event>
<event>
 4      1 +2.4014000e-01 2.50000000e+02 7.54677100e-03 1.02464900e-01
      -11 -1    0    0    0    0 +0.0000000000e+00 +0.0000000000e+00 +1.2500000000e+02 1.2500000000e+02 0.0000000000e+00 0.0000e+00 -1.0000e+00
       11 -1    0    0    0    0 -0.0000000000e+00 -0.0000000000e+00 -1.2500000000e+02 1.2500000000e+02 0.0000000000e+00 0.0000e+00 1.0000e+00
       23  1    1    2    0    0 -1.7494789633e+00 +2.4694780506e+01 -5.7058839532e+01 1.1038050269e+02 9.1188000000e+01 0.0000e+00 1.0000e+00
       25  1    1    2    0    0 +1.7494789633e+00 -2.4694780506e+01 +5.7058839532e+01 1.3961949731e+02 1.2500000000e+02 0.0000e+00 0.0000e+00
</event>
<event>
 4      1 +2.4014000e-01 2.50000000e+02 7.54677100e-03 1.02464900e-01
      -11 -1    0    0    0    0 +0.0000000000e+00 +0.0000000000e+00 +1.2500000000e+02 1.2500000000e+02 0.0000000000e+00 0.0000e+00 -1.0000e+00
       11 -1    0    0    0    0 -0.0000000000e+00 -0.0000000000e+00 -1.2500000000e+02 1.2500000000e+02 0.0000000000e+00 0.0000e+00 1.0000e+00
       23  1    1    2    0    0 -2.4439057341e+01 -5.6614492782e+01 -8.1323866726e+00 1.1038050269e+02 9.1188000000e+01 0.0000e+00 1.0000e+00
       25  1    1    2    0    0 +2.4439057341e+01 +5.6614492782e+01 +8.1323866726e+00 1.3961949731e+02 1.2500000000e+02 0.0000e+00 0.0000e+00
</event>
<event>
 4      1 +2.4014000e-01 2.50000000e+02 7.54677100e-03 1.02464900e-01
      -11 -1    0    0    0    0 +0.0000000000e+00 +0.0000000000e+00 +1.2500000000e+02 1.2500000000e+02 0.0000000000e+00 0.0000e+00 -1.0000e+00
       11 -1    0    0    0    0 -0.0000000000e+00 -0.0000000000e+00 -1.2500000000e+02 1.2500000000e+02 0.0000000000e+00 0.0000e+00 1.0000e+00
       23  1    1    2    0    0 +4.8201591442e+01 -1.3132255246e+01 -3.7050701536e+01 1.1038050269e+02 9.1188000000e+01 0.0000e+00 1.0000e+00
       25  1    1    2    0    0 -4.8201591442e+01 +1.3132255246e+01 +3.7050701536e+01 1.3961949731e+02 1.2500000000e+02 0.0000e+00 0.0000e+00
</event>
<event>
 4      1 +2.4014000e-01 2.50000000e+02 7.54677100e-03 1.02464900e-01
      -11 -1    0    0    0    0 +0.0000000000e+00 +0.0000000000e+00 +1.2500000000e+02 1.2500000000e+02 0.0000000000e+00 0.0000e+00 1.0000e+00
       11 -1    0    0    0    0 -0.0000000000e+00 -0.0000000000e+00 -1.2500000000e+02 1.2500000000e+02 0.0000000000e+00 0.0000e+00 -1.0000e+00
       23  1    1    2    0    0 -3.6216103640e+01 +5.0475201590e-01 +5.0564247173e+01 1.1038050269e+02 9.1188000000e+01 0.0000e+00 0.0000e+00
       25  1    1    2    0    0 +3.6216103640e+01 -5.0475201590e-01 -5.0564247173e+01 1.3961949731e+02 1.2500000000e+02 0.0000e+00 0.0000e+00
</event>
<event>
 4      1 +2.4014000e-01 2.50000000e+02 7.54677100e-03 1.02464900e-01
      -11 -1    0    0    0    0 +0.0000000000e+00 +0.0000000000e+00 +1.2500000000e+02 1.2500000000e+02 0.0000000000e+00 0.0000e+00 -1.0000e+00
       11 -1    0    0    0    0 -0.0000000000e+00 -0.0000000000e+00 -1.2500000000e+02 1.2500000000e+02 0.0000000000e+00 0.0000e+00 1.0000e+00
       23  1    1    2    0    0 -1.6716646067e+01 +5.9895053117e+01 -1.3192369189e+00 1.1038050269e+02 9.1188000000e+01 0.0000e+00 0.0000e+00
       25  1    1    2    0    0 +1.6716646067e+01 -5.9895053117e+01 +1.3192369189e+00 1.3961949731e+02 1.2500000000e+02 0.0000e+00 0.0000e+00
</event>
<event>
 4      1 +2.4014000e-01 2.50000000e+02 7.54677100e-03 1.02464900e-01
      -11 -1    0    0    0    0 +0.0000000000e+00 +0.0000000000e+00 +1.2500000000e+02 1.2500000000e+02 0.0000000000e+00 0.0000e+00 1.0000e+00
       11 -1    0    0    0    0 -0.0000000000e+00 -0.0000000000e+00 -1.2500000000e+02 1.2500000000e+02 0.0000000000e+00 0.0000e+00 -1.0000e+00
       23  1    1    2    0    0 +1.1258275488e+01 +3.7129465003e+00 -6.1057917513e+01 1.1038050269e+02 9.1188000000e+01 0.0000e+00 -1.0000e+00
       25  1    1    2    0    0 -1.1258275488e+01 -3.7129465003e+00 +6.1057917513e+01 1.3961949731e+02 1.2500000000e+02 0.0000e+00 0.0000e+00
</event>
<event>
 4      1 +2.4014000e-01 2.50000000e+02 7.54677100e-03 1.02464900e-01
      -11 -1    0    0    0    0 +0.0000000000e+00 +0.0000000000e+00 +1.2500000000e+02 1.2500000000e+02 0.0000000000e+00 0.0000e+00 1.0000e+00
       11 -1    0    0    0    0 -0.0000000000e+00 -0.0000000000e+00 -1.2500000000e+02 1.2500000000e+02 0.0000000000e+00 0.0000e+00 -1.0000e+00
       23  1    1    2    0    0 -3.9997193120e+01 +4.2255506162e+01 +2.1984102691e+01 1.1038050269e+02 9.1188000000e+01 0.0000e+00 1.0000e+00
       25  1    1    2    0    0 +3.9997193120e+01 -4.2255506162e+01 -2.1984102691e+01 1.3961949731e+02 1.2500000000e+02 0.0000e+00 0.0000e+00
</event>
<event>
 4      1 +2.4014000e-01 2.50000000e+02 7.54677100e-03 1.02464900e-01
      -11 -1    0    0    0    0 +0.0000000000e+00 +0.0000000000e+00 +1.2500000000e+02 1.2500000000e+02 0.0000000000e+00 0.0000e+00 1.0000e+00
       11 -1    0    0    0    0 -0.0000000000e+00 -0.0000000000e+00 -1.2500000000e+02 1.2500000000e+02 0.0000000000e+00 0.0000e+00 -1.0000e+00
       23  1    1    2    0    0 -4.6511317374e+01 +5.6474517978e+00 +4.0907305875e+01 1.1038050269e+02 9.1188000000e+01 0.0000e+00 0.0000e+00
       25  1    1    2    0    0 +4.6511317374e+01 -5.6474517978e+00 -4.0907305875e+01 1.3961949731e+02 1.2500000000e+02 0.0000e+00 0.0000e+00
</event>
<event>
 4      1 +2.4014000e-01 2.50000000e+02 7.54677100e-03 1.02464900e-01
      -11 -1    0    0    0    0 +0.0000000000e+00 +0.0000000000e+00 +1.2500000000e+02 1.2500000000e+02 0.0000000000e+00 0.0000e+00 1.0000e+00
       11 -1    0    0    0    0 -0.0000000000e+00 -0.0000000000e+00 -1.2500000000e+02 1.2500000000e+02 0.0000000000e+00 0.0000e+00 -1.0000e+00
       23  1    1    2    0    0 +4.5549366967e+01 -2.9087164918e+01 -3.0786296231e+01 1.1038050269e+02 9.1188000000e+01 0.0000e+00 0.0000e+00
       25  1    1    2    0    0 -4.5549366967e+01 +2.9087164918e+01 +3.0786296231e+01 1.3961949731e+02 1.2500000000e+02 0.0000e+00 0.0000e+00
</event>
<event>
 4      1 +2.4014000e-01 2.50000000e+02 7.54677100e-03 1.02464900e-01
      -11 -1    0    0    0    0 +0.0000000000e+00 +0.0000000000e+00 +1.2500000000e+02 1.2500000000e+02 0.0000000000e+00 0.0000e+00 -1.0000e+00
       11 -1    0    0    0    0 -0.0000000000e+00 -0.0000000000e+00 -1.2500000000e+02 1.2500000000e+02 0.0000000000e+00 0.0000e+00 1.0000e+00
       23  1    1    2    0    0 -3.3183629118e+01 -3.0583049728e+01 -4.2803362690e+01 1.1038050269e+02 9.1188000000e+01 0.0000e+00 0.0000e+00
       25  1    1    2    0    0 +3.3183629118e+01 +3.0583049728e+01 +4.2803362690e+01 1.3961949731e+02 1.2500000000e+02 0.0000e+00 0.0000e+00
</event>
<event>
 4      1 +2.4014000e-01 2.50000000e+02 7.54677100e-03 1.02464900e-01
      -11 -1    0    0    0    0 +0.0000000000e+00 +0.0000000000e+00 +1.2500000000e+02 1.2500000000e+02 0.0000000000e+00 0.0000e+00 1.0000e+00
       11 -1    0    0    0    0 -0.0000000000e+00 -0.0000000000e+00 -1.2500000000e+02 1.2500000000e+02 0.0000000000e+00 0.0000e+00 -1.0000e+00
       23  1    1    2    0    0 +3.0612335001e+01 -5.1973088738e+01 -1.5175210789e+01 1.1038050269e+02 9.1188000000e+01 0.0000e+00 -1.0000e+00
       25  1    1    2    0    0 -3.0612335001e+01 +5.1973088738e+01 +1.5175210789e+01 1.3961949731e+02 1.2500000000e+02 0.0000e+00 0.0000e+00
</event>
<event>
 4      1 +2.4014000e-01 2.50000000e+02 7.54677100e-03 1.02464900e-01
      -11 -1    0    0    0    0 +0.0000000000e+00 +0.0000000000e+00 +1.2500000000e+02 1.2500000000e+02 0.0000000000e+00 0.0000e+00 -1.0000e+00
       11 -1    0    0    0    0 -0.0000000000e+00 -0.0000000000e+00 -1.2500000000e+02 1.2500000000e+02 0.0000000000e+00 0.0000e+00 1.0000e+00
       23  1    1    2    0    0 +2.9703584619e+01 +5.2479337894e+01 -1.5238772412e+01 1.1038050269e+02 9.1188000000e+01 0.0000e+00 1.0000e+00
       25  1    1    2    0    0 -2.9703584619e+01 -5.2479337894e+01 +1.5238772412e+01 1.3961949731e+02 1.2500000000e+02 0.0000e+00 0.0000e+00
</event>
<event>
 4      1 +2.4014000e-01 2.50000000e+02 7.54677100e-03 1.02464900e-01
      -11 -1    0    0    0    0 +0.0000000000e+00 +0.0000000000e+00 +1.2500000000e+02 1.2500000000e+02 0.0000000000e+00 0.0000e+00 1.0000e+00
       11 -1    0    0    0    0 -0.0000000000e+00 -0.0000000000e+00 -1.2500000000e+02 1.2500000000e+02 0.0000000000e+00 0.0000e+00 -1.0000e+00
       23  1    1    2    0    0 -1.4948644082e+01 -6.0013698576e+01 +6.5953053733e+00 1.1038050269e+02 9.1188000000e+01 0.0000e+00 -1.0000e+00
       25  1    1    2    0    0 +1.4948644082e+01 +6.0013698576e+01 -6.5953053733e+00 1.3961949731e+02 1.2500000000e+02 0.0000e+00 0.0000e+00
</event>
<event>
 4      1 +2.4014000e-01 2.50000000e+02 7.54677100e-03 1.02464900e-01
      -11 -1    0    0    0    0 +0.0000000000e+00 +0.0000000000e+00 +1.2500000000e+02 1.2500000000e+02 0.0000000000e+00 0.0000e+00 1.0000e+00
       11 -1    0    0    0    0 -0.0000000000e+00 -0.0000000000e+00 -1.2500000000e+02 1.2500000000e+02 0.0000000000e+00 0.0000e+00 -1.0000e+00
       23  1    1    2    0    0 +2.5902761408e+01 +4.9824827010e+01 -2.6742056663e+01 1.1038050269e+02 9.1188000000e+01 0.0000e+00 -1.0000e+00
       25  1    1    2    0    0 -2.5902761408e+01 -4.9824827010e+01 +2.6742056663e+01 1.3961949731e+02 1.2500000000e+02 0.0000e+00 0.0000e+00
</event>
<event>
 4      1 +2.4014000e-01 2.50000000e+02 7.54677100e-03 1.02464900e-01
      -11 -1    0    0    0    0 +0.0000000000e+00 +0.0000000000e+00 +1.2500000000e+02 1.2500000000e+02 0.0000000000e+00 0.0000e+00 1.0000e+00
       11 -1    0    0    0    0 -0.0000000000e+00 -0.0000000000e+00 -1.2500000000e+02 1.2500000000e+02 0.0000000000e+00 0.0000e+00 -1.0000e+00
       23  1    1    2    0    0 -5.3792725234e+01 -2.0261930294e+00 +3.1158326069e+01 1.1038050269e+02 9.1188000000e+01 0.0000e+00 1.0000e+00
       25  1    1    2    0    0 +5.3792725234e+01 +2.0261930294e+00 -3.1158326069e+01 1.3961949731e+02 1.2500000000e+02 0.0000e+00 0.0000e+00
</event>
<event>
 4      1 +2.4014000e-01 2.50000000e+02 7.54677100e-03 1.02464900e-01
      -11 -1    0    0    0    0 +0.0000000000e+00 +0.0000000000e+00 +1.2500000000e+02 1.2500000000e+02 0.0000000000e+00 0.0000e+00 1.0000e+00
       11 -1    0    0    0    0 -0.0000000000e+00 -0.0000000000e+00 -1.2500000000e+02 1.2500000000e+02 0.0000000000e+00 0.0000e+00 -1.0000e+00
       23  1    1    2    0    0 -4.5254989654e+01 +3.8066528573e+01 +1.9275096457e+01 1.1038050269e+02 9.1188000000e+01 0.0000e+00 1.0000e+00
       25  1    1    2    0    0 +4.5254989654e+01 -3.8066528573e+01 -1.9275096457e+01 1.3961949731e+02 1.2500000000e+02 0.0000e+00 0.0000e+00
</event>
<event>
 4      1 +2.4014000e-01 2.50000000e+02 7.54677100e-03 1.02464900e-01
      -11 -1    0    0    0    0 +0.0000000000e+00 +0.0000000000e+00 +1.2500000000e+02 1.2500000000e+02 0.0000000000e+00 0.0000e+00 1.0000e+00
       11 -1    0    0    0    0 -0.0000000000e+00 -0.0000000000e+00 -1.2500000000e+02 1.2500000000e+02 0.0000000000e+00 0.0000e+00 -1.0000e+00
       23  1    1    2    0    0 +1.7472693014e+01 +4.1662991380e+01 +4.2749317862e+01 1.1038050269e+02 9.1188000000e+01 0.0000e+00 0.0000e+00
       25  1    1    2    0    0 -1.7472693014e+01 -4.1662991380e+01 -4.2749317862e+01 1.3961949731e+02 1.2500000000e+02 0.0000e+00 0.0000e+00
</event>
<event>
 4      1 +2.4014000e-01 2.50000000e+02 7.54677100e-03 1.02464900e-01
      -11 -1    0    0    0    0 +0.0000000000e+00 +0.0000000000e+00 +1.2500000000e+02 1.2500000000e+02 0.0000000000e+00 0.0000e+00 1.0000e+00
       11 -1    0    0    0    0 -0.0000000000e+00 -0.0000000000e+00 -1.2500000000e+02 1.2500000000e+02 0.0000000000e+00 0.0000e+00 -1.0000e+00
       23  1    1    2    0    0 +2.2267777796e+01 -5.7998259573e+01 +2.9919873264e+00 1.1038050269e+02 9.1188000000e+01 0.0000e+00 0.0000e+00
       25  1    1    2    0    0 -2.2267777796e+01 +5.7998259573e+01 -2.9919873264e+00 1.3961949731e+02 1.2500000000e+02 0.0000e+00 0.0000e+00
</event>
<event>
 4      1 +2.4014000e-01 2.50000000e+02 7.54677100e-03 1.02464900e-01
      -11 -1    0    0    0    0 +0.0000000000e+00 +0.0000000000e+00 +1.2500000000e+02 1.2500000000e+02 0.0000000000e+00 0.0000e+00 -1.0000e+00
       11 -1    0    0    0    0 -0.0000000000e+00 -0.0000000000e+00 -1.2500000000e+02 1.2500000000e+02 0.0000000000e+00 0.0000e+00 1.0000e+00
       23  1    1    2    0    0 -1.4884664546e+01 +5.9780500060e+01 +8.5640296332e+00 1.1038050269e+02 9.1188000000e+01 0.0000e+00 1.0000e+00
       25  1    1    2    0    0 +1.4884664546e+01 -5.9780500060e+01 -8.5640296332e+00 1.3961949731e+02 1.2500000000e+02 0.0000e+00 0.0000e+00
</event>
<event>
 4      1 +2.4014000e-01 2.50000000e+02 7.54677100e-03 1.02464900e-01
      -11 -1    0    0    0    0 +0.0000000000e+00 +0.0000000000e+00 +1.2500000000e+02 1.2500000000e+02 0.0000000000e+00 0.0000e+00 1.0000e+00
       11 -1    0    0    0    0 -0.0000000000e+00 -0.0000000000e+00 -1.2500000000e+02 1.2500000000e+02 0.0000000000e+00 0.0000e+00 -1.0000e+00
       23  1    1    2    0    0 +2.0978650399e+01 -4.6827061197e+01 -3.5152903105e+01 1.1038050269e+02 9.1188000000e+01 0.0000e+00 -1.0000e+00
       25  1    1    2    0    0 -2.0978650399e+01 +4.6827061197e+01 +3.5152903105e+01 1.3961949731e+02 1.2500000000e+02 0.0000e+00 0.0000e+00
</event>
<event>
 4      1 +2.4014000e-01 2.50000000e+02 7.54677100e-03 1.02464900e-01
      -11 -1    0    0    0    0 +0.0000000000e+00 +0.0000000000e+00 +1.2500000000e+02 1.2500000000e+02 0.0000000000e+00 0.0000e+00 1.0000e+00
       11 -1    0    0    0    0 -0.0000000000e+00 -0.0000000000e+00 -1.2500000000e+02 1.2500000000e+02 0.0000000000e+00 0.0000e+00 -1.0000e+00
       23  1    1    2    0    0 +1.1027974027e+01 +1.2674010456e+01 -5.9886202730e+01 1.1038050269e+02 9.1188000000e+01 0.0000e+00 -1.0000e+00
       25  1    1    2    0    0 -1.1027974027e+01 -1.2674010456e+01 +5.9886202730e+01 1.3961949731e+02 1.2500000000e+02 0.0000e+00 0.0000e+00
</event>
<event>
 4      1 +2.4014000e-01 2.50000000e+02 7.54677100e-03 1.02464900e-01
      -11 -1    0    0    0    0 +0.0000000000e+00 +0.0000000000e+00 +1.2500000000e+02 1.2500000000e+02 0.0000000000e+00 0.0000e+00 -1.0000e+00
       11 -1    0    0    0    0 -0.0000000000e+00 -0.0000000000e+00 -1.2500000000e+02 1.2500000000e+02 0.0000000000e+00 0.0000e+00 1.0000e+00
       23  1    1    2    0    0 -4.7101835128e+01 +3.5689300892e+01 +1.9398323614e+01 1.1038050269e+02 9.1188000000e+01 0.0000e+00 -1.0000e+00
       25  1    1    2    0    0 +4.7101835128e+01 -3.5689300892e+01 -1.9398323614e+01 1.3961949731e+02 1.2500000000e+02 0.0000e+00 0.0000e+00
</event>
<event>
 4      1 +2.4014000e-01 2.50000000e+02 7.54677100e-03 1.02464900e-01
      -11 -1    0    0    0    0 +0.0000000000e+00 +0.0000000000e+00 +1.2500000000e+02 1.2500000000e+02 0.0000000000e+00 0.0000e+00 -1.0000e+00
       11 -1    0    0    0    0 -0.0000000000e+00 -0.0000000000e+00 -1.2500000000e+02 1.2500000000e+02 0.0000000000e+00 0.0000e+00 1.0000e+00
       23  1    1    2    0    0 -4.6741596382e+01 -4.1009051177e+01 -1.4439248283e+00 1.1038050269e+02 9.1188000000e+01 0.0000e+00 1.0000e+00
       25  1    1    2    0    0 +4.6741596382e+01 +4.1009051177e+01 +1.4439248283e+00 1.3961949731e+02 1.2500000000e+02 0.0000e+00 0.0000e+00
</event>
<event>
 4      1 +2.4014000e-01 2.50000000e+02 7.54677100e-03 1.02464900e-01
      -11 -1    0    0    0    0 +0.0000000000e+00 +0.0000000000e+00 +1.2500000000e+02 1.2500000000e+02 0.0000000000e+00 0.0000e+00 1.0000e+00
       11 -1    0    0    0    0 -0.0000000000e+00 -0.0000000000e+00 -1.2500000000e+02 1.2500000000e+02 0.0000000000e+00 0.0000e+00 -1.0000e+00
       23  1    1    2    0    0 -2.3668476895e+01 +5.1730902287e+01 +2.5145993313e+01 1.1038050269e+02 9.1188000000e+01 0.0000e+00 0.0000e+00
       25  1    1    2    0    0 +2.3668476895e+01 -5.1730902287e+01 -2.5145993313e+01 1.3961949731e+02 1.2500000000e+02 0.0000e+00 0.0000e+00
</event>
<event>
 4      1 +2.4014000e-01 2.50000000e+02 7.54677100e-03 1.02464900e-01
      -11 -1    0    0    0    0 +0.0000000000e+00 +0.0000000000e+00 +1.2500000000e+02 1.2500000000e+02 0.0000000000e+00 0.0000e+00 1.0000e+00
       11 -1    0    0    0    0 -0.0000000000e+00 -0.0000000000e+00 -1.2500000000e+02 1.2500000000e+02 0.0000000000e+00 0.0000e+00 -1.0000e+00
       23  1    1    2    0    0 +1.5746896924e+01 -5.6233454640e+01 -2.1411161719e+01 1.1038050269e+02 9.1188000000e+01 0.0000e+00 0.0000e+00
       25  1    1    2    0    0 -1.5746896924e+01 +5.6233454640e+01 +2.1411161719e+01 1.3961949731e+02 1.2500000000e+02 0.0000e+00 0.0000e+00
</event>
<event>
 4      1 +2.4014000e-01 2.50000000e+02 7.54677100e-03 1.02464900e-01
      -11 -1    0    0    0    0 +0.0000000000e+00 +0.0000000000e+00 +1.2500000000e+02 1.2500000000e+02 0.0000000000e+00 0.0000e+00 1.0000e+00
       11 -1    0    0    0    0 -0.0000000000e+00 -0.0000000000e+00 -1.2500000000e+02 1.2500000000e+02 0.0000000000e+00 0.0000e+00 -1.0000e+00
       23  1    1    2    0    0 -6.1516962310e+01 -6.9174512177e+00 -6.0345875088e+00 1.1038050269e+02 9.1188000000e+01 0.0000e+00 -1.0000e+00
       25  1    1    2    0    0 +6.1516962310e+01 +6.9174512177e+00 +6.0345875088e+00 1.3961949731e+02 1.2500000000e+02 0.0000e+00 0.0000e+00
</event>
<event>
 4      1 +2.4014000e-01 2.50000000e+02 7.54677100e-03 1.02464900e-01
      -11 -1    0    0    0    0 +0.0000000000e+00 +0.0000000000e+00 +1.2500000000e+02 1.2500000000e+02 0.0000000000e+00 0.0000e+00 -1.0000e+00
       11 -1    0    0    0    0 -0.0000000000e+00 -0.0000000000e+00 -1.2500000000e+02 1.2500000000e+02 0.0000000000e+00 0.0000e+00 1.0000e+00
       23  1    1    2    0    0 +4.9302630959e+01 -3.6233122699e+01 +1.1181029904e+01 1.1038050269e+02 9.1188000000e+01 0.0000e+00 0.0000e+00
       25  1    1    2    0    0 -4.9302630959e+01 +3.6233122699e+01 -1.1181029904e+01 1.3961949731e+02 1.2500000000e+02 0.0000e+00 0.0000e+00
</event>
<event>
 4      1 +2.4014000e-01 2.50000000e+02 7.54677100e-03 1.02464900e-01
      -11 -1    0    0    0    0 +0.0000000000e+00 +0.0000000000e+00 +1.2500000000e+02 1.2500000000e+02 0.0000000000e+00 0.0000e+00 -1.0000e+00
       11 -1    0    0    0    0 -0.0000000000e+00 -0.0000000000e+00 -1.2500000000e+02 1.2500000000e+02 0.0000000000e+00 0.0000e+00 1.0000e+00
       23  1    1    2    0    0 +1.7666966317e+01 -5.4181785540e+01 -2.4916188443e+01 1.1038050269e+02 9.1188000000e+01 0.0000e+00 0.0000e+00
       25  1    1    2    0    0 -1.7666966317e+01 +5.4181785540e+01 +2.4916188443e+01 1.3961949731e+02 1.2500000000e+02 0.0000e+00 0.0000e+00
</event>
<event>
 4      1 +2.4014000e-01 2.50000000e+02 7.54677100e-03 1.02464900e-01
      -11 -1    0    0    0    0 +0.0000000000e+00 +0.0000000000e+00 +1.2500000000e+02 1.2500000000e+02 0.0000000000e+00 0.0000e+00 -1.0000e+00
       11 -1    0    0    0    0 -0.0000000000e+00 -0.0000000000e+00 -1.2500000000e+02 1.2500000000e+02 0.0000000000e+00 0.0000e+00 1.0000e+00
       23  1    1    2    0    0 +1.5063629296e-01 +5.6551819776e+01 -2.5893493745e+01 1.1038050269e+02 9.1188000000e+01 0.0000e+00 1.0000e+00
       25  1    1    2    0    0 -1.5063629296e-01 -5.6551819776e+01 +2.5893493745e+01 1.3961949731e+02 1.2500000000e+02 0.0000e+00 0.0000e+00
</event>
<event>
 4      1 +2.4014000e-01 2.50000000e+02 7.54677100e-03 1.02464900e-01
      -11 -1    0    0    0    0 +0.0000000000e+00 +0.0000000000e+00 +1.2500000000e+02 1.2500000000e+02 0.0000000000e+00 0.0000e+00 1.0000e+00
       11 -1    0    0    0    0 -0.0000000000e+00 -0.0000000000e+00 -1.2500000000e+02 1.2500000000e+02 0.0000000000e+00 0.0000e+00 -1.0000e+00
       23  1    1    2    0    0 +5.0604344165e+01 +2.3718504833e+01 +2.7299027634e+01 1.1038050269e+02 9.1188000000e+01 0.0000e+00 0.0000e+00
       25  1    1    2    0    0 -5.0604344165e+01 -2.3718504833e+01 -2.7299027634e+01 1.3961949731e+02 1.2500000000e+02 0.0000e+00 0.0000e+00
</event>
<event>
 4      1 +2.4014000e-01 2.50000000e+02 7.54677100e-03 1.02464900e-01
      -11 -1    0    0    0    0 +0.0000000000e+00 +0.0000000000e+00 +1.2500000000e+02 1.2500000000e+02 0.0000000000e+00 0.0000e+00 -1.0000e+00
       11 -1    0    0    0    0 -0.0000000000e+00 -0.0000000000e+00 -1.2500000000e+02 1.2500000000e+02 0.0000000000e+00 0.0000e+00 1.0000e+00
       23  1    1    2    0    0 -4.6451316217e+01 +3.9445174161e+01 +1.2448192111e+01 1.1038050269e+02 9.1188000000e+01 0.0000e+00 0.0000e+00
       25  1    1    2    0    0 +4.6451316217e+01 -3.9445174161e+01 -1.2448192111e+01 1.3961949731e+02 1.2500000000e+02 0.0000e+00 0.0000e+00
</event>
<event>
 4      1 +2.4014000e-01 2.50000000e+02 7.54677100e-03 1.02464900e-01
      -11 -1    0    0    0    0 +0.0000000000e+00 +0.0000000000e+00 +1.2500000000e+02 1.2500000000e+02 0.0000000000e+00 0.0000e+00 1.0000e+00
       11 -1    0    0    0    0 -0.0000000000e+00 -0.0000000000e+00 -1.2500000000e+02 1.2500000000e+02 0.0000000000e+00 0.0000e+00 -1.0000e+00
       23  1    1    2    0    0 +5.5437721044e+01 +2.7815002153e+01 +4.6463717394e+00 1.1038050269e+02 9.1188000000e+01 0.0000e+00 -1.0000e+00
       25  1    1    2    0    0 -5.5437721044e+01 -2.7815002153e+01 -4.6463717394e+00 1.3961949731e+02 1.2500000000e+02 0.0000e+00 0.0000e+00
</event>
<event>
 4      1 +2.4014000e-01 2.50000000e+02 7.54677100e-03 1.02464900e-01
      -11 -1    0    0    0    0 +0.0000000000e+00 +0.0000000000e+00 +1.2500000000e+02 1.2500000000e+02 0.0000000000e+00 0.0000e+00 1.0000e+00
       11 -1    0    0    0    0 -0.0000000000e+00 -0.0000000000e+00 -1.2500000000e+02 1.2500000000e+02 0.0000000000e+00 0.0000e+00 -1.0000e+00
       23  1    1    2    0    0 -1.7043193169e+01 -5.8648485052e+01 -1.1768126330e+01 1.1038050269e+02 9.1188000000e+01 0.0000e+00 1.0000e+00
       25  1    1    2    0    0 +1.7043193169e+01 +5.8648485052e+01 +1.1768126330e+01 1.3961949731e+02 1.2500000000e+02 0.0000e+00 0.0000e+00
</event>
<event>
 4      1 +2.4014000e-01 2.50000000e+02 7.54677100e-03 1.02464900e-01
      -11 -1    0    0    0    0 +0.0000000000e+00 +0.0000000000e+00 +1.2500000000e+02 1.2500000000e+02 0.0000000000e+00 0.0000e+00 -1.0000e+00
       11 -1    0    0    0    0 -0.0000000000e+00 -0.0000000000e+00 -1.2500000000e+02 1.2500000000e+02 0.0000000000e+00 0.0000e+00 1.0000e+00
       23  1    1    2    0    0 +2.8750019845e+01 -1.1406067686e+01 -5.3962412923e+01 1.1038050269e+02 9.1188000000e+01 0.0000e+00 0.0000e+00
       25  1    1    2    0    0 -2.8750019845e+01 +1.1406067686e+01 +5.3962412923e+01 1.3961949731e+02 1.2500000000e+02 0.0000e+00 0.0000e+00
</event>
<event>
 4      1 +2.4014000e-01 2.50000000e+02 7.54677100e-03 1.02464900e-01
      -11 -1    0    0    0    0 +0.0000000000e+00 +0.0000000000e+00 +1.2500000000e+02 1.2500000000e+02 0.0000000000e+00 0.0000e+00 -1.0000e+00
       11 -1    0    0    0    0 -0.0000000000e+00 -0.0000000000e+00 -1.2500000000e+02 1.2500000000e+02 0.0000000000e+00 0.0000e+00 1.0000e+00
       23  1    1    2    0    0 +1.2078182458e+01 +3.3176788534e+01 -5.1205685629e+01 1.1038050269e+02 9.1188000000e+01 0.0000e+00 1.0000e+00
       25  1    1    2    0    0 -1.2078182458e+01 -3.3176788534e+01 +5.1205685629e+01 1.3961949731e+02 1.2500000000e+02 0.0000e+00 0.0000e+00
</event>
<event>
 4      1 +2.4014000e-01 2.50000000e+02 7.54677100e-03 1.02464900e-01
      -11 -1    0    0    0    0 +0.0000000000e+00 +0.0000000000e+00 +1.2500000000e+02 1.2500000000e+02 0.0000000000e+00 0.0000e+00 1.0000e+00
       11 -1    0    0    0    0 -0.0000000000e+00 -0.0000000000e+00 -1.2500000000e+02 1.2500000000e+02 0.0000000000e+00 0.0000e+00 -1.0000e+00
       23  1    1    2    0    0 +9.7618323067e+00 +3.1968342092e+01 -5.2453176868e+01 1.1038050269e+02 9.1188000000e+01 0.0000e+00 -1.0000e+00
       25  1    1    2    0    0 -9.7618323067e+00 -3.1968342092e+01 +5.2453176868e+01 1.3961949731e+02 1.2500000000e+02 0.0000e+00 0.0000e+00
</event>
<event>
 4      1 +2.4014000e-01 2.50000000e+02 7.54677100e-03 1.02464900e-01
      -11 -1    0    0    0    0 +0.0000000000e+00 +0.0000000000e+00 +1.2500000000e+02 1.2500000000e+02 0.0000000000e+00 0.0000e+00 1.0000e+00
       11 -1    0    0    0    0 -0.0000000000e+00 -0.0000000000e+00 -1.2500000000e+02 1.2500000000e+02 0.0000000000e+00 0.0000e+00 -1.0000e+00
       23  1    1    2    0    0 -2.3675593267e+01 -3.3489320469e+01 -4.6760407693e+01 1.1038050269e+02 9.1188000000e+01 0.0000e+00 0.0000e+00
       25  1    1    2    0    0 +2.3675593267e+01 +3.3489320469e+01 +4.6760407693e+01 1.3961949731e+02 1.2500000000e+02 0.0000e+00 0.0000e+00
</event>
<event>
 4      1 +2.4014000e-01 2.50000000e+02 7.54677100e-03 1.02464900e-01
      -11 -1    0    0    0    0 +0.0000000000e+00 +0.0000000000e+00 +1.2500000000e+02 1.2500000000e+02 0.0000000000e+00 0.0000e+00 -1.0000e+00
       11 -1    0    0    0    0 -0.0000000000e+00 -0.0000000000e+00 -1.2500000000e+02 1.2500000000e+02 0.0000000000e+00 0.0000e+00 1.0000e+00
       23  1    1    2    0    0 +4.0387863845e+01 -4.7258159083e+01 +2.0225933344e+00 1.1038050269e+02 9.1188000000e+01 0.0000e+00 0.0000e+00
       25  1    1    2    0    0 -4.0387863845e+01 +4.7258159083e+01 -2.0225933344e+00 1.3961949731e+02 1.2500000000e+02 0.0000e+00 0.0000e+00
</event>
<event>
 4      1 +2.4014000e-01 2.50000000e+02 7.54677100e-03 1.02464900e-01
      -11 -1    0    0    0    0 +0.0000000000e+00 +0.0000000000e+00 +1.2500000000e+02 1.2500000000e+02 0.0000000000e+00 0.0000e+00 1.0000e+00
       11 -1    0    0    0    0 -0.0000000000e+00 -0.0000000000e+00 -1.2500000000e+02 1.2500000000e+02 0.0000000000e+00 0.0000e+00 -1.0000e+00
       23  1    1    2    0    0 +3.8680241528e+01 -4.0288896608e+01 +2.7372390380e+01 1.1038050269e+02 9.1188000000e+01 0.0000e+00 1.0000e+00
       25  1    1    2    0    0 -3.8680241528e+01 +4.0288896608e+01 -2.7372390380e+01 1.3961949731e+02 1.2500000000e+02 0.0000e+00 0.0000e+00
</event>
<event>
 4      1 +2.4014000e-01 2.50000000e+02 7.54677100e-03 1.02464900e-01
      -11 -1    0    0    0    0 +0.0000000000e+00 +0.0000000000e+00 +1.2500000000e+02 1.2500000000e+02 0.0000000000e+00 0.0000e+00 -1.0000e+00
       11 -1    0    0    0    0 -0.0000000000e+00 -0.0000000000e+00 -1.2500000000e+02 1.2500000000e+02 0.0000000000e+00 0.0000e+00 1.0000e+00
       23  1    1    2    0    0 -8.2927357975e+00 +6.1079212862e+01 -8.3165088143e+00 1.1038050269e+02 9.1188000000e+01 0.0000e+00 0.0000e+00
       25  1    1    2    0    0 +8.2927357975e+00 -6.1079212862e+01 +8.3165088143e+00 1.3961949731e+02 1.2500000000e+02 0.0000e+00 0.0000e+00
</event>
<event>
 4      1 +2.4014000e-01 2.50000000e+02 7.54677100e-03 1.02464900e-01
      -11 -1    0    0    0    0 +0.0000000000e+00 +0.0000000000e+00 +1.2500000000e+02 1.2500000000e+02 0.0000000000e+00 0.0000e+00 -1.0000e+00
       11 -1    0    0    0    0 -0.0000000000e+00 -0.0000000000e+00 -1.2500000000e+02 1.2500000000e+02 0.0000000000e+00 0.0000e+00 1.0000e+00
       23  1    1    2    0    0 -1.7595054662e+01 -5.8832570289e+01 -9.8866958210e+00 1.1038050269e+02 9.1188000000e+01 0.0000e+00 1.0000e+00
       25  1    1    2    0    0 +1.7595054662e+01 +5.8832570289e+01 +9.8866958210e+00 1.3961949731e+02 1.2500000000e+02 0.0000e+00 0.0000e+00
</event>
<event>
 4      1 +2.4014000e-01 2.50000000e+02 7.54677100e-03 1.02464900e-01
      -11 -1    0    0    0    0 +0.0000000000e+00 +0.0000000000e+00 +1.2500000000e+02 1.2500000000e+02 0.0000000000e+00 0.0000e+00 -1.0000e+00
       11 -1    0    0    0    0 -0.0000000000e+00 -0.0000000000e+00 -1.2500000000e+02 1.2500000000e+02 0.0000000000e+00 0.0000e+00 1.0000e+00
       23  1    1    2    0    0 -1.8777451420e+01 +1.5733289613e+01 +5.7170577623e+01 1.1038050269e+02 9.1188000000e+01 0.0000e+00 -1.0000e+00
       25  1    1    2    0    0 +1.8777451420e+01 -1.5733289613e+01 -5.7170577623e+01 1.3961949731e+02 1.2500000000e+02 0.0000e+00 0.0000e+00
</event>
<event>
 4      1 +2.4014000e-01 2.50000000e+02 7.54677100e-03 1.02464900e-01
      -11 -1    0    0    0    0 +0.0000000000e+00 +0.0000000000e+00 +1.2500000000e+02 1.2500000000e+02 0.0000000000e+00 0.0000e+00 1.0000e+00
       11 -1    0    0    0    0 -0.0000000000e+00 -0.0000000000e+00 -1.2500000000e+02 1.2500000000e+02 0.0000000000e+00 0.0000e+00 -1.0000e+00
       23  1    1    2    0    0 +2.6844947729e+01 +9.2760547978e+00 +5.5334506580e+01 1.1038050269e+02 9.1188000000e+01 0.0000e+00 1.0000e+00
       25  1    1    2    0    0 -2.6844947729e+01 -9.2760547978e+00 -5.5334506580e+01 1.3961949731e+02 1.2500000000e+02 0.0000e+00 0.0000e+00
</event>
<event>
 4      1 +2.4014000e-01 2.50000000e+02 7.54677100e-03 1.02464900e-01
      -11 -1    0    0    0    0 +0.0000000000e+00 +0.0000000000e+00 +1.2500000000e+02 1.2500000000e+02 0.0000000000e+00 0.0000e+00 -1.0000e+00
       11 -1    0    0    0    0 -0.0000000000e+00 -0.0000000000e+00 -1.2500000000e+02 1.2500000000e+02 0.0000000000e+00 0.0000e+00 1.0000e+00
       23  1    1    2    0    0 -3.3129896398e+01 +4.3183802255e+01 -3.0102711127e+01 1.1038050269e+02 9.1188000000e+01 0.0000e+00 1.0000e+00
       25  1    1    2    0    0 +3.3129896398e+01 -4.3183802255e+01 +3.0102711127e+01 1.3961949731e+02 1.2500000000e+02 0.0000e+00 0.0000e+00
</event>
<event>
 4      1 +2.4014000e-01 2.50000000e+02 7.54677100e-03 1.02464900e-01
      -11 -1    0    0    0    0 +0.0000000000e+00 +0.0000000000e+00 +1.2500000000e+02 1.2500000000e+02 0.0000000000e+00 0.0000e+00 -1.0000e+00
       11 -1    0    0    0    0 -0.0000000000e+00 -0.0000000000e+00 -1.2500000000e+02 1.2500000000e+02 0.0000000000e+00 0.0000e+00 1.0000e+00
       23  1    1    2    0    0 -1.7331233600e+01 -1.9792081043e+00 +5.9701885287e+01 1.1038050269e+02 9.1188000000e+01 0.0000e+00 -1.0000e+00
       25  1    1    2    0    0 +1.7331233600e+01 +1.9792081043e+00 -5.9701885287e+01 1.3961949731e+02 1.2500000000e+02 0.0000e+00 0.0000e+00
</event>
<event>
 4      1 +2.4014000e-01 2.50000000e+02 7.54677100e-03 1.02464900e-01
      -11 -1    0    0    0    0 +0.0000000000e+00 +0.0000000000e+00 +1.2500000000e+02 1.2500000000e+02 0.0000000000e+00 0.0000e+00 1.0000e+00
       11 -1    0    0    0    0 -0.0000000000e+00 -0.0000000000e+00 -1.2500000000e+02 1.2500000000e+02 0.0000000000e+00 0.0000e+00 -1.0000e+00
       23  1    1    2    0    0 -1.8363489168e+01 +5.0253155455e+01 -3.1717608077e+01 1.1038050269e+02 9.1188000000e+01 0.0000e+00 0.0000e+00
       25  1    1    2    0    0 +1.8363489168e+01 -5.0253155455e+01 +3.1717608077e+01 1.3961949731e+02 1.2500000000e+02 0.0000e+00 0.0000e+00
</event>
<event>
 4      1 +2.4014000e-01 2.50000000e+02 7.54677100e-03 1.02464900e-01
      -11 -1    0    0    0    0 +0.0000000000e+00 +0.0000000000e+00 +1.2500000000e+02 1.2500000000e+02 0.0000000000e+00 0.0000e+00 1.0000e+00
       11 -1    0    0    0    0 -0.0000000000e+00 -0.0000000000e+00 -1.2500000000e+02 1.2500000000e+02 0.0000000000e+00 0.0000e+00 -1.0000e+00
       23  1    1    2    0    0 +2.8927651198e+01 -5.4639400235e+01 -6.8066855221e+00 1.1038050269e+02 9.1188000000e+01 0.0000e+00 -1.0000e+00
       25  1    1    2    0    0 -2.8927651198e+01 +5.4639400235e+01 +6.8066855221e+00 1.3961949731e+02 1.2500000000e+02 0.0000e+00 0.0000e+00
</event>
<event>
 4      1 +2.4014000e-01 2.50000000e+02 7.54677100e-03 1.02464900e-01
      -11 -1    0    0    0    0 +0.0000000000e+00 +0.0000000000e+00 +1.2500000000e+02 1.2500000000e+02 0.0000000000e+00 0.0000e+00 1.0000e+00
       11 -1    0    0    0    0 -0.0000000000e+00 -0.0000000000e+00 -1.2500000000e+02 1.2500000000e+02 0.0000000000e+00 0.0000e+00 -1.0000e+00
       23  1    1    2    0    0 +2.7528557433e+01 -2.1982941133e+01 -5.1259465999e+01 1.1038050269e+02 9.1188000000e+01 0.0000e+00 -1.0000e+00
       25  1    1    2    0    0 -2.7528557433e+01 +2.1982941133e+01 +5.1259465999e+01 1.3961949731e+02 1.2500000000e+02 0.0000e+00 0.0000e+00
</event>
<event>
 4      1 +2.4014000e-01 2.50000000e+02 7.54677100e-03 1.02464900e-01
      -11 -1    0    0    0    0 +0.0000000000e+00 +0.0000000000e+00 +1.2500000000e+02 1.2500000000e+02 0.0000000000e+00 0.0000e+00 1.0000e+00
       11 -1    0    0    0    0 -0.0000000000e+00 -0.0000000000e+00 -1.2500000000e+02 1.2500000000e+02 0.0000000000e+00 0.0000e+00 -1.0000e+00
       23  1    1    2    0    0 +2.1794693797e+01 -5.7818352564e+01 +7.1157191260e+00 1.1038050269e+02 9.1188000000e+01 0.0000e+00 1.0000e+00
       25  1    1    2    0    0 -2.1794693797e+01 +5.7818352564e+01 -7.1157191260e+00 1.3961949731e+02 1.2500000000e+02 0.0000e+00 0.0000e+00
</event>
<event>
 4      1 +2.4014000e-01 2.50000000e+02 7.54677100e-03 1.02464900e-01
      -11 -1    0    0    0    0 +0.0000000000e+00 +0.0000000000e+00 +1.2500000000e+02 1.2500000000e+02 0.0000000000e+00 0.0000e+00 1.0000e+00
       11 -1    0    0    0    0 -0.0000000000e+00 -0.0000000000e+00 -1.2500000000e+02 1.2500000000e+02 0.0000000000e+00 0.0000e+00 -1.0000e+00
       23  1    1    2    0    0 +5.1594322467e+01 +6.9665184042e+00 -3.4030832200e+01 1.1038050269e+02 9.1188000000e+01 0.0000e+00 0.0000e+00
       25  1    1    2    0    0 -5.1594322467e+01 -6.9665184042e+00 +3.4030832200e+01 1.3961949731e+02 1.2500000000e+02 0.0000e+00 0.0000e+00
</event>
<event>
 4      1 +2.4014000e-01 2.50000000e+02 7.54677100e-03 1.02464900e-01
      -11 -1    0    0    0    0 +0.0000000000e+00 +0.0000000000e+00 +1.2500000000e+02 1.2500000000e+02 0.0000000000e+00 0.0000e+00 1.0000e+00
       11 -1    0    0    0    0 -0.0000000000e+00 -0.0000000000e+00 -1.2500000000e+02 1.2500000000e+02 0.0000000000e+00 0.0000e+00 -1.0000e+00
       23  1    1    2    0    0 -2.2276421968e+01 -3.3398834129e+01 -4.7506661983e+01 1.1038050269e+02 9.1188000000e+01 0.0000e+00 -1.0000e+00
       25  1    1    2    0    0 +2.2276421968e+01 +3.3398834129e+01 +4.7506661983e+01 1.3961949731e+02 1.2500000000e+02 0.0000e+00 0.0000e+00
</event>
<event>
 4      1 +2.4014000e-01 2.50000000e+02 7.54677100e-03 1.02464900e-01
      -11 -1    0    0    0    0 +0.0000000000e+00 +0.0000000000e+00 +1.2500000000e+02 1.2500000000e+02 0.0000000000e+00 0.0000e+00 1.0000e+00
       11 -1    0    0    0    0 -0.0000000000e+00 -0.0000000000e+00 -1.2500000000e+02 1.2500000000e+02 0.0000000000e+00 0.0000e+00 -1.0000e+00
       23  1    1    2    0    0 +5.9508583696e+01 +1.9795119288e+00 +1.7983715654e+01 1.1038050269e+02 9.1188000000e+01 0.0000e+00 0.0000e+00
       25  1    1    2    0    0 -5.9508583696e+01 -1.9795119288e+00 -1.7983715654e+01 1.3961949731e+02 1.2500000000e+02 0.0000e+00 0.0000e+00
</event>
<event>
 4      1 +2.4014000e-01 2.50000000e+02 7.54677100e-03 1.02464900e-01
      -11 -1    0    0    0    0 +0.0000000000e+00 +0.0000000000e+00 +1.2500000000e+02 1.2500000000e+02 0.0000000000e+00 0.0000e+00 1.0000e+00
       11 -1    0    0    0    0 -0.0000000000e+00 -0.0000000000e+00 -1.2500000000e+02 1.2500000000e+02 0.0000000000e+00 0.0000e+00 -1.0000e+00
       23  1    1    2    0    0 -2.4187302731e+01 -3.7229765325e+01 -4.3560566916e+01 1.1038050269e+02 9.1188000000e+01 0.0000e+00 0.0000e+00
       25  1    1    2    0    0 +2.4187302731e+01 +3.7229765325e+01 +4.3560566916e+01 1.3961949731e+02 1.2500000000e+02 0.0000e+00 0.0000e+00
</event>
<event>
 4      1 +2.4014000e-01 2.50000000e+02 7.54677100e-03 1.02464900e-01
      -11 -1    0    0    0    0 +0.0000000000e+00 +0.0000000000e+00 +1.2500000000e+02 1.2500000000e+02 0.0000000000e+00 0.0000e+00 1.0000e+00
       11 -1    0    0    0    0 -0.0000000000e+00 -0.0000000000e+00 -1.2500000000e+02 1.2500000000e+02 0.0000000000e+00 0.0000e+00 -1.0000e+00
       23  1    1    2    0    0 -3.6047160649e+01 -4.3196110668e+01 +2.6519846568e+01 1.1038050269e+02 9.1188000000e+01 0.0000e+00 1.0000e+00
       25  1    1    2    0    0 +3.6047160649e+01 +4.3196110668e+01 -2.6519846568e+01 1.3961949731e+02 1.2500000000e+02 0.0000e+00 0.0000e+00
</event>
<event>
 4      1 +2.4014000e-01 2.50000000e+02 7.54677100e-03 1.02464900e-01
      -11 -1    0    0    0    0 +0.0000000000e+00 +0.0000000000e+00 +1.2500000000e+02 1.2500000000e+02 0.0000000000e+00 0.0000e+00 1.0000e+00
       11 -1    0    0    0    0 -0.0000000000e+00 -0.0000000000e+00 -1.2500000000e+02 1.2500000000e+02 0.0000000000e+00 0.0000e+00 -1.0000e+00
       23  1    1    2    0    0 +6.4247385301e+00 -1.6605789048e+01 +5.9595088175e+01 1.1038050269e+02 9.1188000000e+01 0.0000e+00 1.0000e+00
       25  1    1    2    0    0 -6.4247385301e+00 +1.6605789048e+01 -5.9595088175e+01 1.3961949731e+02 1.2500000000e+02 0.0000e+00 0.0000e+00
</event>
<event>
 4      1 +2.4014000e-01 2.50000000e+02 7.54677100e-03 1.02464900e-01
      -11 -1    0    0    0    0 +0.0000000000e+00 +0.0000000000e+00 +1.2500000000e+02 1.2500000000e+02 0.0000000000e+00 0.0000e+00 -1.0000e+00
       11 -1    0    0    0    0 -0.0000000000e+00 -0.0000000000e+00 -1.2500000000e+02 1.2500000000e+02 0.0000000000e+00 0.0000e+00 1.0000e+00
       23  1    1    2    0    0 +5.0459408065e+01 +1.8524135860e+01 +3.1293906084e+01 1.1038050269e+02 9.1188000000e+01 0.0000e+00 0.0000e+00
       25  1    1    2    0    0 -5.0459408065e+01 -1.8524135860e+01 -3.1293906084e+01 1.3961949731e+02 1.2500000000e+02 0.0000e+00 0.0000e+00
</event>
<event>
 4      1 +2.4014000e-01 2.50000000e+02 7.54677100e-03 1.02464900e-01
      -11 -1    0    0    0    0 +0.0000000000e+00 +0.0000000000e+00 +1.2500000000e+02 1.2500000000e+02 0.0000000000e+00 0.0000e+00 1.0000e+00
       11 -1    0    0    0    0 -0.0000000000e+00 -0.0000000000e+00 -1.2500000000e+02 1.2500000000e+02 0.0000000000e+00 0.0000e+00 -1.0000e+00
       23  1    1    2    0    0 -5.4682737031e+01 +1.3301638372e+01 +2.6485254709e+01 1.1038050269e+02 9.1188000000e+01 0.0000e+00 0.0000e+00
       25  1    1    2    0    0 +5.4682737031e+01 -1.3301638372e+01 -2.6485254709e+01 1.3961949731e+02 1.2500000000e+02 0.0000e+00 0.0000e+00
</event>
<event>
 4      1 +2.4014000e-01 2.50000000e+02 7.54677100e-03 1.02464900e-01
      -11 -1    0    0    0    0 +0.0000000000e+00 +0.0000000000e+00 +1.2500000000e+02 1.2500000000e+02 0.0000000000e+00 0.0000e+00 1.0000e+00
       11 -1    0    0    0    0 -0.0000000000e+00 -0.0000000000e+00 -1.2500000000e+02 1.2500000000e+02 0.0000000000e+00 0.0000e+00 -1.0000e+00
       23  1    1    2    0    0 +2.8758156964e+01 -2.1779458735e+01 +5.0667816362e+01 1.1038050269e+02 9.1188000000e+01 0.0000e+00 1.0000e+00
       25  1    1    2    0    0 -2.8758156964e+01 +2.1779458735e+01 -5.0667816362e+01 1.3961949731e+02 1.2500000000e+02 0.0000e+00 0.0000e+00
</event>
<event>
 4      1 +2.4014000e-01 2.50000000e+02 7.54677100e-03 1.02464900e-01
      -11 -1    0    0    0    0 +0.0000000000e+00 +0.0000000000e+00 +1.2500000000e+02 1.2500000000e+02 0.0000000000e+00 0.0000e+00 1.0000e+00
       11 -1    0    0    0    0 -0.0000000000e+00 -0.0000000000e+00 -1.2500000000e+02 1.2500000000e+02 0.0000000000e+00 0.0000e+00 -1.0000e+00
       23  1    1    2    0    0 -3.3524935633e+01 -2.3242974114e+01 +4.6951537513e+01 1.1038050269e+02 9.1188000000e+01 0.0000e+00 1.0000e+00
       25  1    1    2    0    0 +3.3524935633e+01 +2.3242974114e+01 -4.6951537513e+01 1.3961949731e+02 1.2500000000e+02 0.0000e+00 0.0000e+00
</event>
<event>
 4      1 +2.4014000e-01 2.50000000e+02 7.54677100e-03 1.02464900e-01
      -11 -1    0    0    0    0 +0.0000000000e+00 +0.0000000000e+00 +1.2500000000e+02 1.2500000000e+02 0.0000000000e+00 0.0000e+00 1.0000e+00
       11 -1    0    0    0    0 -0.0000000000e+00 -0.0000000000e+00 -1.2500000000e+02 1.2500000000e+02 0.0000000000e+00 0.0000e+00 -1.0000e+00
       23  1    1    2    0    0 +1.2744482136e+01 +2.0915558567e+01 +5.7172734888e+01 1.1038050269e+02 9.1188000000e+01 0.0000e+00 1.0000e+00
       25  1    1    2    0    0 -1.2744482136e+01 -2.0915558567e+01 -5.7172734888e+01 1.3961949731e+02 1.2500000000e+02 0.0000e+00 0.0000e+00
</event>
<event>
 4      1 +2.4014000e-01 2.50000000e+02 7.54677100e-03 1.02464900e-01
      -11 -1    0    0    0    0 +0.0000000000e+00 +0.0000000000e+00 +1.2500000000e+02 1.2500000000e+02 0.0000000000e+00 0.0000e+00 1.0000e+00
       11 -1    0    0    0    0 -0.0000000000e+00 -0.0000000000e+00 -1.2500000000e+02 1.2500000000e+02 0.0000000000e+00 0.0000e+00 -1.0000e+00
       23  1    1    2    0    0 +5.0099309857e+01 -3.6415787592e+01 -5.7055758257e+00 1.1038050269e+02 9.1188000000e+01 0.0000e+00 1.0000e+00
       25  1    1    2    0    0 -5.0099309857e+01 +3.6415787592e+01 +5.7055758257e+00 1.3961949731e+02 1.2500000000e+02 0.0000e+00 0.0000e+00
</event>
<event>
 4      1 +2.4014000e-01 2.50000000e+02 7.54677100e-03 1.02464900e-01
      -11 -1    0    0    0    0 +0.0000000000e+00 +0.0000000000e+00 +1.2500000000e+02 1.2500000000e+02 0.0000000000e+00 0.0000e+00 -1.0000e+00
       11 -1    0    0    0    0 -0.0000000000e+00 -0.0000000000e+00 -1.2500000000e+02 1.2500000000e+02 0.0000000000e+00 0.0000e+00 1.0000e+00
       23  1    1    2    0    0 -3.7425010249e+01 +4.9542585859e+01 +3.6748910089e+00 1.1038050269e+02 9.1188000000e+01 0.0000e+00 0.0000e+00
       25  1    1    2    0    0 +3.7425010249e+01 -4.9542585859e+01 -3.6748910089e+00 1.3961949731e+02 1.2500000000e+02 0.0000e+00 0.0000e+00
</event>
<event>
 4      1 +2.4014000e-01 2.50000000e+02 7.54677100e-03 1.02464900e-01
      -11 -1    0    0    0    0 +0.0000000000e+00 +0.0000000000e+00 +1.2500000000e+02 1.2500000000e+02 0.0000000000e+00 0.0000e+00 -1.0000e+00
       11 -1    0    0    0    0 -0.0000000000e+00 -0.0000000000e+00 -1.2500000000e+02 1.2500000000e+02 0.0000000000e+00 0.0000e+00 1.0000e+00
       23  1    1    2    0    0 +4.5596480668e+01 +7.4248795670e+00 -4.1646562208e+01 1.1038050269e+02 9.1188000000e+01 0.0000e+00 0.0000e+00
       25  1    1    2    0    0 -4.5596480668e+01 -7.4248795670e+00 +4.1646562208e+01 1.3961949731e+02 1.2500000000e+02 0.0000e+00 0.0000e+00
</event>
<event>
 4      1 +2.4014000e-01 2.50000000e+02 7.54677100e-03 1.02464900e-01
      -11 -1    0    0    0    0 +0.0000000000e+00 +0.0000000000e+00 +1.2500000000e+02 1.2500000000e+02 0.0000000000e+00 0.0000e+00 1.0000e+00
       11 -1    0    0    0    0 -0.0000000000e+00 -0.0000000000e+00 -1.2500000000e+02 1.2500000000e+02 0.0000000000e+00 0.0000e+00 -1.0000e+00
       23  1    1    2    0    0 -2.7175818555e+01 -4.3280667006e+00 +5.5779447417e+01 1.1038050269e+02 9.1188000000e+01 0.0000e+00 1.0000e+00
       25  1    1    2    0    0 +2.7175818555e+01 +4.3280667006e+00 -5.5779447417e+01 1.3961949731e+02 1.2500000000e+02 0.0000e+00 0.0000e+00
</event>
<event>
 4      1 +2.4014000e-01 2.50000000e+02 7.54677100e-03 1.02464900e-01
      -11 -1    0    0    0    0 +0.0000000000e+00 +0.0000000000e+00 +1.2500000000e+02 1.2500000000e+02 0.0000000000e+00 0.0000e+00 -1.0000e+00
       11 -1    0    0    0    0 -0.0000000000e+00 -0.0000000000e+00 -1.2500000000e+02 1.2500000000e+02 0.0000000000e+00 0.0000e+00 1.0000e+00
       23  1    1    2    0    0 +3.7448380188e+01 +4.8217492748e+01 -1.1886809664e+01 1.1038050269e+02 9.1188000000e+01 0.0000e+00 1.0000e+00
       25  1    1    2    0    0 -3.7448380188e+01 -4.8217492748e+01 +1.1886809664e+01 1.3961949731e+02 1.2500000000e+02 0.0000e+00 0.0000e+00
</event>
<event>
 4      1 +2.4014000e-01 2.50000000e+02 7.54677100e-03 1.02464900e-01
      -11 -1    0    0    0    0 +0.0000000000e+00 +0.0000000000e+00 +1.2500000000e+02 1.2500000000e+02 0.0000000000e+00 0.0000e+00 -1.0000e+00
       11 -1    0    0    0    0 -0.0000000000e+00 -0.0000000000e+00 -1.2500000000e+02 1.2500000000e+02 0.0000000000e+00 0.0000e+00 1.0000e+00
       23  1    1    2    0    0 +4.5593922236e+01 +1.3320731326e+01 +4.0154157963e+01 1.1038050269e+02 9.1188000000e+01 0.0000e+00 -1.0000e+00
       25  1    1    2    0    0 -4.5593922236e+01 -1.3320731326e+01 -4.0154157963e+01 1.3961949731e+02 1.2500000000e+02 0.0000e+00 0.0000e+00
</event>
<event>
 4      1 +2.4014000e-01 2.50000000e+02 7.54677100e-03 1.02464900e-01
      -11 -1    0    0    0    0 +0.0000000000e+00 +0.0000000000e+00 +1.2500000000e+02 1.2500000000e+02 0.0000000000e+00 0.0000e+00 -1.0000e+00
       11 -1    0    0    0    0 -0.0000000000e+00 -0.0000000000e+00 -1.2500000000e+02 1.2500000000e+02 0.0000000000e+00 0.0000e+00 1.0000e+00
       23  1    1    2    0    0 -6.0043220764e+01 -8.3590549345e+00 +1.3911932668e+01 1.1038050269e+02 9.1188000000e+01 0.0000e+00 0.0000e+00
       25  1    1    2    0    0 +6.0043220764e+01 +8.3590549345e+00 -1.3911932668e+01 1.3961949731e+02 1.2500000000e+02 0.0000e+00 0.0000e+00
</event>
<event>
 4      1 +2.4014000e-01 2.50000000e+02 7.54677100e-03 1.02464900e-01
      -11 -1    0    0    0    0 +0.0000000000e+00 +0.0000000000e+00 +1.2500000000e+02 1.2500000000e+02 0.0000000000e+00 0.0000e+00 1.0000e+00
       11 -1    0    0    0    0 -0.0000000000e+00 -0.0000000000e+00 -1.2500000000e+02 1.2500000000e+02 0.0000000000e+00 0.0000e+00 -1.0000e+00
       23  1    1    2    0    0 -9.3840560993e+00 +2.8635203723e+01 -5.4411107584e+01 1.1038050269e+02 9.1188000000e+01 0.0000e+00 -1.0000e+00
       25  1    1    2    0    0 +9.3840560993e+00 -2.8635203723e+01 +5.4411107584e+01 1.3961949731e+02 1.2500000000e+02 0.0000e+00 0.0000e+00
</event>
<event>
 4      1 +2.4014000e-01 2.50000000e+02 7.54677100e-03 1.02464900e-01
      -11 -1    0    0    0    0 +0.0000000000e+00 +0.0000000000e+00 +1.2500000000e+02 1.2500000000e+02 0.0000000000e+00 0.0000e+00 1.0000e+00
       11 -1    0    0    0    0 -0.0000000000e+00 -0.0000000000e+00 -1.2500000000e+02 1.2500000000e+02 0.0000000000e+00 0.0000e+00 -1.0000e+00
       23  1    1    2    0    0 +4.4308327162e+01 +1.0587747526e+01 -4.2347086985e+01 1.1038050269e+02 9.1188000000e+01 0.0000e+00 -1.0000e+00
       25  1    1    2    0    0 -4.4308327162e+01 -1.0587747526e+01 +4.2347086985e+01 1.3961949731e+02 1.2500000000e+02 0.0000e+00 0.0000e+00
</event>
<event>
 4      1 +2.4014000e-01 2.50000000e+02 7.54677100e-03 1.02464900e-01
      -11 -1    0    0    0    0 +0.0000000000e+00 +0.0000000000e+00 +1.2500000000e+02 1.2500000000e+02 0.0000000000e+00 0.0000e+00 1.0000e+00
       11 -1    0    0    0    0 -0.0000000000e+00 -0.0000000000e+00 -1.2500000000e+02 1.2500000000e+02 0.0000000000e+00 0.0000e+00 -1.0000e+00
       23  1    1    2    0    0 +5.9478475755e+00 -3.2042516612e+01 +5.2976450127e+01 1.1038050269e+02 9.1188000000e+01 0.0000e+00 1.0000e+00
       25  1    1    2    0    0 -5.9478475755e+00 +3.2042516612e+01 -5.2976450127e+01 1.3961949731e+02 1.2500000000e+02 0.0000e+00 0.0000e+00
</event>
<event>
 4      1 +2.4014000e-01 2.50000000e+02 7.54677100e-03 1.02464900e-01
      -11 -1    0    0    0    0 +0.0000000000e+00 +0.0000000000e+00 +1.2500000000e+02 1.2500000000e+02 0.0000000000e+00 0.0000e+00 1.0000e+00
       11 -1    0    0    0    0 -0.0000000000e+00 -0.0000000000e+00 -1.2500000000e+02 1.2500000000e+02 0.0000000000e+00 0.0000e+00 -1.0000e+00
       23  1    1    2    0    0 -4.0064540770e+00 +6.1709071295e+01 +6.6740448959e+00 1.1038050269e+02 9.1188000000e+01 0.0000e+00 1.0000e+00
       25  1    1    2    0    0 +4.0064540770e+00 -6.1709071295e+01 -6.6740448959e+00 1.3961949731e+02 1.2500000000e+02 0.0000e+00 0.0000e+00
</event>
<event>
 4      1 +2.4014000e-01 2.50000000e+02 7.54677100e-03 1.02464900e-01
      -11 -1    0    0    0    0 +0.0000000000e+00 +0.0000000000e+00 +1.2500000000e+02 1.2500000000e+02 0.0000000000e+00 0.0000e+00 1.0000e+00
       11 -1    0    0    0    0 -0.0000000000e+00 -0.0000000000e+00 -1.2500000000e+02 1.2500000000e+02 0.0000000000e+00 0.0000e+00 -1.0000e+00
       23  1    1    2    0    0 +8.4348740699e+00 +1.3398258027e+00 +6.1608942499e+01 1.1038050269e+02 9.1188000000e+01 0.0000e+00 1.0000e+00
       25  1    1    2    0    0 -8.4348740699e+00 -1.3398258027e+00 -6.1608942499e+01 1.3961949731e+02 1.2500000000e+02 0.0000e+00 0.0000e+00
</event>
<event>
 4      1 +2.4014000e-01 2.50000000e+02 7.54677100e-03 1.02464900e-01
      -11 -1    0    0    0    0 +0.0000000000e+00 +0.0000000000e+00 +1.2500000000e+02 1.2500000000e+02 0.0000000000e+00 0.0000e+00 -1.0000e+00
       11 -1    0    0    0    0 -0.0000000000e+00 -0.0000000000e+00 -1.2500000000e+02 1.2500000000e+02 0.0000000000e+00 0.0000e+00 1.0000e+00
       23  1    1    2    0    0 -2.3161001144e+01 +5.5244140005e+01 +1.6740879631e+01 1.1038050269e+02 9.1188000000e+01 0.0000e+00 -1.0000e+00
       25  1    1    2    0    0 +2.3161001144e+01 -5.5244140005e+01 -1.6740879631e+01 1.3961949731e+02 1.2500000000e+02 0.0000e+00 0.0000e+00
</event>
<event>
 4      1 +2.4014000e-01 2.50000000e+02 7.54677100e-03 1.02464900e-01
      -11 -1    0    0    0    0 +0.0000000000e+00 +0.0000000000e+00 +1.2500000000e+02 1.2500000000e+02 0.0000000000e+00 0.0000e+00 -1.0000e+00
       11 -1    0    0    0    0 -0.0000000000e+00 -0.0000000000e+00 -1.2500000000e+02 1.2500000000e+02 0.0000000000e+00 0.0000e+00 1.0000e+00
       23  1    1    2    0    0 -2.3295711448e+01 -5.4424403411e+01 -1.9076115202e+01 1.1038050269e+02 9.1188000000e+01 0.0000e+00 1.0000e+00
       25  1    1    2    0    0 +2.3295711448e+01 +5.4424403411e+01 +1.9076115202e+01 1.3961949731e+02 1.2500000000e+02 0.0000e+00 0.0000e+00
</event>
<event>
 4      1 +2.4014000e-01 2.50000000e+02 7.54677100e-03 1.02464900e-01
      -11 -1    0    0    0    0 +0.0000000000e+00 +0.0000000000e+00 +1.2500000000e+02 1.2500000000e+02 0.0000000000e+00 0.0000e+00 1.0000e+00
       11 -1    0    0    0    0 -0.0000000000e+00 -0.0000000000e+00 -1.2500000000e+02 1.2500000000e+02 0.0000000000e+00 0.0000e+00 -1.0000e+00
       23  1    1    2    0    0 -5.8515870639e+01 -1.6024720116e+01 -1.3700556857e+01 1.1038050269e+02 9.1188000000e+01 0.0000e+00 0.0000e+00
       25  1    1    2    0    0 +5.8515870639e+01 +1.6024720116e+01 +1.3700556857e+01 1.3961949731e+02 1.2500000000e+02 0.0000e+00 0.0000e+00
</event>
<event>
 4      1 +2.4014000e-01 2.50000000e+02 7.54677100e-03 1.02464900e-01
      -11 -1    0    0    0    0 +0.0000000000e+00 +0.0000000000e+00 +1.2500000000e+02 1.2500000000e+02 0.0000000000e+00 0.0000e+00 1.0000e+00
       11 -1    0    0    0    0 -0.0000000000e+00 -0.0000000000e+00 -1.2500000000e+02 1.2500000000e+02 0.0000000000e+00 0.0000e+00 -1.0000e+00
       23  1    1    2    0    0 -1.2897908384e+01 -1.1337724630e+01 +5.9780464946e+01 1.1038050269e+02 9.1188000000e+01 0.0000e+00 1.0000e+00
       25  1    1    2    0    0 +1.2897908384e+01 +1.1337724630e+01 -5.9780464946e+01 1.3961949731e+02 1.2500000000e+02 0.0000e+00 0.0000e+00
</event>
<event>
 4      1 +2.4014000e-01 2.50000000e+02 7.54677100e-03 1.02464900e-01
      -11 -1    0    0    0    0 +0.0000000000e+00 +0.0000000000e+00 +1.2500000000e+02 1.2500000000e+02 0.0000000000e+00 0.0000e+00 -1.0000e+00
       11 -1    0    0    0    0 -0.0000000000e+00 -0.0000000000e+00 -1.2500000000e+02 1.2500000000e+02 0.0000000000e+00 0.0000e+00 1.0000e+00
       23  1    1    2    0    0 -5.5604596284e+01 +2.7044237022e+01 +6.7336576697e+00 1.1038050269e+02 9.1188000000e+01 0.0000e+00 0.0000e+00
       25  1    1    2    0    0 +5.5604596284e+01 -2.7044237022e+01 -6.7336576697e+00 1.3961949731e+02 1.2500000000e+02 0.0000e+00 0.0000e+00
</event>
<event>
 4      1 +2.4014000e-01 2.50000000e+02 7.54677100e-03 1.02464900e-01
      -11 -1    0    0    0    0 +0.0000000000e+00 +0.0000000000e+00 +1.2500000000e+02 1.2500000000e+02 0.0000000000e+00 0.0000e+00 1.0000e+00
       11 -1    0    0    0    0 -0.0000000000e+00 -0.0000000000e+00 -1.2500000000e+02 1.2500000000e+02 0.0000000000e+00 0.0000e+00 -1.0000e+00
       23  1    1    2    0    0 -5.0723162240e+00 +2.2513046023e+01 -5.7758448703e+01 1.1038050269e+02 9.1188000000e+01 0.0000e+00 -1.0000e+00
       25  1    1    2    0    0 +5.0723162240e+00 -2.2513046023e+01 +5.7758448703e+01 1.3961949731e+02 1.2500000000e+02 0.0000e+00 0.0000e+00
</event>
<event>
 4      1 +2.4014000e-01 2.50000000e+02 7.54677100e-03 1.02464900e-01
      -11 -1    0    0    0    0 +0.0000000000e+00 +0.0000000000e+00 +1.2500000000e+02 1.2500000000e+02 0.0000000000e+00 0.0000e+00 1.0000e+00
       11 -1    0    0    0    0 -0.0000000000e+00 -0.0000000000e+00 -1.2500000000e+02 1.2500000000e+02 0.0000000000e+00 0.0000e+00 -1.0000e+00
       23  1    1    2    0    0 +6.0979465390e+01 -1.5061883609e+00 +1.2158956657e+01 1.1038050269e+02 9.1188000000e+01 0.0000e+00 0.0000e+00
       25  1    1    2    0    0 -6.0979465390e+01 +1.5061883609e+00 -1.2158956657e+01 1.3961949731e+02 1.2500000000e+02 0.0000e+00 0.0000e+00
</event>
<event>
 4      1 +2.4014000e-01 2.50000000e+02 7.54677100e-03 1.02464900e-01
      -11 -1    0    0    0    0 +0.0000000000e+00 +0.0000000000e+00 +1.2500000000e+02 1.2500000000e+02 0.0000000000e+00 0.0000e+00 1.0000e+00
       11 -1    0    0    0    0 -0.0000000000e+00 -0.0000000000e+00 -1.2500000000e+02 1.2500000000e+02 0.0000000000e+00 0.0000e+00 -1.0000e+00
       23  1    1    2    0    0 +3.7715340551e+01 +3.9767374320e+01 +2.9406003748e+01 1.1038050269e+02 9.1188000000e+01 0.0000e+00 0.0000e+00
       25  1    1    2    0    0 -3.7715340551e+01 -3.9767374320e+01 -2.9406003748e+01 1.3961949731e+02 1.2500000000e+02 0.0000e+00 0.0000e+00
</event>
<event>
 4      1 +2.4014000e-01 2.50000000e+02 7.54677100e-03 1.02464900e-01
      -11 -1    0    0    0    0 +0.0000000000e+00 +0.0000000000e+00 +1.2500000000e+02 1.2500000000e+02 0.0000000000e+00 0.0000e+00 -1.0000e+00
       11 -1    0    0    0    0 -0.0000000000e+00 -0.0000000000e+00 -1.2500000000e+02 1.2500000000e+02 0.0000000000e+00 0.0000e+00 1.0000e+00
       23  1    1    2    0    0 +1.6373711364e+01 +5.1900585981e+01 +3.0113697558e+01 1.1038050269e+02 9.1188000000e+01 0.0000e+00 -1.0000e+00
       25  1    1    2    0    0 -1.6373711364e+01 -5.1900585981e+01 -3.0113697558e+01 1.3961949731e+02 1.2500000000e+02 0.0000e+00 0.0000e+00
</event>
<event>
 4      1 +2.4014000e-01 2.50000000e+02 7.54677100e-03 1.02464900e-01
      -11 -1    0    0    0    0 +0.0000000000e+00 +0.0000000000e+00 +1.2500000000e+02 1.2500000000e+02 0.0000000000e+00 0.0000e+00 1.0000e+00
       11 -1    0    0    0    0 -0.0000000000e+00 -0.0000000000e+00 -1.2500000000e+02 1.2500000000e+02 0.0000000000e+00 0.0000e+00 -1.0000e+00
       23  1    1    2    0    0 +2.1844599131e+01 +5.7262413039e+01 +1.0603469782e+01 1.1038050269e+02 9.1188000000e+01 0.0000e+00 0.0000e+00
       25  1    1    2    0    0 -2.1844599131e+01 -5.7262413039e+01 -1.0603469782e+01 1.3961949731e+02 1.2500000000e+02 0.0000e+00 0.0000e+00
</event>
<event>
 4      1 +2.4014000e-01 2.50000000e+02 7.54677100e-03 1.02464900e-01
      -11 -1    0    0    0    0 +0.0000000000e+00 +0.0000000000e+00 +1.2500000000e+02 1.2500000000e+02 0.0000000000e+00 0.0000e+00 -1.0000e+00
       11 -1    0    0    0    0 -0.0000000000e+00 -0.0000000000e+00 -1.2500000000e+02 1.2500000000e+02 0.0000000000e+00 0.0000e+00 1.0000e+00
       23  1    1    2    0    0 -6.4609606993e+00 -2.0709391173e+01 -5.8292204743e+01 1.1038050269e+02 9.1188000000e+01 0.0000e+00 1.0000e+00
       25  1    1    2    0    0 +6.4609606993e+00 +2.0709391173e+01 +5.8292204743e+01 1.3961949731e+02 1.2500000000e+02 0.0000e+00 0.0000e+00
</event>
<event>
 4      1 +2.4014000e-01 2.50000000e+02 7.54677100e-03 1.02464900e-01
      -11 -1    0    0    0    0 +0.0000000000e+00 +0.0000000000e+00 +1.2500000000e+02 1.2500000000e+02 0.0000000000e+00 0.0000e+00 1.0000e+00
       11 -1    0    0    0    0 -0.0000000000e+00 -0.0000000000e+00 -1.2500000000e+02 1.2500000000e+02 0.0000000000e+00 0.0000e+00 -1.0000e+00
       23  1    1    2    0    0 +5.7714395486e+01 +1.4701629355e+01 +1.7930830366e+01 1.1038050269e+02 9.1188000000e+01 0.0000e+00 -1.0000e+00
       25  1    1    2    0    0 -5.7714395486e+01 -1.4701629355e+01 -1.7930830366e+01 1.3961949731e+02 1.2500000000e+02 0.0000e+00 0.0000e+00
</event>
<event>
 4      1 +2.4014000e-01 2.50000000e+02 7.54677100e-03 1.02464900e-01
      -11 -1    0    0    0    0 +0.0000000000e+00 +0.0000000000e+00 +1.2500000000e+02 1.2500000000e+02 0.0000000000e+00 0.0000e+00 1.0000e+00
       11 -1    0    0    0    0 -0.0000000000e+00 -0.0000000000e+00 -1.2500000000e+02 1.2500000000e+02 0.0000000000e+00 0.0000e+00 -1.0000e+00
       23  1    1    2    0    0 +3.9609111013e+01 +4.6102399126e+01 -1.3201937331e+01 1.1038050269e+02 9.1188000000e+01 0.0000e+00 0.0000e+00
       25  1    1    2    0    0 -3.9609111013e+01 -4.6102399126e+01 +1.3201937331e+01 1.3961949731e+02 1.2500000000e+02 0.0000e+00 0.0000e+00
</event>
<event>
 4      1 +2.4014000e-01 2.50000000e+02 7.54677100e-03 1.02464900e-01
      -11 -1    0    0    0    0 +0.0000000000e+00 +0.0000000000e+00 +1.2500000000e+02 1.2500000000e+02 0.0000000000e+00 0.0000e+00 1.0000e+00
       11 -1    0    0    0    0 -0.0000000000e+00 -0.0000000000e+00 -1.2500000000e+02 1.2500000000e+02 0.0000000000e+00 0.0000e+00 -1.0000e+00
       23  1    1    2    0    0 +2.2041338048e+01 -1.8411847701e+01 +5.5170529370e+01 1.1038050269e+02 9.1188000000e+01 0.0000e+00 0.0000e+00
       25  1    1    2    0    0 -2.2041338048e+01 +1.8411847701e+01 -5.5170529370e+01 1.3961949731e+02 1.2500000000e+02 0.0000e+00 0.0000e+00
</event>
<event>
 4      1 +2.4014000e-01 2.50000000e+02 7.54677100e-03 1.02464900e-01
      -11 -1    0    0    0    0 +0.0000000000e+00 +0.0000000000e+00 +1.2500000000e+02 1.2500000000e+02 0.0000000000e+00 0.0000e+00 -1.0000e+00
       11 -1    0    0    0    0 -0.0000000000e+00 -0.0000000000e+00 -1.2500000000e+02 1.2500000000e+02 0.0000000000e+00 0.0000e+00 1.0000e+00
       23  1    1    2    0    0 +4.0693918524e+01 -4.1041607284e+01 -2.2982504136e+01 1.1038050269e+02 9.1188000000e+01 0.0000e+00 0.0000e+00
       25  1    1    2    0    0 -4.0693918524e+01 +4.1041607284e+01 +2.2982504136e+01 1.3961949731e+02 1.2500000000e+02 0.0000e+00 0.0000e+00
</event>
<event>
 4      1 +2.4014000e-01 2.50000000e+02 7.54677100e-03 1.02464900e-01
      -11 -1    0    0    0    0 +0.0000000000e+00 +0.0000000000e+00 +1.2500000000e+02 1.2500000000e+02 0.0000000000e+00 0.0000e+00 -1.0000e+00
       11 -1    0    0    0    0 -0.0000000000e+00 -0.0000000000e+00 -1.2500000000e+02 1.2500000000e+02 0.0000000000e+00 0.0000e+00 1.0000e+00
       23  1    1    2    0    0 +2.0287210643e+01 +4.6872847744e+01 -3.5496045672e+01 1.1038050269e+02 9.1188000000e+01 0.0000e+00 -1.0000e+00
       25  1    1    2    0    0 -2.0287210643e+01 -4.6872847744e+01 +3.5496045672e+01 1.3961949731e+02 1.2500000000e+02 0.0000e+00 0.0000e+00
</event>
<event>
 4      1 +2.4014000e-01 2.50000000e+02 7.54677100e-03 1.02464900e-01
      -11 -1    0    0    0    0 +0.0000000000e+00 +0.0000000000e+00 +1.2500000000e+02 1.2500000000e+02 0.0000000000e+00 0.0000e+00 1.0000e+00
       11 -1    0    0    0    0 -0.0000000000e+00 -0.0000000000e+00 -1.2500000000e+02 1.2500000000e+02 0.0000000000e+00 0.0000e+00 -1.0000e+00
       23  1    1    2    0    0 +2.9965896073e+01 +2.2071881030e+01 -4.9834537923e+01 1.1038050269e+02 9.1188000000e+01 0.0000e+00 0.0000e+00
       25  1    1    2    0    0 -2.9965896073e+01 -2.2071881030e+01 +4.9834537923e+01 1.3961949731e+02 1.2500000000e+02 0.0000e+00 0.0000e+00
</event>
<event>
 4      1 +2.4014000e-01 2.50000000e+02 7.54677100e-03 1.02464900e-01
      -11 -1    0    0    0    0 +0.0000000000e+00 +0.0000000000e+00 +1.2500000000e+02 1.2500000000e+02 0.0000000000e+00 0.0000e+00 -1.0000e+00
       11 -1    0    0    0    0 -0.0000000000e+00 -0.0000000000e+00 -1.2500000000e+02 1.2500000000e+02 0.0000000000e+00 0.0000e+00 1.0000e+00
       23  1    1    2    0    0 -3.8236982122e+01 -4.7740358149e+01 +1.1286958479e+01 1.1038050269e+02 9.1188000000e+01 0.0000e+00 0.0000e+00
       25  1    1    2    0    0 +3.8236982122e+01 +4.7740358149e+01 -1.1286958479e+01 1.3961949731e+02 1.2500000000e+02 0.0000e+00 0.0000e+00
</event>
<event>
 4      1 +2.4014000e-01 2.50000000e+02 7.54677100e-03 1.02464900e-01
      -11 -1    0    0    0    0 +0.0000000000e+00 +0.0000000000e+00 +1.2500000000e+02 1.2500000000e+02 0.0000000000e+00 0.0000e+00 1.0000e+00
       11 -1    0    0    0    0 -0.0000000000e+00 -0.0000000000e+00 -1.2500000000e+02 1.2500000000e+02 0.0000000000e+00 0.0000e+00 -1.0000e+00
       23  1    1    2    0    0 +4.3835944876e+01 -3.3553059061e+01 -2.8656695450e+01 1.1038050269e+02 9.1188000000e+01 0.0000e+00 -1.0000e+00
       25  1    1    2    0    0 -4.3835944876e+01 +3.3553059061e+01 +2.8656695450e+01 1.3961949731e+02 1.2500000000e+02 0.0000e+00 0.0000e+00
</event>
<event>
 4      1 +2.4014000e-01 2.50000000e+02 7.54677100e-03 1.02464900e-01
      -11 -1    0    0    0    0 +0.0000000000e+00 +0.0000000000e+00 +1.2500000000e+02 1.2500000000e+02 0.0000000000e+00 0.0000e+00 -1.0000e+00
       11 -1    0    0    0    0 -0.0000000000e+00 -0.0000000000e+00 -1.2500000000e+02 1.2500000000e+02 0.0000000000e+00 0.0000e+00 1.0000e+00
       23  1    1    2    0    0 -4.4341934655e+01 -1.7269381780e+01 +4.0052032578e+01 1.1038050269e+02 9.1188000000e+01 0.0000e+00 -1.0000e+00
       25  1    1    2    0    0 +4.4341934655e+01 +1.7269381780e+01 -4.0052032578e+01 1.3961949731e+02 1.2500000000e+02 0.0000e+00 0.0000e+00
</event>
<event>
 4      1 +2.4014000e-01 2.50000000e+02 7.54677100e-03 1.02464900e-01
      -11 -1    0    0    0    0 +0.0000000000e+00 +0.0000000000e+00 +1.2500000000e+02 1.2500000000e+02 0.0000000000e+00 0.0000e+00 -1.0000e+00
       11 -1    0    0    0    0 -0.0000000000e+00 -0.0000000000e+00 -1.2500000000e+02 1.2500000000e+02 0.0000000000e+00 0.0000e+00 1.0000e+00
       23  1    1    2    0    0 -1.6875804524e+01 +3.9072022907e+01 -4.5356237468e+01 1.1038050269e+02 9.1188000000e+01 0.0000e+00 1.0000e+00
       25  1    1    2    0    0 +1.6875804524e+01 -3.9072022907e+01 +4.5356237468e+01 1.3961949731e+02 1.2500000000e+02 0.0000e+00 0.0000e+00
</event>
<event>
 4      1 +2.4014000e-01 2.50000000e+02 7.54677100e-03 1.02464900e-01
      -11 -1    0    0    0    0 +0.0000000000e+00 +0.0000000000e+00 +1.2500000000e+02 1.2500000000e+02 0.0000000000e+00 0.0000e+00 1.0000e+00
       11 -1    0    0    0    0 -0.0000000000e+00 -0.0000000000e+00 -1.2500000000e+02 1.2500000000e+02 0.0000000000e+00 0.0000e+00 -1.0000e+00
       23  1    1    2    0    0 +1.3723634752e+01 +6.0598780878e+01 -2.8378927017e+00 1.1038050269e+02 9.1188000000e+01 0.0000e+00 0.0000e+00
       25  1    1    2    0    0 -1.3723634752e+01 -6.0598780878e+01 +2.8378927017e+00 1.3961949731e+02 1.2500000000e+02 0.0000e+00 0.0000e+00
</event>
<event>
 4      1 +2.4014000e-01 2.50000000e+02 7.54677100e-03 1.02464900e-01
      -11 -1    0    0    0    0 +0.0000000000e+00 +0.0000000000e+00 +1.2500000000e+02 1.2500000000e+02 0.0000000000e+00 0.0000e+00 1.0000e+00
       11 -1    0    0    0    0 -0.0000000000e+00 -0.0000000000e+00 -1.2500000000e+02 1.2500000000e+02 0.0000000000e+00 0.0000e+00 -1.0000e+00
       23  1    1    2    0    0 +4.5350624586e+01 -2.1737795321e+01 -3.6597720337e+01 1.1038050269e+02 9.1188000000e+01 0.0000e+00 -1.0000e+00
       25  1    1    2    0    0 -4.5350624586e+01 +2.1737795321e+01 +3.6597720337e+01 1.3961949731e+02 1.2500000000e+02 0.0000e+00 0.0000e+00
</event>
<event>
 4      1 +2.4014000e-01 2.50000000e+02 7.54677100e-03 1.02464900e-01
      -11 -1    0    0    0    0 +0.0000000000e+00 +0.0000000000e+00 +1.2500000000e+02 1.2500000000e+02 0.0000000000e+00 0.0000e+00 1.0000e+00
       11 -1    0    0    0    0 -0.0000000000e+00 -0.0000000000e+00 -1.2500000000e+02 1.2500000000e+02 0.0000000000e+00 0.0000e+00 -1.0000e+00
       23  1    1    2    0    0 -5.6669074997e+00 +5.5223240082e+01 -2.8051451724e+01 1.1038050269e+02 9.1188000000e+01 0.0000e+00 -1.0000e+00
       25  1    1    2    0    0 +5.6669074997e+00 -5.5223240082e+01 +2.8051451724e+01 1.3961949731e+02 1.2500000000e+02 0.0000e+00 0.0000e+00
</event>
<event>
 4      1 +2.4014000e-01 2.50000000e+02 7.54677100e-03 1.02464900e-01
      -11 -1    0    0    0    0 +0.0000000000e+00 +0.0000000000e+00 +1.2500000000e+02 1.2500000000e+02 0.0000000000e+00 0.0000e+00 1.0000e+00
       11 -1    0    0    0    0 -0.0000000000e+00 -0.0000000000e+00 -1.2500000000e+02 1.2500000000e+02 0.0000000000e+00 0.0000e+00 -1.0000e+00
       23  1    1    2    0    0 +4.4152857519e+01 +2.5796565013e+01 +3.5407152329e+01 1.1038050269e+02 9.1188000000e+01 0.0000e+00 0.0000e+00
       25  1    1    2    0    0 -4.4152857519e+01 -2.5796565013e+01 -3.5407152329e+01 1.3961949731e+02 1.2500000000e+02 0.0000e+00 0.0000e+00
</event>
<event>
 4      1 +2.4014000e-01 2.50000000e+02 7.54677100e-03 1.02464900e-01
      -11 -1    0    0    0    0 +0.0000000000e+00 +0.0000000000e+00 +1.2500000000e+02 1.2500000000e+02 0.0000000000e+00 0.0000e+00 -1.0000e+00
       11 -1    0    0    0    0 -0.0000000000e+00 -0.0000000000e+00 -1.2500000000e+02 1.2500000000e+02 0.0000000000e+00 0.0000e+00 1.0000e+00
       23  1    1    2    0    0 +1.8045095922e+01 -5.7874371393e+01 +1.3911710127e+01 1.1038050269e+02 9.1188000000e+01 0.0000e+00 1.0000e+00
       25  1    1    2    0    0 -1.8045095922e+01 +5.7874371393e+01 -1.3911710127e+01 1.3961949731e+02 1.2500000000e+02 0.0000e+00 0.0000e+00
</event>
<event>
 4      1 +2.4014000e-01 2.50000000e+02 7.54677100e-03 1.02464900e-01
      -11 -1    0    0    0    0 +0.0000000000e+00 +0.0000000000e+00 +1.2500000000e+02 1.2500000000e+02 0.0000000000e+00 0.0000e+00 -1.0000e+00
       11 -1    0    0    0    0 -0.0000000000e+00 -0.0000000000e+00 -1.2500000000e+02 1.2500000000e+02 0.0000000000e+00 0.0000e+00 1.0000e+00
       23  1    1    2    0    0 -6.0558769225e+01 -8.8910000585e+00 -1.1053941270e+01 1.1038050269e+02 9.1188000000e+01 0.0000e+00 -1.0000e+00
       25  1    1    2    0    0 +6.0558769225e+01 +8.8910000585e+00 +1.1053941270e+01 1.3961949731e+02 1.2500000000e+02 0.0000e+00 0.0000e+00
</event>
<event>
 4      1 +2.4014000e-01 2.50000000e+02 7.54677100e-03 1.02464900e-01
      -11 -1    0    0    0    0 +0.0000000000e+00 +0.0000000000e+00 +1.2500000000e+02 1.2500000000e+02 0.0000000000e+00 0.0000e+00 -1.0000e+00
       11 -1    0    0    0    0 -0.0000000000e+00 -0.0000000000e+00 -1.2500000000e+02 1.2500000000e+02 0.0000000000e+00 0.0000e+00 1.0000e+00
       23  1    1    2    0    0 +5.8128335205e+01 +4.4574998419e+00 -2.1675593906e+01 1.1038050269e+02 9.1188000000e+01 0.0000e+00 0.0000e+00
       25  1    1    2    0    0 -5.8128335205e+01 -4.4574998419e+00 +2.1675593906e+01 1.3961949731e+02 1.2500000000e+02 0.0000e+00 0.0000e+00
</event>
<event>
 4      1 +2.4014000e-01 2.50000000e+02 7.54677100e-03 1.02464900e-01
      -11 -1    0    0    0    0 +0.0000000000e+00 +0.0000000000e+00 +1.2500000000e+02 1.2500000000e+02 0.0000000000e+00 0.0000e+00 1.0000e+00
       11 -1    0    0    0    0 -0.0000000000e+00 -0.0000000000e+00 -1.2500000000e+02 1.2500000000e+02 0.0000000000e+00 0.0000e+00 -1.0000e+00
       23  1    1    2    0    0 -5.8001324225e+01 -1.7115116984e+01 -1.4543836785e+01 1.1038050269e+02 9.1188000000e+01 0.0000e+00 -1.0000e+00
       25  1    1    2    0    0 +5.8001324225e+01 +1.7115116984e+01 +1.4543836785e+01 1.3961949731e+02 1.2500000000e+02 0.0000e+00 0.0000e+00
</event>
<event>
 4      1 +2.4014000e-01 2.50000000e+02 7.54677100e-03 1.02464900e-01
      -11 -1    0    0    0    0 +0.0000000000e+00 +0.0000000000e+00 +1.2500000000e+02 1.2500000000e+02 0.0000000000e+00 0.0000e+00 -1.0000e+00
       11 -1    0    0    0    0 -0.0000000000e+00 -0.0000000000e+00 -1.2500000000e+02 1.2500000000e+02 0.0000000000e+00 0.0000e+00 1.0000e+00
       23  1    1    2    0    0 -3.7448639114e+01 +4.9455015588e+01 -4.5171773657e+00 1.1038050269e+02 9.1188000000e+01 0.0000e+00 0.0000e+00
       25  1    1    2    0    0 +3.7448639114e+01 -4.9455015588e+01 +4.5171773657e+00 1.3961949731e+02 1.2500000000e+02 0.0000e+00 0.0000e+00
</event>
<event>
 4      1 +2.4014000e-01 2.50000000e+02 7.54677100e-03 1.02464900e-01
      -11 -1    0    0    0    0 +0.0000000000e+00 +0.0000000000e+00 +1.2500000000e+02 1.2500000000e+02 0.0000000000e+00 0.0000e+00 -1.0000e+00
       11 -1    0    0    0    0 -0.0000000000e+00 -0.0000000000e+00 -1.2500000000e+02 1.2500000000e+02 0.0000000000e+00 0.0000e+00 1.0000e+00
       23  1    1    2    0    0 +1.9054430778e+00 -3.7897634490e+01 -4.9282274871e+01 1.1038050269e+02 9.1188000000e+01 0.0000e+00 1.0000e+00
       25  1    1    2    0    0 -1.9054430778e+00 +3.7897634490e+01 +4.9282274871e+01 1.3961949731e+02 1.2500000000e+02 0.0000e+00 0.0000e+00
</event>
<event>
 4      1 +2.4014000e-01 2.50000000e+02 7.54677100e-03 1.02464900e-01
      -11 -1    0    0    0    0 +0.0000000000e+00 +0.0000000000e+00 +1.2500000000e+02 1.2500000000e+02 0.0000000000e+00 0.0000e+00 -1.0000e+00
       11 -1    0    0    0    0 -0.0000000000e+00 -0.0000000000e+00 -1.2500000000e+02 1.2500000000e+02 0.0000000000e+00 0.0000e+00 1.0000e+00
       23  1    1    2    0    0 -4.6363705930e+01 -2.6179702726e+01 +3.2150178339e+01 1.1038050269e+02 9.1188000000e+01 0.0000e+00 -1.0000e+00
       25  1    1    2    0    0 +4.6363705930e+01 +2.6179702726e+01 -3.2150178339e+01 1.3961949731e+02 1.2500000000e+02 0.0000e+00 0.0000e+00
</event>
<event>
 4      1 +2.4014000e-01 2.50000000e+02 7.54677100e-03 1.02464900e-01
      -11 -1    0    0    0    0 +0.0000000000e+00 +0.0000000000e+00 +1.2500000000e+02 1.2500000000e+02 0.0000000000e+00 0.0000e+00 1.0000e+00
       11 -1    0    0    0    0 -0.0000000000e+00 -0.0000000000e+00 -1.2500000000e+02 1.2500000000e+02 0.0000000000e+00 0.0000e+00 -1.0000e+00
       23  1    1    2    0    0 -3.7954199287e+01 +2.0138385134e+01 -4.4972527507e+01 1.1038050269e+02 9.1188000000e+01 0.0000e+00 -1.0000e+00
       25  1    1    2    0    0 +3.7954199287e+01 -2.0138385134e+01 +4.4972527507e+01 1.3961949731e+02 1.2500000000e+02 0.0000e+00 0.0000e+00
</event>
<event>
 4      1 +2.4014000e-01 2.50000000e+02 7.54677100e-03 1.02464900e-01
      -11 -1    0    0    0    0 +0.0000000000e+00 +0.0000000000e+00 +1.2500000000e+02 1.2500000000e+02 0.0000000000e+00 0.0000e+00 -1.0000e+00
       11 -1    0    0    0    0 -0.0000000000e+00 -0.0000000000e+00 -1.2500000000e+02 1.2500000000e+02 0.0000000000e+00 0.0000e+00 1.0000e+00
       23  1    1    2    0    0 +2.5977726335e+01 +5.2532259435e+01 +2.0835630126e+01 1.1038050269e+02 9.1188000000e+01 0.0000e+00 0.0000e+00
       25  1    1    2    0    0 -2.5977726335e+01 -5.2532259435e+01 -2.0835630126e+01 1.3961949731e+02 1.2500000000e+02 0.0000e+00 0.0000e+00
</event>
<event>
 4      1 +2.4014000e-01 2.50000000e+02 7.54677100e-03 1.02464900e-01
      -11 -1    0    0    0    0 +0.0000000000e+00 +0.0000000000e+00 +1.2500000000e+02 1.2500000000e+02 0.0000000000e+00 0.0000e+00 -1.0000e+00
       11 -1    0    0    0    0 -0.0000000000e+00 -0.0000000000e+00 -1.2500000000e+02 1.2500000000e+02 0.0000000000e+00 0.0000e+00 1.0000e+00
       23  1    1    2    0    0 -3.1024178163e+00 +5.6106881860e+00 -6.1866786012e+01 1.1038050269e+02 9.1188000000e+01 0.0000e+00 1.0000e+00
       25  1    1    2    0    0 +3.1024178163e+00 -5.6106881860e+00 +6.1866786012e+01 1.3961949731e+02 1.2500000000e+02 0.0000e+00 0.0000e+00
</event>
<event>
 4      1 +2.4014000e-01 2.50000000e+02 7.54677100e-03 1.02464900e-01
      -11 -1    0    0    0    0 +0.0000000000e+00 +0.0000000000e+00 +1.2500000000e+02 1.2500000000e+02 0.0000000000e+00 0.0000e+00 1.0000e+00
       11 -1    0    0    0    0 -0.0000000000e+00 -0.0000000000e+00 -1.2500000000e+02 1.2500000000e+02 0.0000000000e+00 0.0000e+00 -1.0000e+00
       23  1    1    2    0    0 -5.1324511676e+01 +3.5023529940e+01 +2.7840404845e+00 1.1038050269e+02 9.1188000000e+01 0.0000e+00 0.0000e+00
       25  1    1    2    0    0 +5.1324511676e+01 -3.5023529940e+01 -2.7840404845e+00 1.3961949731e+02 1.2500000000e+02 0.0000e+00 0.0000e+00
</event>
<event>
 4      1 +2.4014000e-01 2.50000000e+02 7.54677100e-03 1.02464900e-01
      -11 -1    0    0    0    0 +0.0000000000e+00 +0.0000000000e+00 +1.2500000000e+02 1.2500000000e+02 0.0000000000e+00 0.0000e+00 1.0000e+00
       11 -1    0    0    0    0 -0.0000000000e+00 -0.0000000000e+00 -1.2500000000e+02 1.2500000000e+02 0.0000000000e+00 0.0000e+00 -1.0000e+00
       23  1    1    2    0    0 -7.8149030853e+00 +8.1113315092e+00 +6.1169744323e+01 1.1038050269e+02 9.1188000000e+01 0.0000e+00 1.0000e+00
       25  1    1    2    0    0 +7.8149030853e+00 -8.1113315092e+00 -6.1169744323e+01 1.3961949731e+02 1.2500000000e+02 0.0000e+00 0.0000e+00
</event>
<event>
 4      1 +2.4014000e-01 2.50000000e+02 7.54677100e-03 1.02464900e-01
      -11 -1    0    0    0    0 +0.0000000000e+00 +0.0000000000e+00 +1.2500000000e+02 1.2500000000e+02 0.0000000000e+00 0.0000e+00 1.0000e+00
       11 -1    0    0    0    0 -0.0000000000e+00 -0.0000000000e+00 -1.2500000000e+02 1.2500000000e+02 0.0000000000e+00 0.0000e+00 -1.0000e+00
       23  1    1    2    0    0 -1.3220931096e+01 -4.8328925327e+01 -3.6852760919e+01 1.1038050269e+02 9.1188000000e+01 0.0000e+00 -1.0000e+00
       25  1    1    2    0    0 +1.3220931096e+01 +4.8328925327e+01 +3.6852760919e+01 1.3961949731e+02 1.2500000000e+02 0.0000e+00 0.0000e+00
</event>
<event>
 4      1 +2.4014000e-01 2.50000000e+02 7.54677100e-03 1.02464900e-01
      -11 -1    0    0    0    0 +0.0000000000e+00 +0.0000000000e+00 +1.2500000000e+02 1.2500000000e+02 0.0000000000e+00 0.0000e+00 -1.0000e+00
       11 -1    0    0    0    0 -0.0000000000e+00 -0.0000000000e+00 -1.2500000000e+02 1.2500000000e+02 0.0000000000e+00 0.0000e+00 1.0000e+00
       23  1    1    2    0    0 -4.3687824733e+01 +3.0022431412e+01 +3.2536619551e+01 1.1038050269e+02 9.1188000000e+01 0.0000e+00 -1.0000e+00
       25  1    1    2    0    0 +4.3687824733e+01 -3.0022431412e+01 -3.2536619551e+01 1.3961949731e+02 1.2500000000e+02 0.0000e+00 0.0000e+00
</event>
<event>
 4      1 +2.4014000e-01 2.50000000e+02 7.54677100e-03 1.02464900e-01
      -11 -1    0    0    0    0 +0.0000000000e+00 +0.0000000000e+00 +1.2500000000e+02 1.2500000000e+02 0.0000000000e+00 0.0000e+00 -1.0000e+00
       11 -1    0    0    0    0 -0.0000000000e+00 -0.0000000000e+00 -1.2500000000e+02 1.2500000000e+02 0.0000000000e+00 0.0000e+00 1.0000e+00
       23  1    1    2    0    0 +1.6625706765e+01 -1.2739022161e+01 -5.8565409745e+01 1.1038050269e+02 9.1188000000e+01 0.0000e+00 1.0000e+00
       25  1    1    2    0    0 -1.6625706765e+01 +1.2739022161e+01 +5.8565409745e+01 1.3961949731e+02 1.2500000000e+02 0.0000e+00 0.0000e+00
</event>
<event>
 4      1 +2.4014000e-01 2.50000000e+02 7.54677100e-03 1.02464900e-01
      -11 -1    0    0    0    0 +0.0000000000e+00 +0.0000000000e+00 +1.2500000000e+02 1.2500000000e+02 0.0000000000e+00 0.0000e+00 1.0000e+00
       11 -1    0    0    0    0 -0.0000000000e+00 -0.0000000000e+00 -1.2500000000e+02 1.2500000000e+02 0.0000000000e+00 0.0000e+00 -1.0000e+00
       23  1    1    2    0    0 +4.5602834082e+01 -2.8827494612e+01 -3.0950946799e+01 1.1038050269e+02 9.1188000000e+01 0.0000e+00 0.0000e+00
       25  1    1    2    0    0 -4.5602834082e+01 +2.8827494612e+01 +3.0950946799e+01 1.3961949731e+02 1.2500000000e+02 0.0000e+00 0.0000e+00
</event>
<event>
 4      1 +2.4014000e-01 2.50000000e+02 7.54677100e-03 1.02464900e-01
      -11 -1    0    0    0    0 +0.0000000000e+00 +0.0000000000e+00 +1.2500000000e+02 1.2500000000e+02 0.0000000000e+00 0.0000e+00 1.0000e+00
       11 -1    0    0    0    0 -0.0000000000e+00 -0.0000000000e+00 -1.2500000000e+02 1.2500000000e+02 0.0000000000e+00 0.0000e+00 -1.0000e+00
       23  1    1    2    0    0 -1.1212471113e+01 +4.2554891187e+01 -4.3954132425e+01 1.1038050269e+02 9.1188000000e+01 0.0000e+00 -1.0000e+00
       25  1    1    2    0    0 +1.1212471113e+01 -4.2554891187e+01 +4.3954132425e+01 1.3961949731e+02 1.2500000000e+02 0.0000e+00 0.0000e+00
</event>
<event>
 4      1 +2.4014000e-01 2.50000000e+02 7.54677100e-03 1.02464900e-01
      -11 -1    0    0    0    0 +0.0000000000e+00 +0.0000000000e+00 +1.2500000000e+02 1.2500000000e+02 0.0000000000e+00 0.0000e+00 1.0000e+00
       11 -1    0    0    0    0 -0.0000000000e+00 -0.0000000000e+00 -1.2500000000e+02 1.2500000000e+02 0.0000000000e+00 0.0000e+00 -1.0000e+00
       23  1    1    2    0    0 +3.3138232513e+01 -4.4791579993e+01 -2.7643732333e+01 1.1038050269e+02 9.1188000000e+01 0.0000e+00 -1.0000e+00
       25  1    1    2    0    0 -3.3138232513e+01 +4.4791579993e+01 +2.7643732333e+01 1.3961949731e+02 1.2500000000e+02 0.0000e+00 0.0000e+00
</event>
<event>
 4      1 +2.4014000e-01 2.50000000e+02 7.54677100e-03 1.02464900e-01
      -11 -1    0    0    0    0 +0.0000000000e+00 +0.0000000000e+00 +1.2500000000e+02 1.2500000000e+02 0.0000000000e+00 0.0000e+00 -1.0000e+00
       11 -1    0    0    0    0 -0.0000000000e+00 -0.0000000000e+00 -1.2500000000e+02 1.2500000000e+02 0.0000000000e+00 0.0000e+00 1.0000e+00
       23  1    1    2    0    0 +3.5384871627e+01 +2.6843916197e+01 -4.3542152598e+01 1.1038050269e+02 9.1188000000e+01 0.0000e+00 1.0000e+00
       25  1    1    2    0    0 -3.5384871627e+01 -2.6843916197e+01 +4.3542152598e+01 1.3961949731e+02 1.2500000000e+02 0.0000e+00 0.0000e+00
</event>
<event>
 4      1 +2.4014000e-01 2.50000000e+02 7.54677100e-03 1.02464900e-01
      -11 -1    0    0    0    0 +0.0000000000e+00 +0.0000000000e+00 +1.2500000000e+02 1.2500000000e+02 0.0000000000e+00 0.0000e+00 1.0000e+00
       11 -1    0    0    0    0 -0.0000000000e+00 -0.0000000000e+00 -1.2500000000e+02 1.2500000000e+02 0.0000000000e+00 0.0000e+00 -1.0000e+00
       23  1    1    2    0    0 +2.9840150896e+01 +4.9847526273e+01 +2.2212463811e+01 1.1038050269e+02 9.1188000000e+01 0.0000e+00 0.0000e+00
       25  1    1    2    0    0 -2.9840150896e+01 -4.9847526273e+01 -2.2212463811e+01 1.3961949731e+02 1.2500000000e+02 0.0000e+00 0.0000e+00
</event>
<event>
 4      1 +2.4014000e-01 2.50000000e+02 7.54677100e-03 1.02464900e-01
      -11 -1    0    0    0    0 +0.0000000000e+00 +0.0000000000e+00 +1.2500000000e+02 1.2500000000e+02 0.0000000000e+00 0.0000e+00 1.0000e+00
       11 -1    0    0    0    0 -0.0000000000e+00 -0.0000000000e+00 -1.2500000000e+02 1.2500000000e+02 0.0000000000e+00 0.0000e+00 -1.0000e+00
       23  1    1    2    0    0 +2.7244541790e+01 +5.3530720830e+01 -1.6149331247e+01 1.1038050269e+02 9.1188000000e+01 0.0000e+00 1.0000e+00
       25  1    1    2    0    0 -2.7244541790e+01 -5.3530720830e+01 +1.6149331247e+01 1.3961949731e+02 1.2500000000e+02 0.0000e+00 0.0000e+00
</event>
<event>
 4      1 +2.4014000e-01 2.50000000e+02 7.54677100e-03 1.02464900e-01
      -11 -1    0    0    0    0 +0.0000000000e+00 +0.0000000000e+00 +1.2500000000e+02 1.2500000000e+02 0.0000000000e+00 0.0000e+00 1.0000e+00
       11 -1    0    0    0    0 -0.0000000000e+00 -0.0000000000e+00 -1.2500000000e+02 1.2500000000e+02 0.0000000000e+00 0.0000e+00 -1.0000e+00
       23  1    1    2    0    0 -4.8161775828e+01 -5.8463154776e+00 -3.8921304887e+01 1.1038050269e+02 9.1188000000e+01 0.0000e+00 0.0000e+00
       25  1    1    2    0    0 +4.8161775828e+01 +5.8463154776e+00 +3.8921304887e+01 1.3961949731e+02 1.2500000000e+02 0.0000e+00 0.0000e+00
</event>
<event>
 4      1 +2.4014000e-01 2.50000000e+02 7.54677100e-03 1.02464900e-01
      -11 -1    0    0    0    0 +0.0000000000e+00 +0.0000000000e+00 +1.2500000000e+02 1.2500000000e+02 0.0000000000e+00 0.0000e+00 -1.0000e+00
       11 -1    0    0    0    0 -0.0000000000e+00 -0.0000000000e+00 -1.2500000000e+02 1.2500000000e+02 0.0000000000e+00 0.0000e+00 1.0000e+00
       23  1    1    2    0    0 +3.5720125602e+01 +4.2149744206e+01 +2.8567039048e+01 1.1038050269e+02 9.1188000000e+01 0.0000e+00 1.0000e+00
       25  1    1    2    0    0 -3.5720125602e+01 -4.2149744206e+01 -2.8567039048e+01 1.3961949731e+02 1.2500000000e+02 0.0000e+00 0.0000e+00
</event>
<event>
 4      1 +2.4014000e-01 2.50000000e+02 7.54677100e-03 1.02464900e-01
      -11 -1    0    0    0    0 +0.0000000000e+00 +0.0000000000e+00 +1.2500000000e+02 1.2500000000e+02 0.0000000000e+00 0.0000e+00 1.0000e+00
       11 -1    0    0    0    0 -0.0000000000e+00 -0.0000000000e+00 -1.2500000000e+02 1.2500000000e+02 0.0000000000e+00 0.0000e+00 -1.0000e+00
       23  1    1    2    0    0 -3.0112076945e+00 +1.2496559283e+00 +6.2112599510e+01 1.1038050269e+02 9.1188000000e+01 0.0000e+00 1.0000e+00
       25  1    1    2    0    0 +3.0112076945e+00 -1.2496559283e+00 -6.2112599510e+01 1.3961949731e+02 1.2500000000e+02 0.0000e+00 0.0000e+00
</event>
<event>
 4      1 +2.4014000e-01 2.50000000e+02 7.54677100e-03 1.02464900e-01
      -11 -1    0    0    0    0 +0.0000000000e+00 +0.0000000000e+00 +1.2500000000e+02 1.2500000000e+02 0.0000000000e+00 0.0000e+00 1.0000e+00
       11 -1    0    0    0    0 -0.0000000000e+00 -0.0000000000e+00 -1.2500000000e+02 1.2500000000e+02 0.0000000000e+00 0.0000e+00 -1.0000e+00
       23  1    1    2    0    0 -5.0269812648e+01 +8.5996664419e+00 +3.5603310282e+01 1.1038050269e+02 9.1188000000e+01 0.0000e+00 0.0000e+00
       25  1    1    2    0    0 +5.0269812648e+01 -8.5996664419e+00 -3.5603310282e+01 1.3961949731e+02 1.2500000000e+02 0.0000e+00 0.0000e+00
</event>
<event>
 4      1 +2.4014000e-01 2.50000000e+02 7.54677100e-03 1.02464900e-01
      -11 -1    0    0    0    0 +0.0000000000e+00 +0.0000000000e+00 +1.2500000000e+02 1.2500000000e+02 0.0000000000e+00 0.0000e+00 1.0000e+00
       11 -1    0    0    0    0 -0.0000000000e+00 -0.0000000000e+00 -1.2500000000e+02 1.2500000000e+02 0.0000000000e+00 0.0000e+00 -1.0000e+00
       23  1    1    2    0    0 -2.1916169750e+01 -5.0533797003e+01 +2.8889806050e+01 1.1038050269e+02 9.1188000000e+01 0.0000e+00 -1.0000e+00
       25  1    1    2    0    0 +2.1916169750e+01 +5.0533797003e+01 -2.8889806050e+01 1.3961949731e+02 1.2500000000e+02 0.0000e+00 0.0000e+00
</event>
<event>
 4      1 +2.4014000e-01 2.50000000e+02 7.54677100e-03 1.02464900e-01
      -11 -1    0    0    0    0 +0.0000000000e+00 +0.0000000000e+00 +1.2500000000e+02 1.2500000000e+02 0.0000000000e+00 0.0000e+00 -1.0000e+00
       11 -1    0    0    0    0 -0.0000000000e+00 -0.0000000000e+00 -1.2500000000e+02 1.2500000000e+02 0.0000000000e+00 0.0000e+00 1.0000e+00
       23  1    1    2    0    0 -2.8697464114e+01 +5.2004644203e+01 -1.8454716589e+01 1.1038050269e+02 9.1188000000e+01 0.0000e+00 1.0000e+00
       25  1    1    2    0    0 +2.8697464114e+01 -5.2004644203e+01 +1.8454716589e+01 1.3961949731e+02 1.2500000000e+02 0.0000e+00 0.0000e+00
</event>
<event>
 4      1 +2.4014000e-01 2.50000000e+02 7.54677100e-03 1.02464900e-01
      -11 -1    0    0    0    0 +0.0000000000e+00 +0.0000000000e+00 +1.2500000000e+02 1.2500000000e+02 0.0000000000e+00 0.0000e+00 -1.0000e+00
       11 -1    0    0    0    0 -0.0000000000e+00 -0.0000000000e+00 -1.2500000000e+02 1.2500000000e+02 0.0000000000e+00 0.0000e+00 1.0000e+00
       23  1    1    2    0    0 +1.4774890820e+01 +2.3754590884e+01 -5.5552012051e+01 1.1038050269e+02 9.1188000000e+01 0.0000e+00 1.0000e+00
       25  1    1    2    0    0 -1.4774890820e+01 -2.3754590884e+01 +5.5552012051e+01 1.3961949731e+02 1.2500000000e+02 0.0000e+00 0.0000e+00
</event>
<event>
 4      1 +2.4014000e-01 2.50000000e+02 7.54677100e-03 1.02464900e-01
      -11 -1    0    0    0    0 +0.0000000000e+00 +0.0000000000e+00 +1.2500000000e+02 1.2500000000e+02 0.0000000000e+00 0.0000e+00 -1.0000e+00
       11 -1    0    0    0    0 -0.0000000000e+00 -0.0000000000e+00 -1.2500000000e+02 1.2500000000e+02 0.0000000000e+00 0.0000e+00 1.0000e+00
       23  1    1    2    0    0 -5.3307312388e+01 -8.8761078785e+00 +3.0792031186e+01 1.1038050269e+02 9.1188000000e+01 0.0000e+00 0.0000e+00
       25  1    1    2    0    0 +5.3307312388e+01 +8.8761078785e+00 -3.0792031186e+01 1.3961949731e+02 1.2500000000e+02 0.0000e+00 0.0000e+00
</event>
<event>
 4      1 +2.4014000e-01 2.50000000e+02 7.54677100e-03 1.02464900e-01
      -11 -1    0    0    0    0 +0.0000000000e+00 +0.0000000000e+00 +1.2500000000e+02 1.2500000000e+02 0.0000000000e+00 0.0000e+00 1.0000e+00
       11 -1    0    0    0    0 -0.0000000000e+00 -0.0000000000e+00 -1.2500000000e+02 1.2500000000e+02 0.0000000000e+00 0.0000e+00 -1.0000e+00
       23  1    1    2    0    0 -2.1657262449e+00 +5.0838397470e+01 +3.5768296048e+01 1.1038050269e+02 9.1188000000e+01 0.0000e+00 1.0000e+00
       25  1    1    2    0    0 +2.1657262449e+00 -5.0838397470e+01 -3.5768296048e+01 1.3961949731e+02 1.2500000000e+02 0.0000e+00 0.0000e+00
</event>
<event>
 4      1 +2.4014000e-01 2.50000000e+02 7.54677100e-03 1.02464900e-01
      -11 -1    0    0    0    0 +0.0000000000e+00 +0.0000000000e+00 +1.2500000000e+02 1.2500000000e+02 0.0000000000e+00 0.0000e+00 -1.0000e+00
       11 -1    0    0    0    0 -0.0000000000e+00 -0.0000000000e+00 -1.2500000000e+02 1.2500000000e+02 0.0000000000e+00 0.0000e+00 1.0000e+00
       23  1    1    2    0    0 +2.4744517785e+01 +1.8379924452e+01 +5.4023062172e+01 1.1038050269e+02 9.1188000000e+01 0.0000e+00 0.0000e+00
       25  1    1    2    0    0 -2.4744517785e+01 -1.8379924452e+01 -5.4023062172e+01 1.3961949731e+02 1.2500000000e+02 0.0000e+00 0.0000e+00
</event>
<event>
 4      1 +2.4014000e-01 2.50000000e+02 7.54677100e-03 1.02464900e-01
      -11 -1    0    0    0    0 +0.0000000000e+00 +0.0000000000e+00 +1.2500000000e+02 1.2500000000e+02 0.0000000000e+00 0.0000e+00 1.0000e+00
       11 -1    0    0    0    0 -0.0000000000e+00 -0.0000000000e+00 -1.2500000000e+02 1.2500000000e+02 0.0000000000e+00 0.0000e+00 -1.0000e+00
       23  1    1    2    0    0 -2.7806942108e+01 -5.5620318801e+01 +1.3259474822e+00 1.1038050269e+02 9.1188000000e+01 0.0000e+00 0.0000e+00
       25  1    1    2    0    0 +2.7806942108e+01 +5.5620318801e+01 -1.3259474822e+00 1.3961949731e+02 1.2500000000e+02 0.0000e+00 0.0000e+00
</event>
<event>
 4      1 +2.4014000e-01 2.50000000e+02 7.54677100e-03 1.02464900e-01
      -11 -1    0    0    0    0 +0.0000000000e+00 +0.0000000000e+00 +1.2500000000e+02 1.2500000000e+02 0.0000000000e+00 0.0000e+00 -1.0000e+00
       11 -1    0    0    0    0 -0.0000000000e+00 -0.0000000000e+00 -1.2500000000e+02 1.2500000000e+02 0.0000000000e+00 0.0000e+00 1.0000e+00
       23  1    1    2    0    0 -3.2810730264e+01 +5.2731916157e+01 +3.3771330498e+00 1.1038050269e+02 9.1188000000e+01 0.0000e+00 0.0000e+00
       25  1    1    2    0    0 +3.2810730264e+01 -5.2731916157e+01 -3.3771330498e+00 1.3961949731e+02 1.2500000000e+02 0.0000e+00 0.0000e+00
</event>
<event>
 4      1 +2.4014000e-01 2.50000000e+02 7.54677100e-03 1.02464900e-01
      -11 -1    0    0    0    0 +0.0000000000e+00 +0.0000000000e+00 +1.2500000000e+02 1.2500000000e+02 0.0000000000e+00 0.0000e+00 1.0000e+00
       11 -1    0    0    0    0 -0.0000000000e+00 -0.0000000000e+00 -1.2500000000e+02 1.2500000000e+02 0.0000000000e+00 0.0000e+00 -1.0000e+00
       23  1    1    2    0    0 +2.2447885382e+01 +4.9702111723e+01 -2.9906463547e+01 1.1038050269e+02 9.1188000000e+01 0.0000e+00 0.0000e+00
       25  1    1    2    0    0 -2.2447885382e+01 -4.9702111723e+01 +2.9906463547e+01 1.3961949731e+02 1.2500000000e+02 0.0000e+00 0.0000e+00
</event>
<event>
 4      1 +2.4014000e-01 2.50000000e+02 7.54677100e-03 1.02464900e-01
      -11 -1    0    0    0    0 +0.0000000000e+00 +0.0000000000e+00 +1.2500000000e+02 1.2500000000e+02 0.0000000000e+00 0.0000e+00 1.0000e+00
       11 -1    0    0    0    0 -0.0000000000e+00 -0.0000000000e+00 -1.2500000000e+02 1.2500000000e+02 0.0000000000e+00 0.0000e+00 -1.0000e+00
       23  1    1    2    0    0 +4.3823690218e+01 +1.9397013205e+01 +3.9646488924e+01 1.1038050269e+02 9.1188000000e+01 0.0000e+00 1.0000e+00
       25  1    1    2    0    0 -4.3823690218e+01 -1.9397013205e+01 -3.9646488924e+01 1.3961949731e+02 1.2500000000e+02 0.0000e+00 0.0000e+00
</event>
<event>
 4      1 +2.4014000e-01 2.50000000e+02 7.54677100e-03 1.02464900e-01
      -11 -1    0    0    0    0 +0.0000000000e+00 +0.0000000000e+00 +1.2500000000e+02 1.2500000000e+02 0.0000000000e+00 0.0000e+00 1.0000e+00
       11 -1    0    0    0    0 -0.0000000000e+00 -0.0000000000e+00 -1.2500000000e+02 1.2500000000e+02 0.0000000000e+00 0.0000e+00 -1.0000e+00
       23  1    1    2    0    0 -5.6348564528e+01 -1.4285226728e+01 -2.2121835425e+01 1.1038050269e+02 9.1188000000e+01 0.0000e+00 -1.0000e+00
       25  1    1    2    0    0 +5.6348564528e+01 +1.4285226728e+01 +2.2121835425e+01 1.3961949731e+02 1.2500000000e+02 0.0000e+00 0.0000e+00
</event>
<event>
 4      1 +2.4014000e-01 2.50000000e+02 7.54677100e-03 1.02464900e-01
      -11 -1    0    0    0    0 +0.0000000000e+00 +0.0000000000e+00 +1.2500000000e+02 1.2500000000e+02 0.0000000000e+00 0.0000e+00 -1.0000e+00
       11 -1    0    0    0    0 -0.0000000000e+00 -0.0000000000e+00 -1.2500000000e+02 1.2500000000e+02 0.0000000000e+00 0.0000e+00 1.0000e+00
       23  1    1    2    0    0 +4.7407362040e+01 -3.5057099626e+01 +1.9802672039e+01 1.1038050269e+02 9.1188000000e+01 0.0000e+00 0.0000e+00
       25  1    1    2    0    0 -4.7407362040e+01 +3.5057099626e+01 -1.9802672039e+01 1.3961949731e+02 1.2500000000e+02 0.0000e+00 0.0000e+00
</event>
<event>
 4      1 +2.4014000e-01 2.50000000e+02 7.54677100e-03 1.02464900e-01
      -11 -1    0    0    0    0 +0.0000000000e+00 +0.0000000000e+00 +1.2500000000e+02 1.2500000000e+02 0.0000000000e+00 0.0000e+00 1.0000e+00
       11 -1    0    0    0    0 -0.0000000000e+00 -0.0000000000e+00 -1.2500000000e+02 1.2500000000e+02 0.0000000000e+00 0.0000e+00 -1.0000e+00
       23  1    1    2    0    0 -1.0009028045e+01 -5.7488887339e+01 -2.1527917220e+01 1.1038050269e+02 9.1188000000e+01 0.0000e+00 0.0000e+00
       25  1    1    2    0    0 +1.0009028045e+01 +5.7488887339e+01 +2.1527917220e+01 1.3961949731e+02 1.2500000000e+02 0.0000e+00 0.0000e+00
</event>
<event>
 4      1 +2.4014000e-01 2.50000000e+02 7.54677100e-03 1.02464900e-01
      -11 -1    0    0    0    0 +0.0000000000e+00 +0.0000000000e+00 +1.2500000000e+02 1.2500000000e+02 0.0000000000e+00 0.0000e+00 1.0000e+00
       11 -1    0    0    0    0 -0.0000000000e+00 -0.0000000000e+00 -1.2500000000e+02 1.2500000000e+02 0.0000000000e+00 0.0000e+00 -1.0000e+00
       23  1    1    2    0    0 -5.1674749771e+01 +2.8389702319e+01 -1.9807803211e+01 1.1038050269e+02 9.1188000000e+01 0.0000e+00 0.0000e+00
       25  1    1    2    0    0 +5.1674749771e+01 -2.8389702319e+01 +1.9807803211e+01 1.3961949731e+02 1.2500000000e+02 0.0000e+00 0.0000e+00
</event>
<event>
 4      1 +2.4014000e-01 2.50000000e+02 7.54677100e-03 1.02464900e-01
      -11 -1    0    0    0    0 +0.0000000000e+00 +0.0000000000e+00 +1.2500000000e+02 1.2500000000e+02 0.0000000000e+00 0.0000e+00 -1.0000e+00
       11 -1    0    0    0    0 -0.0000000000e+00 -0.0000000000e+00 -1.2500000000e+02 1.2500000000e+02 0.0000000000e+00 0.0000e+00 1.0000e+00
       23  1    1    2    0    0 -5.7948092031e+01 -2.2567727550e+01 +1.1490573936e+00 1.1038050269e+02 9.1188000000e+01 0.0000e+00 0.0000e+00
       25  1    1    2    0    0 +5.7948092031e+01 +2.2567727550e+01 -1.1490573936e+00 1.3961949731e+02 1.2500000000e+02 0.0000e+00 0.0000e+00
</event>
<event>
 4      1 +2.4014000e-01 2.50000000e+02 7.54677100e-03 1.02464900e-01
      -11 -1    0    0    0    0 +0.0000000000e+00 +0.0000000000e+00 +1.2500000000e+02 1.2500000000e+02 0.0000000000e+00 0.0000e+00 1.0000e+00
       11 -1    0    0    0    0 -0.0000000000e+00 -0.0000000000e+00 -1.2500000000e+02 1.2500000000e+02 0.0000000000e+00 0.0000e+00 -1.0000e+00
       23  1    1    2    0    0 +3.7659953824e+01 +3.2654759246e+01 +3.7202131743e+01 1.1038050269e+02 9.1188000000e+01 0.0000e+00 -1.0000e+00
       25  1    1    2    0    0 -3.7659953824e+01 -3.2654759246e+01 -3.7202131743e+01 1.3961949731e+02 1.2500000000e+02 0.0000e+00 0.0000e+00
</event>
<event>
 4      1 +2.4014000e-01 2.50000000e+02 7.54677100e-03 1.02464900e-01
      -11 -1    0    0    0    0 +0.0000000000e+00 +0.0000000000e+00 +1.2500000000e+02 1.2500000000e+02 0.0000000000e+00 0.0000e+00 -1.0000e+00
       11 -1    0    0    0    0 -0.0000000000e+00 -0.0000000000e+00 -1.2500000000e+02 1.2500000000e+02 0.0000000000e+00 0.0000e+00 1.0000e+00
       23  1    1    2    0    0 -5.4391362191e+01 +6.6551577327e+00 -2.9426053494e+01 1.1038050269e+02 9.1188000000e+01 0.0000e+00 1.0000e+00
       25  1    1    2    0    0 +5.4391362191e+01 -6.6551577327e+00 +2.9426053494e+01 1.3961949731e+02 1.2500000000e+02 0.0000e+00 0.0000e+00
</event>
<event>
 4      1 +2.4014000e-01 2.50000000e+02 7.54677100e-03 1.02464900e-01
      -11 -1    0    0    0    0 +0.0000000000e+00 +0.0000000000e+00 +1.2500000000e+02 1.2500000000e+02 0.0000000000e+00 0.0000e+00 -1.0000e+00
       11 -1    0    0    0    0 -0.0000000000e+00 -0.0000000000e+00 -1.2500000000e+02 1.2500000000e+02 0.0000000000e+00 0.0000e+00 1.0000e+00
       23  1    1    2    0    0 +5.3648369428e-01 +5.4725916904e+01 +2.9553176377e+01 1.1038050269e+02 9.1188000000e+01 0.0000e+00 -1.0000e+00
       25  1    1    2    0    0 -5.3648369428e-01 -5.4725916904e+01 -2.9553176377e+01 1.3961949731e+02 1.2500000000e+02 0.0000e+00 0.0000e+00
</event>
<event>
 4      1 +2.4014000e-01 2.50000000e+02 7.54677100e-03 1.02464900e-01
      -11 -1    0    0    0    0 +0.0000000000e+00 +0.0000000000e+00 +1.2500000000e+02 1.2500000000e+02 0.0000000000e+00 0.0000e+00 1.0000e+00
       11 -1    0    0    0    0 -0.0000000000e+00 -0.0000000000e+00 -1.2500000000e+02 1.2500000000e+02 0.0000000000e+00 0.0000e+00 -1.0000e+00
       23  1    1    2    0    0 +3.0186799308e+01 -5.0221754535e+01 +2.0859926860e+01 1.1038050269e+02 9.1188000000e+01 0.0000e+00 1.0000e+00
       25  1    1    2    0    0 -3.0186799308e+01 +5.0221754535e+01 -2.0859926860e+01 1.3961949731e+02 1.2500000000e+02 0.0000e+00 0.0000e+00
</event>
<event>
 4      1 +2.4014000e-01 2.50000000e+02 7.54677100e-03 1.02464900e-01
      -11 -1    0    0    0    0 +0.0000000000e+00 +0.0000000000e+00 +1.2500000000e+02 1.2500000000e+02 0.0000000000e+00 0.0000e+00 1.0000e+00
       11 -1    0    0    0    0 -0.0000000000e+00 -0.0000000000e+00 -1.2500000000e+02 1.2500000000e+02 0.0000000000e+00 0.0000e+00 -1.0000e+00
       23  1    1    2    0    0 +4.5132044703e+01 -3.0534063349e+00 +4.2689334503e+01 1.1038050269e+02 9.1188000000e+01 0.0000e+00 1.0000e+00
       25  1    1    2    0    0 -4.5132044703e+01 +3.0534063349e+00 -4.2689334503e+01 1.3961949731e+02 1.2500000000e+02 0.0000e+00 0.0000e+00
</event>
<event>
 4      1 +2.4014000e-01 2.50000000e+02 7.54677100e-03 1.02464900e-01
      -11 -1    0    0    0    0 +0.0000000000e+00 +0.0000000000e+00 +1.2500000000e+02 1.2500000000e+02 0.0000000000e+00 0.0000e+00 -1.0000e+00
       11 -1    0    0    0    0 -0.0000000000e+00 -0.0000000000e+00 -1.2500000000e+02 1.2500000000e+02 0.0000000000e+00 0.0000e+00 1.0000e+00
       23  1    1    2    0    0 +3.4909131670e+01 +3.3808272033e+01 -3.8819547883e+01 1.1038050269e+02 9.1188000000e+01 0.0000e+00 0.0000e+00
       25  1    1    2    0    0 -3.4909131670e+01 -3.3808272033e+01 +3.8819547883e+01 1.3961949731e+02 1.2500000000e+02 0.0000e+00 0.0000e+00
</event>
<event>
 4      1 +2.4014000e-01 2.50000000e+02 7.54677100e-03 1.02464900e-01
      -11 -1    0    0    0    0 +0.0000000000e+00 +0.0000000000e+00 +1.2500000000e+02 1.2500000000e+02 0.0000000000e+00 0.0000e+00 -1.0000e+00
       11 -1    0    0    0    0 -0.0000000000e+00 -0.0000000000e+00 -1.2500000000e+02 1.2500000000e+02 0.0000000000e+00 0.0000e+00 1.0000e+00
       23  1    1    2    0    0 +5.5932244228e+01 +2.2144288912e+01 +1.5805649429e+01 1.1038050269e+02 9.1188000000e+01 0.0000e+00 -1.0000e+00
       25  1    1    2    0    0 -5.5932244228e+01 -2.2144288912e+01 -1.5805649429e+01 1.3961949731e+02 1.2500000000e+02 0.0000e+00 0.0000e+00
</event>
<event>
 4      1 +2.4014000e-01 2.50000000e+02 7.54677100e-03 1.02464900e-01
      -11 -1    0    0    0    0 +0.0000000000e+00 +0.0000000000e+00 +1.2500000000e+02 1.2500000000e+02 0.0000000000e+00 0.0000e+00 1.0000e+00
       11 -1    0    0    0    0 -0.0000000000e+00 -0.0000000000e+00 -1.2500000000e+02 1.2500000000e+02 0.0000000000e+00 0.0000e+00 -1.0000e+00
       23  1    1    2    0    0 +3.1063770815e+01 -1.8644374059e+01 +5.0557229832e+01 1.1038050269e+02 9.1188000000e+01 0.0000e+00 1.0000e+00
       25  1    1    2    0    0 -3.1063770815e+01 +1.8644374059e+01 -5.0557229832e+01 1.3961949731e+02 1.2500000000e+02 0.0000e+00 0.0000e+00
</event>
<event>
 4      1 +2.4014000e-01 2.50000000e+02 7.54677100e-03 1.02464900e-01
      -11 -1    0    0    0    0 +0.0000000000e+00 +0.0000000000e+00 +1.2500000000e+02 1.2500000000e+02 0.0000000000e+00 0.0000e+00 1.0000e+00
       11 -1    0    0    0    0 -0.0000000000e+00 -0.0000000000e+00 -1.2500000000e+02 1.2500000000e+02 0.0000000000e+00 0.0000e+00 -1.0000e+00
       23  1    1    2    0    0 -1.8741620457e+01 -5.0263373709e+01 +3.1479341729e+01 1.1038050269e+02 9.1188000000e+01 0.0000e+00 1.0000e+00
       25  1    1    2    0    0 +1.8741620457e+01 +5.0263373709e+01 -3.1479341729e+01 1.3961949731e+02 1.2500000000e+02 0.0000e+00 0.0000e+00
</event>
<event>
 4      1 +2.4014000e-01 2.50000000e+02 7.54677100e-03 1.02464900e-01
      -11 -1    0    0    0    0 +0.0000000000e+00 +0.0000000000e+00 +1.2500000000e+02 1.2500000000e+02 0.0000000000e+00 0.0000e+00 1.0000e+00
       11 -1    0    0    0    0 -0.0000000000e+00 -0.0000000000e+00 -1.2500000000e+02 1.2500000000e+02 0.0000000000e+00 0.0000e+00 -1.0000e+00
       23  1    1    2    0    0 +2.2590417956e+01 -2.9506115691e+01 +4.9876509331e+01 1.1038050269e+02 9.1188000000e+01 0.0000e+00 1.0000e+00
       25  1    1    2    0    0 -2.2590417956e+01 +2.9506115691e+01 -4.9876509331e+01 1.3961949731e+02 1.2500000000e+02 0.0000e+00 0.0000e+00
</event>
<event>
 4      1 +2.4014000e-01 2.50000000e+02 7.54677100e-03 1.02464900e-01
      -11 -1    0    0    0    0 +0.0000000000e+00 +0.0000000000e+00 +1.2500000000e+02 1.2500000000e+02 0.0000000000e+00 0.0000e+00 1.0000e+00
       11 -1    0    0    0    0 -0.0000000000e+00 -0.0000000000e+00 -1.2500000000e+02 1.2500000000e+02 0.0000000000e+00 0.0000e+00 -1.0000e+00
       23  1    1    2    0    0 -7.3358329796e+00 +1.4624747761e+01 -6.0007552334e+01 1.1038050269e+02 9.1188000000e+01 0.0000e+00 -1.0000e+00
       25  1    1    2    0    0 +7.3358329796e+00 -1.4624747761e+01 +6.0007552334e+01 1.3961949731e+02 1.2500000000e+02 0.0000e+00 0.0000e+00
</event>
<event>
 4      1 +2.4014000e-01 2.50000000e+02 7.54677100e-03 1.02464900e-01
      -11 -1    0    0    0    0 +0.0000000000e+00 +0.0000000000e+00 +1.2500000000e+02 1.2500000000e+02 0.0000000000e+00 0.0000e+00 1.0000e+00
       11 -1    0    0    0    0 -0.0000000000e+00 -0.0000000000e+00 -1.2500000000e+02 1.2500000000e+02 0.0000000000e+00 0.0000e+00 -1.0000e+00
       23  1    1    2    0    0 -9.2273189989e+00 -3.7563142738e+01 -4.8708017014e+01 1.1038050269e+02 9.1188000000e+01 0.0000e+00 0.0000e+00
       25  1    1    2    0    0 +9.2273189989e+00 +3.7563142738e+01 +4.8708017014e+01 1.3961949731e+02 1.2500000000e+02 0.0000e+00 0.0000e+00
</event>
<event>
 4      1 +2.4014000e-01 2.50000000e+02 7.54677100e-03 1.02464900e-01
      -11 -1    0    0    0    0 +0.0000000000e+00 +0.0000000000e+00 +1.2500000000e+02 1.2500000000e+02 0.0000000000e+00 0.0000e+00 1.0000e+00
       11 -1    0    0    0    0 -0.0000000000e+00 -0.0000000000e+00 -1.2500000000e+02 1.2500000000e+02 0.0000000000e+00 0.0000e+00 -1.0000e+00
       23  1    1    2    0    0 -4.4230138639e+01 +1.7276621396e+00 -4.3695698291e+01 1.1038050269e+02 9.1188000000e+01 0.0000e+00 0.0000e+00
       25  1    1    2    0    0 +4.4230138639e+01 -1.7276621396e+00 +4.3695698291e+01 1.3961949731e+02 1.2500000000e+02 0.0000e+00 0.0000e+00
</event>
<event>
 4      1 +2.4014000e-01 2.50000000e+02 7.54677100e-03 1.02464900e-01
      -11 -1    0    0    0    0 +0.0000000000e+00 +0.0000000000e+00 +1.2500000000e+02 1.2500000000e+02 0.0000000000e+00 0.0000e+00 1.0000e+00
       11 -1    0    0    0    0 -0.0000000000e+00 -0.0000000000e+00 -1.2500000000e+02 1.2500000000e+02 0.0000000000e+00 0.0000e+00 -1.0000e+00
       23  1    1    2    0    0 +4.9058094504e+01 +3.6033662766e+01 -1.2786029133e+01 1.1038050269e+02 9.1188000000e+01 0.0000e+00 0.0000e+00
       25  1    1    2    0    0 -4.9058094504e+01 -3.6033662766e+01 +1.2786029133e+01 1.3961949731e+02 1.2500000000e+02 0.0000e+00 0.0000e+00
</event>
<event>
 4      1 +2.4014000e-01 2.50000000e+02 7.54677100e-03 1.02464900e-01
      -11 -1    0    0    0    0 +0.0000000000e+00 +0.0000000000e+00 +1.2500000000e+02 1.2500000000e+02 0.0000000000e+00 0.0000e+00 -1.0000e+00
       11 -1    0    0    0    0 -0.0000000000e+00 -0.0000000000e+00 -1.2500000000e+02 1.2500000000e+02 0.0000000000e+00 0.0000e+00 1.0000e+00
       23  1    1    2    0    0 +1.2856676560e+01 -5.2759141332e+01 +3.0327922834e+01 1.1038050269e+02 9.1188000000e+01 0.0000e+00 0.0000e+00
       25  1    1    2    0    0 -1.2856676560e+01 +5.2759141332e+01 -3.0327922834e+01 1.3961949731e+02 1.2500000000e+02 0.0000e+00 0.0000e+00
</event>
<event>
 4      1 +2.4014000e-01 2.50000000e+02 7.54677100e-03 1.02464900e-01
      -11 -1    0    0    0    0 +0.0000000000e+00 +0.0000000000e+00 +1.2500000000e+02 1.2500000000e+02 0.0000000000e+00 0.0000e+00 1.0000e+00
       11 -1    0    0    0    0 -0.0000000000e+00 -0.0000000000e+00 -1.2500000000e+02 1.2500000000e+02 0.0000000000e+00 0.0000e+00 -1.0000e+00
       23  1    1    2    0    0 +3.3857762471e+01 +4.8531035618e+01 -1.9157101344e+01 1.1038050269e+02 9.1188000000e+01 0.0000e+00 0.0000e+00
       25  1    1    2    0    0 -3.3857762471e+01 -4.8531035618e+01 +1.9157101344e+01 1.3961949731e+02 1.2500000000e+02 0.0000e+00 0.0000e+00
</event>
<event>
 4      1 +2.4014000e-01 2.50000000e+02 7.54677100e-03 1.02464900e-01
      -11 -1    0    0    0    0 +0.0000000000e+00 +0.0000000000e+00 +1.2500000000e+02 1.2500000000e+02 0.0000000000e+00 0.0000e+00 -1.0000e+00
       11 -1    0    0    0    0 -0.0000000000e+00 -0.0000000000e+00 -1.2500000000e+02 1.2500000000e+02 0.0000000000e+00 0.0000e+00 1.0000e+00
       23  1    1    2    0    0 +2.6686082410e+01 +5.5871169175e+01 +5.9050393982e+00 1.1038050269e+02 9.1188000000e+01 0.0000e+00 0.0000e+00
       25  1    1    2    0    0 -2.6686082410e+01 -5.5871169175e+01 -5.9050393982e+00 1.3961949731e+02 1.2500000000e+02 0.0000e+00 0.0000e+00
</event>
<event>
 4      1 +2.4014000e-01 2.50000000e+02 7.54677100e-03 1.02464900e-01
      -11 -1    0    0    0    0 +0.0000000000e+00 +0.0000000000e+00 +1.2500000000e+02 1.2500000000e+02 0.0000000000e+00 0.0000e+00 1.0000e+00
       11 -1    0    0    0    0 -0.0000000000e+00 -0.0000000000e+00 -1.2500000000e+02 1.2500000000e+02 0.0000000000e+00 0.0000e+00 -1.0000e+00
       23  1    1    2    0    0 -1.1163360861e+01 +6.1112128792e+01 -3.0481335955e+00 1.1038050269e+02 9.1188000000e+01 0.0000e+00 -1.0000e+00
       25  1    1    2    0    0 +1.1163360861e+01 -6.1112128792e+01 +3.0481335955e+00 1.3961949731e+02 1.2500000000e+02 0.0000e+00 0.0000e+00
</event>
<event>
 4      1 +2.4014000e-01 2.50000000e+02 7.54677100e-03 1.02464900e-01
      -11 -1    0    0    0    0 +0.0000000000e+00 +0.0000000000e+00 +1.2500000000e+02 1.2500000000e+02 0.0000000000e+00 0.0000e+00 1.0000e+00
       11 -1    0    0    0    0 -0.0000000000e+00 -0.0000000000e+00 -1.2500000000e+02 1.2500000000e+02 0.0000000000e+00 0.0000e+00 -1.0000e+00
       23  1    1    2    0    0 +2.0444784448e+01 +5.8345764450e+01 -6.8107700912e+00 1.1038050269e+02 9.1188000000e+01 0.0000e+00 -1.0000e+00
       25  1    1    2    0    0 -2.0444784448e+01 -5.8345764450e+01 +6.8107700912e+00 1.3961949731e+02 1.2500000000e+02 0.0000e+00 0.0000e+00
</event>
<event>
 4      1 +2.4014000e-01 2.50000000e+02 7.54677100e-03 1.02464900e-01
      -11 -1    0    0    0    0 +0.0000000000e+00 +0.0000000000e+00 +1.2500000000e+02 1.2500000000e+02 0.0000000000e+00 0.0000e+00 -1.0000e+00
       11 -1    0    0    0    0 -0.0000000000e+00 -0.0000000000e+00 -1.2500000000e+02 1.2500000000e+02 0.0000000000e+00 0.0000e+00 1.0000e+00
       23  1    1    2    0    0 -4.6115824465e+01 +3.8043148191e+01 -1.7165478128e+01 1.1038050269e+02 9.1188000000e+01 0.0000e+00 0.0000e+00
       25  1    1    2    0    0 +4.6115824465e+01 -3.8043148191e+01 +1.7165478128e+01 1.3961949731e+02 1.2500000000e+02 0.0000e+00 0.0000e+00
</event>
<event>
 4      1 +2.4014000e-01 2.50000000e+02 7.54677100e-03 1.02464900e-01
      -11 -1    0    0    0    0 +0.0000000000e+00 +0.0000000000e+00 +1.2500000000e+02 1.2500000000e+02 0.0000000000e+00 0.0000e+00 -1.0000e+00
       11 -1    0    0    0    0 -0.0000000000e+00 -0.0000000000e+00 -1.2500000000e+02 1.2500000000e+02 0.0000000000e+00 0.0000e+00 1.0000e+00
       23  1    1    2    0    0 -5.7316314462e+01 -1.7623389017e+01 +1.6518483153e+01 1.1038050269e+02 9.1188000000e+01 0.0000e+00 0.0000e+00
       25  1    1    2    0    0 +5.7316314462e+01 +1.7623389017e+01 -1.6518483153e+01 1.3961949731e+02 1.2500000000e+02 0.0000e+00 0.0000e+00
</event>
<event>
 4      1 +2.4014000e-01 2.50000000e+02 7.54677100e-03 1.02464900e-01
      -11 -1    0    0    0    0 +0.0000000000e+00 +0.0000000000e+00 +1.2500000000e+02 1.2500000000e+02 0.0000000000e+00 0.0000e+00 -1.0000e+00
       11 -1    0    0    0    0 -0.0000000000e+00 -0.0000000000e+00 -1.2500000000e+02 1.2500000000e+02 0.0000000000e+00 0.0000e+00 1.0000e+00
       23  1    1    2    0    0 -4.9896163508e+01 +3.5346273758e+01 +1.1384982579e+01 1.1038050269e+02 9.1188000000e+01 0.0000e+00 0.0000e+00
       25  1    1    2    0    0 +4.9896163508e+01 -3.5346273758e+01 -1.1384982579e+01 1.3961949731e+02 1.2500000000e+02 0.0000e+00 0.0000e+00
</event>
<event>
 4      1 +2.4014000e-01 2.50000000e+02 7.54677100e-03 1.02464900e-01
      -11 -1    0    0    0    0 +0.0000000000e+00 +0.0000000000e+00 +1.2500000000e+02 1.2500000000e+02 0.0000000000e+00 0.0000e+00 -1.0000e+00
       11 -1    0    0    0    0 -0.0000000000e+00 -0.0000000000e+00 -1.2500000000e+02 1.2500000000e+02 0.0000000000e+00 0.0000e+00 1.0000e+00
       23  1    1    2    0    0 +3.7276392134e+01 -4.5861812645e+01 +1.9384755867e+01 1.1038050269e+02 9.1188000000e+01 0.0000e+00 -1.0000e+00
       25  1    1    2    0    0 -3.7276392134e+01 +4.5861812645e+01 -1.9384755867e+01 1.3961949731e+02 1.2500000000e+02 0.0000e+00 0.0000e+00
</event>
<event>
 4      1 +2.4014000e-01 2.50000000e+02 7.54677100e-03 1.02464900e-01
      -11 -1    0    0    0    0 +0.0000000000e+00 +0.0000000000e+00 +1.2500000000e+02 1.2500000000e+02 0.0000000000e+00 0.0000e+00 1.0000e+00
       11 -1    0    0    0    0 -0.0000000000e+00 -0.0000000000e+00 -1.2500000000e+02 1.2500000000e+02 0.0000000000e+00 0.0000e+00 -1.0000e+00
       23  1    1    2    0    0 -3.1408679762e+01 +2.1721144367e+01 -4.9094712064e+01 1.1038050269e+02 9.1188000000e+01 0.0000e+00 0.0000e+00
       25  1    1    2    0    0 +3.1408679762e+01 -2.1721144367e+01 +4.9094712064e+01 1.3961949731e+02 1.2500000000e+02 0.0000e+00 0.0000e+00
</event>
<event>
 4      1 +2.4014000e-01 2.50000000e+02 7.54677100e-03 1.02464900e-01
      -11 -1    0    0    0    0 +0.0000000000e+00 +0.0000000000e+00 +1.2500000000e+02 1.2500000000e+02 0.0000000000e+00 0.0000e+00 -1.0000e+00
       11 -1    0    0    0    0 -0.0000000000e+00 -0.0000000000e+00 -1.2500000000e+02 1.2500000000e+02 0.0000000000e+00 0.0000e+00 1.0000e+00
       23  1    1    2    0    0 -6.1160214169e+01 +6.0153529851e+00 -9.5837237487e+00 1.1038050269e+02 9.1188000000e+01 0.0000e+00 -1.0000e+00
       25  1    1    2    0    0 +6.1160214169e+01 -6.0153529851e+00 +9.5837237487e+00 1.3961949731e+02 1.2500000000e+02 0.0000e+00 0.0000e+00
</event>
<event>
 4      1 +2.4014000e-01 2.50000000e+02 7.54677100e-03 1.02464900e-01
      -11 -1    0    0    0    0 +0.0000000000e+00 +0.0000000000e+00 +1.2500000000e+02 1.2500000000e+02 0.0000000000e+00 0.0000e+00 1.0000e+00
       11 -1    0    0    0    0 -0.0000000000e+00 -0.0000000000e+00 -1.2500000000e+02 1.2500000000e+02 0.0000000000e+00 0.0000e+00 -1.0000e+00
       23  1    1    2    0    0 +3.6174589165e+01 -2.9584914198e+01 +4.1045535449e+01 1.1038050269e+02 9.1188000000e+01 0.0000e+00 0.0000e+00
       25  1    1    2    0    0 -3.6174589165e+01 +2.9584914198e+01 -4.1045535449e+01 1.3961949731e+02 1.2500000000e+02 0.0000e+00 0.0000e+00
</event>
<event>
 4      1 +2.4014000e-01 2.50000000e+02 7.54677100e-03 1.02464900e-01
      -11 -1    0    0    0    0 +0.0000000000e+00 +0.0000000000e+00 +1.2500000000e+02 1.2500000000e+02 0.0000000000e+00 0.0000e+00 -1.0000e+00
       11 -1    0    0    0    0 -0.0000000000e+00 -0.0000000000e+00 -1.2500000000e+02 1.2500000000e+02 0.0000000000e+00 0.0000e+00 1.0000e+00
       23  1    1    2    0    0 +5.9200968417e+01 -8.2795433090e+00 -1.7184252407e+01 1.1038050269e+02 9.1188000000e+01 0.0000e+00 0.0000e+00
       25  1    1    2    0    0 -5.9200968417e+01 +8.2795433090e+00 +1.7184252407e+01 1.3961949731e+02 1.2500000000e+02 0.0000e+00 0.0000e+00
</event>
<event>
 4      1 +2.4014000e-01 2.50000000e+02 7.54677100e-03 1.02464900e-01
      -11 -1    0    0    0    0 +0.0000000000e+00 +0.0000000000e+00 +1.2500000000e+02 1.2500000000e+02 0.0000000000e+00 0.0000e+00 1.0000e+00
       11 -1    0    0    0    0 -0.0000000000e+00 -0.0000000000e+00 -1.2500000000e+02 1.2500000000e+02 0.0000000000e+00 0.0000e+00 -1.0000e+00
       23  1    1    2    0    0 -2.5177199896e+01 -5.5634622901e+01 -1.1811069796e+01 1.1038050269e+02 9.1188000000e+01 0.0000e+00 1.0000e+00
       25  1    1    2    0    0 +2.5177199896e+01 +5.5634622901e+01 +1.1811069796e+01 1.3961949731e+02 1.2500000000e+02 0.0000e+00 0.0000e+00
</event>
<event>
 4      1 +2.4014000e-01 2.50000000e+02 7.54677100e-03 1.02464900e-01
      -11 -1    0    0    0    0 +0.0000000000e+00 +0.0000000000e+00 +1.2500000000e+02 1.2500000000e+02 0.0000000000e+00 0.0000e+00 1.0000e+00
       11 -1    0    0    0    0 -0.0000000000e+00 -0.0000000000e+00 -1.2500000000e+02 1.2500000000e+02 0.0000000000e+00 0.0000e+00 -1.0000e+00
       23  1    1    2    0    0 -4.5498038811e+01 +3.0790316295e+01 -2.9163143116e+01 1.1038050269e+02 9.1188000000e+01 0.0000e+00 -1.0000e+00
       25  1    1    2    0    0 +4.5498038811e+01 -3.0790316295e+01 +2.9163143116e+01 1.3961949731e+02 1.2500000000e+02 0.0000e+00 0.0000e+00
</event>
<event>
 4      1 +2.4014000e-01 2.50000000e+02 7.54677100e-03 1.02464900e-01
      -11 -1    0    0    0    0 +0.0000000000e+00 +0.0000000000e+00 +1.2500000000e+02 1.2500000000e+02 0.0000000000e+00 0.0000e+00 1.0000e+00
       11 -1    0    0    0    0 -0.0000000000e+00 -0.0000000000e+00 -1.2500000000e+02 1.2500000000e+02 0.0000000000e+00 0.0000e+00 -1.0000e+00
       23  1    1    2    0    0 -1.3655566337e+01 +4.5046188348e+01 -4.0656739330e+01 1.1038050269e+02 9.1188000000e+01 0.0000e+00 0.0000e+00
       25  1    1    2    0    0 +1.3655566337e+01 -4.5046188348e+01 +4.0656739330e+01 1.3961949731e+02 1.2500000000e+02 0.0000e+00 0.0000e+00
</event>
<event>
 4      1 +2.4014000e-01 2.50000000e+02 7.54677100e-03 1.02464900e-01
      -11 -1    0    0    0    0 +0.0000000000e+00 +0.0000000000e+00 +1.2500000000e+02 1.2500000000e+02 0.0000000000e+00 0.0000e+00 1.0000e+00
       11 -1    0    0    0    0 -0.0000000000e+00 -0.0000000000e+00 -1.2500000000e+02 1.2500000000e+02 0.0000000000e+00 0.0000e+00 -1.0000e+00
       23  1    1    2    0    0 +9.5586594611e+00 -3.2457631214e+01 +5.2189445628e+01 1.1038050269e+02 9.1188000000e+01 0.0000e+00 1.0000e+00
       25  1    1    2    0    0 -9.5586594611e+00 +3.2457631214e+01 -5.2189445628e+01 1.3961949731e+02 1.2500000000e+02 0.0000e+00 0.0000e+00
</event>
<event>
 4      1 +2.4014000e-01 2.50000000e+02 7.54677100e-03 1.02464900e-01
      -11 -1    0    0    0    0 +0.0000000000e+00 +0.0000000000e+00 +1.2500000000e+02 1.2500000000e+02 0.0000000000e+00 0.0000e+00 1.0000e+00
       11 -1    0    0    0    0 -0.0000000000e+00 -0.0000000000e+00 -1.2500000000e+02 1.2500000000e+02 0.0000000000e+00 0.0000e+00 -1.0000e+00
       23  1    1    2    0    0 -6.5508490431e+00 -4.4181031036e+01 -4.3286567236e+01 1.1038050269e+02 9.1188000000e+01 0.0000e+00 -1.0000e+00
       25  1    1    2    0    0 +6.5508490431e+00 +4.4181031036e+01 +4.3286567236e+01 1.3961949731e+02 1.2500000000e+02 0.0000e+00 0.0000e+00
</event>
<event>
 4      1 +2.4014000e-01 2.50000000e+02 7.54677100e-03 1.02464900e-01
      -11 -1    0    0    0    0 +0.0000000000e+00 +0.0000000000e+00 +1.2500000000e+02 1.2500000000e+02 0.0000000000e+00 0.0000e+00 -1.0000e+00
       11 -1    0    0    0    0 -0.0000000000e+00 -0.0000000000e+00 -1.2500000000e+02 1.2500000000e+02 0.0000000000e+00 0.0000e+00 1.0000e+00
       23  1    1    2    0    0 -2.0763868914e+01 +5.5361214627e+00 -5.8367946139e+01 1.1038050269e+02 9.1188000000e+01 0.0000e+00 1.0000e+00
       25  1    1    2    0    0 +2.0763868914e+01 -5.5361214627e+00 +5.8367946139e+01 1.3961949731e+02 1.2500000000e+02 0.0000e+00 0.0000e+00
</event>
<event>
 4      1 +2.4014000e-01 2.50000000e+02 7.54677100e-03 1.02464900e-01
      -11 -1    0    0    0    0 +0.0000000000e+00 +0.0000000000e+00 +1.2500000000e+02 1.2500000000e+02 0.0000000000e+00 0.0000e+00 -1.0000e+00
       11 -1    0    0    0    0 -0.0000000000e+00 -0.0000000000e+00 -1.2500000000e+02 1.2500000000e+02 0.0000000000e+00 0.0000e+00 1.0000e+00
       23  1    1    2    0    0 +5.2889228230e+01 -3.1233267260e+00 -3.2581872216e+01 1.1038050269e+02 9.1188000000e+01 0.0000e+00 0.0000e+00
       25  1    1    2    0    0 -5.2889228230e+01 +3.1233267260e+00 +3.2581872216e+01 1.3961949731e+02 1.2500000000e+02 0.0000e+00 0.0000e+00
</event>
<event>
 4      1 +2.4014000e-01 2.50000000e+02 7.54677100e-03 1.02464900e-01
      -11 -1    0    0    0    0 +0.0000000000e+00 +0.0000000000e+00 +1.2500000000e+02 1.2500000000e+02 0.0000000000e+00 0.0000e+00 1.0000e+00
       11 -1    0    0    0    0 -0.0000000000e+00 -0.0000000000e+00 -1.2500000000e+02 1.2500000000e+02 0.0000000000e+00 0.0000e+00 -1.0000e+00
       23  1    1    2    0    0 +3.9808057319e+01 -2.7345448837e+00 +4.7712103983e+01 1.1038050269e+02 9.1188000000e+01 0.0000e+00 1.0000e+00
       25  1    1    2    0    0 -3.9808057319e+01 +2.7345448837e+00 -4.7712103983e+01 1.3961949731e+02 1.2500000000e+02 0.0000e+00 0.0000e+00
</event>
<event>
 4      1 +2.4014000e-01 2.50000000e+02 7.54677100e-03 1.02464900e-01
      -11 -1    0    0    0    0 +0.0000000000e+00 +0.0000000000e+00 +1.2500000000e+02 1.2500000000e+02 0.0000000000e+00 0.0000e+00 -1.0000e+00
       11 -1    0    0    0    0 -0.0000000000e+00 -0.0000000000e+00 -1.2500000000e+02 1.2500000000e+02 0.0000000000e+00 0.0000e+00 1.0000e+00
       23  1    1    2    0    0 +5.5944992877e+01 -2.7098738732e+01 +2.1024178413e+00 1.1038050269e+02 9.1188000000e+01 0.0000e+00 0.0000e+00
       25  1    1    2    0    0 -5.5944992877e+01 +2.7098738732e+01 -2.1024178413e+00 1.3961949731e+02 1.2500000000e+02 0.0000e+00 0.0000e+00
</event>
<event>
 4      1 +2.4014000e-01 2.50000000e+02 7.54677100e-03 1.02464900e-01
      -11 -1    0    0    0    0 +0.0000000000e+00 +0.0000000000e+00 +1.2500000000e+02 1.2500000000e+02 0.0000000000e+00 0.0000e+00 -1.0000e+00
       11 -1    0    0    0    0 -0.0000000000e+00 -0.0000000000e+00 -1.2500000000e+02 1.2500000000e+02 0.0000000000e+00 0.0000e+00 1.0000e+00
       23  1    1    2    0    0 +4.0316529985e+01 -4.1686154576e+01 +2.2482125263e+01 1.1038050269e+02 9.1188000000e+01 0.0000e+00 0.0000e+00
       25  1    1    2    0    0 -4.0316529985e+01 +4.1686154576e+01 -2.2482125263e+01 1.3961949731e+02 1.2500000000e+02 0.0000e+00 0.0000e+00
</event>
<event>
 4      1 +2.4014000e-01 2.50000000e+02 7.54677100e-03 1.02464900e-01
      -11 -1    0    0    0    0 +0.0000000000e+00 +0.0000000000e+00 +1.2500000000e+02 1.2500000000e+02 0.0000000000e+00 0.0000e+00 -1.0000e+00
       11 -1    0    0    0    0 -0.0000000000e+00 -0.0000000000e+00 -1.2500000000e+02 1.2500000000e+02 0.0000000000e+00 0.0000e+00 1.0000e+00
       23  1    1    2    0    0 +1.2663875829e+01 +2.8987306344e+01 +5.3553397181e+01 1.1038050269e+02 9.1188000000e+01 0.0000e+00 -1.0000e+00
       25  1    1    2    0    0 -1.2663875829e+01 -2.8987306344e+01 -5.3553397181e+01 1.3961949731e+02 1.2500000000e+02 0.0000e+00 0.0000e+00
</event>
<event>
 4      1 +2.4014000e-01 2.50000000e+02 7.54677100e-03 1.02464900e-01
      -11 -1    0    0    0    0 +0.0000000000e+00 +0.0000000000e+00 +1.2500000000e+02 1.2500000000e+02 0.0000000000e+00 0.0000e+00 1.0000e+00
       11 -1    0    0    0    0 -0.0000000000e+00 -0.0000000000e+00 -1.2500000000e+02 1.2500000000e+02 0.0000000000e+00 0.0000e+00 -1.0000e+00
       23  1    1    2    0    0 -2.8613219739e+01 -4.1002206371e+01 -3.6996037065e+01 1.1038050269e+02 9.1188000000e+01 0.0000e+00 1.0000e+00
       25  1    1    2    0    0 +2.8613219739e+01 +4.1002206371e+01 +3.6996037065e+01 1.3961949731e+02 1.2500000000e+02 0.0000e+00 0.0000e+00
</event>
<event>
 4      1 +2.4014000e-01 2.50000000e+02 7.54677100e-03 1.02464900e-01
      -11 -1    0    0    0    0 +0.0000000000e+00 +0.0000000000e+00 +1.2500000000e+02 1.2500000000e+02 0.0000000000e+00 0.0000e+00 1.0000e+00
       11 -1    0    0    0    0 -0.0000000000e+00 -0.0000000000e+00 -1.2500000000e+02 1.2500000000e+02 0.0000000000e+00 0.0000e+00 -1.0000e+00
       23  1    1    2    0    0 -4.1053975270e+01 +2.7653355347e+01 +3.7662542164e+01 1.1038050269e+02 9.1188000000e+01 0.0000e+00 1.0000e+00
       25  1    1    2    0    0 +4.1053975270e+01 -2.7653355347e+01 -3.7662542164e+01 1.3961949731e+02 1.2500000000e+02 0.0000e+00 0.0000e+00
</event>
<event>
 4      1 +2.4014000e-01 2.50000000e+02 7.54677100e-03 1.02464900e-01
      -11 -1    0    0    0    0 +0.0000000000e+00 +0.0000000000e+00 +1.2500000000e+02 1.2500000000e+02 0.0000000000e+00 0.0000e+00 -1.0000e+00
       11 -1    0    0    0    0 -0.0000000000e+00 -0.0000000000e+00 -1.2500000000e+02 1.2500000000e+02 0.0000000000e+00 0.0000e+00 1.0000e+00
       23  1    1    2    0    0 -3.9974704195e+01 +3.0107061762e+01 +3.6934968340e+01 1.1038050269e+02 9.1188000000e+01 0.0000e+00 0.0000e+00
       25  1    1    2    0    0 +3.9974704195e+01 -3.0107061762e+01 -3.6934968340e+01 1.3961949731e+02 1.2500000000e+02 0.0000e+00 0.0000e+00
</event>
<event>
 4      1 +2.4014000e-01 2.50000000e+02 7.54677100e-03 1.02464900e-01
      -11 -1    0    0    0    0 +0.0000000000e+00 +0.0000000000e+00 +1.2500000000e+02 1.2500000000e+02 0.0000000000e+00 0.0000e+00 1.0000e+00
       11 -1    0    0    0    0 -0.0000000000e+00 -0.0000000000e+00 -1.2500000000e+02 1.2500000000e+02 0.0000000000e+00 0.0000e+00 -1.0000e+00
       23  1    1    2    0    0 +8.5609996171e+00 +4.2383569157e+01 +4.4709578177e+01 1.1038050269e+02 9.1188000000e+01 0.0000e+00 1.0000e+00
       25  1    1    2    0    0 -8.5609996171e+00 -4.2383569157e+01 -4.4709578177e+01 1.3961949731e+02 1.2500000000e+02 0.0000e+00 0.0000e+00
</event>
<event>
 4      1 +2.4014000e-01 2.50000000e+02 7.54677100e-03 1.02464900e-01
      -11 -1    0    0    0    0 +0.0000000000e+00 +0.0000000000e+00 +1.2500000000e+02 1.2500000000e+02 0.0000000000e+00 0.0000e+00 1.0000e+00
       11 -1    0    0    0    0 -0.0000000000e+00 -0.0000000000e+00 -1.2500000000e+02 1.2500000000e+02 0.0000000000e+00 0.0000e+00 -1.0000e+00
       23  1    1    2    0    0 -2.2626363849e+01 -5.3037283314e+01 -2.3317338341e+01 1.1038050269e+02 9.1188000000e+01 0.0000e+00 -1.0000e+00
       25  1    1    2    0    0 +2.2626363849e+01 +5.3037283314e+01 +2.3317338341e+01 1.3961949731e+02 1.2500000000e+02 0.0000e+00 0.0000e+00
</event>
<event>
 4      1 +2.4014000e-01 2.50000000e+02 7.54677100e-03 1.02464900e-01
      -11 -1    0    0    0    0 +0.0000000000e+00 +0.0000000000e+00 +1.2500000000e+02 1.2500000000e+02 0.0000000000e+00 0.0000e+00 1.0000e+00
       11 -1    0    0    0    0 -0.0000000000e+00 -0.0000000000e+00 -1.2500000000e+02 1.2500000000e+02 0.0000000000e+00 0.0000e+00 -1.0000e+00
       23  1    1    2    0    0 +5.8594686729e+01 +5.4636634612e+00 -2.0134922358e+01 1.1038050269e+02 9.1188000000e+01 0.0000e+00 -1.0000e+00
       25  1    1    2    0    0 -5.8594686729e+01 -5.4636634612e+00 +2.0134922358e+01 1.3961949731e+02 1.2500000000e+02 0.0000e+00 0.0000e+00
</event>
<event>
 4      1 +2.4014000e-01 2.50000000e+02 7.54677100e-03 1.02464900e-01
      -11 -1    0    0    0    0 +0.0000000000e+00 +0.0000000000e+00 +1.2500000000e+02 1.2500000000e+02 0.0000000000e+00 0.0000e+00 1.0000e+00
       11 -1    0    0    0    0 -0.0000000000e+00 -0.0000000000e+00 -1.2500000000e+02 1.2500000000e+02 0.0000000000e+00 0.0000e+00 -1.0000e+00
       23  1    1    2    0    0 -4.3795462175e+01 -2.3754350840e+01 -3.7232946952e+01 1.1038050269e+02 9.1188000000e+01 0.0000e+00 1.0000e+00
       25  1    1    2    0    0 +4.3795462175e+01 +2.3754350840e+01 +3.7232946952e+01 1.3961949731e+02 1.2500000000e+02 0.0000e+00 0.0000e+00
</event>
<event>
 4      1 +2.4014000e-01 2.50000000e+02 7.54677100e-03 1.02464900e-01
      -11 -1    0    0    0    0 +0.0000000000e+00 +0.0000000000e+00 +1.2500000000e+02 1.2500000000e+02 0.0000000000e+00 0.0000e+00 -1.0000e+00
       11 -1    0    0    0    0 -0.0000000000e+00 -0.0000000000e+00 -1.2500000000e+02 1.2500000000e+02 0.0000000000e+00 0.0000e+00 1.0000e+00
       23  1    1    2    0    0 +5.2158335073e+01 -1.3674271450e+01 -3.1002038842e+01 1.1038050269e+02 9.1188000000e+01 0.0000e+00 0.0000e+00
       25  1    1    2    0    0 -5.2158335073e+01 +1.3674271450e+01 +3.1002038842e+01 1.3961949731e+02 1.2500000000e+02 0.0000e+00 0.0000e+00
</event>
<event>
 4      1 +2.4014000e-01 2.50000000e+02 7.54677100e-03 1.02464900e-01
      -11 -1    0    0    0    0 +0.0000000000e+00 +0.0000000000e+00 +1.2500000000e+02 1.2500000000e+02 0.0000000000e+00 0.0000e+00 1.0000e+00
       11 -1    0    0    0    0 -0.0000000000e+00 -0.0000000000e+00 -1.2500000000e+02 1.2500000000e+02 0.0000000000e+00 0.0000e+00 -1.0000e+00
       23  1    1    2    0    0 -3.2665203380e+01 -4.5438077610e+01 -2.7147184401e+01 1.1038050269e+02 9.1188000000e+01 0.0000e+00 -1.0000e+00
       25  1    1    2    0    0 +3.2665203380e+01 +4.5438077610e+01 +2.7147184401e+01 1.3961949731e+02 1.2500000000e+02 0.0000e+00 0.0000e+00
</event>
<event>
 4      1 +2.4014000e-01 2.50000000e+02 7.54677100e-03 1.02464900e-01
      -11 -1    0    0    0    0 +0.0000000000e+00 +0.0000000000e+00 +1.2500000000e+02 1.2500000000e+02 0.0000000000e+00 0.0000e+00 1.0000e+00
       11 -1    0    0    0    0 -0.0000000000e+00 -0.0000000000e+00 -1.2500000000e+02 1.2500000000e+02 0.0000000000e+00 0.0000e+00 -1.0000e+00
       23  1    1    2    0    0 +4.7124323359e+01 +3.6802137090e+01 +1.7131984219e+01 1.1038050269e+02 9.1188000000e+01 0.0000e+00 0.0000e+00
       25  1    1    2    0    0 -4.7124323359e+01 -3.6802137090e+01 -1.7131984219e+01 1.3961949731e+02 1.2500000000e+02 0.0000e+00 0.0000e+00
</event>
<event>
 4      1 +2.4014000e-01 2.50000000e+02 7.54677100e-03 1.02464900e-01
      -11 -1    0    0    0    0 +0.0000000000e+00 +0.0000000000e+00 +1.2500000000e+02 1.2500000000e+02 0.0000000000e+00 0.0000e+00 1.0000e+00
       11 -1    0    0    0    0 -0.0000000000e+00 -0.0000000000e+00 -1.2500000000e+02 1.2500000000e+02 0.0000000000e+00 0.0000e+00 -1.0000e+00
       23  1    1    2    0    0 +2.7578889590e+01 +4.6497539770e+01 +3.0756912622e+01 1.1038050269e+02 9.1188000000e+01 0.0000e+00 0.0000e+00
       25  1    1    2    0    0 -2.7578889590e+01 -4.6497539770e+01 -3.0756912622e+01 1.3961949731e+02 1.2500000000e+02 0.0000e+00 0.0000e+00
</event>
<event>
 4      1 +2.4014000e-01 2.50000000e+02 7.54677100e-03 1.02464900e-01
      -11 -1    0    0    0    0 +0.0000000000e+00 +0.0000000000e+00 +1.2500000000e+02 1.2500000000e+02 0.0000000000e+00 0.0000e+00 1.0000e+00
       11 -1    0    0    0    0 -0.0000000000e+00 -0.0000000000e+00 -1.2500000000e+02 1.2500000000e+02 0.0000000000e+00 0.0000e+00 -1.0000e+00
       23  1    1    2    0    0 -2.8240505742e+01 -5.5387737037e+01 -1.8100969577e+00 1.1038050269e+02 9.1188000000e+01 0.0000e+00 0.0000e+00
       25  1    1    2    0    0 +2.8240505742e+01 +5.5387737037e+01 +1.8100969577e+00 1.3961949731e+02 1.2500000000e+02 0.0000e+00 0.0000e+00
</event>
<event>
 4      1 +2.4014000e-01 2.50000000e+02 7.54677100e-03 1.02464900e-01
      -11 -1    0    0    0    0 +0.0000000000e+00 +0.0000000000e+00 +1.2500000000e+02 1.2500000000e+02 0.0000000000e+00 0.0000e+00 -1.0000e+00
       11 -1    0    0    0    0 -0.0000000000e+00 -0.0000000000e+00 -1.2500000000e+02 1.2500000000e+02 0.0000000000e+00 0.0000e+00 1.0000e+00
       23  1    1    2    0    0 -2.4074848413e+01 +5.6841349102e+01 +7.6201532667e+00 1.1038050269e+02 9.1188000000e+01 0.0000e+00 0.0000e+00
       25  1    1    2    0    0 +2.4074848413e+01 -5.6841349102e+01 -7.6201532667e+00 1.3961949731e+02 1.2500000000e+02 0.0000e+00 0.0000e+00
</event>
<event>
 4      1 +2.4014000e-01 2.50000000e+02 7.54677100e-03 1.02464900e-01
      -11 -1    0    0    0    0 +0.0000000000e+00 +0.0000000000e+00 +1.2500000000e+02 1.2500000000e+02 0.0000000000e+00 0.0000e+00 1.0000e+00
       11 -1    0    0    0    0 -0.0000000000e+00 -0.0000000000e+00 -1.2500000000e+02 1.2500000000e+02 0.0000000000e+00 0.0000e+00 -1.0000e+00
       23  1    1    2    0    0 +3.5363032567e+01 +4.1364228796e+01 +3.0117445666e+01 1.1038050269e+02 9.1188000000e+01 0.0000e+00 1.0000e+00
       25  1    1    2    0    0 -3.5363032567e+01 -4.1364228796e+01 -3.0117445666e+01 1.3961949731e+02 1.2500000000e+02 0.0000e+00 0.0000e+00
</event>
<event>
 4      1 +2.4014000e-01 2.50000000e+02 7.54677100e-03 1.02464900e-01
      -11 -1    0    0    0    0 +0.0000000000e+00 +0.0000000000e+00 +1.2500000000e+02 1.2500000000e+02 0.0000000000e+00 0.0000e+00 -1.0000e+00
       11 -1    0    0    0    0 -0.0000000000e+00 -0.0000000000e+00 -1.2500000000e+02 1.2500000000e+02 0.0000000000e+00 0.0000e+00 1.0000e+00
       23  1    1    2    0    0 -2.1982024035e+01 +4.7198842745e+01 +3.4024460210e+01 1.1038050269e+02 9.1188000000e+01 0.0000e+00 0.0000e+00
       25  1    1    2    0    0 +2.1982024035e+01 -4.7198842745e+01 -3.4024460210e+01 1.3961949731e+02 1.2500000000e+02 0.0000e+00 0.0000e+00
</event>
<event>
 4      1 +2.4014000e-01 2.50000000e+02 7.54677100e-03 1.02464900e-01
      -11 -1    0    0    0    0 +0.0000000000e+00 +0.0000000000e+00 +1.2500000000e+02 1.2500000000e+02 0.0000000000e+00 0.0000e+00 -1.0000e+00
       11 -1    0    0    0    0 -0.0000000000e+00 -0.0000000000e+00 -1.2500000000e+02 1.2500000000e+02 0.0000000000e+00 0.0000e+00 1.0000e+00
       23  1    1    2    0    0 +2.2699749937e+01 +5.7727145272e+01 -4.5718793917e+00 1.1038050269e+02 9.1188000000e+01 0.0000e+00 -1.0000e+00
       25  1    1    2    0    0 -2.2699749937e+01 -5.7727145272e+01 +4.5718793917e+00 1.3961949731e+02 1.2500000000e+02 0.0000e+00 0.0000e+00
</event>
<event>
 4      1 +2.4014000e-01 2.50000000e+02 7.54677100e-03 1.02464900e-01
      -11 -1    0    0    0    0 +0.0000000000e+00 +0.0000000000e+00 +1.2500000000e+02 1.2500000000e+02 0.0000000000e+00 0.0000e+00 -1.0000e+00
       11 -1    0    0    0    0 -0.0000000000e+00 -0.0000000000e+00 -1.2500000000e+02 1.2500000000e+02 0.0000000000e+00 0.0000e+00 1.0000e+00
       23  1    1    2    0    0 -1.4384787049e+01 -1.7683454262e+01 -5.7870349719e+01 1.1038050269e+02 9.1188000000e+01 0.0000e+00 1.0000e+00
       25  1    1    2    0    0 +1.4384787049e+01 +1.7683454262e+01 +5.7870349719e+01 1.3961949731e+02 1.2500000000e+02 0.0000e+00 0.0000e+00
</event>
<event>
 4      1 +2.4014000e-01 2.50000000e+02 7.54677100e-03 1.02464900e-01
      -11 -1    0    0    0    0 +0.0000000000e+00 +0.0000000000e+00 +1.2500000000e+02 1.2500000000e+02 0.0000000000e+00 0.0000e+00 1.0000e+00
       11 -1    0    0    0    0 -0.0000000000e+00 -0.0000000000e+00 -1.2500000000e+02 1.2500000000e+02 0.0000000000e+00 0.0000e+00 -1.0000e+00
       23  1    1    2    0    0 +4.7052801772e+01 -3.6759968323e+01 +1.7416733447e+01 1.1038050269e+02 9.1188000000e+01 0.0000e+00 0.0000e+00
       25  1    1    2    0    0 -4.7052801772e+01 +3.6759968323e+01 -1.7416733447e+01 1.3961949731e+02 1.2500000000e+02 0.0000e+00 0.0000e+00
</event>
<event>
 4      1 +2.4014000e-01 2.50000000e+02 7.54677100e-03 1.02464900e-01
      -11 -1    0    0    0    0 +0.0000000000e+00 +0.0000000000e+00 +1.2500000000e+02 1.2500000000e+02 0.0000000000e+00 0.0000e+00 -1.0000e+00
       11 -1    0    0    0    0 -0.0000000000e+00 -0.0000000000e+00 -1.2500000000e+02 1.2500000000e+02 0.0000000000e+00 0.0000e+00 1.0000e+00
       23  1    1    2    0    0 +1.7145422033e+01 -5.1298800107e+01 -3.0709471513e+01 1.1038050269e+02 9.1188000000e+01 0.0000e+00 0.0000e+00
       25  1    1    2    0    0 -1.7145422033e+01 +5.1298800107e+01 +3.0709471513e+01 1.3961949731e+02 1.2500000000e+02 0.0000e+00 0.0000e+00
</event>
<event>
 4      1 +2.4014000e-01 2.50000000e+02 7.54677100e-03 1.02464900e-01
      -11 -1    0    0    0    0 +0.0000000000e+00 +0.0000000000e+00 +1.2500000000e+02 1.2500000000e+02 0.0000000000e+00 0.0000e+00 1.0000e+00
       11 -1    0    0    0    0 -0.0000000000e+00 -0.0000000000e+00 -1.2500000000e+02 1.2500000000e+02 0.0000000000e+00 0.0000e+00 -1.0000e+00
       23  1    1    2    0    0 -4.5339038807e+00 -6.2030573611e+01 -5.0565076250e-01 1.1038050269e+02 9.1188000000e+01 0.0000e+00 0.0000e+00
       25  1    1    2    0    0 +4.5339038807e+00 +6.2030573611e+01 +5.0565076250e-01 1.3961949731e+02 1.2500000000e+02 0.0000e+00 0.0000e+00
</event>
<event>
 4      1 +2.4014000e-01 2.50000000e+02 7.54677100e-03 1.02464900e-01
      -11 -1    0    0    0    0 +0.0000000000e+00 +0.0000000000e+00 +1.2500000000e+02 1.2500000000e+02 0.0000000000e+00 0.0000e+00 -1.0000e+00
       11 -1    0    0    0    0 -0.0000000000e+00 -0.0000000000e+00 -1.2500000000e+02 1.2500000000e+02 0.0000000000e+00 0.0000e+00 1.0000e+00
       23  1    1    2    0    0 +2.4766899754e+01 +5.4127237906e+01 -1.8040144759e+01 1.1038050269e+02 9.1188000000e+01 0.0000e+00 0.0000e+00
       25  1    1    2    0    0 -2.4766899754e+01 -5.4127237906e+01 +1.8040144759e+01 1.3961949731e+02 1.2500000000e+02 0.0000e+00 0.0000e+00
</event>
<event>
 4      1 +2.4014000e-01 2.50000000e+02 7.54677100e-03 1.02464900e-01
      -11 -1    0    0    0    0 +0.0000000000e+00 +0.0000000000e+00 +1.2500000000e+02 1.2500000000e+02 0.0000000000e+00 0.0000e+00 1.0000e+00
       11 -1    0    0    0    0 -0.0000000000e+00 -0.0000000000e+00 -1.2500000000e+02 1.2500000000e+02 0.0000000000e+00 0.0000e+00 -1.0000e+00
       23  1    1    2    0    0 +3.7833900344e+01 +5.0042151300e-01 +4.9365469640e+01 1.1038050269e+02 9.1188000000e+01 0.0000e+00 1.0000e+00
       25  1    1    2    0    0 -3.7833900344e+01 -5.0042151300e-01 -4.9365469640e+01 1.3961949731e+02 1.2500000000e+02 0.0000e+00 0.0000e+00
</event>
<event>
 4      1 +2.4014000e-01 2.50000000e+02 7.54677100e-03 1.02464900e-01
      -11 -1    0    0    0    0 +0.0000000000e+00 +0.0000000000e+00 +1.2500000000e+02 1.2500000000e+02 0.0000000000e+00 0.0000e+00 1.0000e+00
       11 -1    0    0    0    0 -0.0000000000e+00 -0.0000000000e+00 -1.2500000000e+02 1.2500000000e+02 0.0000000000e+00 0.0000e+00 -1.0000e+00
       23  1    1    2    0    0 -2.8824521801e+01 +3.5656512133e+01 -4.2028134804e+01 1.1038050269e+02 9.1188000000e+01 0.0000e+00 0.0000e+00
       25  1    1    2    0    0 +2.8824521801e+01 -3.5656512133e+01 +4.2028134804e+01 1.3961949731e+02 1.2500000000e+02 0.0000e+00 0.0000e+00
</event>
<event>
 4      1 +2.4014000e-01 2.50000000e+02 7.54677100e-03 1.02464900e-01
      -11 -1    0    0    0    0 +0.0000000000e+00 +0.0000000000e+00 +1.2500000000e+02 1.2500000000e+02 0.0000000000e+00 0.0000e+00 1.0000e+00
       11 -1    0    0    0    0 -0.0000000000e+00 -0.0000000000e+00 -1.2500000000e+02 1.2500000000e+02 0.0000000000e+00 0.0000e+00 -1.0000e+00
       23  1    1    2    0    0 +5.4518250900e+01 +1.5855206406e+01 -2.5396393018e+01 1.1038050269e+02 9.1188000000e+01 0.0000e+00 -1.0000e+00
       25  1    1    2    0    0 -5.4518250900e+01 -1.5855206406e+01 +2.5396393018e+01 1.3961949731e+02 1.2500000000e+02 0.0000e+00 0.0000e+00
</event>
<event>
 4      1 +2.4014000e-01 2.50000000e+02 7.54677100e-03 1.02464900e-01
      -11 -1    0    0    0    0 +0.0000000000e+00 +0.0000000000e+00 +1.2500000000e+02 1.2500000000e+02 0.0000000000e+00 0.0000e+00 1.0000e+00
       11 -1    0    0    0    0 -0.0000000000e+00 -0.0000000000e+00 -1.2500000000e+02 1.2500000000e+02 0.0000000000e+00 0.0000e+00 -1.0000e+00
       23  1    1    2    0    0 +1.8925261792e+01 +5.8184471769e+01 +1.1180596619e+01 1.1038050269e+02 9.1188000000e+01 0.0000e+00 0.0000e+00
       25  1    1    2    0    0 -1.8925261792e+01 -5.8184471769e+01 -1.1180596619e+01 1.3961949731e+02 1.2500000000e+02 0.0000e+00 0.0000e+00
</event>
<event>
 4      1 +2.4014000e-01 2.50000000e+02 7.54677100e-03 1.02464900e-01
      -11 -1    0    0    0    0 +0.0000000000e+00 +0.0000000000e+00 +1.2500000000e+02 1.2500000000e+02 0.0000000000e+00 0.0000e+00 1.0000e+00
       11 -1    0    0    0    0 -0.0000000000e+00 -0.0000000000e+00 -1.2500000000e+02 1.2500000000e+02 0.0000000000e+00 0.0000e+00 -1.0000e+00
       23  1    1    2    0    0 +3.6637569070e+01 +6.7260872215e-01 -5.0257737313e+01 1.1038050269e+02 9.1188000000e+01 0.0000e+00 -1.0000e+00
       25  1    1    2    0    0 -3.6637569070e+01 -6.7260872215e-01 +5.0257737313e+01 1.3961949731e+02 1.2500000000e+02 0.0000e+00 0.0000e+00
</event>
<event>
 4      1 +2.4014000e-01 2.50000000e+02 7.54677100e-03 1.02464900e-01
      -11 -1    0    0    0    0 +0.0000000000e+00 +0.0000000000e+00 +1.2500000000e+02 1.2500000000e+02 0.0000000000e+00 0.0000e+00 1.0000e+00
       11 -1    0    0    0    0 -0.0000000000e+00 -0.0000000000e+00 -1.2500000000e+02 1.2500000000e+02 0.0000000000e+00 0.0000e+00 -1.0000e+00
       23  1    1    2    0    0 -2.2392451329e+01 -5.2689865073e+01 +2.4309674447e+01 1.1038050269e+02 9.1188000000e+01 0.0000e+00 0.0000e+00
       25  1    1    2    0    0 +2.2392451329e+01 +5.2689865073e+01 -2.4309674447e+01 1.3961949731e+02 1.2500000000e+02 0.0000e+00 0.0000e+00
</event>
<event>
 4      1 +2.4014000e-01 2.50000000e+02 7.54677100e-03 1.02464900e-01
      -11 -1    0    0    0    0 +0.0000000000e+00 +0.0000000000e+00 +1.2500000000e+02 1.2500000000e+02 0.0000000000e+00 0.0000e+00 1.0000e+00
       11 -1    0    0    0    0 -0.0000000000e+00 -0.0000000000e+00 -1.2500000000e+02 1.2500000000e+02 0.0000000000e+00 0.0000e+00 -1.0000e+00
       23  1    1    2    0    0 +3.2809088168e+01 -2.4194008628e+01 +4.6976778410e+01 1.1038050269e+02 9.1188000000e+01 0.0000e+00 0.0000e+00
       25  1    1    2    0    0 -3.2809088168e+01 +2.4194008628e+01 -4.6976778410e+01 1.3961949731e+02 1.2500000000e+02 0.0000e+00 0.0000e+00
</event>
<event>
 4      1 +2.4014000e-01 2.50000000e+02 7.54677100e-03 1.02464900e-01
      -11 -1    0    0    0    0 +0.0000000000e+00 +0.0000000000e+00 +1.2500000000e+02 1.2500000000e+02 0.0000000000e+00 0.0000e+00 -1.0000e+00
       11 -1    0    0    0    0 -0.0000000000e+00 -0.0000000000e+00 -1.2500000000e+02 1.2500000000e+02 0.0000000000e+00 0.0000e+00 1.0000e+00
       23  1    1    2    0    0 +1.1359020837e+01 +2.0983620898e+01 +5.7439222917e+01 1.1038050269e+02 9.1188000000e+01 0.0000e+00 -1.0000e+00
       25  1    1    2    0    0 -1.1359020837e+01 -2.0983620898e+01 -5.7439222917e+01 1.3961949731e+02 1.2500000000e+02 0.0000e+00 0.0000e+00
</event>
<event>
 4      1 +2.4014000e-01 2.50000000e+02 7.54677100e-03 1.02464900e-01
      -11 -1    0    0    0    0 +0.0000000000e+00 +0.0000000000e+00 +1.2500000000e+02 1.2500000000e+02 0.0000000000e+00 0.0000e+00 1.0000e+00
       11 -1    0    0    0    0 -0.0000000000e+00 -0.0000000000e+00 -1.2500000000e+02 1.2500000000e+02 0.0000000000e+00 0.0000e+00 -1.0000e+00
       23  1    1    2    0    0 -3.9902410772e+01 +4.9456782374e+00 +4.7454630027e+01 1.1038050269e+02 9.1188000000e+01 0.0000e+00 1.0000e+00
       25  1    1    2    0    0 +3.9902410772e+01 -4.9456782374e+00 -4.7454630027e+01 1.3961949731e+02 1.2500000000e+02 0.0000e+00 0.0000e+00
</event>
<event>
 4      1 +2.4014000e-01 2.50000000e+02 7.54677100e-03 1.02464900e-01
      -11 -1    0    0    0    0 +0.0000000000e+00 +0.0000000000e+00 +1.2500000000e+02 1.2500000000e+02 0.0000000000e+00 0.0000e+00 1.0000e+00
       11 -1    0    0    0    0 -0.0000000000e+00 -0.0000000000e+00 -1.2500000000e+02 1.2500000000e+02 0.0000000000e+00 0.0000e+00 -1.0000e+00
       23  1    1    2    0    0 +3.0972391165e+01 +4.9182104635e+01 +2.2145780611e+01 1.1038050269e+02 9.1188000000e+01 0.0000e+00 1.0000e+00
       25  1    1    2    0    0 -3.0972391165e+01 -4.9182104635e+01 -2.2145780611e+01 1.3961949731e+02 1.2500000000e+02 0.0000e+00 0.0000e+00
</event>
<event>
 4      1 +2.4014000e-01 2.50000000e+02 7.54677100e-03 1.02464900e-01
      -11 -1    0    0    0    0 +0.0000000000e+00 +0.0000000000e+00 +1.2500000000e+02 1.2500000000e+02 0.0000000000e+00 0.0000e+00 1.0000e+00
       11 -1    0    0    0    0 -0.0000000000e+00 -0.0000000000e+00 -1.2500000000e+02 1.2500000000e+02 0.0000000000e+00 0.0000e+00 -1.0000e+00
       23  1    1    2    0    0 -5.2157795175e+01 -2.6970693849e+01 -2.0512194067e+01 1.1038050269e+02 9.1188000000e+01 0.0000e+00 0.0000e+00
       25  1    1    2    0    0 +5.2157795175e+01 +2.6970693849e+01 +2.0512194067e+01 1.3961949731e+02 1.2500000000e+02 0.0000e+00 0.0000e+00
</event>
<event>
 4      1 +2.4014000e-01 2.50000000e+02 7.54677100e-03 1.02464900e-01
      -11 -1    0    0    0    0 +0.0000000000e+00 +0.0000000000e+00 +1.2500000000e+02 1.2500000000e+02 0.0000000000e+00 0.0000e+00 1.0000e+00
       11 -1    0    0    0    0 -0.0000000000e+00 -0.0000000000e+00 -1.2500000000e+02 1.2500000000e+02 0.0000000000e+00 0.0000e+00 -1.0000e+00
       23  1    1    2    0    0 -1.4322658881e+01 -5.9996155285e+01 +7.9954251422e+00 1.1038050269e+02 9.1188000000e+01 0.0000e+00 -1.0000e+00
       25  1    1    2    0    0 +1.4322658881e+01 +5.9996155285e+01 -7.9954251422e+00 1.3961949731e+02 1.2500000000e+02 0.0000e+00 0.0000e+00
</event>
<event>
 4      1 +2.4014000e-01 2.50000000e+02 7.54677100e-03 1.02464900e-01
      -11 -1    0    0    0    0 +0.0000000000e+00 +0.0000000000e+00 +1.2500000000e+02 1.2500000000e+02 0.0000000000e+00 0.0000e+00 1.0000e+00
       11 -1    0    0    0    0 -0.0000000000e+00 -0.0000000000e+00 -1.2500000000e+02 1.2500000000e+02 0.0000000000e+00 0.0000e+00 -1.0000e+00
       23  1    1    2    0    0 +5.9267012537e+01 +2.4590853791e-02 -1.8868615474e+01 1.1038050269e+02 9.1188000000e+01 0.0000e+00 0.0000e+00
       25  1    1    2    0    0 -5.9267012537e+01 -2.4590853791e-02 +1.8868615474e+01 1.3961949731e+02 1.2500000000e+02 0.0000e+00 0.0000e+00
</event>
<event>
 4      1 +2.4014000e-01 2.50000000e+02 7.54677100e-03 1.02464900e-01
      -11 -1    0    0    0    0 +0.0000000000e+00 +0.0000000000e+00 +1.2500000000e+02 1.2500000000e+02 0.0000000000e+00 0.0000e+00 1.0000e+00
       11 -1    0    0    0    0 -0.0000000000e+00 -0.0000000000e+00 -1.2500000000e+02 1.2500000000e+02 0.0000000000e+00 0.0000e+00 -1.0000e+00
       23  1    1    2    0    0 -5.5738730230e+01 -2.2050866860e+01 +1.6599917250e+01 1.1038050269e+02 9.1188000000e+01 0.0000e+00 1.0000e+00
       25  1    1    2    0    0 +5.5738730230e+01 +2.2050866860e+01 -1.6599917250e+01 1.3961949731e+02 1.2500000000e+02 0.0000e+00 0.0000e+00
</event>
<event>
 4      1 +2.4014000e-01 2.50000000e+02 7.54677100e-03 1.02464900e-01
      -11 -1    0    0    0    0 +0.0000000000e+00 +0.0000000000e+00 +1.2500000000e+02 1.2500000000e+02 0.0000000000e+00 0.0000e+00 1.0000e+00
       11 -1    0    0    0    0 -0.0000000000e+00 -0.0000000000e+00 -1.2500000000e+02 1.2500000000e+02 0.0000000000e+00 0.0000e+00 -1.0000e+00
       23  1    1    2    0    0 -4.9409992111e+01 -3.5733232541e+01 -1.2263474279e+01 1.1038050269e+02 9.1188000000e+01 0.0000e+00 0.0000e+00
       25  1    1    2    0    0 +4.9409992111e+01 +3.5733232541e+01 +1.2263474279e+01 1.3961949731e+02 1.2500000000e+02 0.0000e+00 0.0000e+00
</event>
<event>
 4      1 +2.4014000e-01 2.50000000e+02 7.54677100e-03 1.02464900e-01
      -11 -1    0    0    0    0 +0.0000000000e+00 +0.0000000000e+00 +1.2500000000e+02 1.2500000000e+02 0.0000000000e+00 0.0000e+00 1.0000e+00
       11 -1    0    0    0    0 -0.0000000000e+00 -0.0000000000e+00 -1.2500000000e+02 1.2500000000e+02 0.0000000000e+00 0.0000e+00 -1.0000e+00
       23  1    1    2    0    0 -4.7055191707e+01 -4.0439674538e+01 -4.3641363774e+00 1.1038050269e+02 9.1188000000e+01 0.0000e+00 0.0000e+00
       25  1    1    2    0    0 +4.7055191707e+01 +4.0439674538e+01 +4.3641363774e+00 1.3961949731e+02 1.2500000000e+02 0.0000e+00 0.0000e+00
</event>
<event>
 4      1 +2.4014000e-01 2.50000000e+02 7.54677100e-03 1.02464900e-01
      -11 -1    0    0    0    0 +0.0000000000e+00 +0.0000000000e+00 +1.2500000000e+02 1.2500000000e+02 0.0000000000e+00 0.0000e+00 -1.0000e+00
       11 -1    0    0    0    0 -0.0000000000e+00 -0.0000000000e+00 -1.2500000000e+02 1.2500000000e+02 0.0000000000e+00 0.0000e+00 1.0000e+00
       23  1    1    2    0    0 -4.0805876843e+01 +4.2291799292e+01 -2.0368803534e+01 1.1038050269e+02 9.1188000000e+01 0.0000e+00 -1.0000e+00
       25  1    1    2    0    0 +4.0805876843e+01 -4.2291799292e+01 +2.0368803534e+01 1.3961949731e+02 1.2500000000e+02 0.0000e+00 0.0000e+00
</event>
<event>
 4      1 +2.4014000e-01 2.50000000e+02 7.54677100e-03 1.02464900e-01
      -11 -1    0    0    0    0 +0.0000000000e+00 +0.0000000000e+00 +1.2500000000e+02 1.2500000000e+02 0.0000000000e+00 0.0000e+00 1.0000e+00
       11 -1    0    0    0    0 -0.0000000000e+00 -0.0000000000e+00 -1.2500000000e+02 1.2500000000e+02 0.0000000000e+00 0.0000e+00 -1.0000e+00
       23  1    1    2    0    0 -3.5484630141e+01 -3.7897223890e+01 +3.4252671062e+01 1.1038050269e+02 9.1188000000e+01 0.0000e+00 0.0000e+00
       25  1    1    2    0    0 +3.5484630141e+01 +3.7897223890e+01 -3.4252671062e+01 1.3961949731e+02 1.2500000000e+02 0.0000e+00 0.0000e+00
</event>
<event>
 4      1 +2.4014000e-01 2.50000000e+02 7.54677100e-03 1.02464900e-01
      -11 -1    0    0    0    0 +0.0000000000e+00 +0.0000000000e+00 +1.2500000000e+02 1.2500000000e+02 0.0000000000e+00 0.0000e+00 1.0000e+00
       11 -1    0    0    0    0 -0.0000000000e+00 -0.0000000000e+00 -1.2500000000e+02 1.2500000000e+02 0.0000000000e+00 0.0000e+00 -1.0000e+00
       23  1    1    2    0    0 -4.1763366935e+00 -4.6685134336e+01 +4.0885944694e+01 1.1038050269e+02 9.1188000000e+01 0.0000e+00 1.0000e+00
       25  1    1    2    0    0 +4.1763366935e+00 +4.6685134336e+01 -4.0885944694e+01 1.3961949731e+02 1.2500000000e+02 0.0000e+00 0.0000e+00
</event>
<event>
 4      1 +2.4014000e-01 2.50000000e+02 7.54677100e-03 1.02464900e-01
      -11 -1    0    0    0    0 +0.0000000000e+00 +0.0000000000e+00 +1.2500000000e+02 1.2500000000e+02 0.0000000000e+00 0.0000e+00 1.0000e+00
       11 -1    0    0    0    0 -0.0000000000e+00 -0.0000000000e+00 -1.2500000000e+02 1.2500000000e+02 0.0000000000e+00 0.0000e+00 -1.0000e+00
       23  1    1    2    0    0 -2.1891183360e+01 +2.3287576629e+01 +5.3357931890e+01 1.1038050269e+02 9.1188000000e+01 0.0000e+00 1.0000e+00
       25  1    1    2    0    0 +2.1891183360e+01 -2.3287576629e+01 -5.3357931890e+01 1.3961949731e+02 1.2500000000e+02 0.0000e+00 0.0000e+00
</event>
<event>
 4      1 +2.4014000e-01 2.50000000e+02 7.54677100e-03 1.02464900e-01
      -11 -1    0    0    0    0 +0.0000000000e+00 +0.0000000000e+00 +1.2500000000e+02 1.2500000000e+02 0.0000000000e+00 0.0000e+00 1.0000e+00
       11 -1    0    0    0    0 -0.0000000000e+00 -0.0000000000e+00 -1.2500000000e+02 1.2500000000e+02 0.0000000000e+00 0.0000e+00 -1.0000e+00
       23  1    1    2    0    0 -1.0668522931e+01 -5.1407421246e+01 +3.3347618940e+01 1.1038050269e+02 9.1188000000e+01 0.0000e+00 1.0000e+00
       25  1    1    2    0    0 +1.0668522931e+01 +5.1407421246e+01 -3.3347618940e+01 1.3961949731e+02 1.2500000000e+02 0.0000e+00 0.0000e+00
</event>
<event>
 4      1 +2.4014000e-01 2.50000000e+02 7.54677100e-03 1.02464900e-01
      -11 -1    0    0    0    0 +0.0000000000e+00 +0.0000000000e+00 +1.2500000000e+02 1.2500000000e+02 0.0000000000e+00 0.0000e+00 1.0000e+00
       11 -1    0    0    0    0 -0.0000000000e+00 -0.0000000000e+00 -1.2500000000e+02 1.2500000000e+02 0.0000000000e+00 0.0000e+00 -1.0000e+00
       23  1    1    2    0    0 +2.1023265350e+01 +1.8551476813e+01 +5.5519987858e+01 1.1038050269e+02 9.1188000000e+01 0.0000e+00 1.0000e+00
       25  1    1    2    0    0 -2.1023265350e+01 -1.8551476813e+01 -5.5519987858e+01 1.3961949731e+02 1.2500000000e+02 0.0000e+00 0.0000e+00
</event>
<event>
 4      1 +2.4014000e-01 2.50000000e+02 7.54677100e-03 1.02464900e-01
      -11 -1    0    0    0    0 +0.0000000000e+00 +0.0000000000e+00 +1.2500000000e+02 1.2500000000e+02 0.0000000000e+00 0.0000e+00 1.0000e+00
       11 -1    0    0    0    0 -0.0000000000e+00 -0.0000000000e+00 -1.2500000000e+02 1.2500000000e+02 0.0000000000e+00 0.0000e+00 -1.0000e+00
       23  1    1    2    0    0 +2.0336779400e+01 -6.4348462079e+00 -5.8426125899e+01 1.1038050269e+02 9.1188000000e+01 0.0000e+00 -1.0000e+00
       25  1    1    2    0    0 -2.0336779400e+01 +6.4348462079e+00 +5.8426125899e+01 1.3961949731e+02 1.2500000000e+02 0.0000e+00 0.0000e+00
</event>
<event>
 4      1 +2.4014000e-01 2.50000000e+02 7.54677100e-03 1.02464900e-01
      -11 -1    0    0    0    0 +0.0000000000e+00 +0.0000000000e+00 +1.2500000000e+02 1.2500000000e+02 0.0000000000e+00 0.0000e+00 1.0000e+00
       11 -1    0    0    0    0 -0.0000000000e+00 -0.0000000000e+00 -1.2500000000e+02 1.2500000000e+02 0.0000000000e+00 0.0000e+00 -1.0000e+00
       23  1    1    2    0    0 -3.3868423141e+01 +5.0566143230e+01 +1.2829618171e+01 1.1038050269e+02 9.1188000000e+01 0.0000e+00 1.0000e+00
       25  1    1    2    0    0 +3.3868423141e+01 -5.0566143230e+01 -1.2829618171e+01 1.3961949731e+02 1.2500000000e+02 0.0000e+00 0.0000e+00
</event>
<event>
 4      1 +2.4014000e-01 2.50000000e+02 7.54677100e-03 1.02464900e-01
      -11 -1    0    0    0    0 +0.0000000000e+00 +0.0000000000e+00 +1.2500000000e+02 1.2500000000e+02 0.0000000000e+00 0.0000e+00 -1.0000e+00
       11 -1    0    0    0    0 -0.0000000000e+00 -0.0000000000e+00 -1.2500000000e+02 1.2500000000e+02 0.0000000000e+00 0.0000e+00 1.0000e+00
       23  1    1    2    0    0 -3.2862187063e-01 -1.6350316923e-01 -6.2197020058e+01 1.1038050269e+02 9.1188000000e+01 0.0000e+00 1.0000e+00
       25  1    1    2    0    0 +3.2862187063e-01 +1.6350316923e-01 +6.2197020058e+01 1.3961949731e+02 1.2500000000e+02 0.0000e+00 0.0000e+00
</event>
<event>
 4      1 +2.4014000e-01 2.50000000e+02 7.54677100e-03 1.02464900e-01
      -11 -1    0    0    0    0 +0.0000000000e+00 +0.0000000000e+00 +1.2500000000e+02 1.2500000000e+02 0.0000000000e+00 0.0000e+00 -1.0000e+00
       11 -1    0    0    0    0 -0.0000000000e+00 -0.0000000000e+00 -1.2500000000e+02 1.2500000000e+02 0.0000000000e+00 0.0000e+00 1.0000e+00
       23  1    1    2    0    0 -3.5439390214e+01 +4.7732411948e+01 -1.8283065949e+01 1.1038050269e+02 9.1188000000e+01 0.0000e+00 0.0000e+00
       25  1    1    2    0    0 +3.5439390214e+01 -4.7732411948e+01 +1.8283065949e+01 1.3961949731e+02 1.2500000000e+02 0.0000e+00 0.0000e+00
</event>
<event>
 4      1 +2.4014000e-01 2.50000000e+02 7.54677100e-03 1.02464900e-01
      -11 -1    0    0    0    0 +0.0000000000e+00 +0.0000000000e+00 +1.2500000000e+02 1.2500000000e+02 0.0000000000e+00 0.0000e+00 1.0000e+00
       11 -1    0    0    0    0 -0.0000000000e+00 -0.0000000000e+00 -1.2500000000e+02 1.2500000000e+02 0.0000000000e+00 0.0000e+00 -1.0000e+00
       23  1    1    2    0    0 +1.6061047235e+01 +5.8567048347e+01 -1.3436801678e+01 1.1038050269e+02 9.1188000000e+01 0.0000e+00 1.0000e+00
       25  1    1    2    0    0 -1.6061047235e+01 -5.8567048347e+01 +1.3436801678e+01 1.3961949731e+02 1.2500000000e+02 0.0000e+00 0.0000e+00
</event>
<event>
 4      1 +2.4014000e-01 2.50000000e+02 7.54677100e-03 1.02464900e-01
      -11 -1    0    0    0    0 +0.0000000000e+00 +0.0000000000e+00 +1.2500000000e+02 1.2500000000e+02 0.0000000000e+00 0.0000e+00 -1.0000e+00
       11 -1    0    0    0    0 -0.0000000000e+00 -0.0000000000e+00 -1.2500000000e+02 1.2500000000e+02 0.0000000000e+00 0.0000e+00 1.0000e+00
       23  1    1    2    0    0 +6.3172501663e+00 -6.1298675842e+01 +8.4361555235e+00 1.1038050269e+02 9.1188000000e+01 0.0000e+00 0.0000e+00
       25  1    1    2    0    0 -6.3172501663e+00 +6.1298675842e+01 -8.4361555235e+00 1.3961949731e+02 1.2500000000e+02 0.0000e+00 0.0000e+00
</event>
<event>
 4      1 +2.4014000e-01 2.50000000e+02 7.54677100e-03 1.02464900e-01
      -11 -1    0    0    0    0 +0.0000000000e+00 +0.0000000000e+00 +1.2500000000e+02 1.2500000000e+02 0.0000000000e+00 0.0000e+00 1.0000e+00
       11 -1    0    0    0    0 -0.0000000000e+00 -0.0000000000e+00 -1.2500000000e+02 1.2500000000e+02 0.0000000000e+00 0.0000e+00 -1.0000e+00
       23  1    1    2    0    0 -1.6362691344e+01 +5.5029416145e+01 +2.3929682832e+01 1.1038050269e+02 9.1188000000e+01 0.0000e+00 0.0000e+00
       25  1    1    2    0    0 +1.6362691344e+01 -5.5029416145e+01 -2.3929682832e+01 1.3961949731e+02 1.2500000000e+02 0.0000e+00 0.0000e+00
</event>
<event>
 4      1 +2.4014000e-01 2.50000000e+02 7.54677100e-03 1.02464900e-01
      -11 -1    0    0    0    0 +0.0000000000e+00 +0.0000000000e+00 +1.2500000000e+02 1.2500000000e+02 0.0000000000e+00 0.0000e+00 1.0000e+00
       11 -1    0    0    0    0 -0.0000000000e+00 -0.0000000000e+00 -1.2500000000e+02 1.2500000000e+02 0.0000000000e+00 0.0000e+00 -1.0000e+00
       23  1    1    2    0    0 -5.7667930498e+01 -1.9923325588e+01 +1.2086145758e+01 1.1038050269e+02 9.1188000000e+01 0.0000e+00 0.0000e+00
       25  1    1    2    0    0 +5.7667930498e+01 +1.9923325588e+01 -1.2086145758e+01 1.3961949731e+02 1.2500000000e+02 0.0000e+00 0.0000e+00
</event>
<event>
 4      1 +2.4014000e-01 2.50000000e+02 7.54677100e-03 1.02464900e-01
      -11 -1    0    0    0    0 +0.0000000000e+00 +0.0000000000e+00 +1.2500000000e+02 1.2500000000e+02 0.0000000000e+00 0.0000e+00 -1.0000e+00
       11 -1    0    0    0    0 -0.0000000000e+00 -0.0000000000e+00 -1.2500000000e+02 1.2500000000e+02 0.0000000000e+00 0.0000e+00 1.0000e+00
       23  1    1    2    0    0 +1.3511985849e+01 +6.0698471639e+01 +1.3137004004e+00 1.1038050269e+02 9.1188000000e+01 0.0000e+00 0.0000e+00
       25  1    1    2    0    0 -1.3511985849e+01 -6.0698471639e+01 -1.3137004004e+00 1.3961949731e+02 1.2500000000e+02 0.0000e+00 0.0000e+00
</event>
<event>
 4      1 +2.4014000e-01 2.50000000e+02 7.54677100e-03 1.02464900e-01
      -11 -1    0    0    0    0 +0.0000000000e+00 +0.0000000000e+00 +1.2500000000e+02 1.2500000000e+02 0.0000000000e+00 0.0000e+00 -1.0000e+00
       11 -1    0    0    0    0 -0.0000000000e+00 -0.0000000000e+00 -1.2500000000e+02 1.2500000000e+02 0.0000000000e+00 0.0000e+00 1.0000e+00
       23  1    1    2    0    0 +2.9509838847e+01 +5.3326427256e+01 -1.2412316341e+01 1.1038050269e+02 9.1188000000e+01 0.0000e+00 0.0000e+00
       25  1    1    2    0    0 -2.9509838847e+01 -5.3326427256e+01 +1.2412316341e+01 1.3961949731e+02 1.2500000000e+02 0.0000e+00 0.0000e+00
</event>
<event>
 4      1 +2.4014000e-01 2.50000000e+02 7.54677100e-03 1.02464900e-01
      -11 -1    0    0    0    0 +0.0000000000e+00 +0.0000000000e+00 +1.2500000000e+02 1.2500000000e+02 0.0000000000e+00 0.0000e+00 1.0000e+00
       11 -1    0    0    0    0 -0.0000000000e+00 -0.0000000000e+00 -1.2500000000e+02 1.2500000000e+02 0.0000000000e+00 0.0000e+00 -1.0000e+00
       23  1    1    2    0    0 +5.6421141770e+01 +2.5691309463e+01 -5.0214947129e+00 1.1038050269e+02 9.1188000000e+01 0.0000e+00 0.0000e+00
       25  1    1    2    0    0 -5.6421141770e+01 -2.5691309463e+01 +5.0214947129e+00 1.3961949731e+02 1.2500000000e+02 0.0000e+00 0.0000e+00
</event>
<event>
 4      1 +2.4014000e-01 2.50000000e+02 7.54677100e-03 1.02464900e-01
      -11 -1    0    0    0    0 +0.0000000000e+00 +0.0000000000e+00 +1.2500000000e+02 1.2500000000e+02 0.0000000000e+00 0.0000e+00 1.0000e+00
       11 -1    0    0    0    0 -0.0000000000e+00 -0.0000000000e+00 -1.2500000000e+02 1.2500000000e+02 0.0000000000e+00 0.0000e+00 -1.0000e+00
       23  1    1    2    0    0 +2.5302613073e+01 +5.2224378340e+01 +2.2382942353e+01 1.1038050269e+02 9.1188000000e+01 0.0000e+00 0.0000e+00
       25  1    1    2    0    0 -2.5302613073e+01 -5.2224378340e+01 -2.2382942353e+01 1.3961949731e+02 1.2500000000e+02 0.0000e+00 0.0000e+00
</event>
<event>
 4      1 +2.4014000e-01 2.50000000e+02 7.54677100e-03 1.02464900e-01
      -11 -1    0    0    0    0 +0.0000000000e+00 +0.0000000000e+00 +1.2500000000e+02 1.2500000000e+02 0.0000000000e+00 0.0000e+00 -1.0000e+00
       11 -1    0    0    0    0 -0.0000000000e+00 -0.0000000000e+00 -1.2500000000e+02 1.2500000000e+02 0.0000000000e+00 0.0000e+00 1.0000e+00
       23  1    1    2    0    0 +4.5486633086e+01 -2.0485129183e+01 +3.7147405327e+01 1.1038050269e+02 9.1188000000e+01 0.0000e+00 -1.0000e+00
       25  1    1    2    0    0 -4.5486633086e+01 +2.0485129183e+01 -3.7147405327e+01 1.3961949731e+02 1.2500000000e+02 0.0000e+00 0.0000e+00
</event>
<event>
 4      1 +2.4014000e-01 2.50000000e+02 7.54677100e-03 1.02464900e-01
      -11 -1    0    0    0    0 +0.0000000000e+00 +0.0000000000e+00 +1.2500000000e+02 1.2500000000e+02 0.0000000000e+00 0.0000e+00 -1.0000e+00
       11 -1    0    0    0    0 -0.0000000000e+00 -0.0000000000e+00 -1.2500000000e+02 1.2500000000e+02 0.0000000000e+00 0.0000e+00 1.0000e+00
       23  1    1    2    0    0 +3.5353674167e+01 -5.1157707953e+01 +1.2691215634e+00 1.1038050269e+02 9.1188000000e+01 0.0000e+00 -1.0000e+00
       25  1    1    2    0    0 -3.5353674167e+01 +5.1157707953e+01 -1.2691215634e+00 1.3961949731e+02 1.2500000000e+02 0.0000e+00 0.0000e+00
</event>
<event>
 4      1 +2.4014000e-01 2.50000000e+02 7.54677100e-03 1.02464900e-01
      -11 -1    0    0    0    0 +0.0000000000e+00 +0.0000000000e+00 +1.2500000000e+02 1.2500000000e+02 0.0000000000e+00 0.0000e+00 -1.0000e+00
       11 -1    0    0    0    0 -0.0000000000e+00 -0.0000000000e+00 -1.2500000000e+02 1.2500000000e+02 0.0000000000e+00 0.0000e+00 1.0000e+00
       23  1    1    2    0    0 +2.0522190546e+01 -1.2341193843e+01 -5.7403298332e+01 1.1038050269e+02 9.1188000000e+01 0.0000e+00 1.0000e+00
       25  1    1    2    0    0 -2.0522190546e+01 +1.2341193843e+01 +5.7403298332e+01 1.3961949731e+02 1.2500000000e+02 0.0000e+00 0.0000e+00
</event>
<event>
 4      1 +2.4014000e-01 2.50000000e+02 7.54677100e-03 1.02464900e-01
      -11 -1    0    0    0    0 +0.0000000000e+00 +0.0000000000e+00 +1.2500000000e+02 1.2500000000e+02 0.0000000000e+00 0.0000e+00 1.0000e+00
       11 -1    0    0    0    0 -0.0000000000e+00 -0.0000000000e+00 -1.2500000000e+02 1.2500000000e+02 0.0000000000e+00 0.0000e+00 -1.0000e+00
       23  1    1    2    0    0 +4.3062355669e+01 +2.5260385968e+01 +3.7096501919e+01 1.1038050269e+02 9.1188000000e+01 0.0000e+00 -1.0000e+00
       25  1    1    2    0    0 -4.3062355669e+01 -2.5260385968e+01 -3.7096501919e+01 1.3961949731e+02 1.2500000000e+02 0.0000e+00 0.0000e+00
</event>
<event>
 4      1 +2.4014000e-01 2.50000000e+02 7.54677100e-03 1.02464900e-01
      -11 -1    0    0    0    0 +0.0000000000e+00 +0.0000000000e+00 +1.2500000000e+02 1.2500000000e+02 0.0000000000e+00 0.0000e+00 1.0000e+00
       11 -1    0    0    0    0 -0.0000000000e+00 -0.0000000000e+00 -1.2500000000e+02 1.2500000000e+02 0.0000000000e+00 0.0000e+00 -1.0000e+00
       23  1    1    2    0    0 +5.6234607157e+01 -2.5615635609e+01 -7.0789970980e+00 1.1038050269e+02 9.1188000000e+01 0.0000e+00 1.0000e+00
       25  1    1    2    0    0 -5.6234607157e+01 +2.5615635609e+01 +7.0789970980e+00 1.3961949731e+02 1.2500000000e+02 0.0000e+00 0.0000e+00
</event>
<event>
 4      1 +2.4014000e-01 2.50000000e+02 7.54677100e-03 1.02464900e-01
      -11 -1    0    0    0    0 +0.0000000000e+00 +0.0000000000e+00 +1.2500000000e+02 1.2500000000e+02 0.0000000000e+00 0.0000e+00 1.0000e+00
       11 -1    0    0    0    0 -0.0000000000e+00 -0.0000000000e+00 -1.2500000000e+02 1.2500000000e+02 0.0000000000e+00 0.0000e+00 -1.0000e+00
       23  1    1    2    0    0 -4.4221825809e+01 -1.3409078737e+01 -4.1632088095e+01 1.1038050269e+02 9.1188000000e+01 0.0000e+00 -1.0000e+00
       25  1    1    2    0    0 +4.4221825809e+01 +1.3409078737e+01 +4.1632088095e+01 1.3961949731e+02 1.2500000000e+02 0.0000e+00 0.0000e+00
</event>
<event>
 4      1 +2.4014000e-01 2.50000000e+02 7.54677100e-03 1.02464900e-01
      -11 -1    0    0    0    0 +0.0000000000e+00 +0.0000000000e+00 +1.2500000000e+02 1.2500000000e+02 0.0000000000e+00 0.0000e+00 1.0000e+00
       11 -1    0    0    0    0 -0.0000000000e+00 -0.0000000000e+00 -1.2500000000e+02 1.2500000000e+02 0.0000000000e+00 0.0000e+00 -1.0000e+00
       23  1    1    2    0    0 +1.5051757505e+01 +2.9950711451e+01 +5.2392781080e+01 1.1038050269e+02 9.1188000000e+01 0.0000e+00 1.0000e+00
       25  1    1    2    0    0 -1.5051757505e+01 -2.9950711451e+01 -5.2392781080e+01 1.3961949731e+02 1.2500000000e+02 0.0000e+00 0.0000e+00
</event>
<event>
 4      1 +2.4014000e-01 2.50000000e+02 7.54677100e-03 1.02464900e-01
      -11 -1    0    0    0    0 +0.0000000000e+00 +0.0000000000e+00 +1.2500000000e+02 1.2500000000e+02 0.0000000000e+00 0.0000e+00 1.0000e+00
       11 -1    0    0    0    0 -0.0000000000e+00 -0.0000000000e+00 -1.2500000000e+02 1.2500000000e+02 0.0000000000e+00 0.0000e+00 -1.0000e+00
       23  1    1    2    0    0 +5.9784451954e+01 +7.3124862620e+00 -1.5522592531e+01 1.1038050269e+02 9.1188000000e+01 0.0000e+00 0.0000e+00
       25  1    1    2    0    0 -5.9784451954e+01 -7.3124862620e+00 +1.5522592531e+01 1.3961949731e+02 1.2500000000e+02 0.0000e+00 0.0000e+00
</event>
<event>
 4      1 +2.4014000e-01 2.50000000e+02 7.54677100e-03 1.02464900e-01
      -11 -1    0    0    0    0 +0.0000000000e+00 +0.0000000000e+00 +1.2500000000e+02 1.2500000000e+02 0.0000000000e+00 0.0000e+00 1.0000e+00
       11 -1    0    0    0    0 -0.0000000000e+00 -0.0000000000e+00 -1.2500000000e+02 1.2500000000e+02 0.0000000000e+00 0.0000e+00 -1.0000e+00
       23  1    1    2    0    0 +2.9677298615e+01 +5.3773253003e+01 -9.8132175187e+00 1.1038050269e+02 9.1188000000e+01 0.0000e+00 -1.0000e+00
       25  1    1    2    0    0 -2.9677298615e+01 -5.3773253003e+01 +9.8132175187e+00 1.3961949731e+02 1.2500000000e+02 0.0000e+00 0.0000e+00
</event>
<event>
 4      1 +2.4014000e-01 2.50000000e+02 7.54677100e-03 1.02464900e-01
      -11 -1    0    0    0    0 +0.0000000000e+00 +0.0000000000e+00 +1.2500000000e+02 1.2500000000e+02 0.0000000000e+00 0.0000e+00 -1.0000e+00
       11 -1    0    0    0    0 -0.0000000000e+00 -0.0000000000e+00 -1.2500000000e+02 1.2500000000e+02 0.0000000000e+00 0.0000e+00 1.0000e+00
       23  1    1    2    0    0 +1.4530998615e+01 +4.4657995209e+01 -4.0781338537e+01 1.1038050269e+02 9.1188000000e+01 0.0000e+00 1.0000e+00
       25  1    1    2    0    0 -1.4530998615e+01 -4.4657995209e+01 +4.0781338537e+01 1.3961949731e+02 1.2500000000e+02 0.0000e+00 0.0000e+00
</event>
<event>
 4      1 +2.4014000e-01 2.50000000e+02 7.54677100e-03 1.02464900e-01
      -11 -1    0    0    0    0 +0.0000000000e+00 +0.0000000000e+00 +1.2500000000e+02 1.2500000000e+02 0.0000000000e+00 0.0000e+00 -1.0000e+00
       11 -1    0    0    0    0 -0.0000000000e+00 -0.0000000000e+00 -1.2500000000e+02 1.2500000000e+02 0.0000000000e+00 0.0000e+00 1.0000e+00
       23  1    1    2    0    0 -8.0647051937e+00 +5.4889091606e+01 -2.8120316186e+01 1.1038050269e+02 9.1188000000e+01 0.0000e+00 0.0000e+00
       25  1    1    2    0    0 +8.0647051937e+00 -5.4889091606e+01 +2.8120316186e+01 1.3961949731e+02 1.2500000000e+02 0.0000e+00 0.0000e+00
</event>
<event>
 4      1 +2.4014000e-01 2.50000000e+02 7.54677100e-03 1.02464900e-01
      -11 -1    0    0    0    0 +0.0000000000e+00 +0.0000000000e+00 +1.2500000000e+02 1.2500000000e+02 0.0000000000e+00 0.0000e+00 1.0000e+00
       11 -1    0    0    0    0 -0.0000000000e+00 -0.0000000000e+00 -1.2500000000e+02 1.2500000000e+02 0.0000000000e+00 0.0000e+00 -1.0000e+00
       23  1    1    2    0    0 -2.9382788094e+01 +4.0023313216e+01 +3.7461849830e+01 1.1038050269e+02 9.1188000000e+01 0.0000e+00 0.0000e+00
       25  1    1    2    0    0 +2.9382788094e+01 -4.0023313216e+01 -3.7461849830e+01 1.3961949731e+02 1.2500000000e+02 0.0000e+00 0.0000e+00
</event>
<event>
 4      1 +2.4014000e-01 2.50000000e+02 7.54677100e-03 1.02464900e-01
      -11 -1    0    0    0    0 +0.0000000000e+00 +0.0000000000e+00 +1.2500000000e+02 1.2500000000e+02 0.0000000000e+00 0.0000e+00 -1.0000e+00
       11 -1    0    0    0    0 -0.0000000000e+00 -0.0000000000e+00 -1.2500000000e+02 1.2500000000e+02 0.0000000000e+00 0.0000e+00 1.0000e+00
       23  1    1    2    0    0 -2.9195552511e+01 +4.4489675072e+00 +5.4739660497e+01 1.1038050269e+02 9.1188000000e+01 0.0000e+00 -1.0000e+00
       25  1    1    2    0    0 +2.9195552511e+01 -4.4489675072e+00 -5.4739660497e+01 1.3961949731e+02 1.2500000000e+02 0.0000e+00 0.0000e+00
</event>
<event>
 4      1 +2.4014000e-01 2.50000000e+02 7.54677100e-03 1.02464900e-01
      -11 -1    0    0    0    0 +0.0000000000e+00 +0.0000000000e+00 +1.2500000000e+02 1.2500000000e+02 0.0000000000e+00 0.0000e+00 1.0000e+00
       11 -1    0    0    0    0 -0.0000000000e+00 -0.0000000000e+00 -1.2500000000e+02 1.2500000000e+02 0.0000000000e+00 0.0000e+00 -1.0000e+00
       23  1    1    2    0    0 -1.4312915247e+01 +4.9524994770e+00 -6.0325925071e+01 1.1038050269e+02 9.1188000000e+01 0.0000e+00 -1.0000e+00
       25  1    1    2    0    0 +1.4312915247e+01 -4.9524994770e+00 +6.0325925071e+01 1.3961949731e+02 1.2500000000e+02 0.0000e+00 0.0000e+00
</event>
<event>
 4      1 +2.4014000e-01 2.50000000e+02 7.54677100e-03 1.02464900e-01
      -11 -1    0    0    0    0 +0.0000000000e+00 +0.0000000000e+00 +1.2500000000e+02 1.2500000000e+02 0.0000000000e+00 0.0000e+00 -1.0000e+00
       11 -1    0    0    0    0 -0.0000000000e+00 -0.0000000000e+00 -1.2500000000e+02 1.2500000000e+02 0.0000000000e+00 0.0000e+00 1.0000e+00
       23  1    1    2    0    0 -4.4354637959e+01 -4.1618649602e+01 +1.3006080365e+01 1.1038050269e+02 9.1188000000e+01 0.0000e+00 -1.0000e+00
       25  1    1    2    0    0 +4.4354637959e+01 +4.1618649602e+01 -1.3006080365e+01 1.3961949731e+02 1.2500000000e+02 0.0000e+00 0.0000e+00
</event>
<event>
 4      1 +2.4014000e-01 2.50000000e+02 7.54677100e-03 1.02464900e-01
      -11 -1    0    0    0    0 +0.0000000000e+00 +0.0000000000e+00 +1.2500000000e+02 1.2500000000e+02 0.0000000000e+00 0.0000e+00 -1.0000e+00
       11 -1    0    0    0    0 -0.0000000000e+00 -0.0000000000e+00 -1.2500000000e+02 1.2500000000e+02 0.0000000000e+00 0.0000e+00 1.0000e+00
       23  1    1    2    0    0 +2.3744968475e+01 +2.9481244244e+01 +4.9352170566e+01 1.1038050269e+02 9.1188000000e+01 0.0000e+00 -1.0000e+00
       25  1    1    2    0    0 -2.3744968475e+01 -2.9481244244e+01 -4.9352170566e+01 1.3961949731e+02 1.2500000000e+02 0.0000e+00 0.0000e+00
</event>
<event>
 4      1 +2.4014000e-01 2.50000000e+02 7.54677100e-03 1.02464900e-01
      -11 -1    0    0    0    0 +0.0000000000e+00 +0.0000000000e+00 +1.2500000000e+02 1.2500000000e+02 0.0000000000e+00 0.0000e+00 -1.0000e+00
       11 -1    0    0    0    0 -0.0000000000e+00 -0.0000000000e+00 -1.2500000000e+02 1.2500000000e+02 0.0000000000e+00 0.0000e+00 1.0000e+00
       23  1    1    2    0    0 -1.2435359904e+00 -6.1378351076e+01 -9.9877758836e+00 1.1038050269e+02 9.1188000000e+01 0.0000e+00 0.0000e+00
       25  1    1    2    0    0 +1.2435359904e+00 +6.1378351076e+01 +9.9877758836e+00 1.3961949731e+02 1.2500000000e+02 0.0000e+00 0.0000e+00
</event>
<event>
 4      1 +2.4014000e-01 2.50000000e+02 7.54677100e-03 1.02464900e-01
      -11 -1    0    0    0    0 +0.0000000000e+00 +0.0000000000e+00 +1.2500000000e+02 1.2500000000e+02 0.0000000000e+00 0.0000e+00 -1.0000e+00
       11 -1    0    0    0    0 -0.0000000000e+00 -0.0000000000e+00 -1.2500000000e+02 1.2500000000e+02 0.0000000000e+00 0.0000e+00 1.0000e+00
       23  1    1    2    0    0 +5.9708886574e+01 -1.1820764618e+01 -1.2795406112e+01 1.1038050269e+02 9.1188000000e+01 0.0000e+00 0.0000e+00
       25  1    1    2    0    0 -5.9708886574e+01 +1.1820764618e+01 +1.2795406112e+01 1.3961949731e+02 1.2500000000e+02 0.0000e+00 0.0000e+00
</event>
<event>
 4      1 +2.4014000e-01 2.50000000e+02 7.54677100e-03 1.02464900e-01
      -11 -1    0    0    0    0 +0.0000000000e+00 +0.0000000000e+00 +1.2500000000e+02 1.2500000000e+02 0.0000000000e+00 0.0000e+00 1.0000e+00
       11 -1    0    0    0    0 -0.0000000000e+00 -0.0000000000e+00 -1.2500000000e+02 1.2500000000e+02 0.0000000000e+00 0.0000e+00 -1.0000e+00
       23  1    1    2    0    0 +8.0146159368e+00 -2.9176422462e+01 +5.4342491049e+01 1.1038050269e+02 9.1188000000e+01 0.0000e+00 0.0000e+00
       25  1    1    2    0    0 -8.0146159368e+00 +2.9176422462e+01 -5.4342491049e+01 1.3961949731e+02 1.2500000000e+02 0.0000e+00 0.0000e+00
</event>
<event>
 4      1 +2.4014000e-01 2.50000000e+02 7.54677100e-03 1.02464900e-01
      -11 -1    0    0    0    0 +0.0000000000e+00 +0.0000000000e+00 +1.2500000000e+02 1.2500000000e+02 0.0000000000e+00 0.0000e+00 -1.0000e+00
       11 -1    0    0    0    0 -0.0000000000e+00 -0.0000000000e+00 -1.2500000000e+02 1.2500000000e+02 0.0000000000e+00 0.0000e+00 1.0000e+00
       23  1    1    2    0    0 +6.1198333431e+01 -8.5751709204e+00 -7.0593525610e+00 1.1038050269e+02 9.1188000000e+01 0.0000e+00 0.0000e+00
       25  1    1    2    0    0 -6.1198333431e+01 +8.5751709204e+00 +7.0593525610e+00 1.3961949731e+02 1.2500000000e+02 0.0000e+00 0.0000e+00
</event>
<event>
 4      1 +2.4014000e-01 2.50000000e+02 7.54677100e-03 1.02464900e-01
      -11 -1    0    0    0    0 +0.0000000000e+00 +0.0000000000e+00 +1.2500000000e+02 1.2500000000e+02 0.0000000000e+00 0.0000e+00 -1.0000e+00
       11 -1    0    0    0    0 -0.0000000000e+00 -0.0000000000e+00 -1.2500000000e+02 1.2500000000e+02 0.0000000000e+00 0.0000e+00 1.0000e+00
       23  1    1    2    0    0 +5.2759326474e+01 +9.3717669531e+00 -3.1578908844e+01 1.1038050269e+02 9.1188000000e+01 0.0000e+00 0.0000e+00
       25  1    1    2    0    0 -5.2759326474e+01 -9.3717669531e+00 +3.1578908844e+01 1.3961949731e+02 1.2500000000e+02 0.0000e+00 0.0000e+00
</event>
<event>
 4      1 +2.4014000e-01 2.50000000e+02 7.54677100e-03 1.02464900e-01
      -11 -1    0    0    0    0 +0.0000000000e+00 +0.0000000000e+00 +1.2500000000e+02 1.2500000000e+02 0.0000000000e+00 0.0000e+00 -1.0000e+00
       11 -1    0    0    0    0 -0.0000000000e+00 -0.0000000000e+00 -1.2500000000e+02 1.2500000000e+02 0.0000000000e+00 0.0000e+00 1.0000e+00
       23  1    1    2    0    0 -1.2660187164e+00 +4.9438502817e+01 -3.7720493972e+01 1.1038050269e+02 9.1188000000e+01 0.0000e+00 1.0000e+00
       25  1    1    2    0    0 +1.2660187164e+00 -4.9438502817e+01 +3.7720493972e+01 1.3961949731e+02 1.2500000000e+02 0.0000e+00 0.0000e+00
</event>
<event>
 4      1 +2.4014000e-01 2.50000000e+02 7.54677100e-03 1.02464900e-01
      -11 -1    0    0    0    0 +0.0000000000e+00 +0.0000000000e+00 +1.2500000000e+02 1.2500000000e+02 0.0000000000e+00 0.0000e+00 1.0000e+00
       11 -1    0    0    0    0 -0.0000000000e+00 -0.0000000000e+00 -1.2500000000e+02 1.2500000000e+02 0.0000000000e+00 0.0000e+00 -1.0000e+00
       23  1    1    2    0    0 +3.6149678757e+01 -3.4912240157e+01 -3.6646149084e+01 1.1038050269e+02 9.1188000000e+01 0.0000e+00 -1.0000e+00
       25  1    1    2    0    0 -3.6149678757e+01 +3.4912240157e+01 +3.6646149084e+01 1.3961949731e+02 1.2500000000e+02 0.0000e+00 0.0000e+00
</event>
<event>
 4      1 +2.4014000e-01 2.50000000e+02 7.54677100e-03 1.02464900e-01
      -11 -1    0    0    0    0 +0.0000000000e+00 +0.0000000000e+00 +1.2500000000e+02 1.2500000000e+02 0.0000000000e+00 0.0000e+00 1.0000e+00
       11 -1    0    0    0    0 -0.0000000000e+00 -0.0000000000e+00 -1.2500000000e+02 1.2500000000e+02 0.0000000000e+00 0.0000e+00 -1.0000e+00
       23  1    1    2    0    0 -1.1122060983e+01 -2.1376510416e+01 +5.7340636477e+01 1.1038050269e+02 9.1188000000e+01 0.0000e+00 0.0000e+00
       25  1    1    2    0    0 +1.1122060983e+01 +2.1376510416e+01 -5.7340636477e+01 1.3961949731e+02 1.2500000000e+02 0.0000e+00 0.0000e+00
</event>
<event>
 4      1 +2.4014000e-01 2.50000000e+02 7.54677100e-03 1.02464900e-01
      -11 -1    0    0    0    0 +0.0000000000e+00 +0.0000000000e+00 +1.2500000000e+02 1.2500000000e+02 0.0000000000e+00 0.0000e+00 -1.0000e+00
       11 -1    0    0    0    0 -0.0000000000e+00 -0.0000000000e+00 -1.2500000000e+02 1.2500000000e+02 0.0000000000e+00 0.0000e+00 1.0000e+00
       23  1    1    2    0    0 +5.0056225896e+01 +6.5721964221e+00 -3.6328838584e+01 1.1038050269e+02 9.1188000000e+01 0.0000e+00 1.0000e+00
       25  1    1    2    0    0 -5.0056225896e+01 -6.5721964221e+00 +3.6328838584e+01 1.3961949731e+02 1.2500000000e+02 0.0000e+00 0.0000e+00
</event>
<event>
 4      1 +2.4014000e-01 2.50000000e+02 7.54677100e-03 1.02464900e-01
      -11 -1    0    0    0    0 +0.0000000000e+00 +0.0000000000e+00 +1.2500000000e+02 1.2500000000e+02 0.0000000000e+00 0.0000e+00 1.0000e+00
       11 -1    0    0    0    0 -0.0000000000e+00 -0.0000000000e+00 -1.2500000000e+02 1.2500000000e+02 0.0000000000e+00 0.0000e+00 -1.0000e+00
       23  1    1    2    0    0 +7.2018494065e+00 -4.0749029267e+01 -4.6435482216e+01 1.1038050269e+02 9.1188000000e+01 0.0000e+00 -1.0000e+00
       25  1    1    2    0    0 -7.2018494065e+00 +4.0749029267e+01 +4.6435482216e+01 1.3961949731e+02 1.2500000000e+02 0.0000e+00 0.0000e+00
</event>
<event>
 4      1 +2.4014000e-01 2.50000000e+02 7.54677100e-03 1.02464900e-01
      -11 -1    0    0    0    0 +0.0000000000e+00 +0.0000000000e+00 +1.2500000000e+02 1.2500000000e+02 0.0000000000e+00 0.0000e+00 1.0000e+00
       11 -1    0    0    0    0 -0.0000000000e+00 -0.0000000000e+00 -1.2500000000e+02 1.2500000000e+02 0.0000000000e+00 0.0000e+00 -1.0000e+00
       23  1    1    2    0    0 -4.7905661043e+01 +3.9541424176e+01 -3.1823644977e+00 1.1038050269e+02 9.1188000000e+01 0.0000e+00 0.0000e+00
       25  1    1    2    0    0 +4.7905661043e+01 -3.9541424176e+01 +3.1823644977e+00 1.3961949731e+02 1.2500000000e+02 0.0000e+00 0.0000e+00
</event>
<event>
 4      1 +2.4014000e-01 2.50000000e+02 7.54677100e-03 1.02464900e-01
      -11 -1    0    0    0    0 +0.0000000000e+00 +0.0000000000e+00 +1.2500000000e+02 1.2500000000e+02 0.0000000000e+00 0.0000e+00 -1.0000e+00
       11 -1    0    0    0    0 -0.0000000000e+00 -0.0000000000e+00 -1.2500000000e+02 1.2500000000e+02 0.0000000000e+00 0.0000e+00 1.0000e+00
       23  1    1    2    0    0 +6.7077514874e+00 +2.9557622960e+01 +5.4313506834e+01 1.1038050269e+02 9.1188000000e+01 0.0000e+00 -1.0000e+00
       25  1    1    2    0    0 -6.7077514874e+00 -2.9557622960e+01 -5.4313506834e+01 1.3961949731e+02 1.2500000000e+02 0.0000e+00 0.0000e+00
</event>
<event>
 4      1 +2.4014000e-01 2.50000000e+02 7.54677100e-03 1.02464900e-01
      -11 -1    0    0    0    0 +0.0000000000e+00 +0.0000000000e+00 +1.2500000000e+02 1.2500000000e+02 0.0000000000e+00 0.0000e+00 1.0000e+00
       11 -1    0    0    0    0 -0.0000000000e+00 -0.0000000000e+00 -1.2500000000e+02 1.2500000000e+02 0.0000000000e+00 0.0000e+00 -1.0000e+00
       23  1    1    2    0    0 +8.4641580142e+00 +1.1914020096e+01 +6.0456746389e+01 1.1038050269e+02 9.1188000000e+01 0.0000e+00 1.0000e+00
       25  1    1    2    0    0 -8.4641580142e+00 -1.1914020096e+01 -6.0456746389e+01 1.3961949731e+02 1.2500000000e+02 0.0000e+00 0.0000e+00
</event>
<event>
 4      1 +2.4014000e-01 2.50000000e+02 7.54677100e-03 1.02464900e-01
      -11 -1    0    0    0    0 +0.0000000000e+00 +0.0000000000e+00 +1.2500000000e+02 1.2500000000e+02 0.0000000000e+00 0.0000e+00 -1.0000e+00
       11 -1    0    0    0    0 -0.0000000000e+00 -0.0000000000e+00 -1.2500000000e+02 1.2500000000e+02 0.0000000000e+00 0.0000e+00 1.0000e+00
       23  1    1    2    0    0 +3.0100164644e+01 -4.9834801651e+01 -2.1887819957e+01 1.1038050269e+02 9.1188000000e+01 0.0000e+00 -1.0000e+00
       25  1    1    2    0    0 -3.0100164644e+01 +4.9834801651e+01 +2.1887819957e+01 1.3961949731e+02 1.2500000000e+02 0.0000e+00 0.0000e+00
</event>
<event>
 4      1 +2.4014000e-01 2.50000000e+02 7.54677100e-03 1.02464900e-01
      -11 -1    0    0    0    0 +0.0000000000e+00 +0.0000000000e+00 +1.2500000000e+02 1.2500000000e+02 0.0000000000e+00 0.0000e+00 -1.0000e+00
       11 -1    0    0    0    0 -0.0000000000e+00 -0.0000000000e+00 -1.2500000000e+02 1.2500000000e+02 0.0000000000e+00 0.0000e+00 1.0000e+00
       23  1    1    2    0    0 +3.5658996928e+01 +4.9785453993e+01 -1.0883406565e+01 1.1038050269e+02 9.1188000000e+01 0.0000e+00 1.0000e+00
       25  1    1    2    0    0 -3.5658996928e+01 -4.9785453993e+01 +1.0883406565e+01 1.3961949731e+02 1.2500000000e+02 0.0000e+00 0.0000e+00
</event>
<event>
 4      1 +2.4014000e-01 2.50000000e+02 7.54677100e-03 1.02464900e-01
      -11 -1    0    0    0    0 +0.0000000000e+00 +0.0000000000e+00 +1.2500000000e+02 1.2500000000e+02 0.0000000000e+00 0.0000e+00 -1.0000e+00
       11 -1    0    0    0    0 -0.0000000000e+00 -0.0000000000e+00 -1.2500000000e+02 1.2500000000e+02 0.0000000000e+00 0.0000e+00 1.0000e+00
       23  1    1    2    0    0 +2.8585802512e+01 -5.5076426962e+01 +4.2477190871e+00 1.1038050269e+02 9.1188000000e+01 0.0000e+00 0.0000e+00
       25  1    1    2    0    0 -2.8585802512e+01 +5.5076426962e+01 -4.2477190871e+00 1.3961949731e+02 1.2500000000e+02 0.0000e+00 0.0000e+00
</event>
<event>
 4      1 +2.4014000e-01 2.50000000e+02 7.54677100e-03 1.02464900e-01
      -11 -1    0    0    0    0 +0.0000000000e+00 +0.0000000000e+00 +1.2500000000e+02 1.2500000000e+02 0.0000000000e+00 0.0000e+00 1.0000e+00
       11 -1    0    0    0    0 -0.0000000000e+00 -0.0000000000e+00 -1.2500000000e+02 1.2500000000e+02 0.0000000000e+00 0.0000e+00 -1.0000e+00
       23  1    1    2    0    0 +1.3748037098e+01 +9.8136311740e+00 +5.9860572573e+01 1.1038050269e+02 9.1188000000e+01 0.0000e+00 1.0000e+00
       25  1    1    2    0    0 -1.3748037098e+01 -9.8136311740e+00 -5.9860572573e+01 1.3961949731e+02 1.2500000000e+02 0.0000e+00 0.0000e+00
</event>
<event>
 4      1 +2.4014000e-01 2.50000000e+02 7.54677100e-03 1.02464900e-01
      -11 -1    0    0    0    0 +0.0000000000e+00 +0.0000000000e+00 +1.2500000000e+02 1.2500000000e+02 0.0000000000e+00 0.0000e+00 1.0000e+00
       11 -1    0    0    0    0 -0.0000000000e+00 -0.0000000000e+00 -1.2500000000e+02 1.2500000000e+02 0.0000000000e+00 0.0000e+00 -1.0000e+00
       23  1    1    2    0    0 +4.5136283251e+01 -4.2395288055e+01 -5.8274792751e+00 1.1038050269e+02 9.1188000000e+01 0.0000e+00 0.0000e+00
       25  1    1    2    0    0 -4.5136283251e+01 +4.2395288055e+01 +5.8274792751e+00 1.3961949731e+02 1.2500000000e+02 0.0000e+00 0.0000e+00
</event>
<event>
 4      1 +2.4014000e-01 2.50000000e+02 7.54677100e-03 1.02464900e-01
      -11 -1    0    0    0    0 +0.0000000000e+00 +0.0000000000e+00 +1.2500000000e+02 1.2500000000e+02 0.0000000000e+00 0.0000e+00 -1.0000e+00
       11 -1    0    0    0    0 -0.0000000000e+00 -0.0000000000e+00 -1.2500000000e+02 1.2500000000e+02 0.0000000000e+00 0.0000e+00 1.0000e+00
       23  1    1    2    0    0 +3.6400634237e+01 +3.6938139529e+01 +3.4339069658e+01 1.1038050269e+02 9.1188000000e+01 0.0000e+00 0.0000e+00
       25  1    1    2    0    0 -3.6400634237e+01 -3.6938139529e+01 -3.4339069658e+01 1.3961949731e+02 1.2500000000e+02 0.0000e+00 0.0000e+00
</event>
<event>
 4      1 +2.4014000e-01 2.50000000e+02 7.54677100e-03 1.02464900e-01
      -11 -1    0    0    0    0 +0.0000000000e+00 +0.0000000000e+00 +1.2500000000e+02 1.2500000000e+02 0.0000000000e+00 0.0000e+00 1.0000e+00
       11 -1    0    0    0    0 -0.0000000000e+00 -0.0000000000e+00 -1.2500000000e+02 1.2500000000e+02 0.0000000000e+00 0.0000e+00 -1.0000e+00
       23  1    1    2    0    0 +4.2655121037e+01 +8.3029401694e+00 -4.4499504082e+01 1.1038050269e+02 9.1188000000e+01 0.0000e+00 0.0000e+00
       25  1    1    2    0    0 -4.2655121037e+01 -8.3029401694e+00 +4.4499504082e+01 1.3961949731e+02 1.2500000000e+02 0.0000e+00 0.0000e+00
</event>
<event>
 4      1 +2.4014000e-01 2.50000000e+02 7.54677100e-03 1.02464900e-01
      -11 -1    0    0    0    0 +0.0000000000e+00 +0.0000000000e+00 +1.2500000000e+02 1.2500000000e+02 0.0000000000e+00 0.0000e+00 1.0000e+00
       11 -1    0    0    0    0 -0.0000000000e+00 -0.0000000000e+00 -1.2500000000e+02 1.2500000000e+02 0.0000000000e+00 0.0000e+00 -1.0000e+00
       23  1    1    2    0    0 +4.8157184807e+01 +2.0998806822e+00 -3.9307506690e+01 1.1038050269e+02 9.1188000000e+01 0.0000e+00 -1.0000e+00
       25  1    1    2    0    0 -4.8157184807e+01 -2.0998806822e+00 +3.9307506690e+01 1.3961949731e+02 1.2500000000e+02 0.0000e+00 0.0000e+00
</event>
<event>
 4      1 +2.4014000e-01 2.50000000e+02 7.54677100e-03 1.02464900e-01
      -11 -1    0    0    0    0 +0.0000000000e+00 +0.0000000000e+00 +1.2500000000e+02 1.2500000000e+02 0.0000000000e+00 0.0000e+00 1.0000e+00
       11 -1    0    0    0    0 -0.0000000000e+00 -0.0000000000e+00 -1.2500000000e+02 1.2500000000e+02 0.0000000000e+00 0.0000e+00 -1.0000e+00
       23  1    1    2    0    0 +2.5793032934e+01 -2.6257904354e+01 +5.0138268226e+01 1.1038050269e+02 9.1188000000e+01 0.0000e+00 0.0000e+00
       25  1    1    2    0    0 -2.5793032934e+01 +2.6257904354e+01 -5.0138268226e+01 1.3961949731e+02 1.2500000000e+02 0.0000e+00 0.0000e+00
</event>
<event>
 4      1 +2.4014000e-01 2.50000000e+02 7.54677100e-03 1.02464900e-01
      -11 -1    0    0    0    0 +0.0000000000e+00 +0.0000000000e+00 +1.2500000000e+02 1.2500000000e+02 0.0000000000e+00 0.0000e+00 1.0000e+00
       11 -1    0    0    0    0 -0.0000000000e+00 -0.0000000000e+00 -1.2500000000e+02 1.2500000000e+02 0.0000000000e+00 0.0000e+00 -1.0000e+00
       23  1    1    2    0    0 +5.0841847894e+01 -4.9284694149e+00 -3.5488318101e+01 1.1038050269e+02 9.1188000000e+01 0.0000e+00 0.0000e+00
       25  1    1    2    0    0 -5.0841847894e+01 +4.9284694149e+00 +3.5488318101e+01 1.3961949731e+02 1.2500000000e+02 0.0000e+00 0.0000e+00
</event>
<event>
 4      1 +2.4014000e-01 2.50000000e+02 7.54677100e-03 1.02464900e-01
      -11 -1    0    0    0    0 +0.0000000000e+00 +0.0000000000e+00 +1.2500000000e+02 1.2500000000e+02 0.0000000000e+00 0.0000e+00 1.0000e+00
       11 -1    0    0    0    0 -0.0000000000e+00 -0.0000000000e+00 -1.2500000000e+02 1.2500000000e+02 0.0000000000e+00 0.0000e+00 -1.0000e+00
       23  1    1    2    0    0 +1.2454028342e+01 -5.4534157122e+01 -2.7194244147e+01 1.1038050269e+02 9.1188000000e+01 0.0000e+00 0.0000e+00
       25  1    1    2    0    0 -1.2454028342e+01 +5.4534157122e+01 +2.7194244147e+01 1.3961949731e+02 1.2500000000e+02 0.0000e+00 0.0000e+00
</event>
<event>
 4      1 +2.4014000e-01 2.50000000e+02 7.54677100e-03 1.02464900e-01
      -11 -1    0    0    0    0 +0.0000000000e+00 +0.0000000000e+00 +1.2500000000e+02 1.2500000000e+02 0.0000000000e+00 0.0000e+00 -1.0000e+00
       11 -1    0    0    0    0 -0.0000000000e+00 -0.0000000000e+00 -1.2500000000e+02 1.2500000000e+02 0.0000000000e+00 0.0000e+00 1.0000e+00
       23  1    1    2    0    0 +1.9494204097e+01 +5.3206199213e+01 -2.5645280298e+01 1.1038050269e+02 9.1188000000e+01 0.0000e+00 0.0000e+00
       25  1    1    2    0    0 -1.9494204097e+01 -5.3206199213e+01 +2.5645280298e+01 1.3961949731e+02 1.2500000000e+02 0.0000e+00 0.0000e+00
</event>
<event>
 4      1 +2.4014000e-01 2.50000000e+02 7.54677100e-03 1.02464900e-01
      -11 -1    0    0    0    0 +0.0000000000e+00 +0.0000000000e+00 +1.2500000000e+02 1.2500000000e+02 0.0000000000e+00 0.0000e+00 1.0000e+00
       11 -1    0    0    0    0 -0.0000000000e+00 -0.0000000000e+00 -1.2500000000e+02 1.2500000000e+02 0.0000000000e+00 0.0000e+00 -1.0000e+00
       23  1    1    2    0    0 +5.4471042884e+01 -2.9984882458e+01 -1.5544583709e+00 1.1038050269e+02 9.1188000000e+01 0.0000e+00 1.0000e+00
       25  1    1    2    0    0 -5.4471042884e+01 +2.9984882458e+01 +1.5544583709e+00 1.3961949731e+02 1.2500000000e+02 0.0000e+00 0.0000e+00
</event>
<event>
 4      1 +2.4014000e-01 2.50000000e+02 7.54677100e-03 1.02464900e-01
      -11 -1    0    0    0    0 +0.0000000000e+00 +0.0000000000e+00 +1.2500000000e+02 1.2500000000e+02 0.0000000000e+00 0.0000e+00 -1.0000e+00
       11 -1    0    0    0    0 -0.0000000000e+00 -0.0000000000e+00 -1.2500000000e+02 1.2500000000e+02 0.0000000000e+00 0.0000e+00 1.0000e+00
       23  1    1    2    0    0 -2.8120924966e+01 +2.3859869023e+01 -5.0085170050e+01 1.1038050269e+02 9.1188000000e+01 0.0000e+00 1.0000e+00
       25  1    1    2    0    0 +2.8120924966e+01 -2.3859869023e+01 +5.0085170050e+01 1.3961949731e+02 1.2500000000e+02 0.0000e+00 0.0000e+00
</event>
<event>
 4      1 +2.4014000e-01 2.50000000e+02 7.54677100e-03 1.02464900e-01
      -11 -1    0    0    0    0 +0.0000000000e+00 +0.0000000000e+00 +1.2500000000e+02 1.2500000000e+02 0.0000000000e+00 0.0000e+00 1.0000e+00
       11 -1    0    0    0    0 -0.0000000000e+00 -0.0000000000e+00 -1.2500000000e+02 1.2500000000e+02 0.0000000000e+00 0.0000e+00 -1.0000e+00
       23  1    1    2    0    0 -5.1950437861e+01 +1.8047926292e+01 +2.9052166740e+01 1.1038050269e+02 9.1188000000e+01 0.0000e+00 1.0000e+00
       25  1    1    2    0    0 +5.1950437861e+01 -1.8047926292e+01 -2.9052166740e+01 1.3961949731e+02 1.2500000000e+02 0.0000e+00 0.0000e+00
</event>
<event>
 4      1 +2.4014000e-01 2.50000000e+02 7.54677100e-03 1.02464900e-01
      -11 -1    0    0    0    0 +0.0000000000e+00 +0.0000000000e+00 +1.2500000000e+02 1.2500000000e+02 0.0000000000e+00 0.0000e+00 1.0000e+00
       11 -1    0    0    0    0 -0.0000000000e+00 -0.0000000000e+00 -1.2500000000e+02 1.2500000000e+02 0.0000000000e+00 0.0000e+00 -1.0000e+00
       23  1    1    2    0    0 -5.1599068288e+01 -7.1341708247e+00 -3.3988877418e+01 1.1038050269e+02 9.1188000000e+01 0.0000e+00 -1.0000e+00
       25  1    1    2    0    0 +5.1599068288e+01 +7.1341708247e+00 +3.3988877418e+01 1.3961949731e+02 1.2500000000e+02 0.0000e+00 0.0000e+00
</event>
<event>
 4      1 +2.4014000e-01 2.50000000e+02 7.54677100e-03 1.02464900e-01
      -11 -1    0    0    0    0 +0.0000000000e+00 +0.0000000000e+00 +1.2500000000e+02 1.2500000000e+02 0.0000000000e+00 0.0000e+00 -1.0000e+00
       11 -1    0    0    0    0 -0.0000000000e+00 -0.0000000000e+00 -1.2500000000e+02 1.2500000000e+02 0.0000000000e+00 0.0000e+00 1.0000e+00
       23  1    1    2    0    0 -1.2083983463e+01 +3.3117089618e+01 +5.1242948281e+01 1.1038050269e+02 9.1188000000e+01 0.0000e+00 -1.0000e+00
       25  1    1    2    0    0 +1.2083983463e+01 -3.3117089618e+01 -5.1242948281e+01 1.3961949731e+02 1.2500000000e+02 0.0000e+00 0.0000e+00
</event>
<event>
 4      1 +2.4014000e-01 2.50000000e+02 7.54677100e-03 1.02464900e-01
      -11 -1    0    0    0    0 +0.0000000000e+00 +0.0000000000e+00 +1.2500000000e+02 1.2500000000e+02 0.0000000000e+00 0.0000e+00 -1.0000e+00
       11 -1    0    0    0    0 -0.0000000000e+00 -0.0000000000e+00 -1.2500000000e+02 1.2500000000e+02 0.0000000000e+00 0.0000e+00 1.0000e+00
       23  1    1    2    0    0 +4.1203523610e+00 -2.5447985452e+00 +6.2009279358e+01 1.1038050269e+02 9.1188000000e+01 0.0000e+00 -1.0000e+00
       25  1    1    2    0    0 -4.1203523610e+00 +2.5447985452e+00 -6.2009279358e+01 1.3961949731e+02 1.2500000000e+02 0.0000e+00 0.0000e+00
</event>
<event>
 4      1 +2.4014000e-01 2.50000000e+02 7.54677100e-03 1.02464900e-01
      -11 -1    0    0    0    0 +0.0000000000e+00 +0.0000000000e+00 +1.2500000000e+02 1.2500000000e+02 0.0000000000e+00 0.0000e+00 -1.0000e+00
       11 -1    0    0    0    0 -0.0000000000e+00 -0.0000000000e+00 -1.2500000000e+02 1.2500000000e+02 0.0000000000e+00 0.0000e+00 1.0000e+00
       23  1    1    2    0    0 -2.8858688617e+01 -3.5666256033e+01 -4.1996408198e+01 1.1038050269e+02 9.1188000000e+01 0.0000e+00 1.0000e+00
       25  1    1    2    0    0 +2.8858688617e+01 +3.5666256033e+01 +4.1996408198e+01 1.3961949731e+02 1.2500000000e+02 0.0000e+00 0.0000e+00
</event>
<event>
 4      1 +2.4014000e-01 2.50000000e+02 7.54677100e-03 1.02464900e-01
      -11 -1    0    0    0    0 +0.0000000000e+00 +0.0000000000e+00 +1.2500000000e+02 1.2500000000e+02 0.0000000000e+00 0.0000e+00 1.0000e+00
       11 -1    0    0    0    0 -0.0000000000e+00 -0.0000000000e+00 -1.2500000000e+02 1.2500000000e+02 0.0000000000e+00 0.0000e+00 -1.0000e+00
       23  1    1    2    0    0 -5.0209341098e+01 +3.5296388833e+01 +1.0089154153e+01 1.1038050269e+02 9.1188000000e+01 0.0000e+00 0.0000e+00
       25  1    1    2    0    0 +5.0209341098e+01 -3.5296388833e+01 -1.0089154153e+01 1.3961949731e+02 1.2500000000e+02 0.0000e+00 0.0000e+00
</event>
<event>
 4      1 +2.4014000e-01 2.50000000e+02 7.54677100e-03 1.02464900e-01
      -11 -1    0    0    0    0 +0.0000000000e+00 +0.0000000000e+00 +1.2500000000e+02 1.2500000000e+02 0.0000000000e+00 0.0000e+00 1.0000e+00
       11 -1    0    0    0    0 -0.0000000000e+00 -0.0000000000e+00 -1.2500000000e+02 1.2500000000e+02 0.0000000000e+00 0.0000e+00 -1.0000e+00
       23  1    1    2    0    0 +5.0394026731e+01 +3.6386182428e+01 -2.2565078659e+00 1.1038050269e+02 9.1188000000e+01 0.0000e+00 -1.0000e+00
       25  1    1    2    0    0 -5.0394026731e+01 -3.6386182428e+01 +2.2565078659e+00 1.3961949731e+02 1.2500000000e+02 0.0000e+00 0.0000e+00
</event>
<event>
 4      1 +2.4014000e-01 2.50000000e+02 7.54677100e-03 1.02464900e-01
      -11 -1    0    0    0    0 +0.0000000000e+00 +0.0000000000e+00 +1.2500000000e+02 1.2500000000e+02 0.0000000000e+00 0.0000e+00 1.0000e+00
       11 -1    0    0    0    0 -0.0000000000e+00 -0.0000000000e+00 -1.2500000000e+02 1.2500000000e+02 0.0000000000e+00 0.0000e+00 -1.0000e+00
       23  1    1    2    0    0 +1.9098811438e+01 -5.1661459005e+01 -2.8895208683e+01 1.1038050269e+02 9.1188000000e+01 0.0000e+00 0.0000e+00
       25  1    1    2    0    0 -1.9098811438e+01 +5.1661459005e+01 +2.8895208683e+01 1.3961949731e+02 1.2500000000e+02 0.0000e+00 0.0000e+00
</event>
<event>
 4      1 +2.4014000e-01 2.50000000e+02 7.54677100e-03 1.02464900e-01
      -11 -1    0    0    0    0 +0.0000000000e+00 +0.0000000000e+00 +1.2500000000e+02 1.2500000000e+02 0.0000000000e+00 0.0000e+00 1.0000e+00
       11 -1    0    0    0    0 -0.0000000000e+00 -0.0000000000e+00 -1.2500000000e+02 1.2500000000e+02 0.0000000000e+00 0.0000e+00 -1.0000e+00
       23  1    1    2    0    0 -3.4884137815e+00 +6.1351425265e+01 -9.6144483439e+00 1.1038050269e+02 9.1188000000e+01 0.0000e+00 0.0000e+00
       25  1    1    2    0    0 +3.4884137815e+00 -6.1351425265e+01 +9.6144483439e+00 1.3961949731e+02 1.2500000000e+02 0.0000e+00 0.0000e+00
</event>
<event>
 4      1 +2.4014000e-01 2.50000000e+02 7.54677100e-03 1.02464900e-01
      -11 -1    0    0    0    0 +0.0000000000e+00 +0.0000000000e+00 +1.2500000000e+02 1.2500000000e+02 0.0000000000e+00 0.0000e+00 1.0000e+00
       11 -1    0    0    0    0 -0.0000000000e+00 -0.0000000000e+00 -1.2500000000e+02 1.2500000000e+02 0.0000000000e+00 0.0000e+00 -1.0000e+00
       23  1    1    2    0    0 -3.5622091691e+01 +4.8489709198e+01 +1.5761304360e+01 1.1038050269e+02 9.1188000000e+01 0.0000e+00 0.0000e+00
       25  1    1    2    0    0 +3.5622091691e+01 -4.8489709198e+01 -1.5761304360e+01 1.3961949731e+02 1.2500000000e+02 0.0000e+00 0.0000e+00
</event>
<event>
 4      1 +2.4014000e-01 2.50000000e+02 7.54677100e-03 1.02464900e-01
      -11 -1    0    0    0    0 +0.0000000000e+00 +0.0000000000e+00 +1.2500000000e+02 1.2500000000e+02 0.0000000000e+00 0.0000e+00 1.0000e+00
       11 -1    0    0    0    0 -0.0000000000e+00 -0.0000000000e+00 -1.2500000000e+02 1.2500000000e+02 0.0000000000e+00 0.0000e+00 -1.0000e+00
       23  1    1    2    0    0 +2.4874941757e+01 +3.2055765773e+01 -4.7140950171e+01 1.1038050269e+02 9.1188000000e+01 0.0000e+00 0.0000e+00
       25  1    1    2    0    0 -2.4874941757e+01 -3.2055765773e+01 +4.7140950171e+01 1.3961949731e+02 1.2500000000e+02 0.0000e+00 0.0000e+00
</event>
<event>
 4      1 +2.4014000e-01 2.50000000e+02 7.54677100e-03 1.02464900e-01
      -11 -1    0    0    0    0 +0.0000000000e+00 +0.0000000000e+00 +1.2500000000e+02 1.2500000000e+02 0.0000000000e+00 0.0000e+00 -1.0000e+00
       11 -1    0    0    0    0 -0.0000000000e+00 -0.0000000000e+00 -1.2500000000e+02 1.2500000000e+02 0.0000000000e+00 0.0000e+00 1.0000e+00
       23  1    1    2    0    0 -4.2280002908e+01 +1.6194811384e+00 +4.5589282344e+01 1.1038050269e+02 9.1188000000e+01 0.0000e+00 0.0000e+00
       25  1    1    2    0    0 +4.2280002908e+01 -1.6194811384e+00 -4.5589282344e+01 1.3961949731e+02 1.2500000000e+02 0.0000e+00 0.0000e+00
</event>
<event>
 4      1 +2.4014000e-01 2.50000000e+02 7.54677100e-03 1.02464900e-01
      -11 -1    0    0    0    0 +0.0000000000e+00 +0.0000000000e+00 +1.2500000000e+02 1.2500000000e+02 0.0000000000e+00 0.0000e+00 -1.0000e+00
       11 -1    0    0    0    0 -0.0000000000e+00 -0.0000000000e+00 -1.2500000000e+02 1.2500000000e+02 0.0000000000e+00 0.0000e+00 1.0000e+00
       23  1    1    2    0    0 -6.2784594203e-01 +2.4620391394e+01 +5.7114325407e+01 1.1038050269e+02 9.1188000000e+01 0.0000e+00 -1.0000e+00
       25  1    1    2    0    0 +6.2784594203e-01 -2.4620391394e+01 -5.7114325407e+01 1.3961949731e+02 1.2500000000e+02 0.0000e+00 0.0000e+00
</event>
<event>
 4      1 +2.4014000e-01 2.50000000e+02 7.54677100e-03 1.02464900e-01
      -11 -1    0    0    0    0 +0.0000000000e+00 +0.0000000000e+00 +1.2500000000e+02 1.2500000000e+02 0.0000000000e+00 0.0000e+00 1.0000e+00
       11 -1    0    0    0    0 -0.0000000000e+00 -0.0000000000e+00 -1.2500000000e+02 1.2500000000e+02 0.0000000000e+00 0.0000e+00 -1.0000e+00
       23  1    1    2    0    0 -5.7272189138e+01 -1.8842335156e+01 +1.5279619983e+01 1.1038050269e+02 9.1188000000e+01 0.0000e+00 0.0000e+00
       25  1    1    2    0    0 +5.7272189138e+01 +1.8842335156e+01 -1.5279619983e+01 1.3961949731e+02 1.2500000000e+02 0.0000e+00 0.0000e+00
</event>
<event>
 4      1 +2.4014000e-01 2.50000000e+02 7.54677100e-03 1.02464900e-01
      -11 -1    0    0    0    0 +0.0000000000e+00 +0.0000000000e+00 +1.2500000000e+02 1.2500000000e+02 0.0000000000e+00 0.0000e+00 1.0000e+00
       11 -1    0    0    0    0 -0.0000000000e+00 -0.0000000000e+00 -1.2500000000e+02 1.2500000000e+02 0.0000000000e+00 0.0000e+00 -1.0000e+00
       23  1    1    2    0    0 +5.7852766460e+01 +1.3431461686e+01 -1.8473150233e+01 1.1038050269e+02 9.1188000000e+01 0.0000e+00 -1.0000e+00
       25  1    1    2    0    0 -5.7852766460e+01 -1.3431461686e+01 +1.8473150233e+01 1.3961949731e+02 1.2500000000e+02 0.0000e+00 0.0000e+00
</event>
<event>
 4      1 +2.4014000e-01 2.50000000e+02 7.54677100e-03 1.02464900e-01
      -11 -1    0    0    0    0 +0.0000000000e+00 +0.0000000000e+00 +1.2500000000e+02 1.2500000000e+02 0.0000000000e+00 0.0000e+00 1.0000e+00
       11 -1    0    0    0    0 -0.0000000000e+00 -0.0000000000e+00 -1.2500000000e+02 1.2500000000e+02 0.0000000000e+00 0.0000e+00 -1.0000e+00
       23  1    1    2    0    0 +1.3959926881e+01 -2.3858657914e+01 -5.5717940680e+01 1.1038050269e+02 9.1188000000e+01 0.0000e+00 0.0000e+00
       25  1    1    2    0    0 -1.3959926881e+01 +2.3858657914e+01 +5.5717940680e+01 1.3961949731e+02 1.2500000000e+02 0.0000e+00 0.0000e+00
</event>
<event>
 4      1 +2.4014000e-01 2.50000000e+02 7.54677100e-03 1.02464900e-01
      -11 -1    0    0    0    0 +0.0000000000e+00 +0.0000000000e+00 +1.2500000000e+02 1.2500000000e+02 0.0000000000e+00 0.0000e+00 -1.0000e+00
       11 -1    0    0    0    0 -0.0000000000e+00 -0.0000000000e+00 -1.2500000000e+02 1.2500000000e+02 0.0000000000e+00 0.0000e+00 1.0000e+00
       23  1    1    2    0    0 +5.9513728726e+01 -1.5660680701e+01 +9.0256968061e+00 1.1038050269e+02 9.1188000000e+01 0.0000e+00 0.0000e+00
       25  1    1    2    0    0 -5.9513728726e+01 +1.5660680701e+01 -9.0256968061e+00 1.3961949731e+02 1.2500000000e+02 0.0000e+00 0.0000e+00
</event>
<event>
 4      1 +2.4014000e-01 2.50000000e+02 7.54677100e-03 1.02464900e-01
      -11 -1    0    0    0    0 +0.0000000000e+00 +0.0000000000e+00 +1.2500000000e+02 1.2500000000e+02 0.0000000000e+00 0.0000e+00 -1.0000e+00
       11 -1    0    0    0    0 -0.0000000000e+00 -0.0000000000e+00 -1.2500000000e+02 1.2500000000e+02 0.0000000000e+00 0.0000e+00 1.0000e+00
       23  1    1    2    0    0 +4.0226874670e+01 +3.1789947846e+01 -3.5210819359e+01 1.1038050269e+02 9.1188000000e+01 0.0000e+00 1.0000e+00
       25  1    1    2    0    0 -4.0226874670e+01 -3.1789947846e+01 +3.5210819359e+01 1.3961949731e+02 1.2500000000e+02 0.0000e+00 0.0000e+00
</event>
<event>
 4      1 +2.4014000e-01 2.50000000e+02 7.54677100e-03 1.02464900e-01
      -11 -1    0    0    0    0 +0.0000000000e+00 +0.0000000000e+00 +1.2500000000e+02 1.2500000000e+02 0.0000000000e+00 0.0000e+00 1.0000e+00
       11 -1    0    0    0    0 -0.0000000000e+00 -0.0000000000e+00 -1.2500000000e+02 1.2500000000e+02 0.0000000000e+00 0.0000e+00 -1.0000e+00
       23  1    1    2    0    0 +5.5351652532e+01 -1.5660059226e+01 -2.3655044634e+01 1.1038050269e+02 9.1188000000e+01 0.0000e+00 0.0000e+00
       25  1    1    2    0    0 -5.5351652532e+01 +1.5660059226e+01 +2.3655044634e+01 1.3961949731e+02 1.2500000000e+02 0.0000e+00 0.0000e+00
</event>
<event>
 4      1 +2.4014000e-01 2.50000000e+02 7.54677100e-03 1.02464900e-01
      -11 -1    0    0    0    0 +0.0000000000e+00 +0.0000000000e+00 +1.2500000000e+02 1.2500000000e+02 0.0000000000e+00 0.0000e+00 -1.0000e+00
       11 -1    0    0    0    0 -0.0000000000e+00 -0.0000000000e+00 -1.2500000000e+02 1.2500000000e+02 0.0000000000e+00 0.0000e+00 1.0000e+00
       23  1    1    2    0    0 -3.9240054056e+01 -3.0598179828e+01 -3.7317202179e+01 1.1038050269e+02 9.1188000000e+01 0.0000e+00 1.0000e+00
       25  1    1    2    0    0 +3.9240054056e+01 +3.0598179828e+01 +3.7317202179e+01 1.3961949731e+02 1.2500000000e+02 0.0000e+00 0.0000e+00
</event>
<event>
 4      1 +2.4014000e-01 2.50000000e+02 7.54677100e-03 1.02464900e-01
      -11 -1    0    0    0    0 +0.0000000000e+00 +0.0000000000e+00 +1.2500000000e+02 1.2500000000e+02 0.0000000000e+00 0.0000e+00 -1.0000e+00
       11 -1    0    0    0    0 -0.0000000000e+00 -0.0000000000e+00 -1.2500000000e+02 1.2500000000e+02 0.0000000000e+00 0.0000e+00 1.0000e+00
       23  1    1    2    0    0 -4.5259541377e+01 +4.2407838527e+01 -4.6640299578e+00 1.1038050269e+02 9.1188000000e+01 0.0000e+00 1.0000e+00
       25  1    1    2    0    0 +4.5259541377e+01 -4.2407838527e+01 +4.6640299578e+00 1.3961949731e+02 1.2500000000e+02 0.0000e+00 0.0000e+00
</event>
<event>
 4      1 +2.4014000e-01 2.50000000e+02 7.54677100e-03 1.02464900e-01
      -11 -1    0    0    0    0 +0.0000000000e+00 +0.0000000000e+00 +1.2500000000e+02 1.2500000000e+02 0.0000000000e+00 0.0000e+00 1.0000e+00
       11 -1    0    0    0    0 -0.0000000000e+00 -0.0000000000e+00 -1.2500000000e+02 1.2500000000e+02 0.0000000000e+00 0.0000e+00 -1.0000e+00
       23  1    1    2    0    0 -1.4088569947e+01 +1.7011723985e+01 +5.8143937548e+01 1.1038050269e+02 9.1188000000e+01 0.0000e+00 1.0000e+00
       25  1    1    2    0    0 +1.4088569947e+01 -1.7011723985e+01 -5.8143937548e+01 1.3961949731e+02 1.2500000000e+02 0.0000e+00 0.0000e+00
</event>
<event>
 4      1 +2.4014000e-01 2.50000000e+02 7.54677100e-03 1.02464900e-01
      -11 -1    0    0    0    0 +0.0000000000e+00 +0.0000000000e+00 +1.2500000000e+02 1.2500000000e+02 0.0000000000e+00 0.0000e+00 -1.0000e+00
       11 -1    0    0    0    0 -0.0000000000e+00 -0.0000000000e+00 -1.2500000000e+02 1.2500000000e+02 0.0000000000e+00 0.0000e+00 1.0000e+00
       23  1    1    2    0    0 -2.7734813779e+01 +4.8091524890e+01 -2.8046200599e+01 1.1038050269e+02 9.1188000000e+01 0.0000e+00 1.0000e+00
       25  1    1    2    0    0 +2.7734813779e+01 -4.8091524890e+01 +2.8046200599e+01 1.3961949731e+02 1.2500000000e+02 0.0000e+00 0.0000e+00
</event>
<event>
 4      1 +2.4014000e-01 2.50000000e+02 7.54677100e-03 1.02464900e-01
      -11 -1    0    0    0    0 +0.0000000000e+00 +0.0000000000e+00 +1.2500000000e+02 1.2500000000e+02 0.0000000000e+00 0.0000e+00 -1.0000e+00
       11 -1    0    0    0    0 -0.0000000000e+00 -0.0000000000e+00 -1.2500000000e+02 1.2500000000e+02 0.0000000000e+00 0.0000e+00 1.0000e+00
       23  1    1    2    0    0 +5.7361679992e+01 +9.1506146649e+00 +2.2237534696e+01 1.1038050269e+02 9.1188000000e+01 0.0000e+00 0.0000e+00
       25  1    1    2    0    0 -5.7361679992e+01 -9.1506146649e+00 -2.2237534696e+01 1.3961949731e+02 1.2500000000e+02 0.0000e+00 0.0000e+00
</event>
<event>
 4      1 +2.4014000e-01 2.50000000e+02 7.54677100e-03 1.02464900e-01
      -11 -1    0    0    0    0 +0.0000000000e+00 +0.0000000000e+00 +1.2500000000e+02 1.2500000000e+02 0.0000000000e+00 0.0000e+00 -1.0000e+00
       11 -1    0    0    0    0 -0.0000000000e+00 -0.0000000000e+00 -1.2500000000e+02 1.2500000000e+02 0.0000000000e+00 0.0000e+00 1.0000e+00
       23  1    1    2    0    0 -1.6529404449e+00 -8.1113005163e-01 +6.2170844337e+01 1.1038050269e+02 9.1188000000e+01 0.0000e+00 -1.0000e+00
       25  1    1    2    0    0 +1.6529404449e+00 +8.1113005163e-01 -6.2170844337e+01 1.3961949731e+02 1.2500000000e+02 0.0000e+00 0.0000e+00
</event>
<event>
 4      1 +2.4014000e-01 2.50000000e+02 7.54677100e-03 1.02464900e-01
      -11 -1    0    0    0    0 +0.0000000000e+00 +0.0000000000e+00 +1.2500000000e+02 1.2500000000e+02 0.0000000000e+00 0.0000e+00 1.0000e+00
       11 -1    0    0    0    0 -0.0000000000e+00 -0.0000000000e+00 -1.2500000000e+02 1.2500000000e+02 0.0000000000e+00 0.0000e+00 -1.0000e+00
       23  1    1    2    0    0 +5.2242479888e+01 -1.6879727489e+01 -2.9230157794e+01 1.1038050269e+02 9.1188000000e+01 0.0000e+00 -1.0000e+00
       25  1    1    2    0    0 -5.2242479888e+01 +1.6879727489e+01 +2.9230157794e+01 1.3961949731e+02 1.2500000000e+02 0.0000e+00 0.0000e+00
</event>
<event>
 4      1 +2.4014000e-01 2.50000000e+02 7.54677100e-03 1.02464900e-01
      -11 -1    0    0    0    0 +0.0000000000e+00 +0.0000000000e+00 +1.2500000000e+02 1.2500000000e+02 0.0000000000e+00 0.0000e+00 -1.0000e+00
       11 -1    0    0    0    0 -0.0000000000e+00 -0.0000000000e+00 -1.2500000000e+02 1.2500000000e+02 0.0000000000e+00 0.0000e+00 1.0000e+00
       23  1    1    2    0    0 -3.4466502907e+01 +4.7609154482e+01 +2.0347791442e+01 1.1038050269e+02 9.1188000000e+01 0.0000e+00 0.0000e+00
       25  1    1    2    0    0 +3.4466502907e+01 -4.7609154482e+01 -2.0347791442e+01 1.3961949731e+02 1.2500000000e+02 0.0000e+00 0.0000e+00
</event>
<event>
 4      1 +2.4014000e-01 2.50000000e+02 7.54677100e-03 1.02464900e-01
      -11 -1    0    0    0    0 +0.0000000000e+00 +0.0000000000e+00 +1.2500000000e+02 1.2500000000e+02 0.0000000000e+00 0.0000e+00 -1.0000e+00
       11 -1    0    0    0    0 -0.0000000000e+00 -0.0000000000e+00 -1.2500000000e+02 1.2500000000e+02 0.0000000000e+00 0.0000e+00 1.0000e+00
       23  1    1    2    0    0 -4.6009290513e+01 -4.1853394995e+01 +2.0626078501e-01 1.1038050269e+02 9.1188000000e+01 0.0000e+00 1.0000e+00
       25  1    1    2    0    0 +4.6009290513e+01 +4.1853394995e+01 -2.0626078501e-01 1.3961949731e+02 1.2500000000e+02 0.0000e+00 0.0000e+00
</event>
<event>
 4      1 +2.4014000e-01 2.50000000e+02 7.54677100e-03 1.02464900e-01
      -11 -1    0    0    0    0 +0.0000000000e+00 +0.0000000000e+00 +1.2500000000e+02 1.2500000000e+02 0.0000000000e+00 0.0000e+00 1.0000e+00
       11 -1    0    0    0    0 -0.0000000000e+00 -0.0000000000e+00 -1.2500000000e+02 1.2500000000e+02 0.0000000000e+00 0.0000e+00 -1.0000e+00
       23  1    1    2    0    0 +5.8579627000e+01 -4.8412800678e+00 -2.0336994308e+01 1.1038050269e+02 9.1188000000e+01 0.0000e+00 0.0000e+00
       25  1    1    2    0    0 -5.8579627000e+01 +4.8412800678e+00 +2.0336994308e+01 1.3961949731e+02 1.2500000000e+02 0.0000e+00 0.0000e+00
</event>
<event>
 4      1 +2.4014000e-01 2.50000000e+02 7.54677100e-03 1.02464900e-01
      -11 -1    0    0    0    0 +0.0000000000e+00 +0.0000000000e+00 +1.2500000000e+02 1.2500000000e+02 0.0000000000e+00 0.0000e+00 1.0000e+00
       11 -1    0    0    0    0 -0.0000000000e+00 -0.0000000000e+00 -1.2500000000e+02 1.2500000000e+02 0.0000000000e+00 0.0000e+00 -1.0000e+00
       23  1    1    2    0    0 -5.3186574112e+01 -3.0130865033e+01 -1.1485788448e+01 1.1038050269e+02 9.1188000000e+01 0.0000e+00 0.0000e+00
       25  1    1    2    0    0 +5.3186574112e+01 +3.0130865033e+01 +1.1485788448e+01 1.3961949731e+02 1.2500000000e+02 0.0000e+00 0.0000e+00
</event>
<event>
 4      1 +2.4014000e-01 2.50000000e+02 7.54677100e-03 1.02464900e-01
      -11 -1    0    0    0    0 +0.0000000000e+00 +0.0000000000e+00 +1.2500000000e+02 1.2500000000e+02 0.0000000000e+00 0.0000e+00 1.0000e+00
       11 -1    0    0    0    0 -0.0000000000e+00 -0.0000000000e+00 -1.2500000000e+02 1.2500000000e+02 0.0000000000e+00 0.0000e+00 -1.0000e+00
       23  1    1    2    0    0 +5.5042215662e+01 +2.8137408419e+01 -6.8734832626e+00 1.1038050269e+02 9.1188000000e+01 0.0000e+00 0.0000e+00
       25  1    1    2    0    0 -5.5042215662e+01 -2.8137408419e+01 +6.8734832626e+00 1.3961949731e+02 1.2500000000e+02 0.0000e+00 0.0000e+00
</event>
<event>
 4      1 +2.4014000e-01 2.50000000e+02 7.54677100e-03 1.02464900e-01
      -11 -1    0    0    0    0 +0.0000000000e+00 +0.0000000000e+00 +1.2500000000e+02 1.2500000000e+02 0.0000000000e+00 0.0000e+00 1.0000e+00
       11 -1    0    0    0    0 -0.0000000000e+00 -0.0000000000e+00 -1.2500000000e+02 1.2500000000e+02 0.0000000000e+00 0.0000e+00 -1.0000e+00
       23  1    1    2    0    0 -2.2426220363e+01 +1.3309766386e+01 +5.6466970776e+01 1.1038050269e+02 9.1188000000e+01 0.0000e+00 1.0000e+00
       25  1    1    2    0    0 +2.2426220363e+01 -1.3309766386e+01 -5.6466970776e+01 1.3961949731e+02 1.2500000000e+02 0.0000e+00 0.0000e+00
</event>
<event>
 4      1 +2.4014000e-01 2.50000000e+02 7.54677100e-03 1.02464900e-01
      -11 -1    0    0    0    0 +0.0000000000e+00 +0.0000000000e+00 +1.2500000000e+02 1.2500000000e+02 0.0000000000e+00 0.0000e+00 1.0000e+00
       11 -1    0    0    0    0 -0.0000000000e+00 -0.0000000000e+00 -1.2500000000e+02 1.2500000000e+02 0.0000000000e+00 0.0000e+00 -1.0000e+00
       23  1    1    2    0    0 +4.1013836795e+01 -3.5461373788e+01 -3.0478848240e+01 1.1038050269e+02 9.1188000000e+01 0.0000e+00 -1.0000e+00
       25  1    1    2    0    0 -4.1013836795e+01 +3.5461373788e+01 +3.0478848240e+01 1.3961949731e+02 1.2500000000e+02 0.0000e+00 0.0000e+00
</event>
<event>
 4      1 +2.4014000e-01 2.50000000e+02 7.54677100e-03 1.02464900e-01
      -11 -1    0    0    0    0 +0.0000000000e+00 +0.0000000000e+00 +1.2500000000e+02 1.2500000000e+02 0.0000000000e+00 0.0000e+00 1.0000e+00
       11 -1    0    0    0    0 -0.0000000000e+00 -0.0000000000e+00 -1.2500000000e+02 1.2500000000e+02 0.0000000000e+00 0.0000e+00 -1.0000e+00
       23  1    1    2    0    0 +3.5680431588e+01 +2.7429452685e+01 +4.2931759302e+01 1.1038050269e+02 9.1188000000e+01 0.0000e+00 1.0000e+00
       25  1    1    2    0    0 -3.5680431588e+01 -2.7429452685e+01 -4.2931759302e+01 1.3961949731e+02 1.2500000000e+02 0.0000e+00 0.0000e+00
</event>
<event>
 4      1 +2.4014000e-01 2.50000000e+02 7.54677100e-03 1.02464900e-01
      -11 -1    0    0    0    0 +0.0000000000e+00 +0.0000000000e+00 +1.2500000000e+02 1.2500000000e+02 0.0000000000e+00 0.0000e+00 1.0000e+00
       11 -1    0    0    0    0 -0.0000000000e+00 -0.0000000000e+00 -1.2500000000e+02 1.2500000000e+02 0.0000000000e+00 0.0000e+00 -1.0000e+00
       23  1    1    2    0    0 -4.7043661648e+00 -1.6389507154e+01 -5.9815190578e+01 1.1038050269e+02 9.1188000000e+01 0.0000e+00 -1.0000e+00
       25  1    1    2    0    0 +4.7043661648e+00 +1.6389507154e+01 +5.9815190578e+01 1.3961949731e+02 1.2500000000e+02 0.0000e+00 0.0000e+00
</event>
<event>
 4      1 +2.4014000e-01 2.50000000e+02 7.54677100e-03 1.02464900e-01
      -11 -1    0    0    0    0 +0.0000000000e+00 +0.0000000000e+00 +1.2500000000e+02 1.2500000000e+02 0.0000000000e+00 0.0000e+00 -1.0000e+00
       11 -1    0    0    0    0 -0.0000000000e+00 -0.0000000000e+00 -1.2500000000e+02 1.2500000000e+02 0.0000000000e+00 0.0000e+00 1.0000e+00
       23  1    1    2    0    0 +1.3386692264e+01 +1.8343483761e+01 +5.7904378966e+01 1.1038050269e+02 9.1188000000e+01 0.0000e+00 -1.0000e+00
       25  1    1    2    0    0 -1.3386692264e+01 -1.8343483761e+01 -5.7904378966e+01 1.3961949731e+02 1.2500000000e+02 0.0000e+00 0.0000e+00
</event>
<event>
 4      1 +2.4014000e-01 2.50000000e+02 7.54677100e-03 1.02464900e-01
      -11 -1    0    0    0    0 +0.0000000000e+00 +0.0000000000e+00 +1.2500000000e+02 1.2500000000e+02 0.0000000000e+00 0.0000e+00 -1.0000e+00
       11 -1    0    0    0    0 -0.0000000000e+00 -0.0000000000e+00 -1.2500000000e+02 1.2500000000e+02 0.0000000000e+00 0.0000e+00 1.0000e+00
       23  1    1    2    0    0 +4.6982818944e+01 -4.0687849390e+01 -2.3911641013e+00 1.1038050269e+02 9.1188000000e+01 0.0000e+00 0.0000e+00
       25  1    1    2    0    0 -4.6982818944e+01 +4.0687849390e+01 +2.3911641013e+00 1.3961949731e+02 1.2500000000e+02 0.0000e+00 0.0000e+00
</event>
<event>
 4      1 +2.4014000e-01 2.50000000e+02 7.54677100e-03 1.02464900e-01
      -11 -1    0    0    0    0 +0.0000000000e+00 +0.0000000000e+00 +1.2500000000e+02 1.2500000000e+02 0.0000000000e+00 0.0000e+00 1.0000e+00
       11 -1    0    0    0    0 -0.0000000000e+00 -0.0000000000e+00 -1.2500000000e+02 1.2500000000e+02 0.0000000000e+00 0.0000e+00 -1.0000e+00
       23  1    1    2    0    0 +4.0356324541e+01 -4.6325453396e+01 +9.6914120162e+00 1.1038050269e+02 9.1188000000e+01 0.0000e+00 -1.0000e+00
       25  1    1    2    0    0 -4.0356324541e+01 +4.6325453396e+01 -9.6914120162e+00 1.3961949731e+02 1.2500000000e+02 0.0000e+00 0.0000e+00
</event>
<event>
 4      1 +2.4014000e-01 2.50000000e+02 7.54677100e-03 1.02464900e-01
      -11 -1    0    0    0    0 +0.0000000000e+00 +0.0000000000e+00 +1.2500000000e+02 1.2500000000e+02 0.0000000000e+00 0.0000e+00 1.0000e+00
       11 -1    0    0    0    0 -0.0000000000e+00 -0.0000000000e+00 -1.2500000000e+02 1.2500000000e+02 0.0000000000e+00 0.0000e+00 -1.0000e+00
       23  1    1    2    0    0 -3.7488751636e+01 +4.8396414831e+01 -1.0999298247e+01 1.1038050269e+02 9.1188000000e+01 0.0000e+00 0.0000e+00
       25  1    1    2    0    0 +3.7488751636e+01 -4.8396414831e+01 +1.0999298247e+01 1.3961949731e+02 1.2500000000e+02 0.0000e+00 0.0000e+00
</event>
<event>
 4      1 +2.4014000e-01 2.50000000e+02 7.54677100e-03 1.02464900e-01
      -11 -1    0    0    0    0 +0.0000000000e+00 +0.0000000000e+00 +1.2500000000e+02 1.2500000000e+02 0.0000000000e+00 0.0000e+00 -1.0000e+00
       11 -1    0    0    0    0 -0.0000000000e+00 -0.0000000000e+00 -1.2500000000e+02 1.2500000000e+02 0.0000000000e+00 0.0000e+00 1.0000e+00
       23  1    1    2    0    0 -1.2162642227e+01 +1.7344545586e+01 +5.8479405795e+01 1.1038050269e+02 9.1188000000e+01 0.0000e+00 -1.0000e+00
       25  1    1    2    0    0 +1.2162642227e+01 -1.7344545586e+01 -5.8479405795e+01 1.3961949731e+02 1.2500000000e+02 0.0000e+00 0.0000e+00
</event>
<event>
 4      1 +2.4014000e-01 2.50000000e+02 7.54677100e-03 1.02464900e-01
      -11 -1    0    0    0    0 +0.0000000000e+00 +0.0000000000e+00 +1.2500000000e+02 1.2500000000e+02 0.0000000000e+00 0.0000e+00 -1.0000e+00
       11 -1    0    0    0    0 -0.0000000000e+00 -0.0000000000e+00 -1.2500000000e+02 1.2500000000e+02 0.0000000000e+00 0.0000e+00 1.0000e+00
       23  1    1    2    0    0 +3.9897323668e+01 -2.4716654271e+01 +4.0815372048e+01 1.1038050269e+02 9.1188000000e+01 0.0000e+00 0.0000e+00
       25  1    1    2    0    0 -3.9897323668e+01 +2.4716654271e+01 -4.0815372048e+01 1.3961949731e+02 1.2500000000e+02 0.0000e+00 0.0000e+00
</event>
<event>
 4      1 +2.4014000e-01 2.50000000e+02 7.54677100e-03 1.02464900e-01
      -11 -1    0    0    0    0 +0.0000000000e+00 +0.0000000000e+00 +1.2500000000e+02 1.2500000000e+02 0.0000000000e+00 0.0000e+00 -1.0000e+00
       11 -1    0    0    0    0 -0.0000000000e+00 -0.0000000000e+00 -1.2500000000e+02 1.2500000000e+02 0.0000000000e+00 0.0000e+00 1.0000e+00
       23  1    1    2    0    0 -2.4930836458e+01 +1.6326033355e+01 -5.4594121094e+01 1.1038050269e+02 9.1188000000e+01 0.0000e+00 1.0000e+00
       25  1    1    2    0    0 +2.4930836458e+01 -1.6326033355e+01 +5.4594121094e+01 1.3961949731e+02 1.2500000000e+02 0.0000e+00 0.0000e+00
</event>
<event>
 4      1 +2.4014000e-01 2.50000000e+02 7.54677100e-03 1.02464900e-01
      -11 -1    0    0    0    0 +0.0000000000e+00 +0.0000000000e+00 +1.2500000000e+02 1.2500000000e+02 0.0000000000e+00 0.0000e+00 1.0000e+00
       11 -1    0    0    0    0 -0.0000000000e+00 -0.0000000000e+00 -1.2500000000e+02 1.2500000000e+02 0.0000000000e+00 0.0000e+00 -1.0000e+00
       23  1    1    2    0    0 -2.9644660972e+01 +5.4658408468e+01 -1.5021615136e+00 1.1038050269e+02 9.1188000000e+01 0.0000e+00 -1.0000e+00
       25  1    1    2    0    0 +2.9644660972e+01 -5.4658408468e+01 +1.5021615136e+00 1.3961949731e+02 1.2500000000e+02 0.0000e+00 0.0000e+00
</event>
<event>
 4      1 +2.4014000e-01 2.50000000e+02 7.54677100e-03 1.02464900e-01
      -11 -1    0    0    0    0 +0.0000000000e+00 +0.0000000000e+00 +1.2500000000e+02 1.2500000000e+02 0.0000000000e+00 0.0000e+00 1.0000e+00
       11 -1    0    0    0    0 -0.0000000000e+00 -0.0000000000e+00 -1.2500000000e+02 1.2500000000e+02 0.0000000000e+00 0.0000e+00 -1.0000e+00
       23  1    1    2    0    0 -4.2360004692e+01 +2.4900167161e+01 -3.8134180304e+01 1.1038050269e+02 9.1188000000e+01 0.0000e+00 1.0000e+00
       25  1    1    2    0    0 +4.2360004692e+01 -2.4900167161e+01 +3.8134180304e+01 1.3961949731e+02 1.2500000000e+02 0.0000e+00 0.0000e+00
</event>
<event>
 4      1 +2.4014000e-01 2.50000000e+02 7.54677100e-03 1.02464900e-01
      -11 -1    0    0    0    0 +0.0000000000e+00 +0.0000000000e+00 +1.2500000000e+02 1.2500000000e+02 0.0000000000e+00 0.0000e+00 -1.0000e+00
       11 -1    0    0    0    0 -0.0000000000e+00 -0.0000000000e+00 -1.2500000000e+02 1.2500000000e+02 0.0000000000e+00 0.0000e+00 1.0000e+00
       23  1    1    2    0    0 +1.4835839754e+00 +6.2142668326e+01 +2.1660520576e+00 1.1038050269e+02 9.1188000000e+01 0.0000e+00 -1.0000e+00
       25  1    1    2    0    0 -1.4835839754e+00 -6.2142668326e+01 -2.1660520576e+00 1.3961949731e+02 1.2500000000e+02 0.0000e+00 0.0000e+00
</event>
<event>
 4      1 +2.4014000e-01 2.50000000e+02 7.54677100e-03 1.02464900e-01
      -11 -1    0    0    0    0 +0.0000000000e+00 +0.0000000000e+00 +1.2500000000e+02 1.2500000000e+02 0.0000000000e+00 0.0000e+00 1.0000e+00
       11 -1    0    0    0    0 -0.0000000000e+00 -0.0000000000e+00 -1.2500000000e+02 1.2500000000e+02 0.0000000000e+00 0.0000e+00 -1.0000e+00
       23  1    1    2    0    0 +5.3298913611e+01 -2.9421427252e+01 +1.2736147613e+01 1.1038050269e+02 9.1188000000e+01 0.0000e+00 0.0000e+00
       25  1    1    2    0    0 -5.3298913611e+01 +2.9421427252e+01 -1.2736147613e+01 1.3961949731e+02 1.2500000000e+02 0.0000e+00 0.0000e+00
</event>
<event>
 4      1 +2.4014000e-01 2.50000000e+02 7.54677100e-03 1.02464900e-01
      -11 -1    0    0    0    0 +0.0000000000e+00 +0.0000000000e+00 +1.2500000000e+02 1.2500000000e+02 0.0000000000e+00 0.0000e+00 1.0000e+00
       11 -1    0    0    0    0 -0.0000000000e+00 -0.0000000000e+00 -1.2500000000e+02 1.2500000000e+02 0.0000000000e+00 0.0000e+00 -1.0000e+00
       23  1    1    2    0    0 +5.5205061675e+01 +1.4074477312e+01 +2.4958250810e+01 1.1038050269e+02 9.1188000000e+01 0.0000e+00 1.0000e+00
       25  1    1    2    0    0 -5.5205061675e+01 -1.4074477312e+01 -2.4958250810e+01 1.3961949731e+02 1.2500000000e+02 0.0000e+00 0.0000e+00
</event>
<event>
 4      1 +2.4014000e-01 2.50000000e+02 7.54677100e-03 1.02464900e-01
      -11 -1    0    0    0    0 +0.0000000000e+00 +0.0000000000e+00 +1.2500000000e+02 1.2500000000e+02 0.0000000000e+00 0.0000e+00 1.0000e+00
       11 -1    0    0    0    0 -0.0000000000e+00 -0.0000000000e+00 -1.2500000000e+02 1.2500000000e+02 0.0000000000e+00 0.0000e+00 -1.0000e+00
       23  1    1    2    0    0 -3.7469193179e+00 -2.0707854851e+01 -5.8529901527e+01 1.1038050269e+02 9.1188000000e+01 0.0000e+00 -1.0000e+00
       25  1    1    2    0    0 +3.7469193179e+00 +2.0707854851e+01 +5.8529901527e+01 1.3961949731e+02 1.2500000000e+02 0.0000e+00 0.0000e+00
</event>
<event>
 4      1 +2.4014000e-01 2.50000000e+02 7.54677100e-03 1.02464900e-01
      -11 -1    0    0    0    0 +0.0000000000e+00 +0.0000000000e+00 +1.2500000000e+02 1.2500000000e+02 0.0000000000e+00 0.0000e+00 1.0000e+00
       11 -1    0    0    0    0 -0.0000000000e+00 -0.0000000000e+00 -1.2500000000e+02 1.2500000000e+02 0.0000000000e+00 0.0000e+00 -1.0000e+00
       23  1    1    2    0    0 -3.1314651495e+01 -2.0302790671e+01 +4.9757344406e+01 1.1038050269e+02 9.1188000000e+01 0.0000e+00 0.0000e+00
       25  1    1    2    0    0 +3.1314651495e+01 +2.0302790671e+01 -4.9757344406e+01 1.3961949731e+02 1.2500000000e+02 0.0000e+00 0.0000e+00
</event>
<event>
 4      1 +2.4014000e-01 2.50000000e+02 7.54677100e-03 1.02464900e-01
      -11 -1    0    0    0    0 +0.0000000000e+00 +0.0000000000e+00 +1.2500000000e+02 1.2500000000e+02 0.0000000000e+00 0.0000e+00 1.0000e+00
       11 -1    0    0    0    0 -0.0000000000e+00 -0.0000000000e+00 -1.2500000000e+02 1.2500000000e+02 0.0000000000e+00 0.0000e+00 -1.0000e+00
       23  1    1    2    0    0 +2.1481994609e+01 +5.6008634392e+01 -1.6436569315e+01 1.1038050269e+02 9.1188000000e+01 0.0000e+00 0.0000e+00
       25  1    1    2    0    0 -2.1481994609e+01 -5.6008634392e+01 +1.6436569315e+01 1.3961949731e+02 1.2500000000e+02 0.0000e+00 0.0000e+00
</event>
<event>
 4      1 +2.4014000e-01 2.50000000e+02 7.54677100e-03 1.02464900e-01
      -11 -1    0    0    0    0 +0.0000000000e+00 +0.0000000000e+00 +1.2500000000e+02 1.2500000000e+02 0.0000000000e+00 0.0000e+00 -1.0000e+00
       11 -1    0    0    0    0 -0.0000000000e+00 -0.0000000000e+00 -1.2500000000e+02 1.2500000000e+02 0.0000000000e+00 0.0000e+00 1.0000e+00
       23  1    1    2    0    0 -5.2879715491e+01 +2.3089081949e+01 -2.3221412834e+01 1.1038050269e+02 9.1188000000e+01 0.0000e+00 -1.0000e+00
       25  1    1    2    0    0 +5.2879715491e+01 -2.3089081949e+01 +2.3221412834e+01 1.3961949731e+02 1.2500000000e+02 0.0000e+00 0.0000e+00
</event>
<event>
 4      1 +2.4014000e-01 2.50000000e+02 7.54677100e-03 1.02464900e-01
      -11 -1    0    0    0    0 +0.0000000000e+00 +0.0000000000e+00 +1.2500000000e+02 1.2500000000e+02 0.0000000000e+00 0.0000e+00 1.0000e+00
       11 -1    0    0    0    0 -0.0000000000e+00 -0.0000000000e+00 -1.2500000000e+02 1.2500000000e+02 0.0000000000e+00 0.0000e+00 -1.0000e+00
       23  1    1    2    0    0 +4.6472898369e+01 +1.6379637305e+01 +3.7954989508e+01 1.1038050269e+02 9.1188000000e+01 0.0000e+00 1.0000e+00
       25  1    1    2    0    0 -4.6472898369e+01 -1.6379637305e+01 -3.7954989508e+01 1.3961949731e+02 1.2500000000e+02 0.0000e+00 0.0000e+00
</event>
<event>
 4      1 +2.4014000e-01 2.50000000e+02 7.54677100e-03 1.02464900e-01
      -11 -1    0    0    0    0 +0.0000000000e+00 +0.0000000000e+00 +1.2500000000e+02 1.2500000000e+02 0.0000000000e+00 0.0000e+00 -1.0000e+00
       11 -1    0    0    0    0 -0.0000000000e+00 -0.0000000000e+00 -1.2500000000e+02 1.2500000000e+02 0.0000000000e+00 0.0000e+00 1.0000e+00
       23  1    1    2    0    0 +5.8219527186e+01 +6.9156361155e+00 +2.0766912649e+01 1.1038050269e+02 9.1188000000e+01 0.0000e+00 -1.0000e+00
       25  1    1    2    0    0 -5.8219527186e+01 -6.9156361155e+00 -2.0766912649e+01 1.3961949731e+02 1.2500000000e+02 0.0000e+00 0.0000e+00
</event>
<event>
 4      1 +2.4014000e-01 2.50000000e+02 7.54677100e-03 1.02464900e-01
      -11 -1    0    0    0    0 +0.0000000000e+00 +0.0000000000e+00 +1.2500000000e+02 1.2500000000e+02 0.0000000000e+00 0.0000e+00 1.0000e+00
       11 -1    0    0    0    0 -0.0000000000e+00 -0.0000000000e+00 -1.2500000000e+02 1.2500000000e+02 0.0000000000e+00 0.0000e+00 -1.0000e+00
       23  1    1    2    0    0 -1.0952880322e+01 +4.8492142148e+01 +3.7378477660e+01 1.1038050269e+02 9.1188000000e+01 0.0000e+00 1.0000e+00
       25  1    1    2    0    0 +1.0952880322e+01 -4.8492142148e+01 -3.7378477660e+01 1.3961949731e+02 1.2500000000e+02 0.0000e+00 0.0000e+00
</event>
<event>
 4      1 +2.4014000e-01 2.50000000e+02 7.54677100e-03 1.02464900e-01
      -11 -1    0    0    0    0 +0.0000000000e+00 +0.0000000000e+00 +1.2500000000e+02 1.2500000000e+02 0.0000000000e+00 0.0000e+00 1.0000e+00
       11 -1    0    0    0    0 -0.0000000000e+00 -0.0000000000e+00 -1.2500000000e+02 1.2500000000e+02 0.0000000000e+00 0.0000e+00 -1.0000e+00
       23  1    1    2    0    0 +4.0077069556e+01 -1.8236719309e+00 -4.7530061499e+01 1.1038050269e+02 9.1188000000e+01 0.0000e+00 0.0000e+00
       25  1    1    2    0    0 -4.0077069556e+01 +1.8236719309e+00 +4.7530061499e+01 1.3961949731e+02 1.2500000000e+02 0.0000e+00 0.0000e+00
</event>
<event>
 4      1 +2.4014000e-01 2.50000000e+02 7.54677100e-03 1.02464900e-01
      -11 -1    0    0    0    0 +0.0000000000e+00 +0.0000000000e+00 +1.2500000000e+02 1.2500000000e+02 0.0000000000e+00 0.0000e+00 -1.0000e+00
       11 -1    0    0    0    0 -0.0000000000e+00 -0.0000000000e+00 -1.2500000000e+02 1.2500000000e+02 0.0000000000e+00 0.0000e+00 1.0000e+00
       23  1    1    2    0    0 +6.3772299600e-02 -5.0696363904e+01 +3.6034409246e+01 1.1038050269e+02 9.1188000000e+01 0.0000e+00 -1.0000e+00
       25  1    1    2    0    0 -6.3772299600e-02 +5.0696363904e+01 -3.6034409246e+01 1.3961949731e+02 1.2500000000e+02 0.0000e+00 0.0000e+00
</event>
<event>
 4      1 +2.4014000e-01 2.50000000e+02 7.54677100e-03 1.02464900e-01
      -11 -1    0    0    0    0 +0.0000000000e+00 +0.0000000000e+00 +1.2500000000e+02 1.2500000000e+02 0.0000000000e+00 0.0000e+00 1.0000e+00
       11 -1    0    0    0    0 -0.0000000000e+00 -0.0000000000e+00 -1.2500000000e+02 1.2500000000e+02 0.0000000000e+00 0.0000e+00 -1.0000e+00
       23  1    1    2    0    0 +1.8983773354e+01 +5.6030290482e+01 -1.9204867285e+01 1.1038050269e+02 9.1188000000e+01 0.0000e+00 -1.0000e+00
       25  1    1    2    0    0 -1.8983773354e+01 -5.6030290482e+01 +1.9204867285e+01 1.3961949731e+02 1.2500000000e+02 0.0000e+00 0.0000e+00
</event>
<event>
 4      1 +2.4014000e-01 2.50000000e+02 7.54677100e-03 1.02464900e-01
      -11 -1    0    0    0    0 +0.0000000000e+00 +0.0000000000e+00 +1.2500000000e+02 1.2500000000e+02 0.0000000000e+00 0.0000e+00 1.0000e+00
       11 -1    0    0    0    0 -0.0000000000e+00 -0.0000000000e+00 -1.2500000000e+02 1.2500000000e+02 0.0000000000e+00 0.0000e+00 -1.0000e+00
       23  1    1    2    0    0 -3.7857406034e+01 -4.8427928126e+01 -9.4950837533e+00 1.1038050269e+02 9.1188000000e+01 0.0000e+00 0.0000e+00
       25  1    1    2    0    0 +3.7857406034e+01 +4.8427928126e+01 +9.4950837533e+00 1.3961949731e+02 1.2500000000e+02 0.0000e+00 0.0000e+00
</event>
<event>
 4      1 +2.4014000e-01 2.50000000e+02 7.54677100e-03 1.02464900e-01
      -11 -1    0    0    0    0 +0.0000000000e+00 +0.0000000000e+00 +1.2500000000e+02 1.2500000000e+02 0.0000000000e+00 0.0000e+00 -1.0000e+00
       11 -1    0    0    0    0 -0.0000000000e+00 -0.0000000000e+00 -1.2500000000e+02 1.2500000000e+02 0.0000000000e+00 0.0000e+00 1.0000e+00
       23  1    1    2    0    0 -5.7329008484e+01 -8.3845261088e+00 -2.2620533544e+01 1.1038050269e+02 9.1188000000e+01 0.0000e+00 0.0000e+00
       25  1    1    2    0    0 +5.7329008484e+01 +8.3845261088e+00 +2.2620533544e+01 1.3961949731e+02 1.2500000000e+02 0.0000e+00 0.0000e+00
</event>
<event>
 4      1 +2.4014000e-01 2.50000000e+02 7.54677100e-03 1.02464900e-01
      -11 -1    0    0    0    0 +0.0000000000e+00 +0.0000000000e+00 +1.2500000000e+02 1.2500000000e+02 0.0000000000e+00 0.0000e+00 1.0000e+00
       11 -1    0    0    0    0 -0.0000000000e+00 -0.0000000000e+00 -1.2500000000e+02 1.2500000000e+02 0.0000000000e+00 0.0000e+00 -1.0000e+00
       23  1    1    2    0    0 +8.9857949777e+00 -3.4437406282e-01 +6.1544625474e+01 1.1038050269e+02 9.1188000000e+01 0.0000e+00 1.0000e+00
       25  1    1    2    0    0 -8.9857949777e+00 +3.4437406282e-01 -6.1544625474e+01 1.3961949731e+02 1.2500000000e+02 0.0000e+00 0.0000e+00
</event>
<event>
 4      1 +2.4014000e-01 2.50000000e+02 7.54677100e-03 1.02464900e-01
      -11 -1    0    0    0    0 +0.0000000000e+00 +0.0000000000e+00 +1.2500000000e+02 1.2500000000e+02 0.0000000000e+00 0.0000e+00 1.0000e+00
       11 -1    0    0    0    0 -0.0000000000e+00 -0.0000000000e+00 -1.2500000000e+02 1.2500000000e+02 0.0000000000e+00 0.0000e+00 -1.0000e+00
       23  1    1    2    0    0 +5.7241338572e+01 -2.4083223898e+01 +3.4686473994e+00 1.1038050269e+02 9.1188000000e+01 0.0000e+00 -1.0000e+00
       25  1    1    2    0    0 -5.7241338572e+01 +2.4083223898e+01 -3.4686473994e+00 1.3961949731e+02 1.2500000000e+02 0.0000e+00 0.0000e+00
</event>
<event>
 4      1 +2.4014000e-01 2.50000000e+02 7.54677100e-03 1.02464900e-01
      -11 -1    0    0    0    0 +0.0000000000e+00 +0.0000000000e+00 +1.2500000000e+02 1.2500000000e+02 0.0000000000e+00 0.0000e+00 1.0000e+00
       11 -1    0    0    0    0 -0.0000000000e+00 -0.0000000000e+00 -1.2500000000e+02 1.2500000000e+02 0.0000000000e+00 0.0000e+00 -1.0000e+00
       23  1    1    2    0    0 +2.4816920897e+01 +2.3878891626e+01 +5.1793078703e+01 1.1038050269e+02 9.1188000000e+01 0.0000e+00 1.0000e+00
       25  1    1    2    0    0 -2.4816920897e+01 -2.3878891626e+01 -5.1793078703e+01 1.3961949731e+02 1.2500000000e+02 0.0000e+00 0.0000e+00
</event>
<event>
 4      1 +2.4014000e-01 2.50000000e+02 7.54677100e-03 1.02464900e-01
      -11 -1    0    0    0    0 +0.0000000000e+00 +0.0000000000e+00 +1.2500000000e+02 1.2500000000e+02 0.0000000000e+00 0.0000e+00 1.0000e+00
       11 -1    0    0    0    0 -0.0000000000e+00 -0.0000000000e+00 -1.2500000000e+02 1.2500000000e+02 0.0000000000e+00 0.0000e+00 -1.0000e+00
       23  1    1    2    0    0 -5.4801343421e+01 -2.6556566233e+01 -1.2655654024e+01 1.1038050269e+02 9.1188000000e+01 0.0000e+00 1.0000e+00
       25  1    1    2    0    0 +5.4801343421e+01 +2.6556566233e+01 +1.2655654024e+01 1.3961949731e+02 1.2500000000e+02 0.0000e+00 0.0000e+00
</event>
<event>
 4      1 +2.4014000e-01 2.50000000e+02 7.54677100e-03 1.02464900e-01
      -11 -1    0    0    0    0 +0.0000000000e+00 +0.0000000000e+00 +1.2500000000e+02 1.2500000000e+02 0.0000000000e+00 0.0000e+00 1.0000e+00
       11 -1    0    0    0    0 -0.0000000000e+00 -0.0000000000e+00 -1.2500000000e+02 1.2500000000e+02 0.0000000000e+00 0.0000e+00 -1.0000e+00
       23  1    1    2    0    0 +3.6829085410e+01 +8.0105890470e+00 -4.9477802706e+01 1.1038050269e+02 9.1188000000e+01 0.0000e+00 -1.0000e+00
       25  1    1    2    0    0 -3.6829085410e+01 -8.0105890470e+00 +4.9477802706e+01 1.3961949731e+02 1.2500000000e+02 0.0000e+00 0.0000e+00
</event>
<event>
 4      1 +2.4014000e-01 2.50000000e+02 7.54677100e-03 1.02464900e-01
      -11 -1    0    0    0    0 +0.0000000000e+00 +0.0000000000e+00 +1.2500000000e+02 1.2500000000e+02 0.0000000000e+00 0.0000e+00 1.0000e+00
       11 -1    0    0    0    0 -0.0000000000e+00 -0.0000000000e+00 -1.2500000000e+02 1.2500000000e+02 0.0000000000e+00 0.0000e+00 -1.0000e+00
       23  1    1    2    0    0 +3.7578382970e+01 -4.6126212505e+01 +1.8133992473e+01 1.1038050269e+02 9.1188000000e+01 0.0000e+00 0.0000e+00
       25  1    1    2    0    0 -3.7578382970e+01 +4.6126212505e+01 -1.8133992473e+01 1.3961949731e+02 1.2500000000e+02 0.0000e+00 0.0000e+00
</event>
<event>
 4      1 +2.4014000e-01 2.50000000e+02 7.54677100e-03 1.02464900e-01
      -11 -1    0    0    0    0 +0.0000000000e+00 +0.0000000000e+00 +1.2500000000e+02 1.2500000000e+02 0.0000000000e+00 0.0000e+00 -1.0000e+00
       11 -1    0    0    0    0 -0.0000000000e+00 -0.0000000000e+00 -1.2500000000e+02 1.2500000000e+02 0.0000000000e+00 0.0000e+00 1.0000e+00
       23  1    1    2    0    0 +1.2891068297e+01 +1.0849375184e+00 -6.0837877169e+01 1.1038050269e+02 9.1188000000e+01 0.0000e+00 1.0000e+00
       25  1    1    2    0    0 -1.2891068297e+01 -1.0849375184e+00 +6.0837877169e+01 1.3961949731e+02 1.2500000000e+02 0.0000e+00 0.0000e+00
</event>
<event>
 4      1 +2.4014000e-01 2.50000000e+02 7.54677100e-03 1.02464900e-01
      -11 -1    0    0    0    0 +0.0000000000e+00 +0.0000000000e+00 +1.2500000000e+02 1.2500000000e+02 0.0000000000e+00 0.0000e+00 1.0000e+00
       11 -1    0    0    0    0 -0.0000000000e+00 -0.0000000000e+00 -1.2500000000e+02 1.2500000000e+02 0.0000000000e+00 0.0000e+00 -1.0000e+00
       23  1    1    2    0    0 +5.7606457022e+01 +1.6896286778e+01 -1.6267010548e+01 1.1038050269e+02 9.1188000000e+01 0.0000e+00 0.0000e+00
       25  1    1    2    0    0 -5.7606457022e+01 -1.6896286778e+01 +1.6267010548e+01 1.3961949731e+02 1.2500000000e+02 0.0000e+00 0.0000e+00
</event>
<event>
 4      1 +2.4014000e-01 2.50000000e+02 7.54677100e-03 1.02464900e-01
      -11 -1    0    0    0    0 +0.0000000000e+00 +0.0000000000e+00 +1.2500000000e+02 1.2500000000e+02 0.0000000000e+00 0.0000e+00 1.0000e+00
       11 -1    0    0    0    0 -0.0000000000e+00 -0.0000000000e+00 -1.2500000000e+02 1.2500000000e+02 0.0000000000e+00 0.0000e+00 -1.0000e+00
       23  1    1    2    0    0 +3.1536351514e+01 -4.7311828424e+01 -2.5212168768e+01 1.1038050269e+02 9.1188000000e+01 0.0000e+00 0.0000e+00
       25  1    1    2    0    0 -3.1536351514e+01 +4.7311828424e+01 +2.5212168768e+01 1.3961949731e+02 1.2500000000e+02 0.0000e+00 0.0000e+00
</event>
<event>
 4      1 +2.4014000e-01 2.50000000e+02 7.54677100e-03 1.02464900e-01
      -11 -1    0    0    0    0 +0.0000000000e+00 +0.0000000000e+00 +1.2500000000e+02 1.2500000000e+02 0.0000000000e+00 0.0000e+00 1.0000e+00
       11 -1    0    0    0    0 -0.0000000000e+00 -0.0000000000e+00 -1.2500000000e+02 1.2500000000e+02 0.0000000000e+00 0.0000e+00 -1.0000e+00
       23  1    1    2    0    0 -5.0628869804e+01 +3.0192190396e+01 +1.9843215744e+01 1.1038050269e+02 9.1188000000e+01 0.0000e+00 1.0000e+00
       25  1    1    2    0    0 +5.0628869804e+01 -3.0192190396e+01 -1.9843215744e+01 1.3961949731e+02 1.2500000000e+02 0.0000e+00 0.0000e+00
</event>
<event>
 4      1 +2.4014000e-01 2.50000000e+02 7.54677100e-03 1.02464900e-01
      -11 -1    0    0    0    0 +0.0000000000e+00 +0.0000000000e+00 +1.2500000000e+02 1.2500000000e+02 0.0000000000e+00 0.0000e+00 1.0000e+00
       11 -1    0    0    0    0 -0.0000000000e+00 -0.0000000000e+00 -1.2500000000e+02 1.2500000000e+02 0.0000000000e+00 0.0000e+00 -1.0000e+00
       23  1    1    2    0    0 +3.1788948418e+01 +2.0352171789e+01 -4.9435370855e+01 1.1038050269e+02 9.1188000000e+01 0.0000e+00 0.0000e+00
       25  1    1    2    0    0 -3.1788948418e+01 -2.0352171789e+01 +4.9435370855e+01 1.3961949731e+02 1.2500000000e+02 0.0000e+00 0.0000e+00
</event>
<event>
 4      1 +2.4014000e-01 2.50000000e+02 7.54677100e-03 1.02464900e-01
      -11 -1    0    0    0    0 +0.0000000000e+00 +0.0000000000e+00 +1.2500000000e+02 1.2500000000e+02 0.0000000000e+00 0.0000e+00 -1.0000e+00
       11 -1    0    0    0    0 -0.0000000000e+00 -0.0000000000e+00 -1.2500000000e+02 1.2500000000e+02 0.0000000000e+00 0.0000e+00 1.0000e+00
       23  1    1    2    0    0 +5.1020984075e+01 -6.6315620533e+00 +3.4949758203e+01 1.1038050269e+02 9.1188000000e+01 0.0000e+00 1.0000e+00
       25  1    1    2    0    0 -5.1020984075e+01 +6.6315620533e+00 -3.4949758203e+01 1.3961949731e+02 1.2500000000e+02 0.0000e+00 0.0000e+00
</event>
<event>
 4      1 +2.4014000e-01 2.50000000e+02 7.54677100e-03 1.02464900e-01
      -11 -1    0    0    0    0 +0.0000000000e+00 +0.0000000000e+00 +1.2500000000e+02 1.2500000000e+02 0.0000000000e+00 0.0000e+00 -1.0000e+00
       11 -1    0    0    0    0 -0.0000000000e+00 -0.0000000000e+00 -1.2500000000e+02 1.2500000000e+02 0.0000000000e+00 0.0000e+00 1.0000e+00
       23  1    1    2    0    0 +4.9311793263e+01 +2.0070199839e+01 -3.2158018490e+01 1.1038050269e+02 9.1188000000e+01 0.0000e+00 1.0000e+00
       25  1    1    2    0    0 -4.9311793263e+01 -2.0070199839e+01 +3.2158018490e+01 1.3961949731e+02 1.2500000000e+02 0.0000e+00 0.0000e+00
</event>
<event>
 4      1 +2.4014000e-01 2.50000000e+02 7.54677100e-03 1.02464900e-01
      -11 -1    0    0    0    0 +0.0000000000e+00 +0.0000000000e+00 +1.2500000000e+02 1.2500000000e+02 0.0000000000e+00 0.0000e+00 -1.0000e+00
       11 -1    0    0    0    0 -0.0000000000e+00 -0.0000000000e+00 -1.2500000000e+02 1.2500000000e+02 0.0000000000e+00 0.0000e+00 1.0000e+00
       23  1    1    2    0    0 +3.1399231352e+00 +2.9920339872e+01 -5.4438205098e+01 1.1038050269e+02 9.1188000000e+01 0.0000e+00 1.0000e+00
       25  1    1    2    0    0 -3.1399231352e+00 -2.9920339872e+01 +5.4438205098e+01 1.3961949731e+02 1.2500000000e+02 0.0000e+00 0.0000e+00
</event>
<event>
 4      1 +2.4014000e-01 2.50000000e+02 7.54677100e-03 1.02464900e-01
      -11 -1    0    0    0    0 +0.0000000000e+00 +0.0000000000e+00 +1.2500000000e+02 1.2500000000e+02 0.0000000000e+00 0.0000e+00 1.0000e+00
       11 -1    0    0    0    0 -0.0000000000e+00 -0.0000000000e+00 -1.2500000000e+02 1.2500000000e+02 0.0000000000e+00 0.0000e+00 -1.0000e+00
       23  1    1    2    0    0 -2.2253922422e+01 -3.4963602663e+01 -4.6377941473e+01 1.1038050269e+02 9.1188000000e+01 0.0000e+00 -1.0000e+00
       25  1    1    2    0    0 +2.2253922422e+01 +3.4963602663e+01 +4.6377941473e+01 1.3961949731e+02 1.2500000000e+02 0.0000e+00 0.0000e+00
</event>
<event>
 4      1 +2.4014000e-01 2.50000000e+02 7.54677100e-03 1.02464900e-01
      -11 -1    0    0    0    0 +0.0000000000e+00 +0.0000000000e+00 +1.2500000000e+02 1.2500000000e+02 0.0000000000e+00 0.0000e+00 1.0000e+00
       11 -1    0    0    0    0 -0.0000000000e+00 -0.0000000000e+00 -1.2500000000e+02 1.2500000000e+02 0.0000000000e+00 0.0000e+00 -1.0000e+00
       23  1    1    2    0    0 -4.2208628135e+01 -1.6564687659e+01 +4.2575190703e+01 1.1038050269e+02 9.1188000000e+01 0.0000e+00 1.0000e+00
       25  1    1    2    0    0 +4.2208628135e+01 +1.6564687659e+01 -4.2575190703e+01 1.3961949731e+02 1.2500000000e+02 0.0000e+00 0.0000e+00
</event>
<event>
 4      1 +2.4014000e-01 2.50000000e+02 7.54677100e-03 1.02464900e-01
      -11 -1    0    0    0    0 +0.0000000000e+00 +0.0000000000e+00 +1.2500000000e+02 1.2500000000e+02 0.0000000000e+00 0.0000e+00 -1.0000e+00
       11 -1    0    0    0    0 -0.0000000000e+00 -0.0000000000e+00 -1.2500000000e+02 1.2500000000e+02 0.0000000000e+00 0.0000e+00 1.0000e+00
       23  1    1    2    0    0 +1.2505412763e+01 -5.8343859482e+01 -1.7555988780e+01 1.1038050269e+02 9.1188000000e+01 0.0000e+00 0.0000e+00
       25  1    1    2    0    0 -1.2505412763e+01 +5.8343859482e+01 +1.7555988780e+01 1.3961949731e+02 1.2500000000e+02 0.0000e+00 0.0000e+00
</event>
<event>
 4      1 +2.4014000e-01 2.50000000e+02 7.54677100e-03 1.02464900e-01
      -11 -1    0    0    0    0 +0.0000000000e+00 +0.0000000000e+00 +1.2500000000e+02 1.2500000000e+02 0.0000000000e+00 0.0000e+00 1.0000e+00
       11 -1    0    0    0    0 -0.0000000000e+00 -0.0000000000e+00 -1.2500000000e+02 1.2500000000e+02 0.0000000000e+00 0.0000e+00 -1.0000e+00
       23  1    1    2    0    0 -3.8709978094e+01 -2.9086144108e+01 +3.9040208075e+01 1.1038050269e+02 9.1188000000e+01 0.0000e+00 1.0000e+00
       25  1    1    2    0    0 +3.8709978094e+01 +2.9086144108e+01 -3.9040208075e+01 1.3961949731e+02 1.2500000000e+02 0.0000e+00 0.0000e+00
</event>
<event>
 4      1 +2.4014000e-01 2.50000000e+02 7.54677100e-03 1.02464900e-01
      -11 -1    0    0    0    0 +0.0000000000e+00 +0.0000000000e+00 +1.2500000000e+02 1.2500000000e+02 0.0000000000e+00 0.0000e+00 1.0000e+00
       11 -1    0    0    0    0 -0.0000000000e+00 -0.0000000000e+00 -1.2500000000e+02 1.2500000000e+02 0.0000000000e+00 0.0000e+00 -1.0000e+00
       23  1    1    2    0    0 -3.4141189250e+01 +4.4246770687e+00 +5.1801597071e+01 1.1038050269e+02 9.1188000000e+01 0.0000e+00 1.0000e+00
       25  1    1    2    0    0 +3.4141189250e+01 -4.4246770687e+00 -5.1801597071e+01 1.3961949731e+02 1.2500000000e+02 0.0000e+00 0.0000e+00
</event>
<event>
 4      1 +2.4014000e-01 2.50000000e+02 7.54677100e-03 1.02464900e-01
      -11 -1    0    0    0    0 +0.0000000000e+00 +0.0000000000e+00 +1.2500000000e+02 1.2500000000e+02 0.0000000000e+00 0.0000e+00 1.0000e+00
       11 -1    0    0    0    0 -0.0000000000e+00 -0.0000000000e+00 -1.2500000000e+02 1.2500000000e+02 0.0000000000e+00 0.0000e+00 -1.0000e+00
       23  1    1    2    0    0 +3.0382338540e+01 -3.0101949462e+01 +4.5159607760e+01 1.1038050269e+02 9.1188000000e+01 0.0000e+00 0.0000e+00
       25  1    1    2    0    0 -3.0382338540e+01 +3.0101949462e+01 -4.5159607760e+01 1.3961949731e+02 1.2500000000e+02 0.0000e+00 0.0000e+00
</event>
<event>
 4      1 +2.4014000e-01 2.50000000e+02 7.54677100e-03 1.02464900e-01
      -11 -1    0    0    0    0 +0.0000000000e+00 +0.0000000000e+00 +1.2500000000e+02 1.2500000000e+02 0.0000000000e+00 0.0000e+00 1.0000e+00
       11 -1    0    0    0    0 -0.0000000000e+00 -0.0000000000e+00 -1.2500000000e+02 1.2500000000e+02 0.0000000000e+00 0.0000e+00 -1.0000e+00
       23  1    1    2    0    0 -1.4032894378e+01 -3.7247694042e+01 +4.7794259003e+01 1.1038050269e+02 9.1188000000e+01 0.0000e+00 0.0000e+00
       25  1    1    2    0    0 +1.4032894378e+01 +3.7247694042e+01 -4.7794259003e+01 1.3961949731e+02 1.2500000000e+02 0.0000e+00 0.0000e+00
</event>
<event>
 4      1 +2.4014000e-01 2.50000000e+02 7.54677100e-03 1.02464900e-01
      -11 -1    0    0    0    0 +0.0000000000e+00 +0.0000000000e+00 +1.2500000000e+02 1.2500000000e+02 0.0000000000e+00 0.0000e+00 1.0000e+00
       11 -1    0    0    0    0 -0.0000000000e+00 -0.0000000000e+00 -1.2500000000e+02 1.2500000000e+02 0.0000000000e+00 0.0000e+00 -1.0000e+00
       23  1    1    2    0    0 -3.6066054749e+01 +4.1634655752e+01 -2.8885968304e+01 1.1038050269e+02 9.1188000000e+01 0.0000e+00 0.0000e+00
       25  1    1    2    0    0 +3.6066054749e+01 -4.1634655752e+01 +2.8885968304e+01 1.3961949731e+02 1.2500000000e+02 0.0000e+00 0.0000e+00
</event>
<event>
 4      1 +2.4014000e-01 2.50000000e+02 7.54677100e-03 1.02464900e-01
      -11 -1    0    0    0    0 +0.0000000000e+00 +0.0000000000e+00 +1.2500000000e+02 1.2500000000e+02 0.0000000000e+00 0.0000e+00 1.0000e+00
       11 -1    0    0    0    0 -0.0000000000e+00 -0.0000000000e+00 -1.2500000000e+02 1.2500000000e+02 0.0000000000e+00 0.0000e+00 -1.0000e+00
       23  1    1    2    0    0 -3.7946834288e+01 -3.3597103096e+01 +3.6053799533e+01 1.1038050269e+02 9.1188000000e+01 0.0000e+00 0.0000e+00
       25  1    1    2    0    0 +3.7946834288e+01 +3.3597103096e+01 -3.6053799533e+01 1.3961949731e+02 1.2500000000e+02 0.0000e+00 0.0000e+00
</event>
<event>
 4      1 +2.4014000e-01 2.50000000e+02 7.54677100e-03 1.02464900e-01
      -11 -1    0    0    0    0 +0.0000000000e+00 +0.0000000000e+00 +1.2500000000e+02 1.2500000000e+02 0.0000000000e+00 0.0000e+00 -1.0000e+00
       11 -1    0    0    0    0 -0.0000000000e+00 -0.0000000000e+00 -1.2500000000e+02 1.2500000000e+02 0.0000000000e+00 0.0000e+00 1.0000e+00
       23  1    1    2    0    0 +4.1243476413e+01 -3.3438021228e+01 -3.2395654329e+01 1.1038050269e+02 9.1188000000e+01 0.0000e+00 1.0000e+00
       25  1    1    2    0    0 -4.1243476413e+01 +3.3438021228e+01 +3.2395654329e+01 1.3961949731e+02 1.2500000000e+02 0.0000e+00 0.0000e+00
</event>
<event>
 4      1 +2.4014000e-01 2.50000000e+02 7.54677100e-03 1.02464900e-01
      -11 -1    0    0    0    0 +0.0000000000e+00 +0.0000000000e+00 +1.2500000000e+02 1.2500000000e+02 0.0000000000e+00 0.0000e+00 -1.0000e+00
       11 -1    0    0    0    0 -0.0000000000e+00 -0.0000000000e+00 -1.2500000000e+02 1.2500000000e+02 0.0000000000e+00 0.0000e+00 1.0000e+00
       23  1    1    2    0    0 +3.0481635288e+00 +4.9645509277e+01 -3.7344827452e+01 1.1038050269e+02 9.1188000000e+01 0.0000e+00 1.0000e+00
       25  1    1    2    0    0 -3.0481635288e+00 -4.9645509277e+01 +3.7344827452e+01 1.3961949731e+02 1.2500000000e+02 0.0000e+00 0.0000e+00
</event>
<event>
 4      1 +2.4014000e-01 2.50000000e+02 7.54677100e-03 1.02464900e-01
      -11 -1    0    0    0    0 +0.0000000000e+00 +0.0000000000e+00 +1.2500000000e+02 1.2500000000e+02 0.0000000000e+00 0.0000e+00 1.0000e+00
       11 -1    0    0    0    0 -0.0000000000e+00 -0.0000000000e+00 -1.2500000000e+02 1.2500000000e+02 0.0000000000e+00 0.0000e+00 -1.0000e+00
       23  1    1    2    0    0 -3.7534012968e+01 -4.6184018310e+01 +1.8078671215e+01 1.1038050269e+02 9.1188000000e+01 0.0000e+00 -1.0000e+00
       25  1    1    2    0    0 +3.7534012968e+01 +4.6184018310e+01 -1.8078671215e+01 1.3961949731e+02 1.2500000000e+02 0.0000e+00 0.0000e+00
</event>
<event>
 4      1 +2.4014000e-01 2.50000000e+02 7.54677100e-03 1.02464900e-01
      -11 -1    0    0    0    0 +0.0000000000e+00 +0.0000000000e+00 +1.2500000000e+02 1.2500000000e+02 0.0000000000e+00 0.0000e+00 1.0000e+00
       11 -1    0    0    0    0 -0.0000000000e+00 -0.0000000000e+00 -1.2500000000e+02 1.2500000000e+02 0.0000000000e+00 0.0000e+00 -1.0000e+00
       23  1    1    2    0    0 -3.8471782611e+01 +4.8377335113e+01 -6.9396988221e+00 1.1038050269e+02 9.1188000000e+01 0.0000e+00 0.0000e+00
       25  1    1    2    0    0 +3.8471782611e+01 -4.8377335113e+01 +6.9396988221e+00 1.3961949731e+02 1.2500000000e+02 0.0000e+00 0.0000e+00
</event>
<event>
 4      1 +2.4014000e-01 2.50000000e+02 7.54677100e-03 1.02464900e-01
      -11 -1    0    0    0    0 +0.0000000000e+00 +0.0000000000e+00 +1.2500000000e+02 1.2500000000e+02 0.0000000000e+00 0.0000e+00 -1.0000e+00
       11 -1    0    0    0    0 -0.0000000000e+00 -0.0000000000e+00 -1.2500000000e+02 1.2500000000e+02 0.0000000000e+00 0.0000e+00 1.0000e+00
       23  1    1    2    0    0 +5.2779852056e+00 +5.8952670223e+01 +1.9113596611e+01 1.1038050269e+02 9.1188000000e+01 0.0000e+00 1.0000e+00
       25  1    1    2    0    0 -5.2779852056e+00 -5.8952670223e+01 -1.9113596611e+01 1.3961949731e+02 1.2500000000e+02 0.0000e+00 0.0000e+00
</event>
<event>
 4      1 +2.4014000e-01 2.50000000e+02 7.54677100e-03 1.02464900e-01
      -11 -1    0    0    0    0 +0.0000000000e+00 +0.0000000000e+00 +1.2500000000e+02 1.2500000000e+02 0.0000000000e+00 0.0000e+00 -1.0000e+00
       11 -1    0    0    0    0 -0.0000000000e+00 -0.0000000000e+00 -1.2500000000e+02 1.2500000000e+02 0.0000000000e+00 0.0000e+00 1.0000e+00
       23  1    1    2    0    0 +4.6814405608e+01 +3.0831452541e+01 -2.6952495088e+01 1.1038050269e+02 9.1188000000e+01 0.0000e+00 0.0000e+00
       25  1    1    2    0    0 -4.6814405608e+01 -3.0831452541e+01 +2.6952495088e+01 1.3961949731e+02 1.2500000000e+02 0.0000e+00 0.0000e+00
</event>
<event>
 4      1 +2.4014000e-01 2.50000000e+02 7.54677100e-03 1.02464900e-01
      -11 -1    0    0    0    0 +0.0000000000e+00 +0.0000000000e+00 +1.2500000000e+02 1.2500000000e+02 0.0000000000e+00 0.0000e+00 -1.0000e+00
       11 -1    0    0    0    0 -0.0000000000e+00 -0.0000000000e+00 -1.2500000000e+02 1.2500000000e+02 0.0000000000e+00 0.0000e+00 1.0000e+00
       23  1    1    2    0    0 +3.5171908690e+01 -4.8567834549e+01 +1.6513821968e+01 1.1038050269e+02 9.1188000000e+01 0.0000e+00 -1.0000e+00
       25  1    1    2    0    0 -3.5171908690e+01 +4.8567834549e+01 -1.6513821968e+01 1.3961949731e+02 1.2500000000e+02 0.0000e+00 0.0000e+00
</event>
<event>
 4      1 +2.4014000e-01 2.50000000e+02 7.54677100e-03 1.02464900e-01
      -11 -1    0    0    0    0 +0.0000000000e+00 +0.0000000000e+00 +1.2500000000e+02 1.2500000000e+02 0.0000000000e+00 0.0000e+00 1.0000e+00
       11 -1    0    0    0    0 -0.0000000000e+00 -0.0000000000e+00 -1.2500000000e+02 1.2500000000e+02 0.0000000000e+00 0.0000e+00 -1.0000e+00
       23  1    1    2    0    0 -3.8574052188e+01 +1.2789034298e+01 -4.7085954691e+01 1.1038050269e+02 9.1188000000e+01 0.0000e+00 -1.0000e+00
       25  1    1    2    0    0 +3.8574052188e+01 -1.2789034298e+01 +4.7085954691e+01 1.3961949731e+02 1.2500000000e+02 0.0000e+00 0.0000e+00
</event>
<event>
 4      1 +2.4014000e-01 2.50000000e+02 7.54677100e-03 1.02464900e-01
      -11 -1    0    0    0    0 +0.0000000000e+00 +0.0000000000e+00 +1.2500000000e+02 1.2500000000e+02 0.0000000000e+00 0.0000e+00 1.0000e+00
       11 -1    0    0    0    0 -0.0000000000e+00 -0.0000000000e+00 -1.2500000000e+02 1.2500000000e+02 0.0000000000e+00 0.0000e+00 -1.0000e+00
       23  1    1    2    0    0 -8.1515094892e+00 -4.2364280437e+01 +4.4804292939e+01 1.1038050269e+02 9.1188000000e+01 0.0000e+00 1.0000e+00
       25  1    1    2    0    0 +8.1515094892e+00 +4.2364280437e+01 -4.4804292939e+01 1.3961949731e+02 1.2500000000e+02 0.0000e+00 0.0000e+00
</event>
<event>
 4      1 +2.4014000e-01 2.50000000e+02 7.54677100e-03 1.02464900e-01
      -11 -1    0    0    0    0 +0.0000000000e+00 +0.0000000000e+00 +1.2500000000e+02 1.2500000000e+02 0.0000000000e+00 0.0000e+00 1.0000e+00
       11 -1    0    0    0    0 -0.0000000000e+00 -0.0000000000e+00 -1.2500000000e+02 1.2500000000e+02 0.0000000000e+00 0.0000e+00 -1.0000e+00
       23  1    1    2    0    0 -5.3777350641e+01 +3.0621430406e+01 -6.2392778074e+00 1.1038050269e+02 9.1188000000e+01 0.0000e+00 0.0000e+00
       25  1    1    2    0    0 +5.3777350641e+01 -3.0621430406e+01 +6.2392778074e+00 1.3961949731e+02 1.2500000000e+02 0.0000e+00 0.0000e+00
</event>
<event>
 4      1 +2.4014000e-01 2.50000000e+02 7.54677100e-03 1.02464900e-01
      -11 -1    0    0    0    0 +0.0000000000e+00 +0.0000000000e+00 +1.2500000000e+02 1.2500000000e+02 0.0000000000e+00 0.0000e+00 -1.0000e+00
       11 -1    0    0    0    0 -0.0000000000e+00 -0.0000000000e+00 -1.2500000000e+02 1.2500000000e+02 0.0000000000e+00 0.0000e+00 1.0000e+00
       23  1    1    2    0    0 +1.2509228107e+01 +5.3100160850e+01 -2.9874674216e+01 1.1038050269e+02 9.1188000000e+01 0.0000e+00 0.0000e+00
       25  1    1    2    0    0 -1.2509228107e+01 -5.3100160850e+01 +2.9874674216e+01 1.3961949731e+02 1.2500000000e+02 0.0000e+00 0.0000e+00
</event>
<event>
 4      1 +2.4014000e-01 2.50000000e+02 7.54677100e-03 1.02464900e-01
      -11 -1    0    0    0    0 +0.0000000000e+00 +0.0000000000e+00 +1.2500000000e+02 1.2500000000e+02 0.0000000000e+00 0.0000e+00 -1.0000e+00
       11 -1    0    0    0    0 -0.0000000000e+00 -0.0000000000e+00 -1.2500000000e+02 1.2500000000e+02 0.0000000000e+00 0.0000e+00 1.0000e+00
       23  1    1    2    0    0 -1.2937682545e+01 -4.8477327741e+01 -3.6758252069e+01 1.1038050269e+02 9.1188000000e+01 0.0000e+00 1.0000e+00
       25  1    1    2    0    0 +1.2937682545e+01 +4.8477327741e+01 +3.6758252069e+01 1.3961949731e+02 1.2500000000e+02 0.0000e+00 0.0000e+00
</event>
<event>
 4      1 +2.4014000e-01 2.50000000e+02 7.54677100e-03 1.02464900e-01
      -11 -1    0    0    0    0 +0.0000000000e+00 +0.0000000000e+00 +1.2500000000e+02 1.2500000000e+02 0.0000000000e+00 0.0000e+00 1.0000e+00
       11 -1    0    0    0    0 -0.0000000000e+00 -0.0000000000e+00 -1.2500000000e+02 1.2500000000e+02 0.0000000000e+00 0.0000e+00 -1.0000e+00
       23  1    1    2    0    0 -4.9955310057e+01 -2.9303314275e+00 -3.6938925059e+01 1.1038050269e+02 9.1188000000e+01 0.0000e+00 -1.0000e+00
       25  1    1    2    0    0 +4.9955310057e+01 +2.9303314275e+00 +3.6938925059e+01 1.3961949731e+02 1.2500000000e+02 0.0000e+00 0.0000e+00
</event>
<event>
 4      1 +2.4014000e-01 2.50000000e+02 7.54677100e-03 1.02464900e-01
      -11 -1    0    0    0    0 +0.0000000000e+00 +0.0000000000e+00 +1.2500000000e+02 1.2500000000e+02 0.0000000000e+00 0.0000e+00 1.0000e+00
       11 -1    0    0    0    0 -0.0000000000e+00 -0.0000000000e+00 -1.2500000000e+02 1.2500000000e+02 0.0000000000e+00 0.0000e+00 -1.0000e+00
       23  1    1    2    0    0 +3.5773935080e+01 +4.5525599669e+01 -2.2721121745e+01 1.1038050269e+02 9.1188000000e+01 0.0000e+00 0.0000e+00
       25  1    1    2    0    0 -3.5773935080e+01 -4.5525599669e+01 +2.2721121745e+01 1.3961949731e+02 1.2500000000e+02 0.0000e+00 0.0000e+00
</event>
<event>
 4      1 +2.4014000e-01 2.50000000e+02 7.54677100e-03 1.02464900e-01
      -11 -1    0    0    0    0 +0.0000000000e+00 +0.0000000000e+00 +1.2500000000e+02 1.2500000000e+02 0.0000000000e+00 0.0000e+00 1.0000e+00
       11 -1    0    0    0    0 -0.0000000000e+00 -0.0000000000e+00 -1.2500000000e+02 1.2500000000e+02 0.0000000000e+00 0.0000e+00 -1.0000e+00
       23  1    1    2    0    0 -4.8205444999e+01 -4.7127800264e+00 +3.9020876548e+01 1.1038050269e+02 9.1188000000e+01 0.0000e+00 1.0000e+00
       25  1    1    2    0    0 +4.8205444999e+01 +4.7127800264e+00 -3.9020876548e+01 1.3961949731e+02 1.2500000000e+02 0.0000e+00 0.0000e+00
</event>
<event>
 4      1 +2.4014000e-01 2.50000000e+02 7.54677100e-03 1.02464900e-01
      -11 -1    0    0    0    0 +0.0000000000e+00 +0.0000000000e+00 +1.2500000000e+02 1.2500000000e+02 0.0000000000e+00 0.0000e+00 -1.0000e+00
       11 -1    0    0    0    0 -0.0000000000e+00 -0.0000000000e+00 -1.2500000000e+02 1.2500000000e+02 0.0000000000e+00 0.0000e+00 1.0000e+00
       23  1    1    2    0    0 -4.7393936355e+01 +2.6784895035e+01 +3.0083022195e+01 1.1038050269e+02 9.1188000000e+01 0.0000e+00 1.0000e+00
       25  1    1    2    0    0 +4.7393936355e+01 -2.6784895035e+01 -3.0083022195e+01 1.3961949731e+02 1.2500000000e+02 0.0000e+00 0.0000e+00
</event>
<event>
 4      1 +2.4014000e-01 2.50000000e+02 7.54677100e-03 1.02464900e-01
      -11 -1    0    0    0    0 +0.0000000000e+00 +0.0000000000e+00 +1.2500000000e+02 1.2500000000e+02 0.0000000000e+00 0.0000e+00 1.0000e+00
       11 -1    0    0    0    0 -0.0000000000e+00 -0.0000000000e+00 -1.2500000000e+02 1.2500000000e+02 0.0000000000e+00 0.0000e+00 -1.0000e+00
       23  1    1    2    0    0 +3.3326000854e+01 -4.8172108517e+01 +2.0914819094e+01 1.1038050269e+02 9.1188000000e+01 0.0000e+00 0.0000e+00
       25  1    1    2    0    0 -3.3326000854e+01 +4.8172108517e+01 -2.0914819094e+01 1.3961949731e+02 1.2500000000e+02 0.0000e+00 0.0000e+00
</event>
<event>
 4      1 +2.4014000e-01 2.50000000e+02 7.54677100e-03 1.02464900e-01
      -11 -1    0    0    0    0 +0.0000000000e+00 +0.0000000000e+00 +1.2500000000e+02 1.2500000000e+02 0.0000000000e+00 0.0000e+00 1.0000e+00
       11 -1    0    0    0    0 -0.0000000000e+00 -0.0000000000e+00 -1.2500000000e+02 1.2500000000e+02 0.0000000000e+00 0.0000e+00 -1.0000e+00
       23  1    1    2    0    0 +2.5037141461e+01 -4.2305251336e+01 -3.8105265863e+01 1.1038050269e+02 9.1188000000e+01 0.0000e+00 -1.0000e+00
       25  1    1    2    0    0 -2.5037141461e+01 +4.2305251336e+01 +3.8105265863e+01 1.3961949731e+02 1.2500000000e+02 0.0000e+00 0.0000e+00
</event>
<event>
 4      1 +2.4014000e-01 2.50000000e+02 7.54677100e-03 1.02464900e-01
      -11 -1    0    0    0    0 +0.0000000000e+00 +0.0000000000e+00 +1.2500000000e+02 1.2500000000e+02 0.0000000000e+00 0.0000e+00 1.0000e+00
       11 -1    0    0    0    0 -0.0000000000e+00 -0.0000000000e+00 -1.2500000000e+02 1.2500000000e+02 0.0000000000e+00 0.0000e+00 -1.0000e+00
       23  1    1    2    0    0 -3.6108159497e+01 -2.6199419950e+01 -4.3340457331e+01 1.1038050269e+02 9.1188000000e+01 0.0000e+00 -1.0000e+00
       25  1    1    2    0    0 +3.6108159497e+01 +2.6199419950e+01 +4.3340457331e+01 1.3961949731e+02 1.2500000000e+02 0.0000e+00 0.0000e+00
</event>
<event>
 4      1 +2.4014000e-01 2.50000000e+02 7.54677100e-03 1.02464900e-01
      -11 -1    0    0    0    0 +0.0000000000e+00 +0.0000000000e+00 +1.2500000000e+02 1.2500000000e+02 0.0000000000e+00 0.0000e+00 1.0000e+00
       11 -1    0    0    0    0 -0.0000000000e+00 -0.0000000000e+00 -1.2500000000e+02 1.2500000000e+02 0.0000000000e+00 0.0000e+00 -1.0000e+00
       23  1    1    2    0    0 -2.7858602034e+01 -5.5424272117e+01 -4.5444892629e+00 1.1038050269e+02 9.1188000000e+01 0.0000e+00 0.0000e+00
       25  1    1    2    0    0 +2.7858602034e+01 +5.5424272117e+01 +4.5444892629e+00 1.3961949731e+02 1.2500000000e+02 0.0000e+00 0.0000e+00
</event>
<event>
 4      1 +2.4014000e-01 2.50000000e+02 7.54677100e-03 1.02464900e-01
      -11 -1    0    0    0    0 +0.0000000000e+00 +0.0000000000e+00 +1.2500000000e+02 1.2500000000e+02 0.0000000000e+00 0.0000e+00 1.0000e+00
       11 -1    0    0    0    0 -0.0000000000e+00 -0.0000000000e+00 -1.2500000000e+02 1.2500000000e+02 0.0000000000e+00 0.0000e+00 -1.0000e+00
       23  1    1    2    0    0 -2.2494791512e+01 +4.7248313470e+01 -3.3618228073e+01 1.1038050269e+02 9.1188000000e+01 0.0000e+00 1.0000e+00
       25  1    1    2    0    0 +2.2494791512e+01 -4.7248313470e+01 +3.3618228073e+01 1.3961949731e+02 1.2500000000e+02 0.0000e+00 0.0000e+00
</event>
<event>
 4      1 +2.4014000e-01 2.50000000e+02 7.54677100e-03 1.02464900e-01
      -11 -1    0    0    0    0 +0.0000000000e+00 +0.0000000000e+00 +1.2500000000e+02 1.2500000000e+02 0.0000000000e+00 0.0000e+00 -1.0000e+00
       11 -1    0    0    0    0 -0.0000000000e+00 -0.0000000000e+00 -1.2500000000e+02 1.2500000000e+02 0.0000000000e+00 0.0000e+00 1.0000e+00
       23  1    1    2    0    0 -8.1780609650e+00 -5.4355740247e+01 +2.9106302594e+01 1.1038050269e+02 9.1188000000e+01 0.0000e+00 -1.0000e+00
       25  1    1    2    0    0 +8.1780609650e+00 +5.4355740247e+01 -2.9106302594e+01 1.3961949731e+02 1.2500000000e+02 0.0000e+00 0.0000e+00
</event>
<event>
 4      1 +2.4014000e-01 2.50000000e+02 7.54677100e-03 1.02464900e-01
      -11 -1    0    0    0    0 +0.0000000000e+00 +0.0000000000e+00 +1.2500000000e+02 1.2500000000e+02 0.0000000000e+00 0.0000e+00 1.0000e+00
       11 -1    0    0    0    0 -0.0000000000e+00 -0.0000000000e+00 -1.2500000000e+02 1.2500000000e+02 0.0000000000e+00 0.0000e+00 -1.0000e+00
       23  1    1    2    0    0 -1.5115924085e+01 -3.6318947258e+01 +4.8177245031e+01 1.1038050269e+02 9.1188000000e+01 0.0000e+00 1.0000e+00
       25  1    1    2    0    0 +1.5115924085e+01 +3.6318947258e+01 -4.8177245031e+01 1.3961949731e+02 1.2500000000e+02 0.0000e+00 0.0000e+00
</event>
<event>
 4      1 +2.4014000e-01 2.50000000e+02 7.54677100e-03 1.02464900e-01
      -11 -1    0    0    0    0 +0.0000000000e+00 +0.0000000000e+00 +1.2500000000e+02 1.2500000000e+02 0.0000000000e+00 0.0000e+00 1.0000e+00
       11 -1    0    0    0    0 -0.0000000000e+00 -0.0000000000e+00 -1.2500000000e+02 1.2500000000e+02 0.0000000000e+00 0.0000e+00 -1.0000e+00
       23  1    1    2    0    0 -1.1048642733e+01 +4.3726480933e+01 -4.2831371547e+01 1.1038050269e+02 9.1188000000e+01 0.0000e+00 0.0000e+00
       25  1    1    2    0    0 +1.1048642733e+01 -4.3726480933e+01 +4.2831371547e+01 1.3961949731e+02 1.2500000000e+02 0.0000e+00 0.0000e+00
</event>
<event>
 4      1 +2.4014000e-01 2.50000000e+02 7.54677100e-03 1.02464900e-01
      -11 -1    0    0    0    0 +0.0000000000e+00 +0.0000000000e+00 +1.2500000000e+02 1.2500000000e+02 0.0000000000e+00 0.0000e+00 1.0000e+00
       11 -1    0    0    0    0 -0.0000000000e+00 -0.0000000000e+00 -1.2500000000e+02 1.2500000000e+02 0.0000000000e+00 0.0000e+00 -1.0000e+00
       23  1    1    2    0    0 +2.6225547207e+01 +5.6082329231e+01 -5.9663264542e+00 1.1038050269e+02 9.1188000000e+01 0.0000e+00 0.0000e+00
       25  1    1    2    0    0 -2.6225547207e+01 -5.6082329231e+01 +5.9663264542e+00 1.3961949731e+02 1.2500000000e+02 0.0000e+00 0.0000e+00
</event>
<event>
 4      1 +2.4014000e-01 2.50000000e+02 7.54677100e-03 1.02464900e-01
      -11 -1    0    0    0    0 +0.0000000000e+00 +0.0000000000e+00 +1.2500000000e+02 1.2500000000e+02 0.0000000000e+00 0.0000e+00 -1.0000e+00
       11 -1    0    0    0    0 -0.0000000000e+00 -0.0000000000e+00 -1.2500000000e+02 1.2500000000e+02 0.0000000000e+00 0.0000e+00 1.0000e+00
       23  1    1    2    0    0 -2.6854642063e+01 -2.8500886548e+01 -4.8323200383e+01 1.1038050269e+02 9.1188000000e+01 0.0000e+00 1.0000e+00
       25  1    1    2    0    0 +2.6854642063e+01 +2.8500886548e+01 +4.8323200383e+01 1.3961949731e+02 1.2500000000e+02 0.0000e+00 0.0000e+00
</event>
<event>
 4      1 +2.4014000e-01 2.50000000e+02 7.54677100e-03 1.02464900e-01
      -11 -1    0    0    0    0 +0.0000000000e+00 +0.0000000000e+00 +1.2500000000e+02 1.2500000000e+02 0.0000000000e+00 0.0000e+00 -1.0000e+00
       11 -1    0    0    0    0 -0.0000000000e+00 -0.0000000000e+00 -1.2500000000e+02 1.2500000000e+02 0.0000000000e+00 0.0000e+00 1.0000e+00
       23  1    1    2    0    0 -1.3487348857e+01 +2.1075840167e+01 -5.6942992648e+01 1.1038050269e+02 9.1188000000e+01 0.0000e+00 1.0000e+00
       25  1    1    2    0    0 +1.3487348857e+01 -2.1075840167e+01 +5.6942992648e+01 1.3961949731e+02 1.2500000000e+02 0.0000e+00 0.0000e+00
</event>
<event>
 4      1 +2.4014000e-01 2.50000000e+02 7.54677100e-03 1.02464900e-01
      -11 -1    0    0    0    0 +0.0000000000e+00 +0.0000000000e+00 +1.2500000000e+02 1.2500000000e+02 0.0000000000e+00 0.0000e+00 -1.0000e+00
       11 -1    0    0    0    0 -0.0000000000e+00 -0.0000000000e+00 -1.2500000000e+02 1.2500000000e+02 0.0000000000e+00 0.0000e+00 1.0000e+00
       23  1    1    2    0    0 +3.8459561545e+01 -4.2697145508e-01 -4.8880301255e+01 1.1038050269e+02 9.1188000000e+01 0.0000e+00 1.0000e+00
       25  1    1    2    0    0 -3.8459561545e+01 +4.2697145508e-01 +4.8880301255e+01 1.3961949731e+02 1.2500000000e+02 0.0000e+00 0.0000e+00
</event>
<event>
 4      1 +2.4014000e-01 2.50000000e+02 7.54677100e-03 1.02464900e-01
      -11 -1    0    0    0    0 +0.0000000000e+00 +0.0000000000e+00 +1.2500000000e+02 1.2500000000e+02 0.0000000000e+00 0.0000e+00 -1.0000e+00
       11 -1    0    0    0    0 -0.0000000000e+00 -0.0000000000e+00 -1.2500000000e+02 1.2500000000e+02 0.0000000000e+00 0.0000e+00 1.0000e+00
       23  1    1    2    0    0 +3.5818446280e+01 +4.0428926974e+01 -3.0840635523e+01 1.1038050269e+02 9.1188000000e+01 0.0000e+00 1.0000e+00
       25  1    1    2    0    0 -3.5818446280e+01 -4.0428926974e+01 +3.0840635523e+01 1.3961949731e+02 1.2500000000e+02 0.0000e+00 0.0000e+00
</event>
<event>
 4      1 +2.4014000e-01 2.50000000e+02 7.54677100e-03 1.02464900e-01
      -11 -1    0    0    0    0 +0.0000000000e+00 +0.0000000000e+00 +1.2500000000e+02 1.2500000000e+02 0.0000000000e+00 0.0000e+00 1.0000e+00
       11 -1    0    0    0    0 -0.0000000000e+00 -0.0000000000e+00 -1.2500000000e+02 1.2500000000e+02 0.0000000000e+00 0.0000e+00 -1.0000e+00
       23  1    1    2    0    0 +5.3105735804e+01 +5.3872446840e+00 +3.1927456038e+01 1.1038050269e+02 9.1188000000e+01 0.0000e+00 1.0000e+00
       25  1    1    2    0    0 -5.3105735804e+01 -5.3872446840e+00 -3.1927456038e+01 1.3961949731e+02 1.2500000000e+02 0.0000e+00 0.0000e+00
</event>
<event>
 4      1 +2.4014000e-01 2.50000000e+02 7.54677100e-03 1.02464900e-01
      -11 -1    0    0    0    0 +0.0000000000e+00 +0.0000000000e+00 +1.2500000000e+02 1.2500000000e+02 0.0000000000e+00 0.0000e+00 -1.0000e+00
       11 -1    0    0    0    0 -0.0000000000e+00 -0.0000000000e+00 -1.2500000000e+02 1.2500000000e+02 0.0000000000e+00 0.0000e+00 1.0000e+00
       23  1    1    2    0    0 +3.1380316056e+01 +8.4635293720e+00 -5.3030637036e+01 1.1038050269e+02 9.1188000000e+01 0.0000e+00 1.0000e+00
       25  1    1    2    0    0 -3.1380316056e+01 -8.4635293720e+00 +5.3030637036e+01 1.3961949731e+02 1.2500000000e+02 0.0000e+00 0.0000e+00
</event>
<event>
 4      1 +2.4014000e-01 2.50000000e+02 7.54677100e-03 1.02464900e-01
      -11 -1    0    0    0    0 +0.0000000000e+00 +0.0000000000e+00 +1.2500000000e+02 1.2500000000e+02 0.0000000000e+00 0.0000e+00 1.0000e+00
       11 -1    0    0    0    0 -0.0000000000e+00 -0.0000000000e+00 -1.2500000000e+02 1.2500000000e+02 0.0000000000e+00 0.0000e+00 -1.0000e+00
       23  1    1    2    0    0 +5.8554755845e+01 +1.4599091088e+01 +1.5060250229e+01 1.1038050269e+02 9.1188000000e+01 0.0000e+00 0.0000e+00
       25  1    1    2    0    0 -5.8554755845e+01 -1.4599091088e+01 -1.5060250229e+01 1.3961949731e+02 1.2500000000e+02 0.0000e+00 0.0000e+00
</event>
<event>
 4      1 +2.4014000e-01 2.50000000e+02 7.54677100e-03 1.02464900e-01
      -11 -1    0    0    0    0 +0.0000000000e+00 +0.0000000000e+00 +1.2500000000e+02 1.2500000000e+02 0.0000000000e+00 0.0000e+00 -1.0000e+00
       11 -1    0    0    0    0 -0.0000000000e+00 -0.0000000000e+00 -1.2500000000e+02 1.2500000000e+02 0.0000000000e+00 0.0000e+00 1.0000e+00
       23  1    1    2    0    0 +5.0682921538e+01 -1.3354654318e+00 -3.6028627869e+01 1.1038050269e+02 9.1188000000e+01 0.0000e+00 1.0000e+00
       25  1    1    2    0    0 -5.0682921538e+01 +1.3354654318e+00 +3.6028627869e+01 1.3961949731e+02 1.2500000000e+02 0.0000e+00 0.0000e+00
</event>
<event>
 4      1 +2.4014000e-01 2.50000000e+02 7.54677100e-03 1.02464900e-01
      -11 -1    0    0    0    0 +0.0000000000e+00 +0.0000000000e+00 +1.2500000000e+02 1.2500000000e+02 0.0000000000e+00 0.0000e+00 -1.0000e+00
       11 -1    0    0    0    0 -0.0000000000e+00 -0.0000000000e+00 -1.2500000000e+02 1.2500000000e+02 0.0000000000e+00 0.0000e+00 1.0000e+00
       23  1    1    2    0    0 +4.7131686445e+01 -2.7972553995e+01 +2.9406536442e+01 1.1038050269e+02 9.1188000000e+01 0.0000e+00 0.0000e+00
       25  1    1    2    0    0 -4.7131686445e+01 +2.7972553995e+01 -2.9406536442e+01 1.3961949731e+02 1.2500000000e+02 0.0000e+00 0.0000e+00
</event>
<event>
 4      1 +2.4014000e-01 2.50000000e+02 7.54677100e-03 1.02464900e-01
      -11 -1    0    0    0    0 +0.0000000000e+00 +0.0000000000e+00 +1.2500000000e+02 1.2500000000e+02 0.0000000000e+00 0.0000e+00 -1.0000e+00
       11 -1    0    0    0    0 -0.0000000000e+00 -0.0000000000e+00 -1.2500000000e+02 1.2500000000e+02 0.0000000000e+00 0.0000e+00 1.0000e+00
       23  1    1    2    0    0 +4.3027597244e+01 -2.3272248360e+01 +3.8413960500e+01 1.1038050269e+02 9.1188000000e+01 0.0000e+00 -1.0000e+00
       25  1    1    2    0    0 -4.3027597244e+01 +2.3272248360e+01 -3.8413960500e+01 1.3961949731e+02 1.2500000000e+02 0.0000e+00 0.0000e+00
</event>
<event>
 4      1 +2.4014000e-01 2.50000000e+02 7.54677100e-03 1.02464900e-01
      -11 -1    0    0    0    0 +0.0000000000e+00 +0.0000000000e+00 +1.2500000000e+02 1.2500000000e+02 0.0000000000e+00 0.0000e+00 1.0000e+00
       11 -1    0    0    0    0 -0.0000000000e+00 -0.0000000000e+00 -1.2500000000e+02 1.2500000000e+02 0.0000000000e+00 0.0000e+00 -1.0000e+00
       23  1    1    2    0    0 +4.9071663680e+01 -5.3249934222e+00 +3.7844686528e+01 1.1038050269e+02 9.1188000000e+01 0.0000e+00 0.0000e+00
       25  1    1    2    0    0 -4.9071663680e+01 +5.3249934222e+00 -3.7844686528e+01 1.3961949731e+02 1.2500000000e+02 0.0000e+00 0.0000e+00
</event>
<event>
 4      1 +2.4014000e-01 2.50000000e+02 7.54677100e-03 1.02464900e-01
      -11 -1    0    0    0    0 +0.0000000000e+00 +0.0000000000e+00 +1.2500000000e+02 1.2500000000e+02 0.0000000000e+00 0.0000e+00 1.0000e+00
       11 -1    0    0    0    0 -0.0000000000e+00 -0.0000000000e+00 -1.2500000000e+02 1.2500000000e+02 0.0000000000e+00 0.0000e+00 -1.0000e+00
       23  1    1    2    0    0 +3.8117048128e+01 -2.4426059062e+01 -4.2650466708e+01 1.1038050269e+02 9.1188000000e+01 0.0000e+00 -1.0000e+00
       25  1    1    2    0    0 -3.8117048128e+01 +2.4426059062e+01 +4.2650466708e+01 1.3961949731e+02 1.2500000000e+02 0.0000e+00 0.0000e+00
</event>
<event>
 4      1 +2.4014000e-01 2.50000000e+02 7.54677100e-03 1.02464900e-01
      -11 -1    0    0    0    0 +0.0000000000e+00 +0.0000000000e+00 +1.2500000000e+02 1.2500000000e+02 0.0000000000e+00 0.0000e+00 1.0000e+00
       11 -1    0    0    0    0 -0.0000000000e+00 -0.0000000000e+00 -1.2500000000e+02 1.2500000000e+02 0.0000000000e+00 0.0000e+00 -1.0000e+00
       23  1    1    2    0    0 -4.8631233050e+01 -3.4792011458e+01 -1.7120839361e+01 1.1038050269e+02 9.1188000000e+01 0.0000e+00 0.0000e+00
       25  1    1    2    0    0 +4.8631233050e+01 +3.4792011458e+01 +1.7120839361e+01 1.3961949731e+02 1.2500000000e+02 0.0000e+00 0.0000e+00
</event>
<event>
 4      1 +2.4014000e-01 2.50000000e+02 7.54677100e-03 1.02464900e-01
      -11 -1    0    0    0    0 +0.0000000000e+00 +0.0000000000e+00 +1.2500000000e+02 1.2500000000e+02 0.0000000000e+00 0.0000e+00 1.0000e+00
       11 -1    0    0    0    0 -0.0000000000e+00 -0.0000000000e+00 -1.2500000000e+02 1.2500000000e+02 0.0000000000e+00 0.0000e+00 -1.0000e+00
       23  1    1    2    0    0 +5.1761186137e+01 -2.2998672649e+00 +3.4410670582e+01 1.1038050269e+02 9.1188000000e+01 0.0000e+00 0.0000e+00
       25  1    1    2    0    0 -5.1761186137e+01 +2.2998672649e+00 -3.4410670582e+01 1.3961949731e+02 1.2500000000e+02 0.0000e+00 0.0000e+00
</event>
<event>
 4      1 +2.4014000e-01 2.50000000e+02 7.54677100e-03 1.02464900e-01
      -11 -1    0    0    0    0 +0.0000000000e+00 +0.0000000000e+00 +1.2500000000e+02 1.2500000000e+02 0.0000000000e+00 0.0000e+00 -1.0000e+00
       11 -1    0    0    0    0 -0.0000000000e+00 -0.0000000000e+00 -1.2500000000e+02 1.2500000000e+02 0.0000000000e+00 0.0000e+00 1.0000e+00
       23  1    1    2    0    0 +5.6202906200e+01 -5.7246428779e+00 +2.6020488625e+01 1.1038050269e+02 9.1188000000e+01 0.0000e+00 0.0000e+00
       25  1    1    2    0    0 -5.6202906200e+01 +5.7246428779e+00 -2.6020488625e+01 1.3961949731e+02 1.2500000000e+02 0.0000e+00 0.0000e+00
</event>
<event>
 4      1 +2.4014000e-01 2.50000000e+02 7.54677100e-03 1.02464900e-01
      -11 -1    0    0    0    0 +0.0000000000e+00 +0.0000000000e+00 +1.2500000000e+02 1.2500000000e+02 0.0000000000e+00 0.0000e+00 1.0000e+00
       11 -1    0    0    0    0 -0.0000000000e+00 -0.0000000000e+00 -1.2500000000e+02 1.2500000000e+02 0.0000000000e+00 0.0000e+00 -1.0000e+00
       23  1    1    2    0    0 -1.0587840858e+01 -5.3628563223e+01 +2.9672864073e+01 1.1038050269e+02 9.1188000000e+01 0.0000e+00 0.0000e+00
       25  1    1    2    0    0 +1.0587840858e+01 +5.3628563223e+01 -2.9672864073e+01 1.3961949731e+02 1.2500000000e+02 0.0000e+00 0.0000e+00
</event>
<event>
 4      1 +2.4014000e-01 2.50000000e+02 7.54677100e-03 1.02464900e-01
      -11 -1    0    0    0    0 +0.0000000000e+00 +0.0000000000e+00 +1.2500000000e+02 1.2500000000e+02 0.0000000000e+00 0.0000e+00 1.0000e+00
       11 -1    0    0    0    0 -0.0000000000e+00 -0.0000000000e+00 -1.2500000000e+02 1.2500000000e+02 0.0000000000e+00 0.0000e+00 -1.0000e+00
       23  1    1    2    0    0 -8.4738402317e+00 -5.1062106464e+01 -3.4488539326e+01 1.1038050269e+02 9.1188000000e+01 0.0000e+00 -1.0000e+00
       25  1    1    2    0    0 +8.4738402317e+00 +5.1062106464e+01 +3.4488539326e+01 1.3961949731e+02 1.2500000000e+02 0.0000e+00 0.0000e+00
</event>
<event>
 4      1 +2.4014000e-01 2.50000000e+02 7.54677100e-03 1.02464900e-01
      -11 -1    0    0    0    0 +0.0000000000e+00 +0.0000000000e+00 +1.2500000000e+02 1.2500000000e+02 0.0000000000e+00 0.0000e+00 -1.0000e+00
       11 -1    0    0    0    0 -0.0000000000e+00 -0.0000000000e+00 -1.2500000000e+02 1.2500000000e+02 0.0000000000e+00 0.0000e+00 1.0000e+00
       23  1    1    2    0    0 -3.8234865173e+01 +1.2558547294e+01 +4.7423433076e+01 1.1038050269e+02 9.1188000000e+01 0.0000e+00 -1.0000e+00
       25  1    1    2    0    0 +3.8234865173e+01 -1.2558547294e+01 -4.7423433076e+01 1.3961949731e+02 1.2500000000e+02 0.0000e+00 0.0000e+00
</event>
<event>
 4      1 +2.4014000e-01 2.50000000e+02 7.54677100e-03 1.02464900e-01
      -11 -1    0    0    0    0 +0.0000000000e+00 +0.0000000000e+00 +1.2500000000e+02 1.2500000000e+02 0.0000000000e+00 0.0000e+00 1.0000e+00
       11 -1    0    0    0    0 -0.0000000000e+00 -0.0000000000e+00 -1.2500000000e+02 1.2500000000e+02 0.0000000000e+00 0.0000e+00 -1.0000e+00
       23  1    1    2    0    0 +1.9731435202e+01 +3.8343478890e+01 +4.4822451084e+01 1.1038050269e+02 9.1188000000e+01 0.0000e+00 1.0000e+00
       25  1    1    2    0    0 -1.9731435202e+01 -3.8343478890e+01 -4.4822451084e+01 1.3961949731e+02 1.2500000000e+02 0.0000e+00 0.0000e+00
</event>
<event>
 4      1 +2.4014000e-01 2.50000000e+02 7.54677100e-03 1.02464900e-01
      -11 -1    0    0    0    0 +0.0000000000e+00 +0.0000000000e+00 +1.2500000000e+02 1.2500000000e+02 0.0000000000e+00 0.0000e+00 1.0000e+00
       11 -1    0    0    0    0 -0.0000000000e+00 -0.0000000000e+00 -1.2500000000e+02 1.2500000000e+02 0.0000000000e+00 0.0000e+00 -1.0000e+00
       23  1    1    2    0    0 -2.8752790515e+01 -1.1420806702e+01 +5.3957819095e+01 1.1038050269e+02 9.1188000000e+01 0.0000e+00 1.0000e+00
       25  1    1    2    0    0 +2.8752790515e+01 +1.1420806702e+01 -5.3957819095e+01 1.3961949731e+02 1.2500000000e+02 0.0000e+00 0.0000e+00
</event>
<event>
 4      1 +2.4014000e-01 2.50000000e+02 7.54677100e-03 1.02464900e-01
      -11 -1    0    0    0    0 +0.0000000000e+00 +0.0000000000e+00 +1.2500000000e+02 1.2500000000e+02 0.0000000000e+00 0.0000e+00 -1.0000e+00
       11 -1    0    0    0    0 -0.0000000000e+00 -0.0000000000e+00 -1.2500000000e+02 1.2500000000e+02 0.0000000000e+00 0.0000e+00 1.0000e+00
       23  1    1    2    0    0 -4.0110058317e+01 -1.9430480773e+01 +4.3384832239e+01 1.1038050269e+02 9.1188000000e+01 0.0000e+00 -1.0000e+00
       25  1    1    2    0    0 +4.0110058317e+01 +1.9430480773e+01 -4.3384832239e+01 1.3961949731e+02 1.2500000000e+02 0.0000e+00 0.0000e+00
</event>
<event>
 4      1 +2.4014000e-01 2.50000000e+02 7.54677100e-03 1.02464900e-01
      -11 -1    0    0    0    0 +0.0000000000e+00 +0.0000000000e+00 +1.2500000000e+02 1.2500000000e+02 0.0000000000e+00 0.0000e+00 1.0000e+00
       11 -1    0    0    0    0 -0.0000000000e+00 -0.0000000000e+00 -1.2500000000e+02 1.2500000000e+02 0.0000000000e+00 0.0000e+00 -1.0000e+00
       23  1    1    2    0    0 -1.6186984491e+01 +5.4640565811e+01 -2.4919753822e+01 1.1038050269e+02 9.1188000000e+01 0.0000e+00 -1.0000e+00
       25  1    1    2    0    0 +1.6186984491e+01 -5.4640565811e+01 +2.4919753822e+01 1.3961949731e+02 1.2500000000e+02 0.0000e+00 0.0000e+00
</event>
<event>
 4      1 +2.4014000e-01 2.50000000e+02 7.54677100e-03 1.02464900e-01
      -11 -1    0    0    0    0 +0.0000000000e+00 +0.0000000000e+00 +1.2500000000e+02 1.2500000000e+02 0.0000000000e+00 0.0000e+00 1.0000e+00
       11 -1    0    0    0    0 -0.0000000000e+00 -0.0000000000e+00 -1.2500000000e+02 1.2500000000e+02 0.0000000000e+00 0.0000e+00 -1.0000e+00
       23  1    1    2    0    0 +3.3627604847e+01 +1.0633257218e+01 +5.1232041369e+01 1.1038050269e+02 9.1188000000e+01 0.0000e+00 1.0000e+00
       25  1    1    2    0    0 -3.3627604847e+01 -1.0633257218e+01 -5.1232041369e+01 1.3961949731e+02 1.2500000000e+02 0.0000e+00 0.0000e+00
</event>
<event>
 4      1 +2.4014000e-01 2.50000000e+02 7.54677100e-03 1.02464900e-01
      -11 -1    0    0    0    0 +0.0000000000e+00 +0.0000000000e+00 +1.2500000000e+02 1.2500000000e+02 0.0000000000e+00 0.0000e+00 1.0000e+00
       11 -1    0    0    0    0 -0.0000000000e+00 -0.0000000000e+00 -1.2500000000e+02 1.2500000000e+02 0.0000000000e+00 0.0000e+00 -1.0000e+00
       23  1    1    2    0    0 +4.4769163073e+01 +4.1158747881e+01 -1.3049273552e+01 1.1038050269e+02 9.1188000000e+01 0.0000e+00 -1.0000e+00
       25  1    1    2    0    0 -4.4769163073e+01 -4.1158747881e+01 +1.3049273552e+01 1.3961949731e+02 1.2500000000e+02 0.0000e+00 0.0000e+00
</event>
<event>
 4      1 +2.4014000e-01 2.50000000e+02 7.54677100e-03 1.02464900e-01
      -11 -1    0    0    0    0 +0.0000000000e+00 +0.0000000000e+00 +1.2500000000e+02 1.2500000000e+02 0.0000000000e+00 0.0000e+00 1.0000e+00
       11 -1    0    0    0    0 -0.0000000000e+00 -0.0000000000e+00 -1.2500000000e+02 1.2500000000e+02 0.0000000000e+00 0.0000e+00 -1.0000e+00
       23  1    1    2    0    0 -3.4105296018e+01 +3.6146483025e+01 -3.7401398077e+01 1.1038050269e+02 9.1188000000e+01 0.0000e+00 0.0000e+00
       25  1    1    2    0    0 +3.4105296018e+01 -3.6146483025e+01 +3.7401398077e+01 1.3961949731e+02 1.2500000000e+02 0.0000e+00 0.0000e+00
</event>
<event>
 4      1 +2.4014000e-01 2.50000000e+02 7.54677100e-03 1.02464900e-01
      -11 -1    0    0    0    0 +0.0000000000e+00 +0.0000000000e+00 +1.2500000000e+02 1.2500000000e+02 0.0000000000e+00 0.0000e+00 -1.0000e+00
       11 -1    0    0    0    0 -0.0000000000e+00 -0.0000000000e+00 -1.2500000000e+02 1.2500000000e+02 0.0000000000e+00 0.0000e+00 1.0000e+00
       23  1    1    2    0    0 +3.6461799079e+00 -5.1245369361e+01 -3.5060255572e+01 1.1038050269e+02 9.1188000000e+01 0.0000e+00 -1.0000e+00
       25  1    1    2    0    0 -3.6461799079e+00 +5.1245369361e+01 +3.5060255572e+01 1.3961949731e+02 1.2500000000e+02 0.0000e+00 0.0000e+00
</event>
<event>
 4      1 +2.4014000e-01 2.50000000e+02 7.54677100e-03 1.02464900e-01
      -11 -1    0    0    0    0 +0.0000000000e+00 +0.0000000000e+00 +1.2500000000e+02 1.2500000000e+02 0.0000000000e+00 0.0000e+00 1.0000e+00
       11 -1    0    0    0    0 -0.0000000000e+00 -0.0000000000e+00 -1.2500000000e+02 1.2500000000e+02 0.0000000000e+00 0.0000e+00 -1.0000e+00
       23  1    1    2    0    0 -6.0216046743e+01 +5.7921776984e+00 +1.4459682633e+01 1.1038050269e+02 9.1188000000e+01 0.0000e+00 1.0000e+00
       25  1    1    2    0    0 +6.0216046743e+01 -5.7921776984e+00 -1.4459682633e+01 1.3961949731e+02 1.2500000000e+02 0.0000e+00 0.0000e+00
</event>
<event>
 4      1 +2.4014000e-01 2.50000000e+02 7.54677100e-03 1.02464900e-01
      -11 -1    0    0    0    0 +0.0000000000e+00 +0.0000000000e+00 +1.2500000000e+02 1.2500000000e+02 0.0000000000e+00 0.0000e+00 1.0000e+00
       11 -1    0    0    0    0 -0.0000000000e+00 -0.0000000000e+00 -1.2500000000e+02 1.2500000000e+02 0.0000000000e+00 0.0000e+00 -1.0000e+00
       23  1    1    2    0    0 +6.1228119695e+01 +1.0530063932e+01 +2.9730694356e+00 1.1038050269e+02 9.1188000000e+01 0.0000e+00 0.0000e+00
       25  1    1    2    0    0 -6.1228119695e+01 -1.0530063932e+01 -2.9730694356e+00 1.3961949731e+02 1.2500000000e+02 0.0000e+00 0.0000e+00
</event>
<event>
 4      1 +2.4014000e-01 2.50000000e+02 7.54677100e-03 1.02464900e-01
      -11 -1    0    0    0    0 +0.0000000000e+00 +0.0000000000e+00 +1.2500000000e+02 1.2500000000e+02 0.0000000000e+00 0.0000e+00 1.0000e+00
       11 -1    0    0    0    0 -0.0000000000e+00 -0.0000000000e+00 -1.2500000000e+02 1.2500000000e+02 0.0000000000e+00 0.0000e+00 -1.0000e+00
       23  1    1    2    0    0 +5.5773208023e+00 -5.5862951165e+01 -2.6773647669e+01 1.1038050269e+02 9.1188000000e+01 0.0000e+00 1.0000e+00
       25  1    1    2    0    0 -5.5773208023e+00 +5.5862951165e+01 +2.6773647669e+01 1.3961949731e+02 1.2500000000e+02 0.0000e+00 0.0000e+00
</event>
<event>
 4      1 +2.4014000e-01 2.50000000e+02 7.54677100e-03 1.02464900e-01
      -11 -1    0    0    0    0 +0.0000000000e+00 +0.0000000000e+00 +1.2500000000e+02 1.2500000000e+02 0.0000000000e+00 0.0000e+00 1.0000e+00
       11 -1    0    0    0    0 -0.0000000000e+00 -0.0000000000e+00 -1.2500000000e+02 1.2500000000e+02 0.0000000000e+00 0.0000e+00 -1.0000e+00
       23  1    1    2    0    0 +2.8910509335e+00 +5.0792968661e+01 -3.5781562135e+01 1.1038050269e+02 9.1188000000e+01 0.0000e+00 -1.0000e+00
       25  1    1    2    0    0 -2.8910509335e+00 -5.0792968661e+01 +3.5781562135e+01 1.3961949731e+02 1.2500000000e+02 0.0000e+00 0.0000e+00
</event>
<event>
 4      1 +2.4014000e-01 2.50000000e+02 7.54677100e-03 1.02464900e-01
      -11 -1    0    0    0    0 +0.0000000000e+00 +0.0000000000e+00 +1.2500000000e+02 1.2500000000e+02 0.0000000000e+00 0.0000e+00 1.0000e+00
       11 -1    0    0    0    0 -0.0000000000e+00 -0.0000000000e+00 -1.2500000000e+02 1.2500000000e+02 0.0000000000e+00 0.0000e+00 -1.0000e+00
       23  1    1    2    0    0 +5.9186756697e+01 +1.2847404659e+01 -1.4158956704e+01 1.1038050269e+02 9.1188000000e+01 0.0000e+00 0.0000e+00
       25  1    1    2    0    0 -5.9186756697e+01 -1.2847404659e+01 +1.4158956704e+01 1.3961949731e+02 1.2500000000e+02 0.0000e+00 0.0000e+00
</event>
<event>
 4      1 +2.4014000e-01 2.50000000e+02 7.54677100e-03 1.02464900e-01
      -11 -1    0    0    0    0 +0.0000000000e+00 +0.0000000000e+00 +1.2500000000e+02 1.2500000000e+02 0.0000000000e+00 0.0000e+00 -1.0000e+00
       11 -1    0    0    0    0 -0.0000000000e+00 -0.0000000000e+00 -1.2500000000e+02 1.2500000000e+02 0.0000000000e+00 0.0000e+00 1.0000e+00
       23  1    1    2    0    0 -1.7725218866e+01 +4.2200746539e+01 -4.2113152783e+01 1.1038050269e+02 9.1188000000e+01 0.0000e+00 0.0000e+00
       25  1    1    2    0    0 +1.7725218866e+01 -4.2200746539e+01 +4.2113152783e+01 1.3961949731e+02 1.2500000000e+02 0.0000e+00 0.0000e+00
</event>
<event>
 4      1 +2.4014000e-01 2.50000000e+02 7.54677100e-03 1.02464900e-01
      -11 -1    0    0    0    0 +0.0000000000e+00 +0.0000000000e+00 +1.2500000000e+02 1.2500000000e+02 0.0000000000e+00 0.0000e+00 1.0000e+00
       11 -1    0    0    0    0 -0.0000000000e+00 -0.0000000000e+00 -1.2500000000e+02 1.2500000000e+02 0.0000000000e+00 0.0000e+00 -1.0000e+00
       23  1    1    2    0    0 +5.3843683199e+01 +1.7376453695e+01 -2.5836421313e+01 1.1038050269e+02 9.1188000000e+01 0.0000e+00 -1.0000e+00
       25  1    1    2    0    0 -5.3843683199e+01 -1.7376453695e+01 +2.5836421313e+01 1.3961949731e+02 1.2500000000e+02 0.0000e+00 0.0000e+00
</event>
<event>
 4      1 +2.4014000e-01 2.50000000e+02 7.54677100e-03 1.02464900e-01
      -11 -1    0    0    0    0 +0.0000000000e+00 +0.0000000000e+00 +1.2500000000e+02 1.2500000000e+02 0.0000000000e+00 0.0000e+00 1.0000e+00
       11 -1    0    0    0    0 -0.0000000000e+00 -0.0000000000e+00 -1.2500000000e+02 1.2500000000e+02 0.0000000000e+00 0.0000e+00 -1.0000e+00
       23  1    1    2    0    0 -3.2286456589e+01 +4.7885264328e+01 +2.3090911866e+01 1.1038050269e+02 9.1188000000e+01 0.0000e+00 1.0000e+00
       25  1    1    2    0    0 +3.2286456589e+01 -4.7885264328e+01 -2.3090911866e+01 1.3961949731e+02 1.2500000000e+02 0.0000e+00 0.0000e+00
</event>
<event>
 4      1 +2.4014000e-01 2.50000000e+02 7.54677100e-03 1.02464900e-01
      -11 -1    0    0    0    0 +0.0000000000e+00 +0.0000000000e+00 +1.2500000000e+02 1.2500000000e+02 0.0000000000e+00 0.0000e+00 -1.0000e+00
       11 -1    0    0    0    0 -0.0000000000e+00 -0.0000000000e+00 -1.2500000000e+02 1.2500000000e+02 0.0000000000e+00 0.0000e+00 1.0000e+00
       23  1    1    2    0    0 +2.1379140212e+00 -2.5123391879e+01 +5.6858143953e+01 1.1038050269e+02 9.1188000000e+01 0.0000e+00 -1.0000e+00
       25  1    1    2    0    0 -2.1379140212e+00 +2.5123391879e+01 -5.6858143953e+01 1.3961949731e+02 1.2500000000e+02 0.0000e+00 0.0000e+00
</event>
<event>
 4      1 +2.4014000e-01 2.50000000e+02 7.54677100e-03 1.02464900e-01
      -11 -1    0    0    0    0 +0.0000000000e+00 +0.0000000000e+00 +1.2500000000e+02 1.2500000000e+02 0.0000000000e+00 0.0000e+00 1.0000e+00
       11 -1    0    0    0    0 -0.0000000000e+00 -0.0000000000e+00 -1.2500000000e+02 1.2500000000e+02 0.0000000000e+00 0.0000e+00 -1.0000e+00
       23  1    1    2    0    0 +3.4462466362e+01 -3.7460863927e+01 -3.5743896203e+01 1.1038050269e+02 9.1188000000e+01 0.0000e+00 0.0000e+00
       25  1    1    2    0    0 -3.4462466362e+01 +3.7460863927e+01 +3.5743896203e+01 1.3961949731e+02 1.2500000000e+02 0.0000e+00 0.0000e+00
</event>
<event>
 4      1 +2.4014000e-01 2.50000000e+02 7.54677100e-03 1.02464900e-01
      -11 -1    0    0    0    0 +0.0000000000e+00 +0.0000000000e+00 +1.2500000000e+02 1.2500000000e+02 0.0000000000e+00 0.0000e+00 1.0000e+00
       11 -1    0    0    0    0 -0.0000000000e+00 -0.0000000000e+00 -1.2500000000e+02 1.2500000000e+02 0.0000000000e+00 0.0000e+00 -1.0000e+00
       23  1    1    2    0    0 +2.4583006904e+00 -4.0909098907e+00 -6.2014717960e+01 1.1038050269e+02 9.1188000000e+01 0.0000e+00 -1.0000e+00
       25  1    1    2    0    0 -2.4583006904e+00 +4.0909098907e+00 +6.2014717960e+01 1.3961949731e+02 1.2500000000e+02 0.0000e+00 0.0000e+00
</event>
<event>
 4      1 +2.4014000e-01 2.50000000e+02 7.54677100e-03 1.02464900e-01
      -11 -1    0    0    0    0 +0.0000000000e+00 +0.0000000000e+00 +1.2500000000e+02 1.2500000000e+02 0.0000000000e+00 0.0000e+00 1.0000e+00
       11 -1    0    0    0    0 -0.0000000000e+00 -0.0000000000e+00 -1.2500000000e+02 1.2500000000e+02 0.0000000000e+00 0.0000e+00 -1.0000e+00
       23  1    1    2    0    0 -2.3631484497e+01 +2.6796015408e+01 +5.0912970139e+01 1.1038050269e+02 9.1188000000e+01 0.0000e+00 0.0000e+00
       25  1    1    2    0    0 +2.3631484497e+01 -2.6796015408e+01 -5.0912970139e+01 1.3961949731e+02 1.2500000000e+02 0.0000e+00 0.0000e+00
</event>
<event>
 4      1 +2.4014000e-01 2.50000000e+02 7.54677100e-03 1.02464900e-01
      -11 -1    0    0    0    0 +0.0000000000e+00 +0.0000000000e+00 +1.2500000000e+02 1.2500000000e+02 0.0000000000e+00 0.0000e+00 -1.0000e+00
       11 -1    0    0    0    0 -0.0000000000e+00 -0.0000000000e+00 -1.2500000000e+02 1.2500000000e+02 0.0000000000e+00 0.0000e+00 1.0000e+00
       23  1    1    2    0    0 -3.3418810474e-01 -5.7376756057e+01 +2.4008336308e+01 1.1038050269e+02 9.1188000000e+01 0.0000e+00 -1.0000e+00
       25  1    1    2    0    0 +3.3418810474e-01 +5.7376756057e+01 -2.4008336308e+01 1.3961949731e+02 1.2500000000e+02 0.0000e+00 0.0000e+00
</event>
<event>
 4      1 +2.4014000e-01 2.50000000e+02 7.54677100e-03 1.02464900e-01
      -11 -1    0    0    0    0 +0.0000000000e+00 +0.0000000000e+00 +1.2500000000e+02 1.2500000000e+02 0.0000000000e+00 0.0000e+00 -1.0000e+00
       11 -1    0    0    0    0 -0.0000000000e+00 -0.0000000000e+00 -1.2500000000e+02 1.2500000000e+02 0.0000000000e+00 0.0000e+00 1.0000e+00
       23  1    1    2    0    0 +1.8678628193e+01 -5.8839779647e+01 -7.5890190159e+00 1.1038050269e+02 9.1188000000e+01 0.0000e+00 1.0000e+00
       25  1    1    2    0    0 -1.8678628193e+01 +5.8839779647e+01 +7.5890190159e+00 1.3961949731e+02 1.2500000000e+02 0.0000e+00 0.0000e+00
</event>
<event>
 4      1 +2.4014000e-01 2.50000000e+02 7.54677100e-03 1.02464900e-01
      -11 -1    0    0    0    0 +0.0000000000e+00 +0.0000000000e+00 +1.2500000000e+02 1.2500000000e+02 0.0000000000e+00 0.0000e+00 1.0000e+00
       11 -1    0    0    0    0 -0.0000000000e+00 -0.0000000000e+00 -1.2500000000e+02 1.2500000000e+02 0.0000000000e+00 0.0000e+00 -1.0000e+00
       23  1    1    2    0    0 -5.0352795385e+00 -6.1296667951e+01 -9.2719193152e+00 1.1038050269e+02 9.1188000000e+01 0.0000e+00 0.0000e+00
       25  1    1    2    0    0 +5.0352795385e+00 +6.1296667951e+01 +9.2719193152e+00 1.3961949731e+02 1.2500000000e+02 0.0000e+00 0.0000e+00
</event>
<event>
 4      1 +2.4014000e-01 2.50000000e+02 7.54677100e-03 1.02464900e-01
      -11 -1    0    0    0    0 +0.0000000000e+00 +0.0000000000e+00 +1.2500000000e+02 1.2500000000e+02 0.0000000000e+00 0.0000e+00 1.0000e+00
       11 -1    0    0    0    0 -0.0000000000e+00 -0.0000000000e+00 -1.2500000000e+02 1.2500000000e+02 0.0000000000e+00 0.0000e+00 -1.0000e+00
       23  1    1    2    0    0 +4.7513948861e+01 -3.3240020371e+01 +2.2497327374e+01 1.1038050269e+02 9.1188000000e+01 0.0000e+00 0.0000e+00
       25  1    1    2    0    0 -4.7513948861e+01 +3.3240020371e+01 -2.2497327374e+01 1.3961949731e+02 1.2500000000e+02 0.0000e+00 0.0000e+00
</event>
<event>
 4      1 +2.4014000e-01 2.50000000e+02 7.54677100e-03 1.02464900e-01
      -11 -1    0    0    0    0 +0.0000000000e+00 +0.0000000000e+00 +1.2500000000e+02 1.2500000000e+02 0.0000000000e+00 0.0000e+00 1.0000e+00
       11 -1    0    0    0    0 -0.0000000000e+00 -0.0000000000e+00 -1.2500000000e+02 1.2500000000e+02 0.0000000000e+00 0.0000e+00 -1.0000e+00
       23  1    1    2    0    0 +4.8956187370e+01 -1.6053615763e+01 -3.4845045111e+01 1.1038050269e+02 9.1188000000e+01 0.0000e+00 -1.0000e+00
       25  1    1    2    0    0 -4.8956187370e+01 +1.6053615763e+01 +3.4845045111e+01 1.3961949731e+02 1.2500000000e+02 0.0000e+00 0.0000e+00
</event>
<event>
 4      1 +2.4014000e-01 2.50000000e+02 7.54677100e-03 1.02464900e-01
      -11 -1    0    0    0    0 +0.0000000000e+00 +0.0000000000e+00 +1.2500000000e+02 1.2500000000e+02 0.0000000000e+00 0.0000e+00 -1.0000e+00
       11 -1    0    0    0    0 -0.0000000000e+00 -0.0000000000e+00 -1.2500000000e+02 1.2500000000e+02 0.0000000000e+00 0.0000e+00 1.0000e+00
       23  1    1    2    0    0 -3.0772818474e+01 -5.1414542098e+01 +1.6678804923e+01 1.1038050269e+02 9.1188000000e+01 0.0000e+00 0.0000e+00
       25  1    1    2    0    0 +3.0772818474e+01 +5.1414542098e+01 -1.6678804923e+01 1.3961949731e+02 1.2500000000e+02 0.0000e+00 0.0000e+00
</event>
<event>
 4      1 +2.4014000e-01 2.50000000e+02 7.54677100e-03 1.02464900e-01
      -11 -1    0    0    0    0 +0.0000000000e+00 +0.0000000000e+00 +1.2500000000e+02 1.2500000000e+02 0.0000000000e+00 0.0000e+00 -1.0000e+00
       11 -1    0    0    0    0 -0.0000000000e+00 -0.0000000000e+00 -1.2500000000e+02 1.2500000000e+02 0.0000000000e+00 0.0000e+00 1.0000e+00
       23  1    1    2    0    0 +5.4297344955e+01 +2.8281013691e+01 +1.0981194156e+01 1.1038050269e+02 9.1188000000e+01 0.0000e+00 0.0000e+00
       25  1    1    2    0    0 -5.4297344955e+01 -2.8281013691e+01 -1.0981194156e+01 1.3961949731e+02 1.2500000000e+02 0.0000e+00 0.0000e+00
</event>
<event>
 4      1 +2.4014000e-01 2.50000000e+02 7.54677100e-03 1.02464900e-01
      -11 -1    0    0    0    0 +0.0000000000e+00 +0.0000000000e+00 +1.2500000000e+02 1.2500000000e+02 0.0000000000e+00 0.0000e+00 1.0000e+00
       11 -1    0    0    0    0 -0.0000000000e+00 -0.0000000000e+00 -1.2500000000e+02 1.2500000000e+02 0.0000000000e+00 0.0000e+00 -1.0000e+00
       23  1    1    2    0    0 +2.8732500102e+01 +4.0973337654e+01 +3.6935525839e+01 1.1038050269e+02 9.1188000000e+01 0.0000e+00 0.0000e+00
       25  1    1    2    0    0 -2.8732500102e+01 -4.0973337654e+01 -3.6935525839e+01 1.3961949731e+02 1.2500000000e+02 0.0000e+00 0.0000e+00
</event>
<event>
 4      1 +2.4014000e-01 2.50000000e+02 7.54677100e-03 1.02464900e-01
      -11 -1    0    0    0    0 +0.0000000000e+00 +0.0000000000e+00 +1.2500000000e+02 1.2500000000e+02 0.0000000000e+00 0.0000e+00 1.0000e+00
       11 -1    0    0    0    0 -0.0000000000e+00 -0.0000000000e+00 -1.2500000000e+02 1.2500000000e+02 0.0000000000e+00 0.0000e+00 -1.0000e+00
       23  1    1    2    0    0 +6.1953628291e+01 +2.8399214868e+00 +4.7208915675e+00 1.1038050269e+02 9.1188000000e+01 0.0000e+00 0.0000e+00
       25  1    1    2    0    0 -6.1953628291e+01 -2.8399214868e+00 -4.7208915675e+00 1.3961949731e+02 1.2500000000e+02 0.0000e+00 0.0000e+00
</event>
<event>
 4      1 +2.4014000e-01 2.50000000e+02 7.54677100e-03 1.02464900e-01
      -11 -1    0    0    0    0 +0.0000000000e+00 +0.0000000000e+00 +1.2500000000e+02 1.2500000000e+02 0.0000000000e+00 0.0000e+00 1.0000e+00
       11 -1    0    0    0    0 -0.0000000000e+00 -0.0000000000e+00 -1.2500000000e+02 1.2500000000e+02 0.0000000000e+00 0.0000e+00 -1.0000e+00
       23  1    1    2    0    0 +2.7521865678e+01 -4.6450871969e+01 -3.0878267966e+01 1.1038050269e+02 9.1188000000e+01 0.0000e+00 -1.0000e+00
       25  1    1    2    0    0 -2.7521865678e+01 +4.6450871969e+01 +3.0878267966e+01 1.3961949731e+02 1.2500000000e+02 0.0000e+00 0.0000e+00
</event>
<event>
 4      1 +2.4014000e-01 2.50000000e+02 7.54677100e-03 1.02464900e-01
      -11 -1    0    0    0    0 +0.0000000000e+00 +0.0000000000e+00 +1.2500000000e+02 1.2500000000e+02 0.0000000000e+00 0.0000e+00 -1.0000e+00
       11 -1    0    0    0    0 -0.0000000000e+00 -0.0000000000e+00 -1.2500000000e+02 1.2500000000e+02 0.0000000000e+00 0.0000e+00 1.0000e+00
       23  1    1    2    0    0 +4.8644619561e+01 -3.8759471748e+01 +9.1472533545e-02 1.1038050269e+02 9.1188000000e+01 0.0000e+00 0.0000e+00
       25  1    1    2    0    0 -4.8644619561e+01 +3.8759471748e+01 -9.1472533545e-02 1.3961949731e+02 1.2500000000e+02 0.0000e+00 0.0000e+00
</event>
<event>
 4      1 +2.4014000e-01 2.50000000e+02 7.54677100e-03 1.02464900e-01
      -11 -1    0    0    0    0 +0.0000000000e+00 +0.0000000000e+00 +1.2500000000e+02 1.2500000000e+02 0.0000000000e+00 0.0000e+00 1.0000e+00
       11 -1    0    0    0    0 -0.0000000000e+00 -0.0000000000e+00 -1.2500000000e+02 1.2500000000e+02 0.0000000000e+00 0.0000e+00 -1.0000e+00
       23  1    1    2    0    0 -4.2966445282e+01 -2.3096589455e+01 -3.8588031370e+01 1.1038050269e+02 9.1188000000e+01 0.0000e+00 -1.0000e+00
       25  1    1    2    0    0 +4.2966445282e+01 +2.3096589455e+01 +3.8588031370e+01 1.3961949731e+02 1.2500000000e+02 0.0000e+00 0.0000e+00
</event>
<event>
 4      1 +2.4014000e-01 2.50000000e+02 7.54677100e-03 1.02464900e-01
      -11 -1    0    0    0    0 +0.0000000000e+00 +0.0000000000e+00 +1.2500000000e+02 1.2500000000e+02 0.0000000000e+00 0.0000e+00 1.0000e+00
       11 -1    0    0    0    0 -0.0000000000e+00 -0.0000000000e+00 -1.2500000000e+02 1.2500000000e+02 0.0000000000e+00 0.0000e+00 -1.0000e+00
       23  1    1    2    0    0 +5.5384060508e+01 +1.0025215494e+01 -2.6470831601e+01 1.1038050269e+02 9.1188000000e+01 0.0000e+00 0.0000e+00
       25  1    1    2    0    0 -5.5384060508e+01 -1.0025215494e+01 +2.6470831601e+01 1.3961949731e+02 1.2500000000e+02 0.0000e+00 0.0000e+00
</event>
<event>
 4      1 +2.4014000e-01 2.50000000e+02 7.54677100e-03 1.02464900e-01
      -11 -1    0    0    0    0 +0.0000000000e+00 +0.0000000000e+00 +1.2500000000e+02 1.2500000000e+02 0.0000000000e+00 0.0000e+00 1.0000e+00
       11 -1    0    0    0    0 -0.0000000000e+00 -0.0000000000e+00 -1.2500000000e+02 1.2500000000e+02 0.0000000000e+00 0.0000e+00 -1.0000e+00
       23  1    1    2    0    0 +5.2291153565e+00 +6.0879288791e+01 +1.1617769946e+01 1.1038050269e+02 9.1188000000e+01 0.0000e+00 0.0000e+00
       25  1    1    2    0    0 -5.2291153565e+00 -6.0879288791e+01 -1.1617769946e+01 1.3961949731e+02 1.2500000000e+02 0.0000e+00 0.0000e+00
</event>
<event>
 4      1 +2.4014000e-01 2.50000000e+02 7.54677100e-03 1.02464900e-01
      -11 -1    0    0    0    0 +0.0000000000e+00 +0.0000000000e+00 +1.2500000000e+02 1.2500000000e+02 0.0000000000e+00 0.0000e+00 -1.0000e+00
       11 -1    0    0    0    0 -0.0000000000e+00 -0.0000000000e+00 -1.2500000000e+02 1.2500000000e+02 0.0000000000e+00 0.0000e+00 1.0000e+00
       23  1    1    2    0    0 +5.9758790026e+01 +1.6574275440e+01 -4.7733047123e+00 1.1038050269e+02 9.1188000000e+01 0.0000e+00 0.0000e+00
       25  1    1    2    0    0 -5.9758790026e+01 -1.6574275440e+01 +4.7733047123e+00 1.3961949731e+02 1.2500000000e+02 0.0000e+00 0.0000e+00
</event>
<event>
 4      1 +2.4014000e-01 2.50000000e+02 7.54677100e-03 1.02464900e-01
      -11 -1    0    0    0    0 +0.0000000000e+00 +0.0000000000e+00 +1.2500000000e+02 1.2500000000e+02 0.0000000000e+00 0.0000e+00 -1.0000e+00
       11 -1    0    0    0    0 -0.0000000000e+00 -0.0000000000e+00 -1.2500000000e+02 1.2500000000e+02 0.0000000000e+00 0.0000e+00 1.0000e+00
       23  1    1    2    0    0 -3.2893116331e+01 +5.2725519427e+01 -2.5819622109e+00 1.1038050269e+02 9.1188000000e+01 0.0000e+00 0.0000e+00
       25  1    1    2    0    0 +3.2893116331e+01 -5.2725519427e+01 +2.5819622109e+00 1.3961949731e+02 1.2500000000e+02 0.0000e+00 0.0000e+00
</event>
<event>
 4      1 +2.4014000e-01 2.50000000e+02 7.54677100e-03 1.02464900e-01
      -11 -1    0    0    0    0 +0.0000000000e+00 +0.0000000000e+00 +1.2500000000e+02 1.2500000000e+02 0.0000000000e+00 0.0000e+00 1.0000e+00
       11 -1    0    0    0    0 -0.0000000000e+00 -0.0000000000e+00 -1.2500000000e+02 1.2500000000e+02 0.0000000000e+00 0.0000e+00 -1.0000e+00
       23  1    1    2    0    0 -1.7120443890e+01 +4.4275332530e+01 +4.0189418508e+01 1.1038050269e+02 9.1188000000e+01 0.0000e+00 1.0000e+00
       25  1    1    2    0    0 +1.7120443890e+01 -4.4275332530e+01 -4.0189418508e+01 1.3961949731e+02 1.2500000000e+02 0.0000e+00 0.0000e+00
</event>
<event>
 4      1 +2.4014000e-01 2.50000000e+02 7.54677100e-03 1.02464900e-01
      -11 -1    0    0    0    0 +0.0000000000e+00 +0.0000000000e+00 +1.2500000000e+02 1.2500000000e+02 0.0000000000e+00 0.0000e+00 1.0000e+00
       11 -1    0    0    0    0 -0.0000000000e+00 -0.0000000000e+00 -1.2500000000e+02 1.2500000000e+02 0.0000000000e+00 0.0000e+00 -1.0000e+00
       23  1    1    2    0    0 +2.3828041014e+01 -9.9269423358e+00 -5.6588729504e+01 1.1038050269e+02 9.1188000000e+01 0.0000e+00 -1.0000e+00
       25  1    1    2    0    0 -2.3828041014e+01 +9.9269423358e+00 +5.6588729504e+01 1.3961949731e+02 1.2500000000e+02 0.0000e+00 0.0000e+00
</event>
<event>
 4      1 +2.4014000e-01 2.50000000e+02 7.54677100e-03 1.02464900e-01
      -11 -1    0    0    0    0 +0.0000000000e+00 +0.0000000000e+00 +1.2500000000e+02 1.2500000000e+02 0.0000000000e+00 0.0000e+00 1.0000e+00
       11 -1    0    0    0    0 -0.0000000000e+00 -0.0000000000e+00 -1.2500000000e+02 1.2500000000e+02 0.0000000000e+00 0.0000e+00 -1.0000e+00
       23  1    1    2    0    0 -3.6598844594e+01 -5.0284203363e+01 +7.9214658812e-01 1.1038050269e+02 9.1188000000e+01 0.0000e+00 1.0000e+00
       25  1    1    2    0    0 +3.6598844594e+01 +5.0284203363e+01 -7.9214658812e-01 1.3961949731e+02 1.2500000000e+02 0.0000e+00 0.0000e+00
</event>
<event>
 4      1 +2.4014000e-01 2.50000000e+02 7.54677100e-03 1.02464900e-01
      -11 -1    0    0    0    0 +0.0000000000e+00 +0.0000000000e+00 +1.2500000000e+02 1.2500000000e+02 0.0000000000e+00 0.0000e+00 -1.0000e+00
       11 -1    0    0    0    0 -0.0000000000e+00 -0.0000000000e+00 -1.2500000000e+02 1.2500000000e+02 0.0000000000e+00 0.0000e+00 1.0000e+00
       23  1    1    2    0    0 -3.5404546762e+01 +5.1081157595e+01 +2.4160788482e+00 1.1038050269e+02 9.1188000000e+01 0.0000e+00 0.0000e+00
       25  1    1    2    0    0 +3.5404546762e+01 -5.1081157595e+01 -2.4160788482e+00 1.3961949731e+02 1.2500000000e+02 0.0000e+00 0.0000e+00
</event>
<event>
 4      1 +2.4014000e-01 2.50000000e+02 7.54677100e-03 1.02464900e-01
      -11 -1    0    0    0    0 +0.0000000000e+00 +0.0000000000e+00 +1.2500000000e+02 1.2500000000e+02 0.0000000000e+00 0.0000e+00 1.0000e+00
       11 -1    0    0    0    0 -0.0000000000e+00 -0.0000000000e+00 -1.2500000000e+02 1.2500000000e+02 0.0000000000e+00 0.0000e+00 -1.0000e+00
       23  1    1    2    0    0 +4.0607285691e+01 +4.6981521650e+01 -3.5198013920e+00 1.1038050269e+02 9.1188000000e+01 0.0000e+00 0.0000e+00
       25  1    1    2    0    0 -4.0607285691e+01 -4.6981521650e+01 +3.5198013920e+00 1.3961949731e+02 1.2500000000e+02 0.0000e+00 0.0000e+00
</event>
<event>
 4      1 +2.4014000e-01 2.50000000e+02 7.54677100e-03 1.02464900e-01
      -11 -1    0    0    0    0 +0.0000000000e+00 +0.0000000000e+00 +1.2500000000e+02 1.2500000000e+02 0.0000000000e+00 0.0000e+00 -1.0000e+00
       11 -1    0    0    0    0 -0.0000000000e+00 -0.0000000000e+00 -1.2500000000e+02 1.2500000000e+02 0.0000000000e+00 0.0000e+00 1.0000e+00
       23  1    1    2    0    0 +2.4300244447e+01 -4.4224445205e+01 +3.6363451373e+01 1.1038050269e+02 9.1188000000e+01 0.0000e+00 0.0000e+00
       25  1    1    2    0    0 -2.4300244447e+01 +4.4224445205e+01 -3.6363451373e+01 1.3961949731e+02 1.2500000000e+02 0.0000e+00 0.0000e+00
</event>
<event>
 4      1 +2.4014000e-01 2.50000000e+02 7.54677100e-03 1.02464900e-01
      -11 -1    0    0    0    0 +0.0000000000e+00 +0.0000000000e+00 +1.2500000000e+02 1.2500000000e+02 0.0000000000e+00 0.0000e+00 -1.0000e+00
       11 -1    0    0    0    0 -0.0000000000e+00 -0.0000000000e+00 -1.2500000000e+02 1.2500000000e+02 0.0000000000e+00 0.0000e+00 1.0000e+00
       23  1    1    2    0    0 -1.4507833889e+01 +6.0193163004e+01 +5.9084611470e+00 1.1038050269e+02 9.1188000000e+01 0.0000e+00 0.0000e+00
       25  1    1    2    0    0 +1.4507833889e+01 -6.0193163004e+01 -5.9084611470e+00 1.3961949731e+02 1.2500000000e+02 0.0000e+00 0.0000e+00
</event>
<event>
 4      1 +2.4014000e-01 2.50000000e+02 7.54677100e-03 1.02464900e-01
      -11 -1    0    0    0    0 +0.0000000000e+00 +0.0000000000e+00 +1.2500000000e+02 1.2500000000e+02 0.0000000000e+00 0.0000e+00 1.0000e+00
       11 -1    0    0    0    0 -0.0000000000e+00 -0.0000000000e+00 -1.2500000000e+02 1.2500000000e+02 0.0000000000e+00 0.0000e+00 -1.0000e+00
       23  1    1    2    0    0 -5.7232837912e+01 -2.3686174210e+00 -2.4236252716e+01 1.1038050269e+02 9.1188000000e+01 0.0000e+00 -1.0000e+00
       25  1    1    2    0    0 +5.7232837912e+01 +2.3686174210e+00 +2.4236252716e+01 1.3961949731e+02 1.2500000000e+02 0.0000e+00 0.0000e+00
</event>
<event>
 4      1 +2.4014000e-01 2.50000000e+02 7.54677100e-03 1.02464900e-01
      -11 -1    0    0    0    0 +0.0000000000e+00 +0.0000000000e+00 +1.2500000000e+02 1.2500000000e+02 0.0000000000e+00 0.0000e+00 1.0000e+00
       11 -1    0    0    0    0 -0.0000000000e+00 -0.0000000000e+00 -1.2500000000e+02 1.2500000000e+02 0.0000000000e+00 0.0000e+00 -1.0000e+00
       23  1    1    2    0    0 -1.9791277323e+01 +5.7651331768e+01 +1.2378744563e+01 1.1038050269e+02 9.1188000000e+01 0.0000e+00 0.0000e+00
       25  1    1    2    0    0 +1.9791277323e+01 -5.7651331768e+01 -1.2378744563e+01 1.3961949731e+02 1.2500000000e+02 0.0000e+00 0.0000e+00
</event>
<event>
 4      1 +2.4014000e-01 2.50000000e+02 7.54677100e-03 1.02464900e-01
      -11 -1    0    0    0    0 +0.0000000000e+00 +0.0000000000e+00 +1.2500000000e+02 1.2500000000e+02 0.0000000000e+00 0.0000e+00 1.0000e+00
       11 -1    0    0    0    0 -0.0000000000e+00 -0.0000000000e+00 -1.2500000000e+02 1.2500000000e+02 0.0000000000e+00 0.0000e+00 -1.0000e+00
       23  1    1    2    0    0 -6.0224292786e+01 -1.3504141324e+01 -7.6991399020e+00 1.1038050269e+02 9.1188000000e+01 0.0000e+00 -1.0000e+00
       25  1    1    2    0    0 +6.0224292786e+01 +1.3504141324e+01 +7.6991399020e+00 1.3961949731e+02 1.2500000000e+02 0.0000e+00 0.0000e+00
</event>
<event>
 4      1 +2.4014000e-01 2.50000000e+02 7.54677100e-03 1.02464900e-01
      -11 -1    0    0    0    0 +0.0000000000e+00 +0.0000000000e+00 +1.2500000000e+02 1.2500000000e+02 0.0000000000e+00 0.0000e+00 1.0000e+00
       11 -1    0    0    0    0 -0.0000000000e+00 -0.0000000000e+00 -1.2500000000e+02 1.2500000000e+02 0.0000000000e+00 0.0000e+00 -1.0000e+00
       23  1    1    2    0    0 -1.2537584611e+01 +7.2714685516e+00 +6.0485855759e+01 1.1038050269e+02 9.1188000000e+01 0.0000e+00 1.0000e+00
       25  1    1    2    0    0 +1.2537584611e+01 -7.2714685516e+00 -6.0485855759e+01 1.3961949731e+02 1.2500000000e+02 0.0000e+00 0.0000e+00
</event>
<event>
 4      1 +2.4014000e-01 2.50000000e+02 7.54677100e-03 1.02464900e-01
      -11 -1    0    0    0    0 +0.0000000000e+00 +0.0000000000e+00 +1.2500000000e+02 1.2500000000e+02 0.0000000000e+00 0.0000e+00 1.0000e+00
       11 -1    0    0    0    0 -0.0000000000e+00 -0.0000000000e+00 -1.2500000000e+02 1.2500000000e+02 0.0000000000e+00 0.0000e+00 -1.0000e+00
       23  1    1    2    0    0 -2.7238381156e+01 +4.0416019115e+01 +3.8642205172e+01 1.1038050269e+02 9.1188000000e+01 0.0000e+00 0.0000e+00
       25  1    1    2    0    0 +2.7238381156e+01 -4.0416019115e+01 -3.8642205172e+01 1.3961949731e+02 1.2500000000e+02 0.0000e+00 0.0000e+00
</event>
<event>
 4      1 +2.4014000e-01 2.50000000e+02 7.54677100e-03 1.02464900e-01
      -11 -1    0    0    0    0 +0.0000000000e+00 +0.0000000000e+00 +1.2500000000e+02 1.2500000000e+02 0.0000000000e+00 0.0000e+00 1.0000e+00
       11 -1    0    0    0    0 -0.0000000000e+00 -0.0000000000e+00 -1.2500000000e+02 1.2500000000e+02 0.0000000000e+00 0.0000e+00 -1.0000e+00
       23  1    1    2    0    0 +5.9781553384e+01 -1.7071426467e+01 -1.8265549602e+00 1.1038050269e+02 9.1188000000e+01 0.0000e+00 0.0000e+00
       25  1    1    2    0    0 -5.9781553384e+01 +1.7071426467e+01 +1.8265549602e+00 1.3961949731e+02 1.2500000000e+02 0.0000e+00 0.0000e+00
</event>
<event>
 4      1 +2.4014000e-01 2.50000000e+02 7.54677100e-03 1.02464900e-01
      -11 -1    0    0    0    0 +0.0000000000e+00 +0.0000000000e+00 +1.2500000000e+02 1.2500000000e+02 0.0000000000e+00 0.0000e+00 -1.0000e+00
       11 -1    0    0    0    0 -0.0000000000e+00 -0.0000000000e+00 -1.2500000000e+02 1.2500000000e+02 0.0000000000e+00 0.0000e+00 1.0000e+00
       23  1    1    2    0    0 +2.5824570850e+01 -5.6192384720e+01 +6.6416466004e+00 1.1038050269e+02 9.1188000000e+01 0.0000e+00 0.0000e+00
       25  1    1    2    0    0 -2.5824570850e+01 +5.6192384720e+01 -6.6416466004e+00 1.3961949731e+02 1.2500000000e+02 0.0000e+00 0.0000e+00
</event>
<event>
 4      1 +2.4014000e-01 2.50000000e+02 7.54677100e-03 1.02464900e-01
      -11 -1    0    0    0    0 +0.0000000000e+00 +0.0000000000e+00 +1.2500000000e+02 1.2500000000e+02 0.0000000000e+00 0.0000e+00 1.0000e+00
       11 -1    0    0    0    0 -0.0000000000e+00 -0.0000000000e+00 -1.2500000000e+02 1.2500000000e+02 0.0000000000e+00 0.0000e+00 -1.0000e+00
       23  1    1    2    0    0 +9.9930218465e+00 -5.6241147978e+01 -2.4610502193e+01 1.1038050269e+02 9.1188000000e+01 0.0000e+00 -1.0000e+00
       25  1    1    2    0    0 -9.9930218465e+00 +5.6241147978e+01 +2.4610502193e+01 1.3961949731e+02 1.2500000000e+02 0.0000e+00 0.0000e+00
</event>
<event>
 4      1 +2.4014000e-01 2.50000000e+02 7.54677100e-03 1.02464900e-01
      -11 -1    0    0    0    0 +0.0000000000e+00 +0.0000000000e+00 +1.2500000000e+02 1.2500000000e+02 0.0000000000e+00 0.0000e+00 1.0000e+00
       11 -1    0    0    0    0 -0.0000000000e+00 -0.0000000000e+00 -1.2500000000e+02 1.2500000000e+02 0.0000000000e+00 0.0000e+00 -1.0000e+00
       23  1    1    2    0    0 +2.4587810846e+01 -1.4860331098e+01 -5.5165334651e+01 1.1038050269e+02 9.1188000000e+01 0.0000e+00 -1.0000e+00
       25  1    1    2    0    0 -2.4587810846e+01 +1.4860331098e+01 +5.5165334651e+01 1.3961949731e+02 1.2500000000e+02 0.0000e+00 0.0000e+00
</event>
<event>
 4      1 +2.4014000e-01 2.50000000e+02 7.54677100e-03 1.02464900e-01
      -11 -1    0    0    0    0 +0.0000000000e+00 +0.0000000000e+00 +1.2500000000e+02 1.2500000000e+02 0.0000000000e+00 0.0000e+00 1.0000e+00
       11 -1    0    0    0    0 -0.0000000000e+00 -0.0000000000e+00 -1.2500000000e+02 1.2500000000e+02 0.0000000000e+00 0.0000e+00 -1.0000e+00
       23  1    1    2    0    0 -4.7942935310e+01 -2.3350111999e+00 -3.9555362547e+01 1.1038050269e+02 9.1188000000e+01 0.0000e+00 -1.0000e+00
       25  1    1    2    0    0 +4.7942935310e+01 +2.3350111999e+00 +3.9555362547e+01 1.3961949731e+02 1.2500000000e+02 0.0000e+00 0.0000e+00
</event>
<event>
 4      1 +2.4014000e-01 2.50000000e+02 7.54677100e-03 1.02464900e-01
      -11 -1    0    0    0    0 +0.0000000000e+00 +0.0000000000e+00 +1.2500000000e+02 1.2500000000e+02 0.0000000000e+00 0.0000e+00 1.0000e+00
       11 -1    0    0    0    0 -0.0000000000e+00 -0.0000000000e+00 -1.2500000000e+02 1.2500000000e+02 0.0000000000e+00 0.0000e+00 -1.0000e+00
       23  1    1    2    0    0 +4.6905388361e+01 +8.4588521288e+00 -3.9961686564e+01 1.1038050269e+02 9.1188000000e+01 0.0000e+00 -1.0000e+00
       25  1    1    2    0    0 -4.6905388361e+01 -8.4588521288e+00 +3.9961686564e+01 1.3961949731e+02 1.2500000000e+02 0.0000e+00 0.0000e+00
</event>
<event>
 4      1 +2.4014000e-01 2.50000000e+02 7.54677100e-03 1.02464900e-01
      -11 -1    0    0    0    0 +0.0000000000e+00 +0.0000000000e+00 +1.2500000000e+02 1.2500000000e+02 0.0000000000e+00 0.0000e+00 -1.0000e+00
       11 -1    0    0    0    0 -0.0000000000e+00 -0.0000000000e+00 -1.2500000000e+02 1.2500000000e+02 0.0000000000e+00 0.0000e+00 1.0000e+00
       23  1    1    2    0    0 +4.0593148866e+01 +3.6205245056e+01 +3.0165883466e+01 1.1038050269e+02 9.1188000000e+01 0.0000e+00 -1.0000e+00
       25  1    1    2    0    0 -4.0593148866e+01 -3.6205245056e+01 -3.0165883466e+01 1.3961949731e+02 1.2500000000e+02 0.0000e+00 0.0000e+00
</event>
<event>
 4      1 +2.4014000e-01 2.50000000e+02 7.54677100e-03 1.02464900e-01
      -11 -1    0    0    0    0 +0.0000000000e+00 +0.0000000000e+00 +1.2500000000e+02 1.2500000000e+02 0.0000000000e+00 0.0000e+00 -1.0000e+00
       11 -1    0    0    0    0 -0.0000000000e+00 -0.0000000000e+00 -1.2500000000e+02 1.2500000000e+02 0.0000000000e+00 0.0000e+00 1.0000e+00
       23  1    1    2    0    0 +2.5164997899e+00 -5.4115517941e+00 +6.1911116656e+01 1.1038050269e+02 9.1188000000e+01 0.0000e+00 -1.0000e+00
       25  1    1    2    0    0 -2.5164997899e+00 +5.4115517941e+00 -6.1911116656e+01 1.3961949731e+02 1.2500000000e+02 0.0000e+00 0.0000e+00
</event>
<event>
 4      1 +2.4014000e-01 2.50000000e+02 7.54677100e-03 1.02464900e-01
      -11 -1    0    0    0    0 +0.0000000000e+00 +0.0000000000e+00 +1.2500000000e+02 1.2500000000e+02 0.0000000000e+00 0.0000e+00 1.0000e+00
       11 -1    0    0    0    0 -0.0000000000e+00 -0.0000000000e+00 -1.2500000000e+02 1.2500000000e+02 0.0000000000e+00 0.0000e+00 -1.0000e+00
       23  1    1    2    0    0 -5.6239729261e+01 +1.6278973219e+01 -2.0992663319e+01 1.1038050269e+02 9.1188000000e+01 0.0000e+00 -1.0000e+00
       25  1    1    2    0    0 +5.6239729261e+01 -1.6278973219e+01 +2.0992663319e+01 1.3961949731e+02 1.2500000000e+02 0.0000e+00 0.0000e+00
</event>
<event>
 4      1 +2.4014000e-01 2.50000000e+02 7.54677100e-03 1.02464900e-01
      -11 -1    0    0    0    0 +0.0000000000e+00 +0.0000000000e+00 +1.2500000000e+02 1.2500000000e+02 0.0000000000e+00 0.0000e+00 -1.0000e+00
       11 -1    0    0    0    0 -0.0000000000e+00 -0.0000000000e+00 -1.2500000000e+02 1.2500000000e+02 0.0000000000e+00 0.0000e+00 1.0000e+00
       23  1    1    2    0    0 -5.8655262426e+01 +2.0688505626e+01 -3.8723942422e-01 1.1038050269e+02 9.1188000000e+01 0.0000e+00 0.0000e+00
       25  1    1    2    0    0 +5.8655262426e+01 -2.0688505626e+01 +3.8723942422e-01 1.3961949731e+02 1.2500000000e+02 0.0000e+00 0.0000e+00
</event>
<event>
 4      1 +2.4014000e-01 2.50000000e+02 7.54677100e-03 1.02464900e-01
      -11 -1    0    0    0    0 +0.0000000000e+00 +0.0000000000e+00 +1.2500000000e+02 1.2500000000e+02 0.0000000000e+00 0.0000e+00 1.0000e+00
       11 -1    0    0    0    0 -0.0000000000e+00 -0.0000000000e+00 -1.2500000000e+02 1.2500000000e+02 0.0000000000e+00 0.0000e+00 -1.0000e+00
       23  1    1    2    0    0 -5.0808232107e+01 -3.3278841329e+01 -1.3403219747e+01 1.1038050269e+02 9.1188000000e+01 0.0000e+00 -1.0000e+00
       25  1    1    2    0    0 +5.0808232107e+01 +3.3278841329e+01 +1.3403219747e+01 1.3961949731e+02 1.2500000000e+02 0.0000e+00 0.0000e+00
</event>
<event>
 4      1 +2.4014000e-01 2.50000000e+02 7.54677100e-03 1.02464900e-01
      -11 -1    0    0    0    0 +0.0000000000e+00 +0.0000000000e+00 +1.2500000000e+02 1.2500000000e+02 0.0000000000e+00 0.0000e+00 1.0000e+00
       11 -1    0    0    0    0 -0.0000000000e+00 -0.0000000000e+00 -1.2500000000e+02 1.2500000000e+02 0.0000000000e+00 0.0000e+00 -1.0000e+00
       23  1    1    2    0    0 -3.8536736634e+01 -4.7688319567e+01 -1.0456965918e+01 1.1038050269e+02 9.1188000000e+01 0.0000e+00 0.0000e+00
       25  1    1    2    0    0 +3.8536736634e+01 +4.7688319567e+01 +1.0456965918e+01 1.3961949731e+02 1.2500000000e+02 0.0000e+00 0.0000e+00
</event>
<event>
 4      1 +2.4014000e-01 2.50000000e+02 7.54677100e-03 1.02464900e-01
      -11 -1    0    0    0    0 +0.0000000000e+00 +0.0000000000e+00 +1.2500000000e+02 1.2500000000e+02 0.0000000000e+00 0.0000e+00 -1.0000e+00
       11 -1    0    0    0    0 -0.0000000000e+00 -0.0000000000e+00 -1.2500000000e+02 1.2500000000e+02 0.0000000000e+00 0.0000e+00 1.0000e+00
       23  1    1    2    0    0 +4.5542077875e+01 +2.1674032763e+01 +3.6397245450e+01 1.1038050269e+02 9.1188000000e+01 0.0000e+00 0.0000e+00
       25  1    1    2    0    0 -4.5542077875e+01 -2.1674032763e+01 -3.6397245450e+01 1.3961949731e+02 1.2500000000e+02 0.0000e+00 0.0000e+00
</event>
<event>
 4      1 +2.4014000e-01 2.50000000e+02 7.54677100e-03 1.02464900e-01
      -11 -1    0    0    0    0 +0.0000000000e+00 +0.0000000000e+00 +1.2500000000e+02 1.2500000000e+02 0.0000000000e+00 0.0000e+00 -1.0000e+00
       11 -1    0    0    0    0 -0.0000000000e+00 -0.0000000000e+00 -1.2500000000e+02 1.2500000000e+02 0.0000000000e+00 0.0000e+00 1.0000e+00
       23  1    1    2    0    0 +3.5928800977e+01 +2.4987343986e+00 -5.0709778312e+01 1.1038050269e+02 9.1188000000e+01 0.0000e+00 1.0000e+00
       25  1    1    2    0    0 -3.5928800977e+01 -2.4987343986e+00 +5.0709778312e+01 1.3961949731e+02 1.2500000000e+02 0.0000e+00 0.0000e+00
</event>
<event>
 4      1 +2.4014000e-01 2.50000000e+02 7.54677100e-03 1.02464900e-01
      -11 -1    0    0    0    0 +0.0000000000e+00 +0.0000000000e+00 +1.2500000000e+02 1.2500000000e+02 0.0000000000e+00 0.0000e+00 1.0000e+00
       11 -1    0    0    0    0 -0.0000000000e+00 -0.0000000000e+00 -1.2500000000e+02 1.2500000000e+02 0.0000000000e+00 0.0000e+00 -1.0000e+00
       23  1    1    2    0    0 +5.5371169894e+01 -2.7054371501e+01 -8.4082433908e+00 1.1038050269e+02 9.1188000000e+01 0.0000e+00 -1.0000e+00
       25  1    1    2    0    0 -5.5371169894e+01 +2.7054371501e+01 +8.4082433908e+00 1.3961949731e+02 1.2500000000e+02 0.0000e+00 0.0000e+00
</event>
<event>
 4      1 +2.4014000e-01 2.50000000e+02 7.54677100e-03 1.02464900e-01
      -11 -1    0    0    0    0 +0.0000000000e+00 +0.0000000000e+00 +1.2500000000e+02 1.2500000000e+02 0.0000000000e+00 0.0000e+00 -1.0000e+00
       11 -1    0    0    0    0 -0.0000000000e+00 -0.0000000000e+00 -1.2500000000e+02 1.2500000000e+02 0.0000000000e+00 0.0000e+00 1.0000e+00
       23  1    1    2    0    0 +2.4723155798e+01 +1.2890660541e+00 -5.7058810939e+01 1.1038050269e+02 9.1188000000e+01 0.0000e+00 1.0000e+00
       25  1    1    2    0    0 -2.4723155798e+01 -1.2890660541e+00 +5.7058810939e+01 1.3961949731e+02 1.2500000000e+02 0.0000e+00 0.0000e+00
</event>
<event>
 4      1 +2.4014000e-01 2.50000000e+02 7.54677100e-03 1.02464900e-01
      -11 -1    0    0    0    0 +0.0000000000e+00 +0.0000000000e+00 +1.2500000000e+02 1.2500000000e+02 0.0000000000e+00 0.0000e+00 -1.0000e+00
       11 -1    0    0    0    0 -0.0000000000e+00 -0.0000000000e+00 -1.2500000000e+02 1.2500000000e+02 0.0000000000e+00 0.0000e+00 1.0000e+00
       23  1    1    2    0    0 +3.8140786637e+01 -4.3832778422e+01 -2.2193962246e+01 1.1038050269e+02 9.1188000000e+01 0.0000e+00 0.0000e+00
       25  1    1    2    0    0 -3.8140786637e+01 +4.3832778422e+01 +2.2193962246e+01 1.3961949731e+02 1.2500000000e+02 0.0000e+00 0.0000e+00
</event>
<event>
 4      1 +2.4014000e-01 2.50000000e+02 7.54677100e-03 1.02464900e-01
      -11 -1    0    0    0    0 +0.0000000000e+00 +0.0000000000e+00 +1.2500000000e+02 1.2500000000e+02 0.0000000000e+00 0.0000e+00 1.0000e+00
       11 -1    0    0    0    0 -0.0000000000e+00 -0.0000000000e+00 -1.2500000000e+02 1.2500000000e+02 0.0000000000e+00 0.0000e+00 -1.0000e+00
       23  1    1    2    0    0 +2.3247639655e+01 +3.0089147666e+01 +4.9221890180e+01 1.1038050269e+02 9.1188000000e+01 0.0000e+00 1.0000e+00
       25  1    1    2    0    0 -2.3247639655e+01 -3.0089147666e+01 -4.9221890180e+01 1.3961949731e+02 1.2500000000e+02 0.0000e+00 0.0000e+00
</event>
<event>
 4      1 +2.4014000e-01 2.50000000e+02 7.54677100e-03 1.02464900e-01
      -11 -1    0    0    0    0 +0.0000000000e+00 +0.0000000000e+00 +1.2500000000e+02 1.2500000000e+02 0.0000000000e+00 0.0000e+00 1.0000e+00
       11 -1    0    0    0    0 -0.0000000000e+00 -0.0000000000e+00 -1.2500000000e+02 1.2500000000e+02 0.0000000000e+00 0.0000e+00 -1.0000e+00
       23  1    1    2    0    0 +5.6364491843e+01 -1.7926884254e+01 +1.9242528676e+01 1.1038050269e+02 9.1188000000e+01 0.0000e+00 1.0000e+00
       25  1    1    2    0    0 -5.6364491843e+01 +1.7926884254e+01 -1.9242528676e+01 1.3961949731e+02 1.2500000000e+02 0.0000e+00 0.0000e+00
</event>
<event>
 4      1 +2.4014000e-01 2.50000000e+02 7.54677100e-03 1.02464900e-01
      -11 -1    0    0    0    0 +0.0000000000e+00 +0.0000000000e+00 +1.2500000000e+02 1.2500000000e+02 0.0000000000e+00 0.0000e+00 1.0000e+00
       11 -1    0    0    0    0 -0.0000000000e+00 -0.0000000000e+00 -1.2500000000e+02 1.2500000000e+02 0.0000000000e+00 0.0000e+00 -1.0000e+00
       23  1    1    2    0    0 +4.1798351901e+01 +3.0452236221e+01 -3.4556665307e+01 1.1038050269e+02 9.1188000000e+01 0.0000e+00 -1.0000e+00
       25  1    1    2    0    0 -4.1798351901e+01 -3.0452236221e+01 +3.4556665307e+01 1.3961949731e+02 1.2500000000e+02 0.0000e+00 0.0000e+00
</event>
<event>
 4      1 +2.4014000e-01 2.50000000e+02 7.54677100e-03 1.02464900e-01
      -11 -1    0    0    0    0 +0.0000000000e+00 +0.0000000000e+00 +1.2500000000e+02 1.2500000000e+02 0.0000000000e+00 0.0000e+00 1.0000e+00
       11 -1    0    0    0    0 -0.0000000000e+00 -0.0000000000e+00 -1.2500000000e+02 1.2500000000e+02 0.0000000000e+00 0.0000e+00 -1.0000e+00
       23  1    1    2    0    0 -5.7333646878e+01 -1.1911277863e+01 -2.0966125656e+01 1.1038050269e+02 9.1188000000e+01 0.0000e+00 1.0000e+00
       25  1    1    2    0    0 +5.7333646878e+01 +1.1911277863e+01 +2.0966125656e+01 1.3961949731e+02 1.2500000000e+02 0.0000e+00 0.0000e+00
</event>
<event>
 4      1 +2.4014000e-01 2.50000000e+02 7.54677100e-03 1.02464900e-01
      -11 -1    0    0    0    0 +0.0000000000e+00 +0.0000000000e+00 +1.2500000000e+02 1.2500000000e+02 0.0000000000e+00 0.0000e+00 -1.0000e+00
       11 -1    0    0    0    0 -0.0000000000e+00 -0.0000000000e+00 -1.2500000000e+02 1.2500000000e+02 0.0000000000e+00 0.0000e+00 1.0000e+00
       23  1    1    2    0    0 -5.5809783381e+01 -2.5290975808e+01 +1.0688248281e+01 1.1038050269e+02 9.1188000000e+01 0.0000e+00 0.0000e+00
       25  1    1    2    0    0 +5.5809783381e+01 +2.5290975808e+01 -1.0688248281e+01 1.3961949731e+02 1.2500000000e+02 0.0000e+00 0.0000e+00
</event>
<event>
 4      1 +2.4014000e-01 2.50000000e+02 7.54677100e-03 1.02464900e-01
      -11 -1    0    0    0    0 +0.0000000000e+00 +0.0000000000e+00 +1.2500000000e+02 1.2500000000e+02 0.0000000000e+00 0.0000e+00 1.0000e+00
       11 -1    0    0    0    0 -0.0000000000e+00 -0.0000000000e+00 -1.2500000000e+02 1.2500000000e+02 0.0000000000e+00 0.0000e+00 -1.0000e+00
       23  1    1    2    0    0 -2.7083339828e+01 -4.3672850136e+01 -3.5039676003e+01 1.1038050269e+02 9.1188000000e+01 0.0000e+00 0.0000e+00
       25  1    1    2    0    0 +2.7083339828e+01 +4.3672850136e+01 +3.5039676003e+01 1.3961949731e+02 1.2500000000e+02 0.0000e+00 0.0000e+00
</event>
<event>
 4      1 +2.4014000e-01 2.50000000e+02 7.54677100e-03 1.02464900e-01
      -11 -1    0    0    0    0 +0.0000000000e+00 +0.0000000000e+00 +1.2500000000e+02 1.2500000000e+02 0.0000000000e+00 0.0000e+00 1.0000e+00
       11 -1    0    0    0    0 -0.0000000000e+00 -0.0000000000e+00 -1.2500000000e+02 1.2500000000e+02 0.0000000000e+00 0.0000e+00 -1.0000e+00
       23  1    1    2    0    0 -4.0558898880e+00 -6.0241986839e+01 -1.4935086492e+01 1.1038050269e+02 9.1188000000e+01 0.0000e+00 1.0000e+00
       25  1    1    2    0    0 +4.0558898880e+00 +6.0241986839e+01 +1.4935086492e+01 1.3961949731e+02 1.2500000000e+02 0.0000e+00 0.0000e+00
</event>
<event>
 4      1 +2.4014000e-01 2.50000000e+02 7.54677100e-03 1.02464900e-01
      -11 -1    0    0    0    0 +0.0000000000e+00 +0.0000000000e+00 +1.2500000000e+02 1.2500000000e+02 0.0000000000e+00 0.0000e+00 1.0000e+00
       11 -1    0    0    0    0 -0.0000000000e+00 -0.0000000000e+00 -1.2500000000e+02 1.2500000000e+02 0.0000000000e+00 0.0000e+00 -1.0000e+00
       23  1    1    2    0    0 -4.5367674693e+01 +4.0806182977e+01 +1.2051288457e+01 1.1038050269e+02 9.1188000000e+01 0.0000e+00 0.0000e+00
       25  1    1    2    0    0 +4.5367674693e+01 -4.0806182977e+01 -1.2051288457e+01 1.3961949731e+02 1.2500000000e+02 0.0000e+00 0.0000e+00
</event>
<event>
 4      1 +2.4014000e-01 2.50000000e+02 7.54677100e-03 1.02464900e-01
      -11 -1    0    0    0    0 +0.0000000000e+00 +0.0000000000e+00 +1.2500000000e+02 1.2500000000e+02 0.0000000000e+00 0.0000e+00 -1.0000e+00
       11 -1    0    0    0    0 -0.0000000000e+00 -0.0000000000e+00 -1.2500000000e+02 1.2500000000e+02 0.0000000000e+00 0.0000e+00 1.0000e+00
       23  1    1    2    0    0 -3.3961015785e+01 -1.2349036546e+01 +5.0623657838e+01 1.1038050269e+02 9.1188000000e+01 0.0000e+00 -1.0000e+00
       25  1    1    2    0    0 +3.3961015785e+01 +1.2349036546e+01 -5.0623657838e+01 1.3961949731e+02 1.2500000000e+02 0.0000e+00 0.0000e+00
</event>
<event>
 4      1 +2.4014000e-01 2.50000000e+02 7.54677100e-03 1.02464900e-01
      -11 -1    0    0    0    0 +0.0000000000e+00 +0.0000000000e+00 +1.2500000000e+02 1.2500000000e+02 0.0000000000e+00 0.0000e+00 1.0000e+00
       11 -1    0    0    0    0 -0.0000000000e+00 -0.0000000000e+00 -1.2500000000e+02 1.2500000000e+02 0.0000000000e+00 0.0000e+00 -1.0000e+00
       23  1    1    2    0    0 -4.2427414091e+01 +2.2150975484e+00 +4.5426995344e+01 1.1038050269e+02 9.1188000000e+01 0.0000e+00 -1.0000e+00
       25  1    1    2    0    0 +4.2427414091e+01 -2.2150975484e+00 -4.5426995344e+01 1.3961949731e+02 1.2500000000e+02 0.0000e+00 0.0000e+00
</event>
<event>
 4      1 +2.4014000e-01 2.50000000e+02 7.54677100e-03 1.02464900e-01
      -11 -1    0    0    0    0 +0.0000000000e+00 +0.0000000000e+00 +1.2500000000e+02 1.2500000000e+02 0.0000000000e+00 0.0000e+00 1.0000e+00
       11 -1    0    0    0    0 -0.0000000000e+00 -0.0000000000e+00 -1.2500000000e+02 1.2500000000e+02 0.0000000000e+00 0.0000e+00 -1.0000e+00
       23  1    1    2    0    0 +1.4263958789e+01 +5.9847771968e+01 +9.1316865798e+00 1.1038050269e+02 9.1188000000e+01 0.0000e+00 0.0000e+00
       25  1    1    2    0    0 -1.4263958789e+01 -5.9847771968e+01 -9.1316865798e+00 1.3961949731e+02 1.2500000000e+02 0.0000e+00 0.0000e+00
</event>
<event>
 4      1 +2.4014000e-01 2.50000000e+02 7.54677100e-03 1.02464900e-01
      -11 -1    0    0    0    0 +0.0000000000e+00 +0.0000000000e+00 +1.2500000000e+02 1.2500000000e+02 0.0000000000e+00 0.0000e+00 1.0000e+00
       11 -1    0    0    0    0 -0.0000000000e+00 -0.0000000000e+00 -1.2500000000e+02 1.2500000000e+02 0.0000000000e+00 0.0000e+00 -1.0000e+00
       23  1    1    2    0    0 +5.2715537593e+01 -5.2053983498e-01 +3.3006138281e+01 1.1038050269e+02 9.1188000000e+01 0.0000e+00 1.0000e+00
       25  1    1    2    0    0 -5.2715537593e+01 +5.2053983498e-01 -3.3006138281e+01 1.3961949731e+02 1.2500000000e+02 0.0000e+00 0.0000e+00
</event>
<event>
 4      1 +2.4014000e-01 2.50000000e+02 7.54677100e-03 1.02464900e-01
      -11 -1    0    0    0    0 +0.0000000000e+00 +0.0000000000e+00 +1.2500000000e+02 1.2500000000e+02 0.0000000000e+00 0.0000e+00 1.0000e+00
       11 -1    0    0    0    0 -0.0000000000e+00 -0.0000000000e+00 -1.2500000000e+02 1.2500000000e+02 0.0000000000e+00 0.0000e+00 -1.0000e+00
       23  1    1    2    0    0 +3.9023667235e+01 +4.0545692830e+01 -2.6491587686e+01 1.1038050269e+02 9.1188000000e+01 0.0000e+00 0.0000e+00
       25  1    1    2    0    0 -3.9023667235e+01 -4.0545692830e+01 +2.6491587686e+01 1.3961949731e+02 1.2500000000e+02 0.0000e+00 0.0000e+00
</event>
<event>
 4      1 +2.4014000e-01 2.50000000e+02 7.54677100e-03 1.02464900e-01
      -11 -1    0    0    0    0 +0.0000000000e+00 +0.0000000000e+00 +1.2500000000e+02 1.2500000000e+02 0.0000000000e+00 0.0000e+00 1.0000e+00
       11 -1    0    0    0    0 -0.0000000000e+00 -0.0000000000e+00 -1.2500000000e+02 1.2500000000e+02 0.0000000000e+00 0.0000e+00 -1.0000e+00
       23  1    1    2    0    0 +2.9584325151e+01 -4.7936438085e+01 +2.6371758355e+01 1.1038050269e+02 9.1188000000e+01 0.0000e+00 1.0000e+00
       25  1    1    2    0    0 -2.9584325151e+01 +4.7936438085e+01 -2.6371758355e+01 1.3961949731e+02 1.2500000000e+02 0.0000e+00 0.0000e+00
</event>
<event>
 4      1 +2.4014000e-01 2.50000000e+02 7.54677100e-03 1.02464900e-01
      -11 -1    0    0    0    0 +0.0000000000e+00 +0.0000000000e+00 +1.2500000000e+02 1.2500000000e+02 0.0000000000e+00 0.0000e+00 1.0000e+00
       11 -1    0    0    0    0 -0.0000000000e+00 -0.0000000000e+00 -1.2500000000e+02 1.2500000000e+02 0.0000000000e+00 0.0000e+00 -1.0000e+00
       23  1    1    2    0    0 +5.8466541279e+01 -2.0105110039e+01 +6.7861720346e+00 1.1038050269e+02 9.1188000000e+01 0.0000e+00 -1.0000e+00
       25  1    1    2    0    0 -5.8466541279e+01 +2.0105110039e+01 -6.7861720346e+00 1.3961949731e+02 1.2500000000e+02 0.0000e+00 0.0000e+00
</event>
<event>
 4      1 +2.4014000e-01 2.50000000e+02 7.54677100e-03 1.02464900e-01
      -11 -1    0    0    0    0 +0.0000000000e+00 +0.0000000000e+00 +1.2500000000e+02 1.2500000000e+02 0.0000000000e+00 0.0000e+00 -1.0000e+00
       11 -1    0    0    0    0 -0.0000000000e+00 -0.0000000000e+00 -1.2500000000e+02 1.2500000000e+02 0.0000000000e+00 0.0000e+00 1.0000e+00
       23  1    1    2    0    0 -5.4864224685e+01 +2.3591951665e+01 +1.7376440831e+01 1.1038050269e+02 9.1188000000e+01 0.0000e+00 -1.0000e+00
       25  1    1    2    0    0 +5.4864224685e+01 -2.3591951665e+01 -1.7376440831e+01 1.3961949731e+02 1.2500000000e+02 0.0000e+00 0.0000e+00
</event>
<event>
 4      1 +2.4014000e-01 2.50000000e+02 7.54677100e-03 1.02464900e-01
      -11 -1    0    0    0    0 +0.0000000000e+00 +0.0000000000e+00 +1.2500000000e+02 1.2500000000e+02 0.0000000000e+00 0.0000e+00 -1.0000e+00
       11 -1    0    0    0    0 -0.0000000000e+00 -0.0000000000e+00 -1.2500000000e+02 1.2500000000e+02 0.0000000000e+00 0.0000e+00 1.0000e+00
       23  1    1    2    0    0 +2.9921757557e+01 -4.7542107398e+01 -2.6702817801e+01 1.1038050269e+02 9.1188000000e+01 0.0000e+00 0.0000e+00
       25  1    1    2    0    0 -2.9921757557e+01 +4.7542107398e+01 +2.6702817801e+01 1.3961949731e+02 1.2500000000e+02 0.0000e+00 0.0000e+00
</event>
<event>
 4      1 +2.4014000e-01 2.50000000e+02 7.54677100e-03 1.02464900e-01
      -11 -1    0    0    0    0 +0.0000000000e+00 +0.0000000000e+00 +1.2500000000e+02 1.2500000000e+02 0.0000000000e+00 0.0000e+00 1.0000e+00
       11 -1    0    0    0    0 -0.0000000000e+00 -0.0000000000e+00 -1.2500000000e+02 1.2500000000e+02 0.0000000000e+00 0.0000e+00 -1.0000e+00
       23  1    1    2    0    0 -5.0376214048e+01 +3.5939377029e+01 -6.2611713460e+00 1.1038050269e+02 9.1188000000e+01 0.0000e+00 -1.0000e+00
       25  1    1    2    0    0 +5.0376214048e+01 -3.5939377029e+01 +6.2611713460e+00 1.3961949731e+02 1.2500000000e+02 0.0000e+00 0.0000e+00
</event>
<event>
 4      1 +2.4014000e-01 2.50000000e+02 7.54677100e-03 1.02464900e-01
      -11 -1    0    0    0    0 +0.0000000000e+00 +0.0000000000e+00 +1.2500000000e+02 1.2500000000e+02 0.0000000000e+00 0.0000e+00 -1.0000e+00
       11 -1    0    0    0    0 -0.0000000000e+00 -0.0000000000e+00 -1.2500000000e+02 1.2500000000e+02 0.0000000000e+00 0.0000e+00 1.0000e+00
       23  1    1    2    0    0 -5.3949239750e+01 -2.0668194283e+00 -3.0883843956e+01 1.1038050269e+02 9.1188000000e+01 0.0000e+00 1.0000e+00
       25  1    1    2    0    0 +5.3949239750e+01 +2.0668194283e+00 +3.0883843956e+01 1.3961949731e+02 1.2500000000e+02 0.0000e+00 0.0000e+00
</event>
<event>
 4      1 +2.4014000e-01 2.50000000e+02 7.54677100e-03 1.02464900e-01
      -11 -1    0    0    0    0 +0.0000000000e+00 +0.0000000000e+00 +1.2500000000e+02 1.2500000000e+02 0.0000000000e+00 0.0000e+00 1.0000e+00
       11 -1    0    0    0    0 -0.0000000000e+00 -0.0000000000e+00 -1.2500000000e+02 1.2500000000e+02 0.0000000000e+00 0.0000e+00 -1.0000e+00
       23  1    1    2    0    0 -5.6212053863e+01 +1.7290131029e+01 +2.0245009241e+01 1.1038050269e+02 9.1188000000e+01 0.0000e+00 0.0000e+00
       25  1    1    2    0    0 +5.6212053863e+01 -1.7290131029e+01 -2.0245009241e+01 1.3961949731e+02 1.2500000000e+02 0.0000e+00 0.0000e+00
</event>
<event>
 4      1 +2.4014000e-01 2.50000000e+02 7.54677100e-03 1.02464900e-01
      -11 -1    0    0    0    0 +0.0000000000e+00 +0.0000000000e+00 +1.2500000000e+02 1.2500000000e+02 0.0000000000e+00 0.0000e+00 -1.0000e+00
       11 -1    0    0    0    0 -0.0000000000e+00 -0.0000000000e+00 -1.2500000000e+02 1.2500000000e+02 0.0000000000e+00 0.0000e+00 1.0000e+00
       23  1    1    2    0    0 +5.3940916822e+01 +3.0935910804e+01 +1.3967622507e+00 1.1038050269e+02 9.1188000000e+01 0.0000e+00 0.0000e+00
       25  1    1    2    0    0 -5.3940916822e+01 -3.0935910804e+01 -1.3967622507e+00 1.3961949731e+02 1.2500000000e+02 0.0000e+00 0.0000e+00
</event>
<event>
 4      1 +2.4014000e-01 2.50000000e+02 7.54677100e-03 1.02464900e-01
      -11 -1    0    0    0    0 +0.0000000000e+00 +0.0000000000e+00 +1.2500000000e+02 1.2500000000e+02 0.0000000000e+00 0.0000e+00 1.0000e+00
       11 -1    0    0    0    0 -0.0000000000e+00 -0.0000000000e+00 -1.2500000000e+02 1.2500000000e+02 0.0000000000e+00 0.0000e+00 -1.0000e+00
       23  1    1    2    0    0 -5.9817217918e+01 +1.5067914099e+01 -7.9663313314e+00 1.1038050269e+02 9.1188000000e+01 0.0000e+00 0.0000e+00
       25  1    1    2    0    0 +5.9817217918e+01 -1.5067914099e+01 +7.9663313314e+00 1.3961949731e+02 1.2500000000e+02 0.0000e+00 0.0000e+00
</event>
<event>
 4      1 +2.4014000e-01 2.50000000e+02 7.54677100e-03 1.02464900e-01
      -11 -1    0    0    0    0 +0.0000000000e+00 +0.0000000000e+00 +1.2500000000e+02 1.2500000000e+02 0.0000000000e+00 0.0000e+00 1.0000e+00
       11 -1    0    0    0    0 -0.0000000000e+00 -0.0000000000e+00 -1.2500000000e+02 1.2500000000e+02 0.0000000000e+00 0.0000e+00 -1.0000e+00
       23  1    1    2    0    0 +5.2621300693e+01 +3.3241148207e+00 +3.2993226633e+01 1.1038050269e+02 9.1188000000e+01 0.0000e+00 0.0000e+00
       25  1    1    2    0    0 -5.2621300693e+01 -3.3241148207e+00 -3.2993226633e+01 1.3961949731e+02 1.2500000000e+02 0.0000e+00 0.0000e+00
</event>
<event>
 4      1 +2.4014000e-01 2.50000000e+02 7.54677100e-03 1.02464900e-01
      -11 -1    0    0    0    0 +0.0000000000e+00 +0.0000000000e+00 +1.2500000000e+02 1.2500000000e+02 0.0000000000e+00 0.0000e+00 1.0000e+00
       11 -1    0    0    0    0 -0.0000000000e+00 -0.0000000000e+00 -1.2500000000e+02 1.2500000000e+02 0.0000000000e+00 0.0000e+00 -1.0000e+00
       23  1    1    2    0    0 +1.9125102797e+01 -5.8567699579e+01 +8.5240271426e+00 1.1038050269e+02 9.1188000000e+01 0.0000e+00 0.0000e+00
       25  1    1    2    0    0 -1.9125102797e+01 +5.8567699579e+01 -8.5240271426e+00 1.3961949731e+02 1.2500000000e+02 0.0000e+00 0.0000e+00
</event>
<event>
 4      1 +2.4014000e-01 2.50000000e+02 7.54677100e-03 1.02464900e-01
      -11 -1    0    0    0    0 +0.0000000000e+00 +0.0000000000e+00 +1.2500000000e+02 1.2500000000e+02 0.0000000000e+00 0.0000e+00 1.0000e+00
       11 -1    0    0    0    0 -0.0000000000e+00 -0.0000000000e+00 -1.2500000000e+02 1.2500000000e+02 0.0000000000e+00 0.0000e+00 -1.0000e+00
       23  1    1    2    0    0 +1.2615722952e+01 -1.8295860812e+01 -5.8092245965e+01 1.1038050269e+02 9.1188000000e+01 0.0000e+00 0.0000e+00
       25  1    1    2    0    0 -1.2615722952e+01 +1.8295860812e+01 +5.8092245965e+01 1.3961949731e+02 1.2500000000e+02 0.0000e+00 0.0000e+00
</event>
<event>
 4      1 +2.4014000e-01 2.50000000e+02 7.54677100e-03 1.02464900e-01
      -11 -1    0    0    0    0 +0.0000000000e+00 +0.0000000000e+00 +1.2500000000e+02 1.2500000000e+02 0.0000000000e+00 0.0000e+00 1.0000e+00
       11 -1    0    0    0    0 -0.0000000000e+00 -0.0000000000e+00 -1.2500000000e+02 1.2500000000e+02 0.0000000000e+00 0.0000e+00 -1.0000e+00
       23  1    1    2    0    0 +5.9786996129e+01 +7.7115153741e+00 +1.5318343714e+01 1.1038050269e+02 9.1188000000e+01 0.0000e+00 0.0000e+00
       25  1    1    2    0    0 -5.9786996129e+01 -7.7115153741e+00 -1.5318343714e+01 1.3961949731e+02 1.2500000000e+02 0.0000e+00 0.0000e+00
</event>
<event>
 4      1 +2.4014000e-01 2.50000000e+02 7.54677100e-03 1.02464900e-01
      -11 -1    0    0    0    0 +0.0000000000e+00 +0.0000000000e+00 +1.2500000000e+02 1.2500000000e+02 0.0000000000e+00 0.0000e+00 -1.0000e+00
       11 -1    0    0    0    0 -0.0000000000e+00 -0.0000000000e+00 -1.2500000000e+02 1.2500000000e+02 0.0000000000e+00 0.0000e+00 1.0000e+00
       23  1    1    2    0    0 -4.5979530756e+01 -1.8602288339e+01 +3.7529210619e+01 1.1038050269e+02 9.1188000000e+01 0.0000e+00 -1.0000e+00
       25  1    1    2    0    0 +4.5979530756e+01 +1.8602288339e+01 -3.7529210619e+01 1.3961949731e+02 1.2500000000e+02 0.0000e+00 0.0000e+00
</event>
<event>
 4      1 +2.4014000e-01 2.50000000e+02 7.54677100e-03 1.02464900e-01
      -11 -1    0    0    0    0 +0.0000000000e+00 +0.0000000000e+00 +1.2500000000e+02 1.2500000000e+02 0.0000000000e+00 0.0000e+00 1.0000e+00
       11 -1    0    0    0    0 -0.0000000000e+00 -0.0000000000e+00 -1.2500000000e+02 1.2500000000e+02 0.0000000000e+00 0.0000e+00 -1.0000e+00
       23  1    1    2    0    0 +1.5309036783e+00 -4.0863690465e+01 +4.6865970225e+01 1.1038050269e+02 9.1188000000e+01 0.0000e+00 1.0000e+00
       25  1    1    2    0    0 -1.5309036783e+00 +4.0863690465e+01 -4.6865970225e+01 1.3961949731e+02 1.2500000000e+02 0.0000e+00 0.0000e+00
</event>
<event>
 4      1 +2.4014000e-01 2.50000000e+02 7.54677100e-03 1.02464900e-01
      -11 -1    0    0    0    0 +0.0000000000e+00 +0.0000000000e+00 +1.2500000000e+02 1.2500000000e+02 0.0000000000e+00 0.0000e+00 1.0000e+00
       11 -1    0    0    0    0 -0.0000000000e+00 -0.0000000000e+00 -1.2500000000e+02 1.2500000000e+02 0.0000000000e+00 0.0000e+00 -1.0000e+00
       23  1    1    2    0    0 +6.1090750102e+01 -7.2764284471e+00 -9.1420933442e+00 1.1038050269e+02 9.1188000000e+01 0.0000e+00 0.0000e+00
       25  1    1    2    0    0 -6.1090750102e+01 +7.2764284471e+00 +9.1420933442e+00 1.3961949731e+02 1.2500000000e+02 0.0000e+00 0.0000e+00
</event>
<event>
 4      1 +2.4014000e-01 2.50000000e+02 7.54677100e-03 1.02464900e-01
      -11 -1    0    0    0    0 +0.0000000000e+00 +0.0000000000e+00 +1.2500000000e+02 1.2500000000e+02 0.0000000000e+00 0.0000e+00 1.0000e+00
       11 -1    0    0    0    0 -0.0000000000e+00 -0.0000000000e+00 -1.2500000000e+02 1.2500000000e+02 0.0000000000e+00 0.0000e+00 -1.0000e+00
       23  1    1    2    0    0 +3.6471046134e+01 -2.5841715810e+00 +5.0316884649e+01 1.1038050269e+02 9.1188000000e+01 0.0000e+00 1.0000e+00
       25  1    1    2    0    0 -3.6471046134e+01 +2.5841715810e+00 -5.0316884649e+01 1.3961949731e+02 1.2500000000e+02 0.0000e+00 0.0000e+00
</event>
<event>
 4      1 +2.4014000e-01 2.50000000e+02 7.54677100e-03 1.02464900e-01
      -11 -1    0    0    0    0 +0.0000000000e+00 +0.0000000000e+00 +1.2500000000e+02 1.2500000000e+02 0.0000000000e+00 0.0000e+00 -1.0000e+00
       11 -1    0    0    0    0 -0.0000000000e+00 -0.0000000000e+00 -1.2500000000e+02 1.2500000000e+02 0.0000000000e+00 0.0000e+00 1.0000e+00
       23  1    1    2    0    0 +5.1139066762e+01 -2.9433949106e+01 -1.9673396259e+01 1.1038050269e+02 9.1188000000e+01 0.0000e+00 1.0000e+00
       25  1    1    2    0    0 -5.1139066762e+01 +2.9433949106e+01 +1.9673396259e+01 1.3961949731e+02 1.2500000000e+02 0.0000e+00 0.0000e+00
</event>
<event>
 4      1 +2.4014000e-01 2.50000000e+02 7.54677100e-03 1.02464900e-01
      -11 -1    0    0    0    0 +0.0000000000e+00 +0.0000000000e+00 +1.2500000000e+02 1.2500000000e+02 0.0000000000e+00 0.0000e+00 -1.0000e+00
       11 -1    0    0    0    0 -0.0000000000e+00 -0.0000000000e+00 -1.2500000000e+02 1.2500000000e+02 0.0000000000e+00 0.0000e+00 1.0000e+00
       23  1    1    2    0    0 +1.8519818590e+00 +8.4298091822e+00 +6.1596367669e+01 1.1038050269e+02 9.1188000000e+01 0.0000e+00 -1.0000e+00
       25  1    1    2    0    0 -1.8519818590e+00 -8.4298091822e+00 -6.1596367669e+01 1.3961949731e+02 1.2500000000e+02 0.0000e+00 0.0000e+00
</event>
<event>
 4      1 +2.4014000e-01 2.50000000e+02 7.54677100e-03 1.02464900e-01
      -11 -1    0    0    0    0 +0.0000000000e+00 +0.0000000000e+00 +1.2500000000e+02 1.2500000000e+02 0.0000000000e+00 0.0000e+00 -1.0000e+00
       11 -1    0    0    0    0 -0.0000000000e+00 -0.0000000000e+00 -1.2500000000e+02 1.2500000000e+02 0.0000000000e+00 0.0000e+00 1.0000e+00
       23  1    1    2    0    0 -4.2929393678e+01 +4.4822747567e+01 +4.0733878657e+00 1.1038050269e+02 9.1188000000e+01 0.0000e+00 0.0000e+00
       25  1    1    2    0    0 +4.2929393678e+01 -4.4822747567e+01 -4.0733878657e+00 1.3961949731e+02 1.2500000000e+02 0.0000e+00 0.0000e+00
</event>
<event>
 4      1 +2.4014000e-01 2.50000000e+02 7.54677100e-03 1.02464900e-01
      -11 -1    0    0    0    0 +0.0000000000e+00 +0.0000000000e+00 +1.2500000000e+02 1.2500000000e+02 0.0000000000e+00 0.0000e+00 1.0000e+00
       11 -1    0    0    0    0 -0.0000000000e+00 -0.0000000000e+00 -1.2500000000e+02 1.2500000000e+02 0.0000000000e+00 0.0000e+00 -1.0000e+00
       23  1    1    2    0    0 -4.0509937204e+01 -3.6051627476e+01 -3.0460288470e+01 1.1038050269e+02 9.1188000000e+01 0.0000e+00 -1.0000e+00
       25  1    1    2    0    0 +4.0509937204e+01 +3.6051627476e+01 +3.0460288470e+01 1.3961949731e+02 1.2500000000e+02 0.0000e+00 0.0000e+00
</event>
<event>
 4      1 +2.4014000e-01 2.50000000e+02 7.54677100e-03 1.02464900e-01
      -11 -1    0    0    0    0 +0.0000000000e+00 +0.0000000000e+00 +1.2500000000e+02 1.2500000000e+02 0.0000000000e+00 0.0000e+00 1.0000e+00
       11 -1    0    0    0    0 -0.0000000000e+00 -0.0000000000e+00 -1.2500000000e+02 1.2500000000e+02 0.0000000000e+00 0.0000e+00 -1.0000e+00
       23  1    1    2    0    0 -1.3911864541e+01 +5.4234126822e+01 +2.7087331771e+01 1.1038050269e+02 9.1188000000e+01 0.0000e+00 0.0000e+00
       25  1    1    2    0    0 +1.3911864541e+01 -5.4234126822e+01 -2.7087331771e+01 1.3961949731e+02 1.2500000000e+02 0.0000e+00 0.0000e+00
</event>
<event>
 4      1 +2.4014000e-01 2.50000000e+02 7.54677100e-03 1.02464900e-01
      -11 -1    0    0    0    0 +0.0000000000e+00 +0.0000000000e+00 +1.2500000000e+02 1.2500000000e+02 0.0000000000e+00 0.0000e+00 -1.0000e+00
       11 -1    0    0    0    0 -0.0000000000e+00 -0.0000000000e+00 -1.2500000000e+02 1.2500000000e+02 0.0000000000e+00 0.0000e+00 1.0000e+00
       23  1    1    2    0    0 -5.3646092341e+01 -3.1394676663e+01 -2.2527945901e+00 1.1038050269e+02 9.1188000000e+01 0.0000e+00 0.0000e+00
       25  1    1    2    0    0 +5.3646092341e+01 +3.1394676663e+01 +2.2527945901e+00 1.3961949731e+02 1.2500000000e+02 0.0000e+00 0.0000e+00
</event>
<event>
 4      1 +2.4014000e-01 2.50000000e+02 7.54677100e-03 1.02464900e-01
      -11 -1    0    0    0    0 +0.0000000000e+00 +0.0000000000e+00 +1.2500000000e+02 1.2500000000e+02 0.0000000000e+00 0.0000e+00 1.0000e+00
       11 -1    0    0    0    0 -0.0000000000e+00 -0.0000000000e+00 -1.2500000000e+02 1.2500000000e+02 0.0000000000e+00 0.0000e+00 -1.0000e+00
       23  1    1    2    0    0 +3.5235253956e+01 -2.5704480352e+00 -5.1190562658e+01 1.1038050269e+02 9.1188000000e+01 0.0000e+00 -1.0000e+00
       25  1    1    2    0    0 -3.5235253956e+01 +2.5704480352e+00 +5.1190562658e+01 1.3961949731e+02 1.2500000000e+02 0.0000e+00 0.0000e+00
</event>
<event>
 4      1 +2.4014000e-01 2.50000000e+02 7.54677100e-03 1.02464900e-01
      -11 -1    0    0    0    0 +0.0000000000e+00 +0.0000000000e+00 +1.2500000000e+02 1.2500000000e+02 0.0000000000e+00 0.0000e+00 1.0000e+00
       11 -1    0    0    0    0 -0.0000000000e+00 -0.0000000000e+00 -1.2500000000e+02 1.2500000000e+02 0.0000000000e+00 0.0000e+00 -1.0000e+00
       23  1    1    2    0    0 +4.7648341354e+01 +3.9301704143e+01 -7.3222706426e+00 1.1038050269e+02 9.1188000000e+01 0.0000e+00 1.0000e+00
       25  1    1    2    0    0 -4.7648341354e+01 -3.9301704143e+01 +7.3222706426e+00 1.3961949731e+02 1.2500000000e+02 0.0000e+00 0.0000e+00
</event>
<event>
 4      1 +2.4014000e-01 2.50000000e+02 7.54677100e-03 1.02464900e-01
      -11 -1    0    0    0    0 +0.0000000000e+00 +0.0000000000e+00 +1.2500000000e+02 1.2500000000e+02 0.0000000000e+00 0.0000e+00 -1.0000e+00
       11 -1    0    0    0    0 -0.0000000000e+00 -0.0000000000e+00 -1.2500000000e+02 1.2500000000e+02 0.0000000000e+00 0.0000e+00 1.0000e+00
       23  1    1    2    0    0 -5.9849437383e+01 -9.0947335787e+00 +1.4280570569e+01 1.1038050269e+02 9.1188000000e+01 0.0000e+00 -1.0000e+00
       25  1    1    2    0    0 +5.9849437383e+01 +9.0947335787e+00 -1.4280570569e+01 1.3961949731e+02 1.2500000000e+02 0.0000e+00 0.0000e+00
</event>
<event>
 4      1 +2.4014000e-01 2.50000000e+02 7.54677100e-03 1.02464900e-01
      -11 -1    0    0    0    0 +0.0000000000e+00 +0.0000000000e+00 +1.2500000000e+02 1.2500000000e+02 0.0000000000e+00 0.0000e+00 -1.0000e+00
       11 -1    0    0    0    0 -0.0000000000e+00 -0.0000000000e+00 -1.2500000000e+02 1.2500000000e+02 0.0000000000e+00 0.0000e+00 1.0000e+00
       23  1    1    2    0    0 +3.7183219733e+01 +2.2883795513e+01 +4.4298353275e+01 1.1038050269e+02 9.1188000000e+01 0.0000e+00 -1.0000e+00
       25  1    1    2    0    0 -3.7183219733e+01 -2.2883795513e+01 -4.4298353275e+01 1.3961949731e+02 1.2500000000e+02 0.0000e+00 0.0000e+00
</event>
<event>
 4      1 +2.4014000e-01 2.50000000e+02 7.54677100e-03 1.02464900e-01
      -11 -1    0    0    0    0 +0.0000000000e+00 +0.0000000000e+00 +1.2500000000e+02 1.2500000000e+02 0.0000000000e+00 0.0000e+00 1.0000e+00
       11 -1    0    0    0    0 -0.0000000000e+00 -0.0000000000e+00 -1.2500000000e+02 1.2500000000e+02 0.0000000000e+00 0.0000e+00 -1.0000e+00
       23  1    1    2    0    0 -1.3454918013e+01 -2.8902216965e+01 +5.3406283015e+01 1.1038050269e+02 9.1188000000e+01 0.0000e+00 1.0000e+00
       25  1    1    2    0    0 +1.3454918013e+01 +2.8902216965e+01 -5.3406283015e+01 1.3961949731e+02 1.2500000000e+02 0.0000e+00 0.0000e+00
</event>
<event>
 4      1 +2.4014000e-01 2.50000000e+02 7.54677100e-03 1.02464900e-01
      -11 -1    0    0    0    0 +0.0000000000e+00 +0.0000000000e+00 +1.2500000000e+02 1.2500000000e+02 0.0000000000e+00 0.0000e+00 -1.0000e+00
       11 -1    0    0    0    0 -0.0000000000e+00 -0.0000000000e+00 -1.2500000000e+02 1.2500000000e+02 0.0000000000e+00 0.0000e+00 1.0000e+00
       23  1    1    2    0    0 -1.5149321632e+01 +3.8374273949e+01 +4.6545861069e+01 1.1038050269e+02 9.1188000000e+01 0.0000e+00 -1.0000e+00
       25  1    1    2    0    0 +1.5149321632e+01 -3.8374273949e+01 -4.6545861069e+01 1.3961949731e+02 1.2500000000e+02 0.0000e+00 0.0000e+00
</event>
<event>
 4      1 +2.4014000e-01 2.50000000e+02 7.54677100e-03 1.02464900e-01
      -11 -1    0    0    0    0 +0.0000000000e+00 +0.0000000000e+00 +1.2500000000e+02 1.2500000000e+02 0.0000000000e+00 0.0000e+00 1.0000e+00
       11 -1    0    0    0    0 -0.0000000000e+00 -0.0000000000e+00 -1.2500000000e+02 1.2500000000e+02 0.0000000000e+00 0.0000e+00 -1.0000e+00
       23  1    1    2    0    0 +5.4321752909e+01 -2.2486648514e+01 -2.0300291356e+01 1.1038050269e+02 9.1188000000e+01 0.0000e+00 0.0000e+00
       25  1    1    2    0    0 -5.4321752909e+01 +2.2486648514e+01 +2.0300291356e+01 1.3961949731e+02 1.2500000000e+02 0.0000e+00 0.0000e+00
</event>
<event>
 4      1 +2.4014000e-01 2.50000000e+02 7.54677100e-03 1.02464900e-01
      -11 -1    0    0    0    0 +0.0000000000e+00 +0.0000000000e+00 +1.2500000000e+02 1.2500000000e+02 0.0000000000e+00 0.0000e+00 1.0000e+00
       11 -1    0    0    0    0 -0.0000000000e+00 -0.0000000000e+00 -1.2500000000e+02 1.2500000000e+02 0.0000000000e+00 0.0000e+00 -1.0000e+00
       23  1    1    2    0    0 +3.8382795529e+01 -1.4521599704e+01 +4.6738508524e+01 1.1038050269e+02 9.1188000000e+01 0.0000e+00 1.0000e+00
       25  1    1    2    0    0 -3.8382795529e+01 +1.4521599704e+01 -4.6738508524e+01 1.3961949731e+02 1.2500000000e+02 0.0000e+00 0.0000e+00
</event>
<event>
 4      1 +2.4014000e-01 2.50000000e+02 7.54677100e-03 1.02464900e-01
      -11 -1    0    0    0    0 +0.0000000000e+00 +0.0000000000e+00 +1.2500000000e+02 1.2500000000e+02 0.0000000000e+00 0.0000e+00 -1.0000e+00
       11 -1    0    0    0    0 -0.0000000000e+00 -0.0000000000e+00 -1.2500000000e+02 1.2500000000e+02 0.0000000000e+00 0.0000e+00 1.0000e+00
       23  1    1    2    0    0 +2.9955671501e+01 +4.4083477712e+01 -3.2061016320e+01 1.1038050269e+02 9.1188000000e+01 0.0000e+00 1.0000e+00
       25  1    1    2    0    0 -2.9955671501e+01 -4.4083477712e+01 +3.2061016320e+01 1.3961949731e+02 1.2500000000e+02 0.0000e+00 0.0000e+00
</event>
<event>
 4      1 +2.4014000e-01 2.50000000e+02 7.54677100e-03 1.02464900e-01
      -11 -1    0    0    0    0 +0.0000000000e+00 +0.0000000000e+00 +1.2500000000e+02 1.2500000000e+02 0.0000000000e+00 0.0000e+00 1.0000e+00
       11 -1    0    0    0    0 -0.0000000000e+00 -0.0000000000e+00 -1.2500000000e+02 1.2500000000e+02 0.0000000000e+00 0.0000e+00 -1.0000e+00
       23  1    1    2    0    0 -5.6368969335e+01 +1.6405394693e+01 +2.0542793159e+01 1.1038050269e+02 9.1188000000e+01 0.0000e+00 0.0000e+00
       25  1    1    2    0    0 +5.6368969335e+01 -1.6405394693e+01 -2.0542793159e+01 1.3961949731e+02 1.2500000000e+02 0.0000e+00 0.0000e+00
</event>
<event>
 4      1 +2.4014000e-01 2.50000000e+02 7.54677100e-03 1.02464900e-01
      -11 -1    0    0    0    0 +0.0000000000e+00 +0.0000000000e+00 +1.2500000000e+02 1.2500000000e+02 0.0000000000e+00 0.0000e+00 1.0000e+00
       11 -1    0    0    0    0 -0.0000000000e+00 -0.0000000000e+00 -1.2500000000e+02 1.2500000000e+02 0.0000000000e+00 0.0000e+00 -1.0000e+00
       23  1    1    2    0    0 +5.8086806416e+01 +1.3591928916e+01 -1.7600750507e+01 1.1038050269e+02 9.1188000000e+01 0.0000e+00 0.0000e+00
       25  1    1    2    0    0 -5.8086806416e+01 -1.3591928916e+01 +1.7600750507e+01 1.3961949731e+02 1.2500000000e+02 0.0000e+00 0.0000e+00
</event>
<event>
 4      1 +2.4014000e-01 2.50000000e+02 7.54677100e-03 1.02464900e-01
      -11 -1    0    0    0    0 +0.0000000000e+00 +0.0000000000e+00 +1.2500000000e+02 1.2500000000e+02 0.0000000000e+00 0.0000e+00 1.0000e+00
       11 -1    0    0    0    0 -0.0000000000e+00 -0.0000000000e+00 -1.2500000000e+02 1.2500000000e+02 0.0000000000e+00 0.0000e+00 -1.0000e+00
       23  1    1    2    0    0 -1.0112291855e-01 -3.5491397930e+01 +5.1077925533e+01 1.1038050269e+02 9.1188000000e+01 0.0000e+00 1.0000e+00
       25  1    1    2    0    0 +1.0112291855e-01 +3.5491397930e+01 -5.1077925533e+01 1.3961949731e+02 1.2500000000e+02 0.0000e+00 0.0000e+00
</event>
<event>
 4      1 +2.4014000e-01 2.50000000e+02 7.54677100e-03 1.02464900e-01
      -11 -1    0    0    0    0 +0.0000000000e+00 +0.0000000000e+00 +1.2500000000e+02 1.2500000000e+02 0.0000000000e+00 0.0000e+00 1.0000e+00
       11 -1    0    0    0    0 -0.0000000000e+00 -0.0000000000e+00 -1.2500000000e+02 1.2500000000e+02 0.0000000000e+00 0.0000e+00 -1.0000e+00
       23  1    1    2    0    0 -1.7613368039e+01 +5.1505150115e+01 +3.0093069096e+01 1.1038050269e+02 9.1188000000e+01 0.0000e+00 1.0000e+00
       25  1    1    2    0    0 +1.7613368039e+01 -5.1505150115e+01 -3.0093069096e+01 1.3961949731e+02 1.2500000000e+02 0.0000e+00 0.0000e+00
</event>
<event>
 4      1 +2.4014000e-01 2.50000000e+02 7.54677100e-03 1.02464900e-01
      -11 -1    0    0    0    0 +0.0000000000e+00 +0.0000000000e+00 +1.2500000000e+02 1.2500000000e+02 0.0000000000e+00 0.0000e+00 -1.0000e+00
       11 -1    0    0    0    0 -0.0000000000e+00 -0.0000000000e+00 -1.2500000000e+02 1.2500000000e+02 0.0000000000e+00 0.0000e+00 1.0000e+00
       23  1    1    2    0    0 -4.7152109799e+00 -6.1778198917e+01 -5.4612227263e+00 1.1038050269e+02 9.1188000000e+01 0.0000e+00 1.0000e+00
       25  1    1    2    0    0 +4.7152109799e+00 +6.1778198917e+01 +5.4612227263e+00 1.3961949731e+02 1.2500000000e+02 0.0000e+00 0.0000e+00
</event>
<event>
 4      1 +2.4014000e-01 2.50000000e+02 7.54677100e-03 1.02464900e-01
      -11 -1    0    0    0    0 +0.0000000000e+00 +0.0000000000e+00 +1.2500000000e+02 1.2500000000e+02 0.0000000000e+00 0.0000e+00 -1.0000e+00
       11 -1    0    0    0    0 -0.0000000000e+00 -0.0000000000e+00 -1.2500000000e+02 1.2500000000e+02 0.0000000000e+00 0.0000e+00 1.0000e+00
       23  1    1    2    0    0 +1.1891568820e+01 +6.0647716640e+01 +7.0035053413e+00 1.1038050269e+02 9.1188000000e+01 0.0000e+00 0.0000e+00
       25  1    1    2    0    0 -1.1891568820e+01 -6.0647716640e+01 -7.0035053413e+00 1.3961949731e+02 1.2500000000e+02 0.0000e+00 0.0000e+00
</event>
<event>
 4      1 +2.4014000e-01 2.50000000e+02 7.54677100e-03 1.02464900e-01
      -11 -1    0    0    0    0 +0.0000000000e+00 +0.0000000000e+00 +1.2500000000e+02 1.2500000000e+02 0.0000000000e+00 0.0000e+00 1.0000e+00
       11 -1    0    0    0    0 -0.0000000000e+00 -0.0000000000e+00 -1.2500000000e+02 1.2500000000e+02 0.0000000000e+00 0.0000e+00 -1.0000e+00
       23  1    1    2    0    0 -4.6629816961e+01 +3.6540312483e+01 -1.8949136221e+01 1.1038050269e+02 9.1188000000e+01 0.0000e+00 1.0000e+00
       25  1    1    2    0    0 +4.6629816961e+01 -3.6540312483e+01 +1.8949136221e+01 1.3961949731e+02 1.2500000000e+02 0.0000e+00 0.0000e+00
</event>
<event>
 4      1 +2.4014000e-01 2.50000000e+02 7.54677100e-03 1.02464900e-01
      -11 -1    0    0    0    0 +0.0000000000e+00 +0.0000000000e+00 +1.2500000000e+02 1.2500000000e+02 0.0000000000e+00 0.0000e+00 -1.0000e+00
       11 -1    0    0    0    0 -0.0000000000e+00 -0.0000000000e+00 -1.2500000000e+02 1.2500000000e+02 0.0000000000e+00 0.0000e+00 1.0000e+00
       23  1    1    2    0    0 -5.9637703742e+01 +7.0460458999e-01 -1.7647998595e+01 1.1038050269e+02 9.1188000000e+01 0.0000e+00 0.0000e+00
       25  1    1    2    0    0 +5.9637703742e+01 -7.0460458999e-01 +1.7647998595e+01 1.3961949731e+02 1.2500000000e+02 0.0000e+00 0.0000e+00
</event>
<event>
 4      1 +2.4014000e-01 2.50000000e+02 7.54677100e-03 1.02464900e-01
      -11 -1    0    0    0    0 +0.0000000000e+00 +0.0000000000e+00 +1.2500000000e+02 1.2500000000e+02 0.0000000000e+00 0.0000e+00 1.0000e+00
       11 -1    0    0    0    0 -0.0000000000e+00 -0.0000000000e+00 -1.2500000000e+02 1.2500000000e+02 0.0000000000e+00 0.0000e+00 -1.0000e+00
       23  1    1    2    0    0 +1.5512182169e+01 +2.9798185656e+01 -5.2345433092e+01 1.1038050269e+02 9.1188000000e+01 0.0000e+00 0.0000e+00
       25  1    1    2    0    0 -1.5512182169e+01 -2.9798185656e+01 +5.2345433092e+01 1.3961949731e+02 1.2500000000e+02 0.0000e+00 0.0000e+00
</event>
<event>
 4      1 +2.4014000e-01 2.50000000e+02 7.54677100e-03 1.02464900e-01
      -11 -1    0    0    0    0 +0.0000000000e+00 +0.0000000000e+00 +1.2500000000e+02 1.2500000000e+02 0.0000000000e+00 0.0000e+00 -1.0000e+00
       11 -1    0    0    0    0 -0.0000000000e+00 -0.0000000000e+00 -1.2500000000e+02 1.2500000000e+02 0.0000000000e+00 0.0000e+00 1.0000e+00
       23  1    1    2    0    0 +5.6925852325e+01 +1.0686770810e+01 +2.2668133941e+01 1.1038050269e+02 9.1188000000e+01 0.0000e+00 -1.0000e+00
       25  1    1    2    0    0 -5.6925852325e+01 -1.0686770810e+01 -2.2668133941e+01 1.3961949731e+02 1.2500000000e+02 0.0000e+00 0.0000e+00
</event>
<event>
 4      1 +2.4014000e-01 2.50000000e+02 7.54677100e-03 1.02464900e-01
      -11 -1    0    0    0    0 +0.0000000000e+00 +0.0000000000e+00 +1.2500000000e+02 1.2500000000e+02 0.0000000000e+00 0.0000e+00 1.0000e+00
       11 -1    0    0    0    0 -0.0000000000e+00 -0.0000000000e+00 -1.2500000000e+02 1.2500000000e+02 0.0000000000e+00 0.0000e+00 -1.0000e+00
       23  1    1    2    0    0 -5.6511893533e+01 +1.0745252607e+01 -2.3654797936e+01 1.1038050269e+02 9.1188000000e+01 0.0000e+00 -1.0000e+00
       25  1    1    2    0    0 +5.6511893533e+01 -1.0745252607e+01 +2.3654797936e+01 1.3961949731e+02 1.2500000000e+02 0.0000e+00 0.0000e+00
</event>
<event>
 4      1 +2.4014000e-01 2.50000000e+02 7.54677100e-03 1.02464900e-01
      -11 -1    0    0    0    0 +0.0000000000e+00 +0.0000000000e+00 +1.2500000000e+02 1.2500000000e+02 0.0000000000e+00 0.0000e+00 -1.0000e+00
       11 -1    0    0    0    0 -0.0000000000e+00 -0.0000000000e+00 -1.2500000000e+02 1.2500000000e+02 0.0000000000e+00 0.0000e+00 1.0000e+00
       23  1    1    2    0    0 +2.3267852998e+01 -5.7668884016e+01 -1.2291716328e+00 1.1038050269e+02 9.1188000000e+01 0.0000e+00 0.0000e+00
       25  1    1    2    0    0 -2.3267852998e+01 +5.7668884016e+01 +1.2291716328e+00 1.3961949731e+02 1.2500000000e+02 0.0000e+00 0.0000e+00
</event>
<event>
 4      1 +2.4014000e-01 2.50000000e+02 7.54677100e-03 1.02464900e-01
      -11 -1    0    0    0    0 +0.0000000000e+00 +0.0000000000e+00 +1.2500000000e+02 1.2500000000e+02 0.0000000000e+00 0.0000e+00 1.0000e+00
       11 -1    0    0    0    0 -0.0000000000e+00 -0.0000000000e+00 -1.2500000000e+02 1.2500000000e+02 0.0000000000e+00 0.0000e+00 -1.0000e+00
       23  1    1    2    0    0 +2.6667982481e+01 +3.4283387724e+01 -4.4520467947e+01 1.1038050269e+02 9.1188000000e+01 0.0000e+00 -1.0000e+00
       25  1    1    2    0    0 -2.6667982481e+01 -3.4283387724e+01 +4.4520467947e+01 1.3961949731e+02 1.2500000000e+02 0.0000e+00 0.0000e+00
</event>
<event>
 4      1 +2.4014000e-01 2.50000000e+02 7.54677100e-03 1.02464900e-01
      -11 -1    0    0    0    0 +0.0000000000e+00 +0.0000000000e+00 +1.2500000000e+02 1.2500000000e+02 0.0000000000e+00 0.0000e+00 1.0000e+00
       11 -1    0    0    0    0 -0.0000000000e+00 -0.0000000000e+00 -1.2500000000e+02 1.2500000000e+02 0.0000000000e+00 0.0000e+00 -1.0000e+00
       23  1    1    2    0    0 +5.5886051288e+01 +2.3047366962e+01 -1.4634622549e+01 1.1038050269e+02 9.1188000000e+01 0.0000e+00 0.0000e+00
       25  1    1    2    0    0 -5.5886051288e+01 -2.3047366962e+01 +1.4634622549e+01 1.3961949731e+02 1.2500000000e+02 0.0000e+00 0.0000e+00
</event>
<event>
 4      1 +2.4014000e-01 2.50000000e+02 7.54677100e-03 1.02464900e-01
      -11 -1    0    0    0    0 +0.0000000000e+00 +0.0000000000e+00 +1.2500000000e+02 1.2500000000e+02 0.0000000000e+00 0.0000e+00 -1.0000e+00
       11 -1    0    0    0    0 -0.0000000000e+00 -0.0000000000e+00 -1.2500000000e+02 1.2500000000e+02 0.0000000000e+00 0.0000e+00 1.0000e+00
       23  1    1    2    0    0 -2.4167367632e+01 +1.6403667164e+01 -5.4913223134e+01 1.1038050269e+02 9.1188000000e+01 0.0000e+00 1.0000e+00
       25  1    1    2    0    0 +2.4167367632e+01 -1.6403667164e+01 +5.4913223134e+01 1.3961949731e+02 1.2500000000e+02 0.0000e+00 0.0000e+00
</event>
<event>
 4      1 +2.4014000e-01 2.50000000e+02 7.54677100e-03 1.02464900e-01
      -11 -1    0    0    0    0 +0.0000000000e+00 +0.0000000000e+00 +1.2500000000e+02 1.2500000000e+02 0.0000000000e+00 0.0000e+00 -1.0000e+00
       11 -1    0    0    0    0 -0.0000000000e+00 -0.0000000000e+00 -1.2500000000e+02 1.2500000000e+02 0.0000000000e+00 0.0000e+00 1.0000e+00
       23  1    1    2    0    0 +2.8433827206e+01 -2.0437637545e+01 -5.1404518008e+01 1.1038050269e+02 9.1188000000e+01 0.0000e+00 1.0000e+00
       25  1    1    2    0    0 -2.8433827206e+01 +2.0437637545e+01 +5.1404518008e+01 1.3961949731e+02 1.2500000000e+02 0.0000e+00 0.0000e+00
</event>
<event>
 4      1 +2.4014000e-01 2.50000000e+02 7.54677100e-03 1.02464900e-01
      -11 -1    0    0    0    0 +0.0000000000e+00 +0.0000000000e+00 +1.2500000000e+02 1.2500000000e+02 0.0000000000e+00 0.0000e+00 1.0000e+00
       11 -1    0    0    0    0 -0.0000000000e+00 -0.0000000000e+00 -1.2500000000e+02 1.2500000000e+02 0.0000000000e+00 0.0000e+00 -1.0000e+00
       23  1    1    2    0    0 +2.7740617558e+01 -3.2996224192e+01 +4.4836495807e+01 1.1038050269e+02 9.1188000000e+01 0.0000e+00 1.0000e+00
       25  1    1    2    0    0 -2.7740617558e+01 +3.2996224192e+01 -4.4836495807e+01 1.3961949731e+02 1.2500000000e+02 0.0000e+00 0.0000e+00
</event>
<event>
 4      1 +2.4014000e-01 2.50000000e+02 7.54677100e-03 1.02464900e-01
      -11 -1    0    0    0    0 +0.0000000000e+00 +0.0000000000e+00 +1.2500000000e+02 1.2500000000e+02 0.0000000000e+00 0.0000e+00 1.0000e+00
       11 -1    0    0    0    0 -0.0000000000e+00 -0.0000000000e+00 -1.2500000000e+02 1.2500000000e+02 0.0000000000e+00 0.0000e+00 -1.0000e+00
       23  1    1    2    0    0 -2.5493847986e+00 +5.6478331067e+01 -2.5928802261e+01 1.1038050269e+02 9.1188000000e+01 0.0000e+00 0.0000e+00
       25  1    1    2    0    0 +2.5493847986e+00 -5.6478331067e+01 +2.5928802261e+01 1.3961949731e+02 1.2500000000e+02 0.0000e+00 0.0000e+00
</event>
<event>
 4      1 +2.4014000e-01 2.50000000e+02 7.54677100e-03 1.02464900e-01
      -11 -1    0    0    0    0 +0.0000000000e+00 +0.0000000000e+00 +1.2500000000e+02 1.2500000000e+02 0.0000000000e+00 0.0000e+00 -1.0000e+00
       11 -1    0    0    0    0 -0.0000000000e+00 -0.0000000000e+00 -1.2500000000e+02 1.2500000000e+02 0.0000000000e+00 0.0000e+00 1.0000e+00
       23  1    1    2    0    0 +2.2096856472e+01 -4.8819294576e+01 +3.1575456304e+01 1.1038050269e+02 9.1188000000e+01 0.0000e+00 0.0000e+00
       25  1    1    2    0    0 -2.2096856472e+01 +4.8819294576e+01 -3.1575456304e+01 1.3961949731e+02 1.2500000000e+02 0.0000e+00 0.0000e+00
</event>
<event>
 4      1 +2.4014000e-01 2.50000000e+02 7.54677100e-03 1.02464900e-01
      -11 -1    0    0    0    0 +0.0000000000e+00 +0.0000000000e+00 +1.2500000000e+02 1.2500000000e+02 0.0000000000e+00 0.0000e+00 -1.0000e+00
       11 -1    0    0    0    0 -0.0000000000e+00 -0.0000000000e+00 -1.2500000000e+02 1.2500000000e+02 0.0000000000e+00 0.0000e+00 1.0000e+00
       23  1    1    2    0    0 +3.3368284759e+01 +2.8288421156e+01 -4.4214554508e+01 1.1038050269e+02 9.1188000000e+01 0.0000e+00 1.0000e+00
       25  1    1    2    0    0 -3.3368284759e+01 -2.8288421156e+01 +4.4214554508e+01 1.3961949731e+02 1.2500000000e+02 0.0000e+00 0.0000e+00
</event>
<event>
 4      1 +2.4014000e-01 2.50000000e+02 7.54677100e-03 1.02464900e-01
      -11 -1    0    0    0    0 +0.0000000000e+00 +0.0000000000e+00 +1.2500000000e+02 1.2500000000e+02 0.0000000000e+00 0.0000e+00 -1.0000e+00
       11 -1    0    0    0    0 -0.0000000000e+00 -0.0000000000e+00 -1.2500000000e+02 1.2500000000e+02 0.0000000000e+00 0.0000e+00 1.0000e+00
       23  1    1    2    0    0 +6.0680783433e+01 -1.2361731738e+01 +5.7994948067e+00 1.1038050269e+02 9.1188000000e+01 0.0000e+00 0.0000e+00
       25  1    1    2    0    0 -6.0680783433e+01 +1.2361731738e+01 -5.7994948067e+00 1.3961949731e+02 1.2500000000e+02 0.0000e+00 0.0000e+00
</event>
<event>
 4      1 +2.4014000e-01 2.50000000e+02 7.54677100e-03 1.02464900e-01
      -11 -1    0    0    0    0 +0.0000000000e+00 +0.0000000000e+00 +1.2500000000e+02 1.2500000000e+02 0.0000000000e+00 0.0000e+00 1.0000e+00
       11 -1    0    0    0    0 -0.0000000000e+00 -0.0000000000e+00 -1.2500000000e+02 1.2500000000e+02 0.0000000000e+00 0.0000e+00 -1.0000e+00
       23  1    1    2    0    0 -2.4803080804e+00 -1.8596687937e+01 +5.9301056477e+01 1.1038050269e+02 9.1188000000e+01 0.0000e+00 1.0000e+00
       25  1    1    2    0    0 +2.4803080804e+00 +1.8596687937e+01 -5.9301056477e+01 1.3961949731e+02 1.2500000000e+02 0.0000e+00 0.0000e+00
</event>
<event>
 4      1 +2.4014000e-01 2.50000000e+02 7.54677100e-03 1.02464900e-01
      -11 -1    0    0    0    0 +0.0000000000e+00 +0.0000000000e+00 +1.2500000000e+02 1.2500000000e+02 0.0000000000e+00 0.0000e+00 1.0000e+00
       11 -1    0    0    0    0 -0.0000000000e+00 -0.0000000000e+00 -1.2500000000e+02 1.2500000000e+02 0.0000000000e+00 0.0000e+00 -1.0000e+00
       23  1    1    2    0    0 +1.3701086770e+01 -4.0306214287e+01 +4.5346370757e+01 1.1038050269e+02 9.1188000000e+01 0.0000e+00 1.0000e+00
       25  1    1    2    0    0 -1.3701086770e+01 +4.0306214287e+01 -4.5346370757e+01 1.3961949731e+02 1.2500000000e+02 0.0000e+00 0.0000e+00
</event>
<event>
 4      1 +2.4014000e-01 2.50000000e+02 7.54677100e-03 1.02464900e-01
      -11 -1    0    0    0    0 +0.0000000000e+00 +0.0000000000e+00 +1.2500000000e+02 1.2500000000e+02 0.0000000000e+00 0.0000e+00 -1.0000e+00
       11 -1    0    0    0    0 -0.0000000000e+00 -0.0000000000e+00 -1.2500000000e+02 1.2500000000e+02 0.0000000000e+00 0.0000e+00 1.0000e+00
       23  1    1    2    0    0 -3.8754632452e+01 +4.2523625601e+01 -2.3630991492e+01 1.1038050269e+02 9.1188000000e+01 0.0000e+00 1.0000e+00
       25  1    1    2    0    0 +3.8754632452e+01 -4.2523625601e+01 +2.3630991492e+01 1.3961949731e+02 1.2500000000e+02 0.0000e+00 0.0000e+00
</event>
<event>
 4      1 +2.4014000e-01 2.50000000e+02 7.54677100e-03 1.02464900e-01
      -11 -1    0    0    0    0 +0.0000000000e+00 +0.0000000000e+00 +1.2500000000e+02 1.2500000000e+02 0.0000000000e+00 0.0000e+00 -1.0000e+00
       11 -1    0    0    0    0 -0.0000000000e+00 -0.0000000000e+00 -1.2500000000e+02 1.2500000000e+02 0.0000000000e+00 0.0000e+00 1.0000e+00
       23  1    1    2    0    0 -4.4380496936e+01 +4.1141795153e+01 -1.4364129385e+01 1.1038050269e+02 9.1188000000e+01 0.0000e+00 0.0000e+00
       25  1    1    2    0    0 +4.4380496936e+01 -4.1141795153e+01 +1.4364129385e+01 1.3961949731e+02 1.2500000000e+02 0.0000e+00 0.0000e+00
</event>
<event>
 4      1 +2.4014000e-01 2.50000000e+02 7.54677100e-03 1.02464900e-01
      -11 -1    0    0    0    0 +0.0000000000e+00 +0.0000000000e+00 +1.2500000000e+02 1.2500000000e+02 0.0000000000e+00 0.0000e+00 1.0000e+00
       11 -1    0    0    0    0 -0.0000000000e+00 -0.0000000000e+00 -1.2500000000e+02 1.2500000000e+02 0.0000000000e+00 0.0000e+00 -1.0000e+00
       23  1    1    2    0    0 -2.2689692893e+01 -1.9711829474e+01 +5.4453885489e+01 1.1038050269e+02 9.1188000000e+01 0.0000e+00 1.0000e+00
       25  1    1    2    0    0 +2.2689692893e+01 +1.9711829474e+01 -5.4453885489e+01 1.3961949731e+02 1.2500000000e+02 0.0000e+00 0.0000e+00
</event>
<event>
 4      1 +2.4014000e-01 2.50000000e+02 7.54677100e-03 1.02464900e-01
      -11 -1    0    0    0    0 +0.0000000000e+00 +0.0000000000e+00 +1.2500000000e+02 1.2500000000e+02 0.0000000000e+00 0.0000e+00 1.0000e+00
       11 -1    0    0    0    0 -0.0000000000e+00 -0.0000000000e+00 -1.2500000000e+02 1.2500000000e+02 0.0000000000e+00 0.0000e+00 -1.0000e+00
       23  1    1    2    0    0 +2.5477566694e+01 -5.6018720304e+01 -9.0222281342e+00 1.1038050269e+02 9.1188000000e+01 0.0000e+00 -1.0000e+00
       25  1    1    2    0    0 -2.5477566694e+01 +5.6018720304e+01 +9.0222281342e+00 1.3961949731e+02 1.2500000000e+02 0.0000e+00 0.0000e+00
</event>
<event>
 4      1 +2.4014000e-01 2.50000000e+02 7.54677100e-03 1.02464900e-01
      -11 -1    0    0    0    0 +0.0000000000e+00 +0.0000000000e+00 +1.2500000000e+02 1.2500000000e+02 0.0000000000e+00 0.0000e+00 -1.0000e+00
       11 -1    0    0    0    0 -0.0000000000e+00 -0.0000000000e+00 -1.2500000000e+02 1.2500000000e+02 0.0000000000e+00 0.0000e+00 1.0000e+00
       23  1    1    2    0    0 -3.3376085559e+01 +4.4985360502e+01 -2.7036240177e+01 1.1038050269e+02 9.1188000000e+01 0.0000e+00 1.0000e+00
       25  1    1    2    0    0 +3.3376085559e+01 -4.4985360502e+01 +2.7036240177e+01 1.3961949731e+02 1.2500000000e+02 0.0000e+00 0.0000e+00
</event>
<event>
 4      1 +2.4014000e-01 2.50000000e+02 7.54677100e-03 1.02464900e-01
      -11 -1    0    0    0    0 +0.0000000000e+00 +0.0000000000e+00 +1.2500000000e+02 1.2500000000e+02 0.0000000000e+00 0.0000e+00 1.0000e+00
       11 -1    0    0    0    0 -0.0000000000e+00 -0.0000000000e+00 -1.2500000000e+02 1.2500000000e+02 0.0000000000e+00 0.0000e+00 -1.0000e+00
       23  1    1    2    0    0 -6.2106066749e+01 +2.5208000362e-01 +3.3729746882e+00 1.1038050269e+02 9.1188000000e+01 0.0000e+00 0.0000e+00
       25  1    1    2    0    0 +6.2106066749e+01 -2.5208000362e-01 -3.3729746882e+00 1.3961949731e+02 1.2500000000e+02 0.0000e+00 0.0000e+00
</event>
<event>
 4      1 +2.4014000e-01 2.50000000e+02 7.54677100e-03 1.02464900e-01
      -11 -1    0    0    0    0 +0.0000000000e+00 +0.0000000000e+00 +1.2500000000e+02 1.2500000000e+02 0.0000000000e+00 0.0000e+00 -1.0000e+00
       11 -1    0    0    0    0 -0.0000000000e+00 -0.0000000000e+00 -1.2500000000e+02 1.2500000000e+02 0.0000000000e+00 0.0000e+00 1.0000e+00
       23  1    1    2    0    0 -2.8605202673e+01 -5.2716629665e+01 +1.6471289156e+01 1.1038050269e+02 9.1188000000e+01 0.0000e+00 -1.0000e+00
       25  1    1    2    0    0 +2.8605202673e+01 +5.2716629665e+01 -1.6471289156e+01 1.3961949731e+02 1.2500000000e+02 0.0000e+00 0.0000e+00
</event>
<event>
 4      1 +2.4014000e-01 2.50000000e+02 7.54677100e-03 1.02464900e-01
      -11 -1    0    0    0    0 +0.0000000000e+00 +0.0000000000e+00 +1.2500000000e+02 1.2500000000e+02 0.0000000000e+00 0.0000e+00 1.0000e+00
       11 -1    0    0    0    0 -0.0000000000e+00 -0.0000000000e+00 -1.2500000000e+02 1.2500000000e+02 0.0000000000e+00 0.0000e+00 -1.0000e+00
       23  1    1    2    0    0 +2.8064941840e+01 +3.4919401951e+01 +4.3146244756e+01 1.1038050269e+02 9.1188000000e+01 0.0000e+00 1.0000e+00
       25  1    1    2    0    0 -2.8064941840e+01 -3.4919401951e+01 -4.3146244756e+01 1.3961949731e+02 1.2500000000e+02 0.0000e+00 0.0000e+00
</event>
<event>
 4      1 +2.4014000e-01 2.50000000e+02 7.54677100e-03 1.02464900e-01
      -11 -1    0    0    0    0 +0.0000000000e+00 +0.0000000000e+00 +1.2500000000e+02 1.2500000000e+02 0.0000000000e+00 0.0000e+00 -1.0000e+00
       11 -1    0    0    0    0 -0.0000000000e+00 -0.0000000000e+00 -1.2500000000e+02 1.2500000000e+02 0.0000000000e+00 0.0000e+00 1.0000e+00
       23  1    1    2    0    0 +5.8296512966e+01 +3.3295702781e+00 +2.1425092004e+01 1.1038050269e+02 9.1188000000e+01 0.0000e+00 -1.0000e+00
       25  1    1    2    0    0 -5.8296512966e+01 -3.3295702781e+00 -2.1425092004e+01 1.3961949731e+02 1.2500000000e+02 0.0000e+00 0.0000e+00
</event>
<event>
 4      1 +2.4014000e-01 2.50000000e+02 7.54677100e-03 1.02464900e-01
      -11 -1    0    0    0    0 +0.0000000000e+00 +0.0000000000e+00 +1.2500000000e+02 1.2500000000e+02 0.0000000000e+00 0.0000e+00 -1.0000e+00
       11 -1    0    0    0    0 -0.0000000000e+00 -0.0000000000e+00 -1.2500000000e+02 1.2500000000e+02 0.0000000000e+00 0.0000e+00 1.0000e+00
       23  1    1    2    0    0 -3.6987573322e+01 -4.4614178634e+01 -2.2585360616e+01 1.1038050269e+02 9.1188000000e+01 0.0000e+00 0.0000e+00
       25  1    1    2    0    0 +3.6987573322e+01 +4.4614178634e+01 +2.2585360616e+01 1.3961949731e+02 1.2500000000e+02 0.0000e+00 0.0000e+00
</event>
<event>
 4      1 +2.4014000e-01 2.50000000e+02 7.54677100e-03 1.02464900e-01
      -11 -1    0    0    0    0 +0.0000000000e+00 +0.0000000000e+00 +1.2500000000e+02 1.2500000000e+02 0.0000000000e+00 0.0000e+00 1.0000e+00
       11 -1    0    0    0    0 -0.0000000000e+00 -0.0000000000e+00 -1.2500000000e+02 1.2500000000e+02 0.0000000000e+00 0.0000e+00 -1.0000e+00
       23  1    1    2    0    0 +6.1723686533e+01 -2.0621551030e+00 +7.3849892847e+00 1.1038050269e+02 9.1188000000e+01 0.0000e+00 0.0000e+00
       25  1    1    2    0    0 -6.1723686533e+01 +2.0621551030e+00 -7.3849892847e+00 1.3961949731e+02 1.2500000000e+02 0.0000e+00 0.0000e+00
</event>
<event>
 4      1 +2.4014000e-01 2.50000000e+02 7.54677100e-03 1.02464900e-01
      -11 -1    0    0    0    0 +0.0000000000e+00 +0.0000000000e+00 +1.2500000000e+02 1.2500000000e+02 0.0000000000e+00 0.0000e+00 -1.0000e+00
       11 -1    0    0    0    0 -0.0000000000e+00 -0.0000000000e+00 -1.2500000000e+02 1.2500000000e+02 0.0000000000e+00 0.0000e+00 1.0000e+00
       23  1    1    2    0    0 +3.0320776263e+01 -7.7187270046e+00 -5.3755704905e+01 1.1038050269e+02 9.1188000000e+01 0.0000e+00 1.0000e+00
       25  1    1    2    0    0 -3.0320776263e+01 +7.7187270046e+00 +5.3755704905e+01 1.3961949731e+02 1.2500000000e+02 0.0000e+00 0.0000e+00
</event>
</LesHouchesEvents>
