<LesHouchesEvents version="3.0">
<header>
<!--
#*********************************************************************
#                                                                    *
#                        MadGraph5_aMC@NLO                           *
#                                                                    *
#                           Going Beyond                             *
#                                                                    *
#                   http://madgraph.hep.uiuc.edu                     *
#                   http://madgraph.phys.ucl.ac.be                   *
#                   http://amcatnlo.cern.ch                          *
#                                                                    *
#                     The MadGraph5_aMC@NLO team                     *
#                                                                    *
#....................................................................*
#                                                                    *
# This file contains all the information necessary to reproduce      *
# the events generated:                                              *
#                                                                    *
# 1. software version                                                *
# 2. proc_card          : code generation info including model       *
# 3. param_card         : model primary parameters in the LH format  *
# 4. run_card           : running parameters (collider and cuts)     *
# 5. pythia_card        : present only if pythia has been run        *
# 6. pgs_card           : present only if pgs has been run           *
# 7. delphes_cards      : present only if delphes has been run       *
#                                                                    *
#                                                                    *
#*********************************************************************
-->
<MGVersion>
2.6.2
</MGVersion>
<MG5ProcCard>
<![CDATA[
#************************************************************
#*                     MadGraph5_aMC@NLO                    *
#*                                                          *
#*                *                       *                 *
#*                  *        * *        *                   *
#*                    * * * * 5 * * * *                     *
#*                  *        * *        *                   *
#*                *                       *                 *
#*                                                          *
#*                                                          *
#*         VERSION 2.6.2                 2018-04-29         *
#*                                                          *
#*    The MadGraph5_aMC@NLO Development Team - Find us at   *
#*    https://server06.fynu.ucl.ac.be/projects/madgraph     *
#*                                                          *
#************************************************************
#*                                                          *
#*               Command File for MadGraph5_aMC@NLO         *
#*                                                          *
#*     run as ./bin/mg5_aMC  filename                       *
#*                                                          *
#************************************************************
set default_unset_couplings 99
set group_subprocesses Auto
set ignore_six_quark_processes False
set loop_optimized_output True
set loop_color_flows False
set gauge unitary
set complex_mass_scheme False
set max_npoint_for_channel 0
import model sm
define p = g u c d s u~ c~ d~ s~
define j = g u c d s u~ c~ d~ s~
define l+ = e+ mu+
define l- = e- mu-
define vl = ve vm vt
define vl~ = ve~ vm~ vt~
generate e+ e- > z h
output EE_ISR eezh2
]]>
</MG5ProcCard>
<MGProcCard>
#*********************************************************************
#                        MadGraph/MadEvent                           *
#                   http://madgraph.hep.uiuc.edu                     *
#                                                                    *
#                          proc_card.dat                             *
#*********************************************************************
#                                                                    *
#            This Files is generated by MADGRAPH 5                   *
#                                                                    *
# WARNING: This Files is generated for MADEVENT (compatibility issue)*
#          This files is NOT a valid MG4 proc_card.dat               *
#          Running this in MG4 will NEVER reproduce the result of MG5*
#                                                                    *
#*********************************************************************
#*********************************************************************
# Process(es) requested : mg2 input                                  *
#*********************************************************************
# Begin PROCESS # This is TAG. Do not modify this line
e+ e- > z h           #Process
# Be carefull the coupling are here in MG5 convention
          
end_coup           # End the couplings input

done               # this tells MG there are no more procs
# End PROCESS  # This is TAG. Do not modify this line
#*********************************************************************
# Model information                                                  *
#*********************************************************************
# Begin MODEL  # This is TAG. Do not modify this line
sm
# End   MODEL  # This is TAG. Do not modify this line
#*********************************************************************
# Start multiparticle definitions                                    *
#*********************************************************************
# Begin MULTIPARTICLES # This is TAG. Do not modify this line

# End  MULTIPARTICLES # This is TAG. Do not modify this line
</MGProcCard>
<MGRunCard>
<![CDATA[
#*********************************************************************
#                       MadGraph5_aMC@NLO                            *
#                                                                    *
#                     run_card.dat MadEvent                          *
#                                                                    *
#  This file is used to set the parameters of the run.               *
#                                                                    *
#  Some notation/conventions:                                        *
#                                                                    *
#   Lines starting with a '# ' are info or comments                  *
#                                                                    *
#   mind the format:   value    = variable     ! comment             *
#                                                                    *
#   To display more options, you can type the command:               *
*      update full_run_card                                          *
#*********************************************************************
#
#*******************                                                 
# Running parameters
#*******************                                                 
#                                                                    
#*********************************************************************
# Tag name for the run (one word)                                    *
#*********************************************************************
  tag_1     = run_tag ! name of the run 
#*********************************************************************
# Number of events and rnd seed                                      *
# Warning: Do not generate more than 1M events in a single run       *
# If you want to run Pythia, avoid more than 50k events in a run.    *
#*********************************************************************
  1000 = nevents ! Number of unweighted events requested 
 21 = iseed   ! rnd seed (0=assigned automatically=default))
#*********************************************************************
# Collider type and energy                                           *
# lpp: 0=No PDF, 1=proton, -1=antiproton, 2=photon from proton,      *
#                                         3=photon from electron     *
#*********************************************************************
     -3        = lpp1    ! beam 1 type 
     3        = lpp2    ! beam 2 type
     125.0     = ebeam1  ! beam 1 total energy in GeV
     125.0     = ebeam2  ! beam 2 total energy in GeV
# To see polarised beam options: type "update beam_pol"
#*********************************************************************
# PDF CHOICE: this automatically fixes also alpha_s and its evol.    *
#*********************************************************************
     nn23lo1    = pdlabel     ! PDF set                                     
     230000    = lhaid     ! if pdlabel=lhapdf, this is the lhapdf number
# To see heavy ion options: type "update ion_pdf"
#*********************************************************************
# Renormalization and factorization scales                           *
#*********************************************************************
 False = fixed_ren_scale  ! if .true. use fixed ren scale
 False        = fixed_fac_scale  ! if .true. use fixed fac scale
 91.188  = scale            ! fixed ren scale
 91.188  = dsqrt_q2fact1    ! fixed fact scale for pdf1
 91.188  = dsqrt_q2fact2    ! fixed fact scale for pdf2
 -1 = dynamical_scale_choice ! Choose one of the preselected dynamical choices
 1.0  = scalefact        ! scale factor for event-by-event scales
#*********************************************************************
# Type and output format
#*********************************************************************
  False     = gridpack  !True = setting up the grid pack
  -1.0 = time_of_flight ! threshold (in mm) below which the invariant livetime is not written (-1 means not written)
  3.0 = lhe_version       ! Change the way clustering information pass to shower.        
  True = clusinfo         ! include clustering tag in output
  average =  event_norm       ! average/sum. Normalization of the weight in the LHEF

#*********************************************************************
# Matching parameter (MLM only)
#*********************************************************************
 0 = ickkw            ! 0 no matching, 1 MLM
 1.0 = alpsfact         ! scale factor for QCD emission vx
 False = chcluster        ! cluster only according to channel diag
 5 = asrwgtflavor     ! highest quark flavor for a_s reweight
 False  = auto_ptj_mjj  ! Automatic setting of ptj and mjj if xqcut >0
                                   ! (turn off for VBF and single top processes) 
 0.0   = xqcut   ! minimum kt jet measure between partons
#*********************************************************************
#
#*********************************************************************
# handling of the helicities:
#  0: sum over all helicities
#  1: importance sampling over helicities
#*********************************************************************
   0  = nhel          ! using helicities importance sampling or not.
#*********************************************************************
# Generation bias, check the wiki page below for more information:   *
#  'cp3.irmp.ucl.ac.be/projects/madgraph/wiki/LOEventGenerationBias' *
#*********************************************************************
 None = bias_module  ! Bias type of bias, [None, ptj_bias, -custom_folder-]
 {} = bias_parameters ! Specifies the parameters of the module.
#
#*******************************                                                 
# Parton level cuts definition *
#*******************************                                     
#                                                                    
#
#*********************************************************************
# BW cutoff (M+/-bwcutoff*Gamma) ! Define on/off-shell for "$" and decay  
#*********************************************************************
  15.0  = bwcutoff      ! (M+/-bwcutoff*Gamma)
#*********************************************************************
# Apply pt/E/eta/dr/mij/kt_durham cuts on decay products or not
# (note that etmiss/ptll/ptheavy/ht/sorted cuts always apply)
#*********************************************************************
   False  = cut_decays    ! Cut decay products 
#*********************************************************************
# Standard Cuts                                                      *
#*********************************************************************
# Minimum and maximum pt's (for max, -1 means no cut)                *
#*********************************************************************
 20.0  = ptj       ! minimum pt for the jets 
 0.0  = ptb       ! minimum pt for the b 
 10.0  = pta       ! minimum pt for the photons 
 10.0  = ptl       ! minimum pt for the charged leptons 
 0.0  = misset    ! minimum missing Et (sum of neutrino's momenta)
 -1.0  = ptjmax    ! maximum pt for the jets
 -1.0  = ptbmax    ! maximum pt for the b
 -1.0  = ptamax    ! maximum pt for the photons
 -1.0  = ptlmax    ! maximum pt for the charged leptons
 -1.0  = missetmax ! maximum missing Et (sum of neutrino's momenta)
 {} = pt_min_pdg ! pt cut for other particles (use pdg code). Applied on particle and anti-particle
 {}	= pt_max_pdg ! pt cut for other particles (syntax e.g. {6: 100, 25: 50}) 
#*********************************************************************
# Minimum and maximum E's (in the center of mass frame)              *
#*********************************************************************
  0.0  = ej     ! minimum E for the jets 
  0.0  = eb     ! minimum E for the b 
  0.0  = ea     ! minimum E for the photons 
  0.0  = el     ! minimum E for the charged leptons 
  -1.0   = ejmax ! maximum E for the jets
 -1.0   = ebmax ! maximum E for the b
 -1.0   = eamax ! maximum E for the photons
 -1.0   = elmax ! maximum E for the charged leptons
 {} = e_min_pdg ! E cut for other particles (use pdg code). Applied on particle and anti-particle
 {} = e_max_pdg ! E cut for other particles (syntax e.g. {6: 100, 25: 50}) 
#*********************************************************************
# Maximum and minimum absolute rapidity (for max, -1 means no cut)   *
#*********************************************************************
  5.0 = etaj    ! max rap for the jets 
  -1.0  = etab    ! max rap for the b
 2.5  = etaa    ! max rap for the photons 
 2.5  = etal    ! max rap for the charged leptons 
 0.0  = etajmin ! min rap for the jets
 0.0  = etabmin ! min rap for the b
 0.0  = etaamin ! min rap for the photons
 0.0  = etalmin ! main rap for the charged leptons
 {} = eta_min_pdg ! rap cut for other particles (use pdg code). Applied on particle and anti-particle
 {} = eta_max_pdg ! rap cut for other particles (syntax e.g. {6: 2.5, 23: 5})
#*********************************************************************
# Minimum and maximum DeltaR distance                                *
#*********************************************************************
 0.4 = drjj    ! min distance between jets 
 0.0   = drbb    ! min distance between b's 
 0.4 = drll    ! min distance between leptons 
 0.4 = draa    ! min distance between gammas 
 0.0   = drbj    ! min distance between b and jet 
 0.4 = draj    ! min distance between gamma and jet 
 0.4 = drjl    ! min distance between jet and lepton 
 0.0   = drab    ! min distance between gamma and b 
 0.0   = drbl    ! min distance between b and lepton 
 0.4 = dral    ! min distance between gamma and lepton 
 -1.0  = drjjmax ! max distance between jets
 -1.0  = drbbmax ! max distance between b's
 -1.0  = drllmax ! max distance between leptons
 -1.0  = draamax ! max distance between gammas
 -1.0  = drbjmax ! max distance between b and jet
 -1.0  = drajmax ! max distance between gamma and jet
 -1.0  = drjlmax ! max distance between jet and lepton
 -1.0  = drabmax ! max distance between gamma and b
 -1.0  = drblmax ! max distance between b and lepton
 -1.0  = dralmax ! maxdistance between gamma and lepton
#*********************************************************************
# Minimum and maximum invariant mass for pairs                       *
# WARNING: for four lepton final state mmll cut require to have      *
#          different lepton masses for each flavor!                  *           
#*********************************************************************
 0.0   = mmjj    ! min invariant mass of a jet pair 
 0.0   = mmbb    ! min invariant mass of a b pair 
 0.0   = mmaa    ! min invariant mass of gamma gamma pair
 0.0   = mmll    ! min invariant mass of l+l- (same flavour) lepton pair
 -1.0  = mmjjmax ! max invariant mass of a jet pair
 -1.0  = mmbbmax ! max invariant mass of a b pair
 -1.0  = mmaamax ! max invariant mass of gamma gamma pair
 -1.0  = mmllmax ! max invariant mass of l+l- (same flavour) lepton pair
 {} = mxx_min_pdg ! min invariant mass of a pair of particles X/X~ (e.g. {6:250})
 {'default': False} = mxx_only_part_antipart ! if True the invariant mass is applied only 
                       ! to pairs of particle/antiparticle and not to pairs of the same pdg codes.  
#*********************************************************************
# Minimum and maximum invariant mass for all letpons                 *
#*********************************************************************
 0.0   = mmnl    ! min invariant mass for all letpons (l+- and vl) 
 -1.0  = mmnlmax ! max invariant mass for all letpons (l+- and vl) 
#*********************************************************************
# Minimum and maximum pt for 4-momenta sum of leptons                *
#*********************************************************************
 0.0   = ptllmin  ! Minimum pt for 4-momenta sum of leptons(l and vl)
 -1.0  = ptllmax  ! Maximum pt for 4-momenta sum of leptons(l and vl)
#*********************************************************************
# Inclusive cuts                                                     *
#*********************************************************************
 0.0  = ptheavy   ! minimum pt for at least one heavy final state
 0.0  = xptj ! minimum pt for at least one jet  
 0.0  = xptb ! minimum pt for at least one b 
 0.0  = xpta ! minimum pt for at least one photon 
 0.0  = xptl ! minimum pt for at least one charged lepton 
#*********************************************************************
# Control the pt's of the jets sorted by pt                          *
#*********************************************************************
 0.0   = ptj1min ! minimum pt for the leading jet in pt
 0.0   = ptj2min ! minimum pt for the second jet in pt
 0.0   = ptj3min ! minimum pt for the third jet in pt
 0.0   = ptj4min ! minimum pt for the fourth jet in pt
 -1.0  = ptj1max ! maximum pt for the leading jet in pt 
 -1.0  = ptj2max ! maximum pt for the second jet in pt
 -1.0  = ptj3max ! maximum pt for the third jet in pt
 -1.0  = ptj4max ! maximum pt for the fourth jet in pt
 0   = cutuse  ! reject event if fails any (0) / all (1) jet pt cuts
#*********************************************************************
# Control the pt's of leptons sorted by pt                           *
#*********************************************************************
 0.0   = ptl1min ! minimum pt for the leading lepton in pt
 0.0   = ptl2min ! minimum pt for the second lepton in pt
 0.0   = ptl3min ! minimum pt for the third lepton in pt
 0.0   = ptl4min ! minimum pt for the fourth lepton in pt
 -1.0  = ptl1max ! maximum pt for the leading lepton in pt 
 -1.0  = ptl2max ! maximum pt for the second lepton in pt
 -1.0  = ptl3max ! maximum pt for the third lepton in pt
 -1.0  = ptl4max ! maximum pt for the fourth lepton in pt
#*********************************************************************
# Control the Ht(k)=Sum of k leading jets                            *
#*********************************************************************
 0.0   = htjmin ! minimum jet HT=Sum(jet pt)
 -1.0  = htjmax ! maximum jet HT=Sum(jet pt)
 0.0   = ihtmin  !inclusive Ht for all partons (including b)
 -1.0  = ihtmax  !inclusive Ht for all partons (including b)
 0.0   = ht2min ! minimum Ht for the two leading jets
 0.0   = ht3min ! minimum Ht for the three leading jets
 0.0   = ht4min ! minimum Ht for the four leading jets
 -1.0  = ht2max ! maximum Ht for the two leading jets
 -1.0  = ht3max ! maximum Ht for the three leading jets
 -1.0  = ht4max ! maximum Ht for the four leading jets
#***********************************************************************
# Photon-isolation cuts, according to hep-ph/9801442                   *
# When ptgmin=0, all the other parameters are ignored                  *
# When ptgmin>0, pta and draj are not going to be used                 *
#***********************************************************************
 0.0 = ptgmin ! Min photon transverse momentum
 0.4 = R0gamma ! Radius of isolation code
 1.0 = xn ! n parameter of eq.(3.4) in hep-ph/9801442
 1.0 = epsgamma ! epsilon_gamma parameter of eq.(3.4) in hep-ph/9801442
 True = isoEM ! isolate photons from EM energy (photons and leptons)
#*********************************************************************
# WBF cuts                                                           *
#*********************************************************************
 0.0   = xetamin ! minimum rapidity for two jets in the WBF case  
 0.0   = deltaeta ! minimum rapidity for two jets in the WBF case 
#***********************************************************************
# Turn on either the ktdurham or ptlund cut to activate                *
# CKKW(L) merging with Pythia8 [arXiv:1410.3012, arXiv:1109.4829]      *
#***********************************************************************
 -1.0  =  ktdurham        
 0.4   =  dparameter
 -1.0  =  ptlund
 1, 2, 3, 4, 5, 6, 21  =  pdgs_for_merging_cut ! PDGs for two cuts above   
#*********************************************************************
# maximal pdg code for quark to be considered as a light jet         *
# (otherwise b cuts are applied)                                     *
#*********************************************************************
 4 = maxjetflavor    ! Maximum jet pdg code
#*********************************************************************
#
#*********************************************************************
# Store info for systematics studies                                 *
# WARNING: Do not use for interference type of computation           *
#*********************************************************************
   False  = use_syst      ! Enable systematics studies
#
systematics = systematics_program ! none, systematics [python], SysCalc [depreceted, C++]
['--mur=0.5,1,2', '--muf=0.5,1,2', '--pdf=errorset'] = systematics_arguments ! see: https://cp3.irmp.ucl.ac.be/projects/madgraph/wiki/Systematics#Systematicspythonmodule
# Syscalc is deprecated but to see the associate options type'update syscalc'
]]>
</MGRunCard>
<slha>
######################################################################
## PARAM_CARD AUTOMATICALY GENERATED BY MG5 FOLLOWING UFO MODEL   ####
######################################################################
##                                                                  ##
##  Width set on Auto will be computed following the information    ##
##        present in the decay.py files of the model.               ##
##        See  arXiv:1402.1178 for more details.                    ##
##                                                                  ##
######################################################################

###################################
## INFORMATION FOR MASS
###################################
Block mass 
    5 4.700000e+00 # MB 
    6 1.730000e+02 # MT 
   15 1.777000e+00 # MTA 
   23 9.118800e+01 # MZ 
   25 1.250000e+02 # MH 
## Dependent parameters, given by model restrictions.
## Those values should be edited following the 
## analytical expression. MG5 ignores those values 
## but they are important for interfacing the output of MG5
## to external program such as Pythia.
  1 0.000000 # d : 0.0 
  2 0.000000 # u : 0.0 
  3 0.000000 # s : 0.0 
  4 0.000000 # c : 0.0 
  11 0.000000 # e- : 0.0 
  12 0.000000 # ve : 0.0 
  13 0.000000 # mu- : 0.0 
  14 0.000000 # vm : 0.0 
  16 0.000000 # vt : 0.0 
  21 0.000000 # g : 0.0 
  22 0.000000 # a : 0.0 
  24 80.419002 # w+ : cmath.sqrt(MZ__exp__2/2. + cmath.sqrt(MZ__exp__4/4. - (aEW*cmath.pi*MZ__exp__2)/(Gf*sqrt__2))) 

###################################
## INFORMATION FOR SMINPUTS
###################################
Block sminputs 
    1 1.325070e+02 # aEWM1 
    2 1.166390e-05 # Gf 
    3 1.180000e-01 # aS 

###################################
## INFORMATION FOR YUKAWA
###################################
Block yukawa 
    5 4.700000e+00 # ymb 
    6 1.730000e+02 # ymt 
   15 1.777000e+00 # ymtau 

###################################
## INFORMATION FOR DECAY
###################################
DECAY   6 1.491500e+00 # WT 
DECAY  23 2.441404e+00 # WZ 
DECAY  24 2.047600e+00 # WW 
DECAY  25 6.382339e-03 # WH 
## Dependent parameters, given by model restrictions.
## Those values should be edited following the 
## analytical expression. MG5 ignores those values 
## but they are important for interfacing the output of MG5
## to external program such as Pythia.
DECAY  1 0.000000 # d : 0.0 
DECAY  2 0.000000 # u : 0.0 
DECAY  3 0.000000 # s : 0.0 
DECAY  4 0.000000 # c : 0.0 
DECAY  5 0.000000 # b : 0.0 
DECAY  11 0.000000 # e- : 0.0 
DECAY  12 0.000000 # ve : 0.0 
DECAY  13 0.000000 # mu- : 0.0 
DECAY  14 0.000000 # vm : 0.0 
DECAY  15 0.000000 # ta- : 0.0 
DECAY  16 0.000000 # vt : 0.0 
DECAY  21 0.000000 # g : 0.0 
DECAY  22 0.000000 # a : 0.0
</slha>
<MGGenerationInfo>
#  Number of Events        :       1000
#  Integrated weight (pb)  :       0.21368
</MGGenerationInfo>
</header>
<init>
-11 11 1.250000e+02 1.250000e+02 0 0 247000 247000 -4 1
2.136800e-01 2.978200e-04 2.136800e-01 1
<generator name='MadGraph5_aMC@NLO' version='2.6.2'>please cite 1405.0301 </generator>
</init>
<event>
 4      1 +2.1368000e-01 2.49975000e+02 7.54677100e-03 1.11332100e-01
      -11 -1    0    0    0    0 +0.0000000000e+00 +0.0000000000e+00 +1.2498749998e+02 1.2498749998e+02 0.0000000000e+00 0.0000e+00 1.0000e+00
       11 -1    0    0    0    0 -0.0000000000e+00 -0.0000000000e+00 -1.2498749998e+02 1.2498749998e+02 0.0000000000e+00 0.0000e+00 -1.0000e+00
       23  1    1    2    0    0 -1.6797896746e+01 -1.0873337820e+01 -5.8865296424e+01 1.1036654057e+02 9.1188000000e+01 0.0000e+00 0.0000e+00
       25  1    1    2    0    0 +1.6797896746e+01 +1.0873337820e+01 +5.8865296424e+01 1.3960845939e+02 1.2500000000e+02 0.0000e+00 0.0000e+00
</event>
<event>
 4      1 +2.1368000e-01 2.49951100e+02 7.54677100e-03 1.11333600e-01
      -11 -1    0    0    0    0 +0.0000000000e+00 +0.0000000000e+00 +1.2498772383e+02 1.2498772383e+02 0.0000000000e+00 0.0000e+00 -1.0000e+00
       11 -1    0    0    0    0 -0.0000000000e+00 -0.0000000000e+00 -1.2496334736e+02 1.2496334736e+02 0.0000000000e+00 0.0000e+00 1.0000e+00
       23  1    1    2    0    0 +6.0133408696e+01 -1.6498663066e+00 +1.5625600265e+01 1.1035469917e+02 9.1188000000e+01 0.0000e+00 0.0000e+00
       25  1    1    2    0    0 -6.0133408696e+01 +1.6498663066e+00 -1.5601223797e+01 1.3959637203e+02 1.2500000000e+02 0.0000e+00 0.0000e+00
</event>
<event>
 4      1 +2.1368000e-01 2.49948800e+02 7.54677100e-03 1.11333700e-01
      -11 -1    0    0    0    0 +0.0000000000e+00 +0.0000000000e+00 +1.2496134721e+02 1.2496134721e+02 0.0000000000e+00 0.0000e+00 -1.0000e+00
       11 -1    0    0    0    0 -0.0000000000e+00 -0.0000000000e+00 -1.2498746461e+02 1.2498746461e+02 0.0000000000e+00 0.0000e+00 1.0000e+00
       23  1    1    2    0    0 -4.1356060098e+01 +3.8288224760e+00 -4.6242580730e+01 1.1035674517e+02 9.1188000000e+01 0.0000e+00 0.0000e+00
       25  1    1    2    0    0 +4.1356060098e+01 -3.8288224760e+00 +4.6216463322e+01 1.3959206665e+02 1.2500000000e+02 0.0000e+00 0.0000e+00
</event>
<event>
 4      1 +2.1368000e-01 2.49975000e+02 7.54677100e-03 1.11332100e-01
      -11 -1    0    0    0    0 +0.0000000000e+00 +0.0000000000e+00 +1.2498750000e+02 1.2498750000e+02 0.0000000000e+00 0.0000e+00 1.0000e+00
       11 -1    0    0    0    0 -0.0000000000e+00 -0.0000000000e+00 -1.2498750000e+02 1.2498750000e+02 0.0000000000e+00 0.0000e+00 -1.0000e+00
       23  1    1    2    0    0 -4.2724466153e+01 -4.2318399344e+00 -4.4969250168e+01 1.1036654059e+02 9.1188000000e+01 0.0000e+00 -1.0000e+00
       25  1    1    2    0    0 +4.2724466153e+01 +4.2318399344e+00 +4.4969250168e+01 1.3960845941e+02 1.2500000000e+02 0.0000e+00 0.0000e+00
</event>
<event>
 4      1 +2.1368000e-01 2.49304400e+02 7.54677100e-03 1.11374500e-01
      -11 -1    0    0    0    0 +0.0000000000e+00 +0.0000000000e+00 +1.2431744645e+02 1.2431744645e+02 0.0000000000e+00 0.0000e+00 1.0000e+00
       11 -1    0    0    0    0 -0.0000000000e+00 -0.0000000000e+00 -1.2498780861e+02 1.2498780861e+02 0.0000000000e+00 0.0000e+00 -1.0000e+00
       23  1    1    2    0    0 +1.4370642461e+01 -8.4252279146e+00 +5.8911411069e+01 1.0983308030e+02 9.1188000000e+01 0.0000e+00 1.0000e+00
       25  1    1    2    0    0 -1.4370642461e+01 +8.4252279146e+00 -5.9581773227e+01 1.3947217476e+02 1.2500000000e+02 0.0000e+00 0.0000e+00
</event>
<event>
 4      1 +2.1368000e-01 2.49967600e+02 7.54677100e-03 1.11332500e-01
      -11 -1    0    0    0    0 +0.0000000000e+00 +0.0000000000e+00 +1.2498817169e+02 1.2498817169e+02 0.0000000000e+00 0.0000e+00 -1.0000e+00
       11 -1    0    0    0    0 -0.0000000000e+00 -0.0000000000e+00 -1.2497946523e+02 1.2497946523e+02 0.0000000000e+00 0.0000e+00 1.0000e+00
       23  1    1    2    0    0 +2.5100177342e+00 +2.1476700949e+01 -5.8280505267e+01 1.1036039829e+02 9.1188000000e+01 0.0000e+00 1.0000e+00
       25  1    1    2    0    0 -2.5100177342e+00 -2.1476700949e+01 +5.8289211725e+01 1.3960723862e+02 1.2500000000e+02 0.0000e+00 0.0000e+00
</event>
<event>
 4      1 +2.1368000e-01 2.41625800e+02 7.54677100e-03 1.11871500e-01
      -11 -1    0    0    0    0 +0.0000000000e+00 +0.0000000000e+00 +1.1729802099e+02 1.1729802099e+02 0.0000000000e+00 0.0000e+00 -1.0000e+00
       11 -1    0    0    0    0 -0.0000000000e+00 -0.0000000000e+00 -1.2443305587e+02 1.2443305587e+02 0.0000000000e+00 0.0000e+00 1.0000e+00
       23  1    1    2    0    0 -4.6147662814e+01 -4.3087027967e-01 -3.0051619848e+01 1.0652766604e+02 9.1188000000e+01 0.0000e+00 1.0000e+00
       25  1    1    2    0    0 +4.6147662814e+01 +4.3087027967e-01 +2.2916584965e+01 1.3520341083e+02 1.2500000000e+02 0.0000e+00 0.0000e+00
</event>
<event>
 4      1 +2.1368000e-01 2.49975000e+02 7.54677100e-03 1.11332100e-01
      -11 -1    0    0    0    0 +0.0000000000e+00 +0.0000000000e+00 +1.2498748236e+02 1.2498748236e+02 0.0000000000e+00 0.0000e+00 1.0000e+00
       11 -1    0    0    0    0 -0.0000000000e+00 -0.0000000000e+00 -1.2498748236e+02 1.2498748236e+02 0.0000000000e+00 0.0000e+00 -1.0000e+00
       23  1    1    2    0    0 +2.3448426066e+01 +4.8245271355e+01 -3.1433782728e+01 1.1036652089e+02 9.1188000000e+01 0.0000e+00 -1.0000e+00
       25  1    1    2    0    0 -2.3448426066e+01 -4.8245271355e+01 +3.1433782728e+01 1.3960844383e+02 1.2500000000e+02 0.0000e+00 0.0000e+00
</event>
<event>
 4      1 +2.1368000e-01 2.49973200e+02 7.54677100e-03 1.11332200e-01
      -11 -1    0    0    0    0 +0.0000000000e+00 +0.0000000000e+00 +1.2498661608e+02 1.2498661608e+02 0.0000000000e+00 0.0000e+00 1.0000e+00
       11 -1    0    0    0    0 -0.0000000000e+00 -0.0000000000e+00 -1.2498661608e+02 1.2498661608e+02 0.0000000000e+00 0.0000e+00 -1.0000e+00
       23  1    1    2    0    0 -5.3399007669e+01 +8.4441498925e+00 +3.0700917194e+01 1.1036555327e+02 9.1188000000e+01 0.0000e+00 1.0000e+00
       25  1    1    2    0    0 +5.3399007669e+01 -8.4441498925e+00 -3.0700917194e+01 1.3960767889e+02 1.2500000000e+02 0.0000e+00 0.0000e+00
</event>
<event>
 4      1 +2.1368000e-01 2.46685800e+02 7.54677100e-03 1.11541700e-01
      -11 -1    0    0    0    0 +0.0000000000e+00 +0.0000000000e+00 +1.2172117816e+02 1.2172117816e+02 0.0000000000e+00 0.0000e+00 1.0000e+00
       11 -1    0    0    0    0 -0.0000000000e+00 -0.0000000000e+00 -1.2498618513e+02 1.2498618513e+02 0.0000000000e+00 0.0000e+00 -1.0000e+00
       23  1    1    2    0    0 +2.0547580937e+01 +1.2684909894e+01 +5.2231513074e+01 1.0782621353e+02 9.1188000000e+01 0.0000e+00 1.0000e+00
       25  1    1    2    0    0 -2.0547580937e+01 -1.2684909894e+01 -5.5496520041e+01 1.3888114976e+02 1.2500000000e+02 0.0000e+00 0.0000e+00
</event>
<event>
 4      1 +2.1368000e-01 2.49975000e+02 7.54677100e-03 1.11332100e-01
      -11 -1    0    0    0    0 +0.0000000000e+00 +0.0000000000e+00 +1.2498750000e+02 1.2498750000e+02 0.0000000000e+00 0.0000e+00 1.0000e+00
       11 -1    0    0    0    0 -0.0000000000e+00 -0.0000000000e+00 -1.2498750000e+02 1.2498750000e+02 0.0000000000e+00 0.0000e+00 -1.0000e+00
       23  1    1    2    0    0 +2.5231607181e+00 -5.3473714372e+01 +3.1618309086e+01 1.1036654059e+02 9.1188000000e+01 0.0000e+00 1.0000e+00
       25  1    1    2    0    0 -2.5231607181e+00 +5.3473714372e+01 -3.1618309086e+01 1.3960845941e+02 1.2500000000e+02 0.0000e+00 0.0000e+00
</event>
<event>
 4      1 +2.1368000e-01 2.49729900e+02 7.54677100e-03 1.11347600e-01
      -11 -1    0    0    0    0 +0.0000000000e+00 +0.0000000000e+00 +1.2476411604e+02 1.2476411604e+02 0.0000000000e+00 0.0000e+00 1.0000e+00
       11 -1    0    0    0    0 -0.0000000000e+00 -0.0000000000e+00 -1.2496591387e+02 1.2496591387e+02 0.0000000000e+00 0.0000e+00 -1.0000e+00
       23  1    1    2    0    0 -1.4062949961e+01 -5.9985502046e+01 -6.3581484309e+00 1.1023476953e+02 9.1188000000e+01 0.0000e+00 1.0000e+00
       25  1    1    2    0    0 +1.4062949961e+01 +5.9985502046e+01 +6.1563506038e+00 1.3949526039e+02 1.2500000000e+02 0.0000e+00 0.0000e+00
</event>
<event>
 4      1 +2.1368000e-01 2.49975000e+02 7.54677100e-03 1.11332100e-01
      -11 -1    0    0    0    0 +0.0000000000e+00 +0.0000000000e+00 +1.2498837067e+02 1.2498837067e+02 0.0000000000e+00 0.0000e+00 -1.0000e+00
       11 -1    0    0    0    0 -0.0000000000e+00 -0.0000000000e+00 -1.2498662933e+02 1.2498662933e+02 0.0000000000e+00 0.0000e+00 1.0000e+00
       23  1    1    2    0    0 +6.5789096035e+00 -4.2653803699e+01 -4.4752922829e+01 1.1036622884e+02 9.1188000000e+01 0.0000e+00 1.0000e+00
       25  1    1    2    0    0 -6.5789096035e+00 +4.2653803699e+01 +4.4754664172e+01 1.3960877117e+02 1.2500000000e+02 0.0000e+00 0.0000e+00
</event>
<event>
 4      1 +2.1368000e-01 2.48381400e+02 7.54677100e-03 1.11433200e-01
      -11 -1    0    0    0    0 +0.0000000000e+00 +0.0000000000e+00 +1.2372357246e+02 1.2372357246e+02 0.0000000000e+00 0.0000e+00 1.0000e+00
       11 -1    0    0    0    0 -0.0000000000e+00 -0.0000000000e+00 -1.2465964010e+02 1.2465964010e+02 0.0000000000e+00 0.0000e+00 -1.0000e+00
       23  1    1    2    0    0 +3.6564608763e+01 -4.8036086753e+01 +4.6172054380e+00 1.0945778261e+02 9.1188000000e+01 0.0000e+00 0.0000e+00
       25  1    1    2    0    0 -3.6564608763e+01 +4.8036086753e+01 -5.5532730785e+00 1.3892542995e+02 1.2500000000e+02 0.0000e+00 0.0000e+00
</event>
<event>
 4      1 +2.1368000e-01 2.49973900e+02 7.54677100e-03 1.11332100e-01
      -11 -1    0    0    0    0 +0.0000000000e+00 +0.0000000000e+00 +1.2498605875e+02 1.2498605875e+02 0.0000000000e+00 0.0000e+00 1.0000e+00
       11 -1    0    0    0    0 -0.0000000000e+00 -0.0000000000e+00 -1.2498780008e+02 1.2498780008e+02 0.0000000000e+00 0.0000e+00 -1.0000e+00
       23  1    1    2    0    0 +5.2490684685e+01 +1.1590840881e+01 -3.1237953183e+01 1.1036612086e+02 9.1188000000e+01 0.0000e+00 0.0000e+00
       25  1    1    2    0    0 -5.2490684685e+01 -1.1590840881e+01 +3.1236211848e+01 1.3960773797e+02 1.2500000000e+02 0.0000e+00 0.0000e+00
</event>
<event>
 4      1 +2.1368000e-01 2.49959000e+02 7.54677100e-03 1.11333100e-01
      -11 -1    0    0    0    0 +0.0000000000e+00 +0.0000000000e+00 +1.2497164311e+02 1.2497164311e+02 0.0000000000e+00 0.0000e+00 1.0000e+00
       11 -1    0    0    0    0 -0.0000000000e+00 -0.0000000000e+00 -1.2498731419e+02 1.2498731419e+02 0.0000000000e+00 0.0000e+00 -1.0000e+00
       23  1    1    2    0    0 -4.6665176835e+01 +2.1263614203e+01 -3.5131899009e+01 1.1035978294e+02 9.1188000000e+01 0.0000e+00 0.0000e+00
       25  1    1    2    0    0 +4.6665176835e+01 -2.1263614203e+01 +3.5116227929e+01 1.3959917436e+02 1.2500000000e+02 0.0000e+00 0.0000e+00
</event>
<event>
 4      1 +2.1368000e-01 2.41249000e+02 7.54677100e-03 1.11896400e-01
      -11 -1    0    0    0    0 +0.0000000000e+00 +0.0000000000e+00 +1.2498780067e+02 1.2498780067e+02 0.0000000000e+00 0.0000e+00 1.0000e+00
       11 -1    0    0    0    0 -0.0000000000e+00 -0.0000000000e+00 -1.1641355940e+02 1.1641355940e+02 0.0000000000e+00 0.0000e+00 -1.0000e+00
       23  1    1    2    0    0 +2.8632500866e+01 +1.6839064682e+01 +4.5082040499e+01 1.0700941979e+02 9.1188000000e+01 0.0000e+00 0.0000e+00
       25  1    1    2    0    0 -2.8632500866e+01 -1.6839064682e+01 -3.6507799227e+01 1.3439194027e+02 1.2500000000e+02 0.0000e+00 0.0000e+00
</event>
<event>
 4      1 +2.1368000e-01 2.27925100e+02 7.54677100e-03 1.12810900e-01
      -11 -1    0    0    0    0 +0.0000000000e+00 +0.0000000000e+00 +1.0779435867e+02 1.0779435867e+02 0.0000000000e+00 0.0000e+00 1.0000e+00
       11 -1    0    0    0    0 -0.0000000000e+00 -0.0000000000e+00 -1.2048370651e+02 1.2048370651e+02 0.0000000000e+00 0.0000e+00 -1.0000e+00
       23  1    1    2    0    0 -4.1425069740e+00 +1.9707976979e+01 -3.4974823436e+01 9.9719879357e+01 9.1188000000e+01 0.0000e+00 -1.0000e+00
       25  1    1    2    0    0 +4.1425069740e+00 -1.9707976979e+01 +2.2285475592e+01 1.2855818583e+02 1.2500000000e+02 0.0000e+00 0.0000e+00
</event>
<event>
 4      1 +2.1368000e-01 2.49924400e+02 7.54677100e-03 1.11335300e-01
      -11 -1    0    0    0    0 +0.0000000000e+00 +0.0000000000e+00 +1.2498833873e+02 1.2498833873e+02 0.0000000000e+00 0.0000e+00 -1.0000e+00
       11 -1    0    0    0    0 -0.0000000000e+00 -0.0000000000e+00 -1.2493610864e+02 1.2493610864e+02 0.0000000000e+00 0.0000e+00 1.0000e+00
       23  1    1    2    0    0 -2.3714708992e+01 -5.6663838114e+01 -9.2565951034e+00 1.1033636694e+02 9.1188000000e+01 0.0000e+00 0.0000e+00
       25  1    1    2    0    0 +2.3714708992e+01 +5.6663838114e+01 +9.3088251902e+00 1.3958808043e+02 1.2500000000e+02 0.0000e+00 0.0000e+00
</event>
<event>
 4      1 +2.1368000e-01 2.39231300e+02 7.54677100e-03 1.12030600e-01
      -11 -1    0    0    0    0 +0.0000000000e+00 +0.0000000000e+00 +1.1447652425e+02 1.1447652425e+02 0.0000000000e+00 0.0000e+00 1.0000e+00
       11 -1    0    0    0    0 -0.0000000000e+00 -0.0000000000e+00 -1.2498551667e+02 1.2498551667e+02 0.0000000000e+00 0.0000e+00 -1.0000e+00
       23  1    1    2    0    0 -3.6463191765e-01 -6.9870449629e+00 -5.4853664752e+01 1.0664486689e+02 9.1188000000e+01 0.0000e+00 -1.0000e+00
       25  1    1    2    0    0 +3.6463191765e-01 +6.9870449629e+00 +4.4344672330e+01 1.3281717403e+02 1.2500000000e+02 0.0000e+00 0.0000e+00
</event>
<event>
 4      1 +2.1368000e-01 2.49921700e+02 7.54677100e-03 1.11335400e-01
      -11 -1    0    0    0    0 +0.0000000000e+00 +0.0000000000e+00 +1.2498785057e+02 1.2498785057e+02 0.0000000000e+00 0.0000e+00 1.0000e+00
       11 -1    0    0    0    0 -0.0000000000e+00 -0.0000000000e+00 -1.2493388007e+02 1.2493388007e+02 0.0000000000e+00 0.0000e+00 -1.0000e+00
       23  1    1    2    0    0 -2.0009659100e+01 +5.6198820509e+01 -1.7304219260e+01 1.1033304687e+02 9.1188000000e+01 0.0000e+00 -1.0000e+00
       25  1    1    2    0    0 +2.0009659100e+01 -5.6198820509e+01 +1.7358189763e+01 1.3958868377e+02 1.2500000000e+02 0.0000e+00 0.0000e+00
</event>
<event>
 4      1 +2.1368000e-01 2.49951600e+02 7.54677100e-03 1.11333500e-01
      -11 -1    0    0    0    0 +0.0000000000e+00 +0.0000000000e+00 +1.2498710650e+02 1.2498710650e+02 0.0000000000e+00 0.0000e+00 -1.0000e+00
       11 -1    0    0    0    0 -0.0000000000e+00 -0.0000000000e+00 -1.2496447101e+02 1.2496447101e+02 0.0000000000e+00 0.0000e+00 1.0000e+00
       23  1    1    2    0    0 +1.7439454129e+01 -5.9519011074e+01 +4.0084004427e+00 1.1035382122e+02 9.1188000000e+01 0.0000e+00 0.0000e+00
       25  1    1    2    0    0 -1.7439454129e+01 +5.9519011074e+01 -3.9857649482e+00 1.3959775629e+02 1.2500000000e+02 0.0000e+00 0.0000e+00
</event>
<event>
 4      1 +2.1368000e-01 2.49417500e+02 7.54677100e-03 1.11367400e-01
      -11 -1    0    0    0    0 +0.0000000000e+00 +0.0000000000e+00 +1.2486434426e+02 1.2486434426e+02 0.0000000000e+00 0.0000e+00 -1.0000e+00
       11 -1    0    0    0    0 -0.0000000000e+00 -0.0000000000e+00 -1.2455333665e+02 1.2455333665e+02 0.0000000000e+00 0.0000e+00 1.0000e+00
       23  1    1    2    0    0 -7.8789322450e+00 -4.6234748590e+01 +4.0101555291e+01 1.1010502092e+02 9.1188000000e+01 0.0000e+00 -1.0000e+00
       25  1    1    2    0    0 +7.8789322450e+00 +4.6234748590e+01 -3.9790547678e+01 1.3931266000e+02 1.2500000000e+02 0.0000e+00 0.0000e+00
</event>
<event>
 4      1 +2.1368000e-01 2.49875500e+02 7.54677100e-03 1.11338300e-01
      -11 -1    0    0    0    0 +0.0000000000e+00 +0.0000000000e+00 +1.2498826297e+02 1.2498826297e+02 0.0000000000e+00 0.0000e+00 -1.0000e+00
       11 -1    0    0    0    0 -0.0000000000e+00 -0.0000000000e+00 -1.2488730456e+02 1.2488730456e+02 0.0000000000e+00 0.0000e+00 1.0000e+00
       23  1    1    2    0    0 -3.5455389930e+01 +1.2706529573e+01 +4.9387492736e+01 1.1033094014e+02 9.1188000000e+01 0.0000e+00 -1.0000e+00
       25  1    1    2    0    0 +3.5455389930e+01 -1.2706529573e+01 -4.9286534317e+01 1.3954462739e+02 1.2500000000e+02 0.0000e+00 0.0000e+00
</event>
<event>
 4      1 +2.1368000e-01 2.49975000e+02 7.54677100e-03 1.11332100e-01
      -11 -1    0    0    0    0 +0.0000000000e+00 +0.0000000000e+00 +1.2498750000e+02 1.2498750000e+02 0.0000000000e+00 0.0000e+00 1.0000e+00
       11 -1    0    0    0    0 -0.0000000000e+00 -0.0000000000e+00 -1.2498750000e+02 1.2498750000e+02 0.0000000000e+00 0.0000e+00 -1.0000e+00
       23  1    1    2    0    0 +5.7651485051e+01 -2.2911759882e+01 -4.1084630698e+00 1.1036654059e+02 9.1188000000e+01 0.0000e+00 0.0000e+00
       25  1    1    2    0    0 -5.7651485051e+01 +2.2911759882e+01 +4.1084630698e+00 1.3960845941e+02 1.2500000000e+02 0.0000e+00 0.0000e+00
</event>
<event>
 4      1 +2.1368000e-01 2.49975000e+02 7.54677100e-03 1.11332100e-01
      -11 -1    0    0    0    0 +0.0000000000e+00 +0.0000000000e+00 +1.2498747644e+02 1.2498747644e+02 0.0000000000e+00 0.0000e+00 -1.0000e+00
       11 -1    0    0    0    0 -0.0000000000e+00 -0.0000000000e+00 -1.2498747644e+02 1.2498747644e+02 0.0000000000e+00 0.0000e+00 1.0000e+00
       23  1    1    2    0    0 +2.6501123614e+01 -2.9521751593e+01 +4.7871419015e+01 1.1036651427e+02 9.1188000000e+01 0.0000e+00 -1.0000e+00
       25  1    1    2    0    0 -2.6501123614e+01 +2.9521751593e+01 -4.7871419015e+01 1.3960843860e+02 1.2500000000e+02 0.0000e+00 0.0000e+00
</event>
<event>
 4      1 +2.1368000e-01 2.47614400e+02 7.54677100e-03 1.11482200e-01
      -11 -1    0    0    0    0 +0.0000000000e+00 +0.0000000000e+00 +1.2263808949e+02 1.2263808949e+02 0.0000000000e+00 0.0000e+00 -1.0000e+00
       11 -1    0    0    0    0 -0.0000000000e+00 -0.0000000000e+00 -1.2498742530e+02 1.2498742530e+02 0.0000000000e+00 0.0000e+00 1.0000e+00
       23  1    1    2    0    0 -3.2521827218e+01 -1.5379953873e+01 +4.6735183241e+01 1.0859853094e+02 9.1188000000e+01 0.0000e+00 -1.0000e+00
       25  1    1    2    0    0 +3.2521827218e+01 +1.5379953873e+01 -4.9084519057e+01 1.3902698385e+02 1.2500000000e+02 0.0000e+00 0.0000e+00
</event>
<event>
 4      1 +2.1368000e-01 2.49929900e+02 7.54677100e-03 1.11334900e-01
      -11 -1    0    0    0    0 +0.0000000000e+00 +0.0000000000e+00 +1.2498848017e+02 1.2498848017e+02 0.0000000000e+00 0.0000e+00 1.0000e+00
       11 -1    0    0    0    0 -0.0000000000e+00 -0.0000000000e+00 -1.2494147238e+02 1.2494147238e+02 0.0000000000e+00 0.0000e+00 -1.0000e+00
       23  1    1    2    0    0 -1.9967280270e+01 +4.8712168383e+01 -3.2970169707e+01 1.1033517601e+02 9.1188000000e+01 0.0000e+00 -1.0000e+00
       25  1    1    2    0    0 +1.9967280270e+01 -4.8712168383e+01 +3.3017177493e+01 1.3959477655e+02 1.2500000000e+02 0.0000e+00 0.0000e+00
</event>
<event>
 4      1 +2.1368000e-01 2.49975000e+02 7.54677100e-03 1.11332100e-01
      -11 -1    0    0    0    0 +0.0000000000e+00 +0.0000000000e+00 +1.2498837003e+02 1.2498837003e+02 0.0000000000e+00 0.0000e+00 1.0000e+00
       11 -1    0    0    0    0 -0.0000000000e+00 -0.0000000000e+00 -1.2498662869e+02 1.2498662869e+02 0.0000000000e+00 0.0000e+00 -1.0000e+00
       23  1    1    2    0    0 +2.1386732661e+01 -3.0299062871e+01 +4.9901632892e+01 1.1036688749e+02 9.1188000000e+01 0.0000e+00 1.0000e+00
       25  1    1    2    0    0 -2.1386732661e+01 +3.0299062871e+01 -4.9899891549e+01 1.3960811123e+02 1.2500000000e+02 0.0000e+00 0.0000e+00
</event>
<event>
 4      1 +2.1368000e-01 2.49761500e+02 7.54677100e-03 1.11345600e-01
      -11 -1    0    0    0    0 +0.0000000000e+00 +0.0000000000e+00 +1.2498865015e+02 1.2498865015e+02 0.0000000000e+00 0.0000e+00 1.0000e+00
       11 -1    0    0    0    0 -0.0000000000e+00 -0.0000000000e+00 -1.2477290799e+02 1.2477290799e+02 0.0000000000e+00 0.0000e+00 -1.0000e+00
       23  1    1    2    0    0 -5.5122470402e+00 -6.0266967404e+01 +1.3388752509e+01 1.1025879677e+02 9.1188000000e+01 0.0000e+00 1.0000e+00
       25  1    1    2    0    0 +5.5122470402e+00 +6.0266967404e+01 -1.3173010357e+01 1.3950276137e+02 1.2500000000e+02 0.0000e+00 0.0000e+00
</event>
<event>
 4      1 +2.1368000e-01 2.49849800e+02 7.54677100e-03 1.11340000e-01
      -11 -1    0    0    0    0 +0.0000000000e+00 +0.0000000000e+00 +1.2487183962e+02 1.2487183962e+02 0.0000000000e+00 0.0000e+00 1.0000e+00
       11 -1    0    0    0    0 -0.0000000000e+00 -0.0000000000e+00 -1.2497800910e+02 1.2497800910e+02 0.0000000000e+00 0.0000e+00 -1.0000e+00
       23  1    1    2    0    0 -5.4864025456e+01 -2.2601709772e+01 +1.8096902365e+01 1.1028892870e+02 9.1188000000e+01 0.0000e+00 0.0000e+00
       25  1    1    2    0    0 +5.4864025456e+01 +2.2601709772e+01 -1.8203071842e+01 1.3956092003e+02 1.2500000000e+02 0.0000e+00 0.0000e+00
</event>
<event>
 4      1 +2.1368000e-01 2.48476500e+02 7.54677100e-03 1.11427100e-01
      -11 -1    0    0    0    0 +0.0000000000e+00 +0.0000000000e+00 +1.2349448210e+02 1.2349448210e+02 0.0000000000e+00 0.0000e+00 -1.0000e+00
       11 -1    0    0    0    0 -0.0000000000e+00 -0.0000000000e+00 -1.2498651741e+02 1.2498651741e+02 0.0000000000e+00 0.0000e+00 1.0000e+00
       23  1    1    2    0    0 -4.2042038837e+01 -4.2037151308e+01 +1.1455454461e+01 1.0945836606e+02 9.1188000000e+01 0.0000e+00 0.0000e+00
       25  1    1    2    0    0 +4.2042038837e+01 +4.2037151308e+01 -1.2947489776e+01 1.3902263345e+02 1.2500000000e+02 0.0000e+00 0.0000e+00
</event>
<event>
 4      1 +2.1368000e-01 2.49082900e+02 7.54677100e-03 1.11388600e-01
      -11 -1    0    0    0    0 +0.0000000000e+00 +0.0000000000e+00 +1.2409717253e+02 1.2409717253e+02 0.0000000000e+00 0.0000e+00 -1.0000e+00
       11 -1    0    0    0    0 -0.0000000000e+00 -0.0000000000e+00 -1.2498729907e+02 1.2498729907e+02 0.0000000000e+00 0.0000e+00 1.0000e+00
       23  1    1    2    0    0 -5.2840886619e+01 +6.7060596179e+00 -3.0701576257e+01 1.0997712791e+02 9.1188000000e+01 0.0000e+00 1.0000e+00
       25  1    1    2    0    0 +5.2840886619e+01 -6.7060596179e+00 +2.9811449726e+01 1.3910734369e+02 1.2500000000e+02 0.0000e+00 0.0000e+00
</event>
<event>
 4      1 +2.1368000e-01 2.40151900e+02 7.54677100e-03 1.11969200e-01
      -11 -1    0    0    0    0 +0.0000000000e+00 +0.0000000000e+00 +1.1591396859e+02 1.1591396859e+02 0.0000000000e+00 0.0000e+00 1.0000e+00
       11 -1    0    0    0    0 -0.0000000000e+00 -0.0000000000e+00 -1.2438735866e+02 1.2438735866e+02 0.0000000000e+00 0.0000e+00 -1.0000e+00
       23  1    1    2    0    0 +5.9369935683e+00 +8.6271712027e+00 -5.4426913035e+01 1.0671090002e+02 9.1188000000e+01 0.0000e+00 -1.0000e+00
       25  1    1    2    0    0 -5.9369935683e+00 -8.6271712027e+00 +4.5953522969e+01 1.3359042723e+02 1.2500000000e+02 0.0000e+00 0.0000e+00
</event>
<event>
 4      1 +2.1368000e-01 2.49975000e+02 7.54677100e-03 1.11332100e-01
      -11 -1    0    0    0    0 +0.0000000000e+00 +0.0000000000e+00 +1.2498749937e+02 1.2498749937e+02 0.0000000000e+00 0.0000e+00 1.0000e+00
       11 -1    0    0    0    0 -0.0000000000e+00 -0.0000000000e+00 -1.2498749937e+02 1.2498749937e+02 0.0000000000e+00 0.0000e+00 -1.0000e+00
       23  1    1    2    0    0 -1.4582972433e+01 -1.9574525927e+01 -5.7181261191e+01 1.1036653988e+02 9.1188000000e+01 0.0000e+00 -1.0000e+00
       25  1    1    2    0    0 +1.4582972433e+01 +1.9574525927e+01 +5.7181261191e+01 1.3960845885e+02 1.2500000000e+02 0.0000e+00 0.0000e+00
</event>
<event>
 4      1 +2.1368000e-01 2.49965600e+02 7.54677100e-03 1.11332700e-01
      -11 -1    0    0    0    0 +0.0000000000e+00 +0.0000000000e+00 +1.2498800636e+02 1.2498800636e+02 0.0000000000e+00 0.0000e+00 -1.0000e+00
       11 -1    0    0    0    0 -0.0000000000e+00 -0.0000000000e+00 -1.2497755862e+02 1.2497755862e+02 0.0000000000e+00 0.0000e+00 1.0000e+00
       23  1    1    2    0    0 -4.0894042637e+01 +3.4983526137e+01 +3.1120348141e+01 1.1036257172e+02 9.1188000000e+01 0.0000e+00 -1.0000e+00
       25  1    1    2    0    0 +4.0894042637e+01 -3.4983526137e+01 -3.1109900405e+01 1.3960299326e+02 1.2500000000e+02 0.0000e+00 0.0000e+00
</event>
<event>
 4      1 +2.1368000e-01 2.49975000e+02 7.54677100e-03 1.11332100e-01
      -11 -1    0    0    0    0 +0.0000000000e+00 +0.0000000000e+00 +1.2498750000e+02 1.2498750000e+02 0.0000000000e+00 0.0000e+00 -1.0000e+00
       11 -1    0    0    0    0 -0.0000000000e+00 -0.0000000000e+00 -1.2498750000e+02 1.2498750000e+02 0.0000000000e+00 0.0000e+00 1.0000e+00
       23  1    1    2    0    0 -2.5317185693e+01 -1.0142719252e+01 +5.5872061829e+01 1.1036654059e+02 9.1188000000e+01 0.0000e+00 0.0000e+00
       25  1    1    2    0    0 +2.5317185693e+01 +1.0142719252e+01 -5.5872061829e+01 1.3960845941e+02 1.2500000000e+02 0.0000e+00 0.0000e+00
</event>
<event>
 4      1 +2.1368000e-01 2.41247500e+02 7.54677100e-03 1.11896500e-01
      -11 -1    0    0    0    0 +0.0000000000e+00 +0.0000000000e+00 +1.1641281104e+02 1.1641281104e+02 0.0000000000e+00 0.0000e+00 1.0000e+00
       11 -1    0    0    0    0 -0.0000000000e+00 -0.0000000000e+00 -1.2498699719e+02 1.2498699719e+02 0.0000000000e+00 0.0000e+00 -1.0000e+00
       23  1    1    2    0    0 -4.9370166239e+01 -6.9355232589e+00 -2.1759085497e+01 1.0618014854e+02 9.1188000000e+01 0.0000e+00 0.0000e+00
       25  1    1    2    0    0 +4.9370166239e+01 +6.9355232589e+00 +1.3184899344e+01 1.3521965970e+02 1.2500000000e+02 0.0000e+00 0.0000e+00
</event>
<event>
 4      1 +2.1368000e-01 2.49747900e+02 7.54677100e-03 1.11346400e-01
      -11 -1    0    0    0    0 +0.0000000000e+00 +0.0000000000e+00 +1.2482609705e+02 1.2482609705e+02 0.0000000000e+00 0.0000e+00 1.0000e+00
       11 -1    0    0    0    0 -0.0000000000e+00 -0.0000000000e+00 -1.2492178456e+02 1.2492178456e+02 0.0000000000e+00 0.0000e+00 -1.0000e+00
       23  1    1    2    0    0 +9.9286002078e+00 +6.0897611006e+01 -5.5593443683e+00 1.1024179689e+02 9.1188000000e+01 0.0000e+00 -1.0000e+00
       25  1    1    2    0    0 -9.9286002078e+00 -6.0897611006e+01 +5.4636568580e+00 1.3950608472e+02 1.2500000000e+02 0.0000e+00 0.0000e+00
</event>
<event>
 4      1 +2.1368000e-01 2.47505500e+02 7.54677100e-03 1.11489100e-01
      -11 -1    0    0    0    0 +0.0000000000e+00 +0.0000000000e+00 +1.2312077116e+02 1.2312077116e+02 0.0000000000e+00 0.0000e+00 -1.0000e+00
       11 -1    0    0    0    0 -0.0000000000e+00 -0.0000000000e+00 -1.2438802225e+02 1.2438802225e+02 0.0000000000e+00 0.0000e+00 1.0000e+00
       23  1    1    2    0    0 -3.4176836737e+01 +2.1067719650e+01 -4.4726210303e+01 1.0921350746e+02 9.1188000000e+01 0.0000e+00 1.0000e+00
       25  1    1    2    0    0 +3.4176836737e+01 -2.1067719650e+01 +4.3458959212e+01 1.3829528595e+02 1.2500000000e+02 0.0000e+00 0.0000e+00
</event>
<event>
 4      1 +2.1368000e-01 2.49974600e+02 7.54677100e-03 1.11332100e-01
      -11 -1    0    0    0    0 +0.0000000000e+00 +0.0000000000e+00 +1.2498729641e+02 1.2498729641e+02 0.0000000000e+00 0.0000e+00 1.0000e+00
       11 -1    0    0    0    0 -0.0000000000e+00 -0.0000000000e+00 -1.2498729641e+02 1.2498729641e+02 0.0000000000e+00 0.0000e+00 -1.0000e+00
       23  1    1    2    0    0 -2.5844595580e+01 +2.5062279048e+01 +5.0689355799e+01 1.1036631319e+02 9.1188000000e+01 0.0000e+00 1.0000e+00
       25  1    1    2    0    0 +2.5844595580e+01 -2.5062279048e+01 -5.0689355799e+01 1.3960827964e+02 1.2500000000e+02 0.0000e+00 0.0000e+00
</event>
<event>
 4      1 +2.1368000e-01 2.49947600e+02 7.54677100e-03 1.11333800e-01
      -11 -1    0    0    0    0 +0.0000000000e+00 +0.0000000000e+00 +1.2498770579e+02 1.2498770579e+02 0.0000000000e+00 0.0000e+00 1.0000e+00
       11 -1    0    0    0    0 -0.0000000000e+00 -0.0000000000e+00 -1.2495984717e+02 1.2495984717e+02 0.0000000000e+00 0.0000e+00 -1.0000e+00
       23  1    1    2    0    0 +3.3525383580e+01 -5.1719262177e+01 -7.9441397533e+00 1.1035032453e+02 9.1188000000e+01 0.0000e+00 1.0000e+00
       25  1    1    2    0    0 -3.3525383580e+01 +5.1719262177e+01 +7.9719983749e+00 1.3959722842e+02 1.2500000000e+02 0.0000e+00 0.0000e+00
</event>
<event>
 4      1 +2.1368000e-01 2.29625800e+02 7.54677100e-03 1.12690300e-01
      -11 -1    0    0    0    0 +0.0000000000e+00 +0.0000000000e+00 +1.0546775911e+02 1.0546775911e+02 0.0000000000e+00 0.0000e+00 1.0000e+00
       11 -1    0    0    0    0 -0.0000000000e+00 -0.0000000000e+00 -1.2498602884e+02 1.2498602884e+02 0.0000000000e+00 0.0000e+00 -1.0000e+00
       23  1    1    2    0    0 -1.6482741059e+01 -1.4206913936e+01 +2.3198510453e+01 9.6576080826e+01 9.1188000000e+01 0.0000e+00 0.0000e+00
       25  1    1    2    0    0 +1.6482741059e+01 +1.4206913936e+01 -4.2716780187e+01 1.3387770713e+02 1.2500000000e+02 0.0000e+00 0.0000e+00
</event>
<event>
 4      1 +2.1368000e-01 2.49859400e+02 7.54677100e-03 1.11339400e-01
      -11 -1    0    0    0    0 +0.0000000000e+00 +0.0000000000e+00 +1.2487314225e+02 1.2487314225e+02 0.0000000000e+00 0.0000e+00 1.0000e+00
       11 -1    0    0    0    0 -0.0000000000e+00 -0.0000000000e+00 -1.2498627721e+02 1.2498627721e+02 0.0000000000e+00 0.0000e+00 -1.0000e+00
       23  1    1    2    0    0 +3.7530689365e+01 +4.9260395557e+01 -4.0667349106e+00 1.1030380271e+02 9.1188000000e+01 0.0000e+00 0.0000e+00
       25  1    1    2    0    0 -3.7530689365e+01 -4.9260395557e+01 +3.9535999551e+00 1.3955561675e+02 1.2500000000e+02 0.0000e+00 0.0000e+00
</event>
<event>
 4      1 +2.1368000e-01 2.49975000e+02 7.54677100e-03 1.11332100e-01
      -11 -1    0    0    0    0 +0.0000000000e+00 +0.0000000000e+00 +1.2498748411e+02 1.2498748411e+02 0.0000000000e+00 0.0000e+00 1.0000e+00
       11 -1    0    0    0    0 -0.0000000000e+00 -0.0000000000e+00 -1.2498748411e+02 1.2498748411e+02 0.0000000000e+00 0.0000e+00 -1.0000e+00
       23  1    1    2    0    0 +5.9739784089e+00 +4.9366245062e+00 +6.1688405231e+01 1.1036652284e+02 9.1188000000e+01 0.0000e+00 1.0000e+00
       25  1    1    2    0    0 -5.9739784089e+00 -4.9366245062e+00 -6.1688405231e+01 1.3960844537e+02 1.2500000000e+02 0.0000e+00 0.0000e+00
</event>
<event>
 4      1 +2.1368000e-01 2.20907600e+02 7.54677100e-03 1.13320800e-01
      -11 -1    0    0    0    0 +0.0000000000e+00 +0.0000000000e+00 +1.2429215574e+02 1.2429215574e+02 0.0000000000e+00 0.0000e+00 1.0000e+00
       11 -1    0    0    0    0 -0.0000000000e+00 -0.0000000000e+00 -9.8156163304e+01 9.8156163304e+01 0.0000000000e+00 0.0000e+00 -1.0000e+00
       23  1    1    2    0    0 -1.6190871089e+01 -4.0558666085e+00 -3.9958102699e+00 9.2789073733e+01 9.1188000000e+01 0.0000e+00 0.0000e+00
       25  1    1    2    0    0 +1.6190871089e+01 +4.0558666085e+00 +3.0131802706e+01 1.2965924531e+02 1.2500000000e+02 0.0000e+00 0.0000e+00
</event>
<event>
 4      1 +2.1368000e-01 2.49971600e+02 7.54677100e-03 1.11332300e-01
      -11 -1    0    0    0    0 +0.0000000000e+00 +0.0000000000e+00 +1.2498840307e+02 1.2498840307e+02 0.0000000000e+00 0.0000e+00 -1.0000e+00
       11 -1    0    0    0    0 -0.0000000000e+00 -0.0000000000e+00 -1.2498317911e+02 1.2498317911e+02 0.0000000000e+00 0.0000e+00 1.0000e+00
       23  1    1    2    0    0 -4.3593968436e+01 -4.3642921225e+01 +7.7458158657e+00 1.1036479359e+02 9.1188000000e+01 0.0000e+00 0.0000e+00
       25  1    1    2    0    0 +4.3593968436e+01 +4.3642921225e+01 -7.7405919084e+00 1.3960678859e+02 1.2500000000e+02 0.0000e+00 0.0000e+00
</event>
<event>
 4      1 +2.1368000e-01 2.49296600e+02 7.54677100e-03 1.11375000e-01
      -11 -1    0    0    0    0 +0.0000000000e+00 +0.0000000000e+00 +1.2498825670e+02 1.2498825670e+02 0.0000000000e+00 0.0000e+00 1.0000e+00
       11 -1    0    0    0    0 -0.0000000000e+00 -0.0000000000e+00 -1.2430923697e+02 1.2430923697e+02 0.0000000000e+00 0.0000e+00 -1.0000e+00
       23  1    1    2    0    0 -1.7581792459e+00 +6.1077532645e+01 +7.2602436725e+00 1.1000690283e+02 9.1188000000e+01 0.0000e+00 -1.0000e+00
       25  1    1    2    0    0 +1.7581792459e+00 -6.1077532645e+01 -6.5812239375e+00 1.3929059084e+02 1.2500000000e+02 0.0000e+00 0.0000e+00
</event>
<event>
 4      1 +2.1368000e-01 2.45651400e+02 7.54677100e-03 1.11608400e-01
      -11 -1    0    0    0    0 +0.0000000000e+00 +0.0000000000e+00 +1.2153459038e+02 1.2153459038e+02 0.0000000000e+00 0.0000e+00 1.0000e+00
       11 -1    0    0    0    0 -0.0000000000e+00 -0.0000000000e+00 -1.2413051803e+02 1.2413051803e+02 0.0000000000e+00 0.0000e+00 -1.0000e+00
       23  1    1    2    0    0 -5.7054169785e+01 +9.0647711763e+00 -1.3440700978e+00 1.0795557528e+02 9.1188000000e+01 0.0000e+00 0.0000e+00
       25  1    1    2    0    0 +5.7054169785e+01 -9.0647711763e+00 -1.2518575528e+00 1.3770953313e+02 1.2500000000e+02 0.0000e+00 0.0000e+00
</event>
<event>
 4      1 +2.1368000e-01 2.49975000e+02 7.54677100e-03 1.11332100e-01
      -11 -1    0    0    0    0 +0.0000000000e+00 +0.0000000000e+00 +1.2498837067e+02 1.2498837067e+02 0.0000000000e+00 0.0000e+00 -1.0000e+00
       11 -1    0    0    0    0 -0.0000000000e+00 -0.0000000000e+00 -1.2498662933e+02 1.2498662933e+02 0.0000000000e+00 0.0000e+00 1.0000e+00
       23  1    1    2    0    0 +6.1785629728e+01 +6.7672769154e+00 +1.5047171198e+00 1.1036655107e+02 9.1188000000e+01 0.0000e+00 0.0000e+00
       25  1    1    2    0    0 -6.1785629728e+01 -6.7672769154e+00 -1.5029757768e+00 1.3960844893e+02 1.2500000000e+02 0.0000e+00 0.0000e+00
</event>
<event>
 4      1 +2.1368000e-01 2.49377600e+02 7.54677100e-03 1.11369900e-01
      -11 -1    0    0    0    0 +0.0000000000e+00 +0.0000000000e+00 +1.2498274244e+02 1.2498274244e+02 0.0000000000e+00 0.0000e+00 -1.0000e+00
       11 -1    0    0    0    0 -0.0000000000e+00 -0.0000000000e+00 -1.2439557345e+02 1.2439557345e+02 0.0000000000e+00 0.0000e+00 1.0000e+00
       23  1    1    2    0    0 -5.6020846423e+01 +7.0883522518e+00 +2.4823185778e+01 1.1009097087e+02 9.1188000000e+01 0.0000e+00 -1.0000e+00
       25  1    1    2    0    0 +5.6020846423e+01 -7.0883522518e+00 -2.4236016782e+01 1.3928734501e+02 1.2500000000e+02 0.0000e+00 0.0000e+00
</event>
<event>
 4      1 +2.1368000e-01 2.49960400e+02 7.54677100e-03 1.11333000e-01
      -11 -1    0    0    0    0 +0.0000000000e+00 +0.0000000000e+00 +1.2497408463e+02 1.2497408463e+02 0.0000000000e+00 0.0000e+00 1.0000e+00
       11 -1    0    0    0    0 -0.0000000000e+00 -0.0000000000e+00 -1.2498627331e+02 1.2498627331e+02 0.0000000000e+00 0.0000e+00 -1.0000e+00
       23  1    1    2    0    0 -5.9727715036e+00 -4.5189918792e+01 -4.2265459088e+01 1.1036042378e+02 9.1188000000e+01 0.0000e+00 -1.0000e+00
       25  1    1    2    0    0 +5.9727715036e+00 +4.5189918792e+01 +4.2253270402e+01 1.3959993417e+02 1.2500000000e+02 0.0000e+00 0.0000e+00
</event>
<event>
 4      1 +2.1368000e-01 2.47527500e+02 7.54677100e-03 1.11487700e-01
      -11 -1    0    0    0    0 +0.0000000000e+00 +0.0000000000e+00 +1.2255239674e+02 1.2255239674e+02 0.0000000000e+00 0.0000e+00 1.0000e+00
       11 -1    0    0    0    0 -0.0000000000e+00 -0.0000000000e+00 -1.2498709838e+02 1.2498709838e+02 0.0000000000e+00 0.0000e+00 -1.0000e+00
       23  1    1    2    0    0 +1.3258054720e+00 +5.0731559061e+01 +3.0392316693e+01 1.0869403435e+02 9.1188000000e+01 0.0000e+00 1.0000e+00
       25  1    1    2    0    0 -1.3258054720e+00 -5.0731559061e+01 -3.2827018331e+01 1.3884546077e+02 1.2500000000e+02 0.0000e+00 0.0000e+00
</event>
<event>
 4      1 +2.1368000e-01 2.49515100e+02 7.54677100e-03 1.11361200e-01
      -11 -1    0    0    0    0 +0.0000000000e+00 +0.0000000000e+00 +1.2498805427e+02 1.2498805427e+02 0.0000000000e+00 0.0000e+00 -1.0000e+00
       11 -1    0    0    0    0 -0.0000000000e+00 -0.0000000000e+00 -1.2452744663e+02 1.2452744663e+02 0.0000000000e+00 0.0000e+00 1.0000e+00
       23  1    1    2    0    0 +5.4926048559e+01 -2.5348373191e+01 -1.2022468395e+01 1.1008724687e+02 9.1188000000e+01 0.0000e+00 -1.0000e+00
       25  1    1    2    0    0 -5.4926048559e+01 +2.5348373191e+01 +1.2483076029e+01 1.3942825403e+02 1.2500000000e+02 0.0000e+00 0.0000e+00
</event>
<event>
 4      1 +2.1368000e-01 2.49975000e+02 7.54677100e-03 1.11332100e-01
      -11 -1    0    0    0    0 +0.0000000000e+00 +0.0000000000e+00 +1.2498750000e+02 1.2498750000e+02 0.0000000000e+00 0.0000e+00 -1.0000e+00
       11 -1    0    0    0    0 -0.0000000000e+00 -0.0000000000e+00 -1.2498750000e+02 1.2498750000e+02 0.0000000000e+00 0.0000e+00 1.0000e+00
       23  1    1    2    0    0 -4.0755773423e+01 -4.7096999692e+00 +4.6715175234e+01 1.1036654059e+02 9.1188000000e+01 0.0000e+00 0.0000e+00
       25  1    1    2    0    0 +4.0755773423e+01 +4.7096999692e+00 -4.6715175234e+01 1.3960845941e+02 1.2500000000e+02 0.0000e+00 0.0000e+00
</event>
<event>
 4      1 +2.1368000e-01 2.49703200e+02 7.54677100e-03 1.11349300e-01
      -11 -1    0    0    0    0 +0.0000000000e+00 +0.0000000000e+00 +1.2471688769e+02 1.2471688769e+02 0.0000000000e+00 0.0000e+00 1.0000e+00
       11 -1    0    0    0    0 -0.0000000000e+00 -0.0000000000e+00 -1.2498650257e+02 1.2498650257e+02 0.0000000000e+00 0.0000e+00 -1.0000e+00
       23  1    1    2    0    0 -1.0475161317e+01 -5.1462561165e+01 +3.2651669263e+01 1.1017943118e+02 9.1188000000e+01 0.0000e+00 0.0000e+00
       25  1    1    2    0    0 +1.0475161317e+01 +5.1462561165e+01 -3.2921284147e+01 1.3952395908e+02 1.2500000000e+02 0.0000e+00 0.0000e+00
</event>
<event>
 4      1 +2.1368000e-01 2.49974000e+02 7.54677100e-03 1.11332100e-01
      -11 -1    0    0    0    0 +0.0000000000e+00 +0.0000000000e+00 +1.2498701503e+02 1.2498701503e+02 0.0000000000e+00 0.0000e+00 1.0000e+00
       11 -1    0    0    0    0 -0.0000000000e+00 -0.0000000000e+00 -1.2498701503e+02 1.2498701503e+02 0.0000000000e+00 0.0000e+00 -1.0000e+00
       23  1    1    2    0    0 +5.3528800522e+01 -2.9569144093e+01 +1.1213188601e+01 1.1036599889e+02 9.1188000000e+01 0.0000e+00 0.0000e+00
       25  1    1    2    0    0 -5.3528800522e+01 +2.9569144093e+01 -1.1213188601e+01 1.3960803117e+02 1.2500000000e+02 0.0000e+00 0.0000e+00
</event>
<event>
 4      1 +2.1368000e-01 2.44818100e+02 7.54677100e-03 1.11662400e-01
      -11 -1    0    0    0    0 +0.0000000000e+00 +0.0000000000e+00 +1.2498867711e+02 1.2498867711e+02 0.0000000000e+00 0.0000e+00 1.0000e+00
       11 -1    0    0    0    0 -0.0000000000e+00 -0.0000000000e+00 -1.1988264347e+02 1.1988264347e+02 0.0000000000e+00 0.0000e+00 -1.0000e+00
       23  1    1    2    0    0 +4.0771620283e+01 +2.6881532209e+01 -2.6949944163e+01 1.0689477363e+02 9.1188000000e+01 0.0000e+00 -1.0000e+00
       25  1    1    2    0    0 -4.0771620283e+01 -2.6881532209e+01 +3.2055977801e+01 1.3797654695e+02 1.2500000000e+02 0.0000e+00 0.0000e+00
</event>
<event>
 4      1 +2.1368000e-01 2.49975000e+02 7.54677100e-03 1.11332100e-01
      -11 -1    0    0    0    0 +0.0000000000e+00 +0.0000000000e+00 +1.2498749486e+02 1.2498749486e+02 0.0000000000e+00 0.0000e+00 -1.0000e+00
       11 -1    0    0    0    0 -0.0000000000e+00 -0.0000000000e+00 -1.2498749486e+02 1.2498749486e+02 0.0000000000e+00 0.0000e+00 1.0000e+00
       23  1    1    2    0    0 -2.9811859753e+01 -5.4533551577e+01 +1.6927616044e+00 1.1036653485e+02 9.1188000000e+01 0.0000e+00 0.0000e+00
       25  1    1    2    0    0 +2.9811859753e+01 +5.4533551577e+01 -1.6927616044e+00 1.3960845487e+02 1.2500000000e+02 0.0000e+00 0.0000e+00
</event>
<event>
 4      1 +2.1368000e-01 2.49900700e+02 7.54677100e-03 1.11336800e-01
      -11 -1    0    0    0    0 +0.0000000000e+00 +0.0000000000e+00 +1.2498779248e+02 1.2498779248e+02 0.0000000000e+00 0.0000e+00 -1.0000e+00
       11 -1    0    0    0    0 -0.0000000000e+00 -0.0000000000e+00 -1.2491293646e+02 1.2491293646e+02 0.0000000000e+00 0.0000e+00 1.0000e+00
       23  1    1    2    0    0 +3.8014289516e+01 +2.7105627931e+01 -4.0912831157e+01 1.1031279332e+02 9.1188000000e+01 0.0000e+00 1.0000e+00
       25  1    1    2    0    0 -3.8014289516e+01 -2.7105627931e+01 +4.0987687176e+01 1.3958793563e+02 1.2500000000e+02 0.0000e+00 0.0000e+00
</event>
<event>
 4      1 +2.1368000e-01 2.49580200e+02 7.54677100e-03 1.11357000e-01
      -11 -1    0    0    0    0 +0.0000000000e+00 +0.0000000000e+00 +1.2459377487e+02 1.2459377487e+02 0.0000000000e+00 0.0000e+00 -1.0000e+00
       11 -1    0    0    0    0 -0.0000000000e+00 -0.0000000000e+00 -1.2498670000e+02 1.2498670000e+02 0.0000000000e+00 0.0000e+00 1.0000e+00
       23  1    1    2    0    0 -4.5016264151e+01 -6.9690410878e+00 -4.1909018391e+01 1.1021183574e+02 9.1188000000e+01 0.0000e+00 1.0000e+00
       25  1    1    2    0    0 +4.5016264151e+01 +6.9690410878e+00 +4.1516093267e+01 1.3936863913e+02 1.2500000000e+02 0.0000e+00 0.0000e+00
</event>
<event>
 4      1 +2.1368000e-01 2.49974400e+02 7.54677100e-03 1.11332100e-01
      -11 -1    0    0    0    0 +0.0000000000e+00 +0.0000000000e+00 +1.2498719059e+02 1.2498719059e+02 0.0000000000e+00 0.0000e+00 1.0000e+00
       11 -1    0    0    0    0 -0.0000000000e+00 -0.0000000000e+00 -1.2498719059e+02 1.2498719059e+02 0.0000000000e+00 0.0000e+00 -1.0000e+00
       23  1    1    2    0    0 -2.4904026868e+01 -5.5607798796e+01 -1.2369632568e+01 1.1036619498e+02 9.1188000000e+01 0.0000e+00 -1.0000e+00
       25  1    1    2    0    0 +2.4904026868e+01 +5.5607798796e+01 +1.2369632568e+01 1.3960818619e+02 1.2500000000e+02 0.0000e+00 0.0000e+00
</event>
<event>
 4      1 +2.1368000e-01 2.49975000e+02 7.54677100e-03 1.11332100e-01
      -11 -1    0    0    0    0 +0.0000000000e+00 +0.0000000000e+00 +1.2498835442e+02 1.2498835442e+02 0.0000000000e+00 0.0000e+00 1.0000e+00
       11 -1    0    0    0    0 -0.0000000000e+00 -0.0000000000e+00 -1.2498661307e+02 1.2498661307e+02 0.0000000000e+00 0.0000e+00 -1.0000e+00
       23  1    1    2    0    0 -4.1683995981e+01 -2.0542740455e+01 -4.1302478309e+01 1.1036623471e+02 9.1188000000e+01 0.0000e+00 -1.0000e+00
       25  1    1    2    0    0 +4.1683995981e+01 +2.0542740455e+01 +4.1304219652e+01 1.3960873278e+02 1.2500000000e+02 0.0000e+00 0.0000e+00
</event>
<event>
 4      1 +2.1368000e-01 2.49751400e+02 7.54677100e-03 1.11346200e-01
      -11 -1    0    0    0    0 +0.0000000000e+00 +0.0000000000e+00 +1.2498795159e+02 1.2498795159e+02 0.0000000000e+00 0.0000e+00 -1.0000e+00
       11 -1    0    0    0    0 -0.0000000000e+00 -0.0000000000e+00 -1.2476351922e+02 1.2476351922e+02 0.0000000000e+00 0.0000e+00 1.0000e+00
       23  1    1    2    0    0 +2.6195881144e+01 +5.5618855047e+01 -7.5354154853e+00 1.1023481780e+02 9.1188000000e+01 0.0000e+00 0.0000e+00
       25  1    1    2    0    0 -2.6195881144e+01 -5.5618855047e+01 +7.7598478533e+00 1.3951665300e+02 1.2500000000e+02 0.0000e+00 0.0000e+00
</event>
<event>
 4      1 +2.1368000e-01 2.39750100e+02 7.54677100e-03 1.11995900e-01
      -11 -1    0    0    0    0 +0.0000000000e+00 +0.0000000000e+00 +1.2498835184e+02 1.2498835184e+02 0.0000000000e+00 0.0000e+00 -1.0000e+00
       11 -1    0    0    0    0 -0.0000000000e+00 -0.0000000000e+00 -1.1497097919e+02 1.1497097919e+02 0.0000000000e+00 0.0000e+00 1.0000e+00
       23  1    1    2    0    0 -4.6805530041e+01 +1.7525539424e+01 +1.5974971526e+01 1.0520624142e+02 9.1188000000e+01 0.0000e+00 0.0000e+00
       25  1    1    2    0    0 +4.6805530041e+01 -1.7525539424e+01 -5.9575988766e+00 1.3475308961e+02 1.2500000000e+02 0.0000e+00 0.0000e+00
</event>
<event>
 4      1 +2.1368000e-01 2.46091200e+02 7.54677100e-03 1.11580000e-01
      -11 -1    0    0    0    0 +0.0000000000e+00 +0.0000000000e+00 +1.2497534990e+02 1.2497534990e+02 0.0000000000e+00 0.0000e+00 -1.0000e+00
       11 -1    0    0    0    0 -0.0000000000e+00 -0.0000000000e+00 -1.2114562051e+02 1.2114562051e+02 0.0000000000e+00 0.0000e+00 1.0000e+00
       23  1    1    2    0    0 -1.4653477272e+01 -9.3343427396e+00 +5.7267527773e+01 1.0907188195e+02 9.1188000000e+01 0.0000e+00 -1.0000e+00
       25  1    1    2    0    0 +1.4653477272e+01 +9.3343427396e+00 -5.3437798388e+01 1.3704908846e+02 1.2500000000e+02 0.0000e+00 0.0000e+00
</event>
<event>
 4      1 +2.1368000e-01 2.49974800e+02 7.54677100e-03 1.11332100e-01
      -11 -1    0    0    0    0 +0.0000000000e+00 +0.0000000000e+00 +1.2498911989e+02 1.2498911989e+02 0.0000000000e+00 0.0000e+00 1.0000e+00
       11 -1    0    0    0    0 -0.0000000000e+00 -0.0000000000e+00 -1.2498563719e+02 1.2498563719e+02 0.0000000000e+00 0.0000e+00 -1.0000e+00
       23  1    1    2    0    0 -2.2391386810e+01 +5.3292794815e+01 -2.2889417041e+01 1.1036608600e+02 9.1188000000e+01 0.0000e+00 -1.0000e+00
       25  1    1    2    0    0 +2.2391386810e+01 -5.3292794815e+01 +2.2892899748e+01 1.3960867108e+02 1.2500000000e+02 0.0000e+00 0.0000e+00
</event>
<event>
 4      1 +2.1368000e-01 2.49872100e+02 7.54677100e-03 1.11338600e-01
      -11 -1    0    0    0    0 +0.0000000000e+00 +0.0000000000e+00 +1.2498740675e+02 1.2498740675e+02 0.0000000000e+00 0.0000e+00 -1.0000e+00
       11 -1    0    0    0    0 -0.0000000000e+00 -0.0000000000e+00 -1.2488470980e+02 1.2488470980e+02 0.0000000000e+00 0.0000e+00 1.0000e+00
       23  1    1    2    0    0 -6.3082606400e+00 +4.9743121471e+01 +3.6633133344e+01 1.1032411381e+02 9.1188000000e+01 0.0000e+00 0.0000e+00
       25  1    1    2    0    0 +6.3082606400e+00 -4.9743121471e+01 -3.6530436397e+01 1.3954800274e+02 1.2500000000e+02 0.0000e+00 0.0000e+00
</event>
<event>
 4      1 +2.1368000e-01 2.49959700e+02 7.54677100e-03 1.11333000e-01
      -11 -1    0    0    0    0 +0.0000000000e+00 +0.0000000000e+00 +1.2498766835e+02 1.2498766835e+02 0.0000000000e+00 0.0000e+00 1.0000e+00
       11 -1    0    0    0    0 -0.0000000000e+00 -0.0000000000e+00 -1.2497199722e+02 1.2497199722e+02 0.0000000000e+00 0.0000e+00 -1.0000e+00
       23  1    1    2    0    0 -5.0950355447e+01 -1.8913293707e+01 +3.0172796245e+01 1.1035986760e+02 9.1188000000e+01 0.0000e+00 0.0000e+00
       25  1    1    2    0    0 +5.0950355447e+01 +1.8913293707e+01 -3.0157125120e+01 1.3959979797e+02 1.2500000000e+02 0.0000e+00 0.0000e+00
</event>
<event>
 4      1 +2.1368000e-01 2.49458500e+02 7.54677100e-03 1.11364700e-01
      -11 -1    0    0    0    0 +0.0000000000e+00 +0.0000000000e+00 +1.2447320746e+02 1.2447320746e+02 0.0000000000e+00 0.0000e+00 1.0000e+00
       11 -1    0    0    0    0 -0.0000000000e+00 -0.0000000000e+00 -1.2498584335e+02 1.2498584335e+02 0.0000000000e+00 0.0000e+00 -1.0000e+00
       23  1    1    2    0    0 -1.2049170917e+01 +6.0308728395e+01 +4.2005873598e+00 1.1006916697e+02 9.1188000000e+01 0.0000e+00 0.0000e+00
       25  1    1    2    0    0 +1.2049170917e+01 -6.0308728395e+01 -4.7132232503e+00 1.3938988383e+02 1.2500000000e+02 0.0000e+00 0.0000e+00
</event>
<event>
 4      1 +2.1368000e-01 2.47422700e+02 7.54677100e-03 1.11494500e-01
      -11 -1    0    0    0    0 +0.0000000000e+00 +0.0000000000e+00 +1.2498811777e+02 1.2498811777e+02 0.0000000000e+00 0.0000e+00 -1.0000e+00
       11 -1    0    0    0    0 -0.0000000000e+00 -0.0000000000e+00 -1.2244757575e+02 1.2244757575e+02 0.0000000000e+00 0.0000e+00 1.0000e+00
       23  1    1    2    0    0 +1.3776461127e+01 -5.6987919850e+01 +1.1850334039e+01 1.0905547052e+02 9.1188000000e+01 0.0000e+00 1.0000e+00
       25  1    1    2    0    0 -1.3776461127e+01 +5.6987919850e+01 -9.3097920200e+00 1.3838022300e+02 1.2500000000e+02 0.0000e+00 0.0000e+00
</event>
<event>
 4      1 +2.1368000e-01 2.49975000e+02 7.54677100e-03 1.11332100e-01
      -11 -1    0    0    0    0 +0.0000000000e+00 +0.0000000000e+00 +1.2498837067e+02 1.2498837067e+02 0.0000000000e+00 0.0000e+00 -1.0000e+00
       11 -1    0    0    0    0 -0.0000000000e+00 -0.0000000000e+00 -1.2498662933e+02 1.2498662933e+02 0.0000000000e+00 0.0000e+00 1.0000e+00
       23  1    1    2    0    0 +3.6065108190e+01 +1.7286293465e+01 -4.7601898834e+01 1.1036620899e+02 9.1188000000e+01 0.0000e+00 1.0000e+00
       25  1    1    2    0    0 -3.6065108190e+01 -1.7286293465e+01 +4.7603640177e+01 1.3960879101e+02 1.2500000000e+02 0.0000e+00 0.0000e+00
</event>
<event>
 4      1 +2.1368000e-01 2.40488000e+02 7.54677100e-03 1.11946800e-01
      -11 -1    0    0    0    0 +0.0000000000e+00 +0.0000000000e+00 +1.1584294069e+02 1.1584294069e+02 0.0000000000e+00 0.0000e+00 -1.0000e+00
       11 -1    0    0    0    0 -0.0000000000e+00 -0.0000000000e+00 -1.2481231269e+02 1.2481231269e+02 0.0000000000e+00 0.0000e+00 1.0000e+00
       23  1    1    2    0    0 -9.0740223479e+00 -3.1745691709e+01 -4.4311062245e+01 1.0662480202e+02 9.1188000000e+01 0.0000e+00 1.0000e+00
       25  1    1    2    0    0 +9.0740223479e+00 +3.1745691709e+01 +3.5341690245e+01 1.3403045136e+02 1.2500000000e+02 0.0000e+00 0.0000e+00
</event>
<event>
 4      1 +2.1368000e-01 2.44790000e+02 7.54677100e-03 1.11664200e-01
      -11 -1    0    0    0    0 +0.0000000000e+00 +0.0000000000e+00 +1.1985639666e+02 1.1985639666e+02 0.0000000000e+00 0.0000e+00 -1.0000e+00
       11 -1    0    0    0    0 -0.0000000000e+00 -0.0000000000e+00 -1.2498739907e+02 1.2498739907e+02 0.0000000000e+00 0.0000e+00 1.0000e+00
       23  1    1    2    0    0 -3.4730278714e+01 -4.5001843744e+01 -8.4520386284e-01 1.0745847530e+02 9.1188000000e+01 0.0000e+00 -1.0000e+00
       25  1    1    2    0    0 +3.4730278714e+01 +4.5001843744e+01 -4.2857985493e+00 1.3738532043e+02 1.2500000000e+02 0.0000e+00 0.0000e+00
</event>
<event>
 4      1 +2.1368000e-01 2.49975000e+02 7.54677100e-03 1.11332100e-01
      -11 -1    0    0    0    0 +0.0000000000e+00 +0.0000000000e+00 +1.2498836694e+02 1.2498836694e+02 0.0000000000e+00 0.0000e+00 -1.0000e+00
       11 -1    0    0    0    0 -0.0000000000e+00 -0.0000000000e+00 -1.2498662560e+02 1.2498662560e+02 0.0000000000e+00 0.0000e+00 1.0000e+00
       23  1    1    2    0    0 -3.4422198703e+01 +5.0340770397e+01 -1.2100474494e+01 1.1036645213e+02 9.1188000000e+01 0.0000e+00 0.0000e+00
       25  1    1    2    0    0 +3.4422198703e+01 -5.0340770397e+01 +1.2102215837e+01 1.3960854041e+02 1.2500000000e+02 0.0000e+00 0.0000e+00
</event>
<event>
 4      1 +2.1368000e-01 2.42442100e+02 7.54677100e-03 1.11817700e-01
      -11 -1    0    0    0    0 +0.0000000000e+00 +0.0000000000e+00 +1.2498828155e+02 1.2498828155e+02 0.0000000000e+00 0.0000e+00 -1.0000e+00
       11 -1    0    0    0    0 -0.0000000000e+00 -0.0000000000e+00 -1.1756738205e+02 1.1756738205e+02 0.0000000000e+00 0.0000e+00 1.0000e+00
       23  1    1    2    0    0 +2.1258594985e+01 +6.9443964400e+00 +5.2785127839e+01 1.0771106521e+02 9.1188000000e+01 0.0000e+00 -1.0000e+00
       25  1    1    2    0    0 -2.1258594985e+01 -6.9443964400e+00 -4.5364228342e+01 1.3484459839e+02 1.2500000000e+02 0.0000e+00 0.0000e+00
</event>
<event>
 4      1 +2.1368000e-01 2.49856900e+02 7.54677100e-03 1.11339500e-01
      -11 -1    0    0    0    0 +0.0000000000e+00 +0.0000000000e+00 +1.2487014415e+02 1.2487014415e+02 0.0000000000e+00 0.0000e+00 -1.0000e+00
       11 -1    0    0    0    0 -0.0000000000e+00 -0.0000000000e+00 -1.2498675901e+02 1.2498675901e+02 0.0000000000e+00 0.0000e+00 1.0000e+00
       23  1    1    2    0    0 +5.1128659429e+01 -3.4817986384e+01 +4.9014570712e+00 1.1029826661e+02 9.1188000000e+01 0.0000e+00 -1.0000e+00
       25  1    1    2    0    0 -5.1128659429e+01 +3.4817986384e+01 -5.0180719278e+00 1.3955863655e+02 1.2500000000e+02 0.0000e+00 0.0000e+00
</event>
<event>
 4      1 +2.1368000e-01 2.49959400e+02 7.54677100e-03 1.11333100e-01
      -11 -1    0    0    0    0 +0.0000000000e+00 +0.0000000000e+00 +1.2498142122e+02 1.2498142122e+02 0.0000000000e+00 0.0000e+00 1.0000e+00
       11 -1    0    0    0    0 -0.0000000000e+00 -0.0000000000e+00 -1.2497793873e+02 1.2497793873e+02 0.0000000000e+00 0.0000e+00 -1.0000e+00
       23  1    1    2    0    0 +2.7188313422e+01 +4.0067871103e+01 +3.8975314054e+01 1.1035834872e+02 9.1188000000e+01 0.0000e+00 0.0000e+00
       25  1    1    2    0    0 -2.7188313422e+01 -4.0067871103e+01 -3.8971831562e+01 1.3960101123e+02 1.2500000000e+02 0.0000e+00 0.0000e+00
</event>
<event>
 4      1 +2.1368000e-01 2.49975000e+02 7.54677100e-03 1.11332100e-01
      -11 -1    0    0    0    0 +0.0000000000e+00 +0.0000000000e+00 +1.2498837067e+02 1.2498837067e+02 0.0000000000e+00 0.0000e+00 1.0000e+00
       11 -1    0    0    0    0 -0.0000000000e+00 -0.0000000000e+00 -1.2498662933e+02 1.2498662933e+02 0.0000000000e+00 0.0000e+00 -1.0000e+00
       23  1    1    2    0    0 -2.8492464841e+01 -9.5984913842e+00 +5.4421080734e+01 1.1036691969e+02 9.1188000000e+01 0.0000e+00 1.0000e+00
       25  1    1    2    0    0 +2.8492464841e+01 +9.5984913842e+00 -5.4419339391e+01 1.3960808032e+02 1.2500000000e+02 0.0000e+00 0.0000e+00
</event>
<event>
 4      1 +2.1368000e-01 2.49975000e+02 7.54677100e-03 1.11332100e-01
      -11 -1    0    0    0    0 +0.0000000000e+00 +0.0000000000e+00 +1.2498750000e+02 1.2498750000e+02 0.0000000000e+00 0.0000e+00 -1.0000e+00
       11 -1    0    0    0    0 -0.0000000000e+00 -0.0000000000e+00 -1.2498750000e+02 1.2498750000e+02 0.0000000000e+00 0.0000e+00 1.0000e+00
       23  1    1    2    0    0 +7.4022689789e+00 -4.0406802544e+01 -4.6669247481e+01 1.1036654059e+02 9.1188000000e+01 0.0000e+00 0.0000e+00
       25  1    1    2    0    0 -7.4022689789e+00 +4.0406802544e+01 +4.6669247481e+01 1.3960845941e+02 1.2500000000e+02 0.0000e+00 0.0000e+00
</event>
<event>
 4      1 +2.1368000e-01 2.46300700e+02 7.54677100e-03 1.11566500e-01
      -11 -1    0    0    0    0 +0.0000000000e+00 +0.0000000000e+00 +1.2178283522e+02 1.2178283522e+02 0.0000000000e+00 0.0000e+00 1.0000e+00
       11 -1    0    0    0    0 -0.0000000000e+00 -0.0000000000e+00 -1.2453319638e+02 1.2453319638e+02 0.0000000000e+00 0.0000e+00 -1.0000e+00
       23  1    1    2    0    0 +2.8191496569e+01 -5.0565807245e+01 +6.8170359842e+00 1.0822839121e+02 9.1188000000e+01 0.0000e+00 1.0000e+00
       25  1    1    2    0    0 -2.8191496569e+01 +5.0565807245e+01 -9.5673971454e+00 1.3808764039e+02 1.2500000000e+02 0.0000e+00 0.0000e+00
</event>
<event>
 4      1 +2.1368000e-01 2.49974900e+02 7.54677100e-03 1.11332100e-01
      -11 -1    0    0    0    0 +0.0000000000e+00 +0.0000000000e+00 +1.2498833943e+02 1.2498833943e+02 0.0000000000e+00 0.0000e+00 1.0000e+00
       11 -1    0    0    0    0 -0.0000000000e+00 -0.0000000000e+00 -1.2498659808e+02 1.2498659808e+02 0.0000000000e+00 0.0000e+00 -1.0000e+00
       23  1    1    2    0    0 +2.2961001494e+01 +5.4700076489e+01 +1.8607441722e+01 1.1036663531e+02 9.1188000000e+01 0.0000e+00 1.0000e+00
       25  1    1    2    0    0 -2.2961001494e+01 -5.4700076489e+01 -1.8605700380e+01 1.3960830220e+02 1.2500000000e+02 0.0000e+00 0.0000e+00
</event>
<event>
 4      1 +2.1368000e-01 2.49975000e+02 7.54677100e-03 1.11332100e-01
      -11 -1    0    0    0    0 +0.0000000000e+00 +0.0000000000e+00 +1.2498837064e+02 1.2498837064e+02 0.0000000000e+00 0.0000e+00 -1.0000e+00
       11 -1    0    0    0    0 -0.0000000000e+00 -0.0000000000e+00 -1.2498662929e+02 1.2498662929e+02 0.0000000000e+00 0.0000e+00 1.0000e+00
       23  1    1    2    0    0 -3.2772924265e+01 -5.2645229202e+01 -4.4643410332e+00 1.1036650945e+02 9.1188000000e+01 0.0000e+00 0.0000e+00
       25  1    1    2    0    0 +3.2772924265e+01 +5.2645229202e+01 +4.4660823761e+00 1.3960849048e+02 1.2500000000e+02 0.0000e+00 0.0000e+00
</event>
<event>
 4      1 +2.1368000e-01 2.49781300e+02 7.54677100e-03 1.11344300e-01
      -11 -1    0    0    0    0 +0.0000000000e+00 +0.0000000000e+00 +1.2484888269e+02 1.2484888269e+02 0.0000000000e+00 0.0000e+00 -1.0000e+00
       11 -1    0    0    0    0 -0.0000000000e+00 -0.0000000000e+00 -1.2493240296e+02 1.2493240296e+02 0.0000000000e+00 0.0000e+00 1.0000e+00
       23  1    1    2    0    0 +2.6277409068e+01 -5.5050455012e+01 -1.1018425760e+01 1.1026201465e+02 9.1188000000e+01 0.0000e+00 1.0000e+00
       25  1    1    2    0    0 -2.6277409068e+01 +5.5050455012e+01 +1.0934905491e+01 1.3951927101e+02 1.2500000000e+02 0.0000e+00 0.0000e+00
</event>
<event>
 4      1 +2.1368000e-01 2.40708800e+02 7.54677100e-03 1.11932200e-01
      -11 -1    0    0    0    0 +0.0000000000e+00 +0.0000000000e+00 +1.2498775688e+02 1.2498775688e+02 0.0000000000e+00 0.0000e+00 -1.0000e+00
       11 -1    0    0    0    0 -0.0000000000e+00 -0.0000000000e+00 -1.1589279926e+02 1.1589279926e+02 0.0000000000e+00 0.0000e+00 1.0000e+00
       23  1    1    2    0    0 -9.3649213233e+00 +2.5788236083e+01 +4.8647180836e+01 1.0693238246e+02 9.1188000000e+01 0.0000e+00 -1.0000e+00
       25  1    1    2    0    0 +9.3649213233e+00 -2.5788236083e+01 -3.9552223219e+01 1.3394817368e+02 1.2500000000e+02 0.0000e+00 0.0000e+00
</event>
<event>
 4      1 +2.1368000e-01 2.49742200e+02 7.54677100e-03 1.11346800e-01
      -11 -1    0    0    0    0 +0.0000000000e+00 +0.0000000000e+00 +1.2498773317e+02 1.2498773317e+02 0.0000000000e+00 0.0000e+00 1.0000e+00
       11 -1    0    0    0    0 -0.0000000000e+00 -0.0000000000e+00 -1.2475461039e+02 1.2475461039e+02 0.0000000000e+00 0.0000e+00 -1.0000e+00
       23  1    1    2    0    0 -4.3252734744e+01 +1.0412140266e+01 -4.2997346365e+01 1.1019634688e+02 9.1188000000e+01 0.0000e+00 -1.0000e+00
       25  1    1    2    0    0 +4.3252734744e+01 -1.0412140266e+01 +4.3230469143e+01 1.3954599668e+02 1.2500000000e+02 0.0000e+00 0.0000e+00
</event>
<event>
 4      1 +2.1368000e-01 2.49964400e+02 7.54677100e-03 1.11332700e-01
      -11 -1    0    0    0    0 +0.0000000000e+00 +0.0000000000e+00 +1.2498743499e+02 1.2498743499e+02 0.0000000000e+00 0.0000e+00 1.0000e+00
       11 -1    0    0    0    0 -0.0000000000e+00 -0.0000000000e+00 -1.2497698730e+02 1.2497698730e+02 0.0000000000e+00 0.0000e+00 -1.0000e+00
       23  1    1    2    0    0 -1.2811809024e+01 -5.8369074510e+01 +1.7125554294e+01 1.1036134859e+02 9.1188000000e+01 0.0000e+00 0.0000e+00
       25  1    1    2    0    0 +1.2811809024e+01 +5.8369074510e+01 -1.7115106605e+01 1.3960307369e+02 1.2500000000e+02 0.0000e+00 0.0000e+00
</event>
<event>
 4      1 +2.1368000e-01 2.49453100e+02 7.54677100e-03 1.11365100e-01
      -11 -1    0    0    0    0 +0.0000000000e+00 +0.0000000000e+00 +1.2498749868e+02 1.2498749868e+02 0.0000000000e+00 0.0000e+00 1.0000e+00
       11 -1    0    0    0    0 -0.0000000000e+00 -0.0000000000e+00 -1.2446618164e+02 1.2446618164e+02 0.0000000000e+00 0.0000e+00 -1.0000e+00
       23  1    1    2    0    0 +2.6090120211e+01 -1.8023058444e+01 +5.3104854227e+01 1.1018576085e+02 9.1188000000e+01 0.0000e+00 1.0000e+00
       25  1    1    2    0    0 -2.6090120211e+01 +1.8023058444e+01 -5.2583537185e+01 1.3926791946e+02 1.2500000000e+02 0.0000e+00 0.0000e+00
</event>
<event>
 4      1 +2.1368000e-01 2.49975000e+02 7.54677100e-03 1.11332100e-01
      -11 -1    0    0    0    0 +0.0000000000e+00 +0.0000000000e+00 +1.2498837046e+02 1.2498837046e+02 0.0000000000e+00 0.0000e+00 1.0000e+00
       11 -1    0    0    0    0 -0.0000000000e+00 -0.0000000000e+00 -1.2498662912e+02 1.2498662912e+02 0.0000000000e+00 0.0000e+00 -1.0000e+00
       23  1    1    2    0    0 +2.4013786713e+01 +5.7295083485e+01 +2.4773271756e+00 1.1036655761e+02 9.1188000000e+01 0.0000e+00 0.0000e+00
       25  1    1    2    0    0 -2.4013786713e+01 -5.7295083485e+01 -2.4755858326e+00 1.3960844197e+02 1.2500000000e+02 0.0000e+00 0.0000e+00
</event>
<event>
 4      1 +2.1368000e-01 2.21959700e+02 7.54677100e-03 1.13243000e-01
      -11 -1    0    0    0    0 +0.0000000000e+00 +0.0000000000e+00 +9.9396448543e+01 9.9396448543e+01 0.0000000000e+00 0.0000e+00 -1.0000e+00
       11 -1    0    0    0    0 -0.0000000000e+00 -0.0000000000e+00 -1.2391312591e+02 1.2391312591e+02 0.0000000000e+00 0.0000e+00 1.0000e+00
       23  1    1    2    0    0 -1.7543571250e+01 -3.0702021194e+00 +6.9961225670e+00 9.3174031297e+01 9.1188000000e+01 0.0000e+00 -1.0000e+00
       25  1    1    2    0    0 +1.7543571250e+01 +3.0702021194e+00 -3.1512799938e+01 1.3013554316e+02 1.2500000000e+02 0.0000e+00 0.0000e+00
</event>
<event>
 4      1 +2.1368000e-01 2.49913500e+02 7.54677100e-03 1.11336000e-01
      -11 -1    0    0    0    0 +0.0000000000e+00 +0.0000000000e+00 +1.2492626642e+02 1.2492626642e+02 0.0000000000e+00 0.0000e+00 1.0000e+00
       11 -1    0    0    0    0 -0.0000000000e+00 -0.0000000000e+00 -1.2498719884e+02 1.2498719884e+02 0.0000000000e+00 0.0000e+00 -1.0000e+00
       23  1    1    2    0    0 +1.6449436406e+01 -1.4287568567e+01 +5.8138534286e+01 1.1031799077e+02 9.1188000000e+01 0.0000e+00 1.0000e+00
       25  1    1    2    0    0 -1.6449436406e+01 +1.4287568567e+01 -5.8199466709e+01 1.3959547449e+02 1.2500000000e+02 0.0000e+00 0.0000e+00
</event>
<event>
 4      1 +2.1368000e-01 2.49975000e+02 7.54677100e-03 1.11332100e-01
      -11 -1    0    0    0    0 +0.0000000000e+00 +0.0000000000e+00 +1.2498750000e+02 1.2498750000e+02 0.0000000000e+00 0.0000e+00 1.0000e+00
       11 -1    0    0    0    0 -0.0000000000e+00 -0.0000000000e+00 -1.2498750000e+02 1.2498750000e+02 0.0000000000e+00 0.0000e+00 -1.0000e+00
       23  1    1    2    0    0 +4.6240627325e+00 -4.4639043864e+01 -4.3029010501e+01 1.1036654059e+02 9.1188000000e+01 0.0000e+00 -1.0000e+00
       25  1    1    2    0    0 -4.6240627325e+00 +4.4639043864e+01 +4.3029010501e+01 1.3960845941e+02 1.2500000000e+02 0.0000e+00 0.0000e+00
</event>
<event>
 4      1 +2.1368000e-01 2.49104800e+02 7.54677100e-03 1.11387200e-01
      -11 -1    0    0    0    0 +0.0000000000e+00 +0.0000000000e+00 +1.2411934518e+02 1.2411934518e+02 0.0000000000e+00 0.0000e+00 1.0000e+00
       11 -1    0    0    0    0 -0.0000000000e+00 -0.0000000000e+00 -1.2498698499e+02 1.2498698499e+02 0.0000000000e+00 0.0000e+00 -1.0000e+00
       23  1    1    2    0    0 +5.0602732158e+01 +3.1574399193e+01 +1.3790105406e+01 1.0983167821e+02 9.1188000000e+01 0.0000e+00 1.0000e+00
       25  1    1    2    0    0 -5.0602732158e+01 -3.1574399193e+01 -1.4657745215e+01 1.3927465197e+02 1.2500000000e+02 0.0000e+00 0.0000e+00
</event>
<event>
 4      1 +2.1368000e-01 2.49291200e+02 7.54677100e-03 1.11375400e-01
      -11 -1    0    0    0    0 +0.0000000000e+00 +0.0000000000e+00 +1.2430483017e+02 1.2430483017e+02 0.0000000000e+00 0.0000e+00 1.0000e+00
       11 -1    0    0    0    0 -0.0000000000e+00 -0.0000000000e+00 -1.2498730849e+02 1.2498730849e+02 0.0000000000e+00 0.0000e+00 -1.0000e+00
       23  1    1    2    0    0 -4.8650391707e+01 -3.7181573308e+01 -5.9595043180e+00 1.1000044110e+02 9.1188000000e+01 0.0000e+00 0.0000e+00
       25  1    1    2    0    0 +4.8650391707e+01 +3.7181573308e+01 +5.2770259964e+00 1.3929169756e+02 1.2500000000e+02 0.0000e+00 0.0000e+00
</event>
<event>
 4      1 +2.1368000e-01 2.38882000e+02 7.54677100e-03 1.12054000e-01
      -11 -1    0    0    0    0 +0.0000000000e+00 +0.0000000000e+00 +1.2498810142e+02 1.2498810142e+02 0.0000000000e+00 0.0000e+00 -1.0000e+00
       11 -1    0    0    0    0 -0.0000000000e+00 -0.0000000000e+00 -1.1414004612e+02 1.1414004612e+02 0.0000000000e+00 0.0000e+00 1.0000e+00
       23  1    1    2    0    0 -1.2461241941e+01 -3.2385553522e+01 +4.1181081102e+01 1.0590202742e+02 9.1188000000e+01 0.0000e+00 -1.0000e+00
       25  1    1    2    0    0 +1.2461241941e+01 +3.2385553522e+01 -3.0333025808e+01 1.3322612012e+02 1.2500000000e+02 0.0000e+00 0.0000e+00
</event>
<event>
 4      1 +2.1368000e-01 2.41425700e+02 7.54677100e-03 1.11884700e-01
      -11 -1    0    0    0    0 +0.0000000000e+00 +0.0000000000e+00 +1.2498877243e+02 1.2498877243e+02 0.0000000000e+00 0.0000e+00 1.0000e+00
       11 -1    0    0    0    0 -0.0000000000e+00 -0.0000000000e+00 -1.1658319802e+02 1.1658319802e+02 0.0000000000e+00 0.0000e+00 -1.0000e+00
       23  1    1    2    0    0 +2.6670713971e+01 -3.3783327799e+01 +3.4967740652e+01 1.0672691531e+02 9.1188000000e+01 0.0000e+00 1.0000e+00
       25  1    1    2    0    0 -2.6670713971e+01 +3.3783327799e+01 -2.6562166241e+01 1.3484505514e+02 1.2500000000e+02 0.0000e+00 0.0000e+00
</event>
<event>
 4      1 +2.1368000e-01 2.49974900e+02 7.54677100e-03 1.11332100e-01
      -11 -1    0    0    0    0 +0.0000000000e+00 +0.0000000000e+00 +1.2498743662e+02 1.2498743662e+02 0.0000000000e+00 0.0000e+00 -1.0000e+00
       11 -1    0    0    0    0 -0.0000000000e+00 -0.0000000000e+00 -1.2498743662e+02 1.2498743662e+02 0.0000000000e+00 0.0000e+00 1.0000e+00
       23  1    1    2    0    0 -6.1804771200e+01 -4.9685134745e+00 -4.5815326530e+00 1.1036646979e+02 9.1188000000e+01 0.0000e+00 1.0000e+00
       25  1    1    2    0    0 +6.1804771200e+01 +4.9685134745e+00 +4.5815326530e+00 1.3960840344e+02 1.2500000000e+02 0.0000e+00 0.0000e+00
</event>
<event>
 4      1 +2.1368000e-01 2.41802300e+02 7.54677100e-03 1.11859800e-01
      -11 -1    0    0    0    0 +0.0000000000e+00 +0.0000000000e+00 +1.1694809972e+02 1.1694809972e+02 0.0000000000e+00 0.0000e+00 1.0000e+00
       11 -1    0    0    0    0 -0.0000000000e+00 -0.0000000000e+00 -1.2498787100e+02 1.2498787100e+02 0.0000000000e+00 0.0000e+00 -1.0000e+00
       23  1    1    2    0    0 -3.9697419750e+00 -5.2272347085e+01 +7.7706905001e+00 1.0546938938e+02 9.1188000000e+01 0.0000e+00 0.0000e+00
       25  1    1    2    0    0 +3.9697419750e+00 +5.2272347085e+01 -1.5810461777e+01 1.3646658134e+02 1.2500000000e+02 0.0000e+00 0.0000e+00
</event>
<event>
 4      1 +2.1368000e-01 2.49267800e+02 7.54677100e-03 1.11376800e-01
      -11 -1    0    0    0    0 +0.0000000000e+00 +0.0000000000e+00 +1.2498864133e+02 1.2498864133e+02 0.0000000000e+00 0.0000e+00 1.0000e+00
       11 -1    0    0    0    0 -0.0000000000e+00 -0.0000000000e+00 -1.2428018049e+02 1.2428018049e+02 0.0000000000e+00 0.0000e+00 -1.0000e+00
       23  1    1    2    0    0 -1.6457143119e+01 -1.6372700162e+01 +5.7230003413e+01 1.1013368016e+02 9.1188000000e+01 0.0000e+00 1.0000e+00
       25  1    1    2    0    0 +1.6457143119e+01 +1.6372700162e+01 -5.6521542571e+01 1.3913514166e+02 1.2500000000e+02 0.0000e+00 0.0000e+00
</event>
<event>
 4      1 +2.1368000e-01 2.38833800e+02 7.54677100e-03 1.12057200e-01
      -11 -1    0    0    0    0 +0.0000000000e+00 +0.0000000000e+00 +1.2497075949e+02 1.2497075949e+02 0.0000000000e+00 0.0000e+00 1.0000e+00
       11 -1    0    0    0    0 -0.0000000000e+00 -0.0000000000e+00 -1.1410988551e+02 1.1410988551e+02 0.0000000000e+00 0.0000e+00 -1.0000e+00
       23  1    1    2    0    0 +2.9233859654e+01 +2.8597129833e+01 -2.4485365414e+01 1.0289411474e+02 9.1188000000e+01 0.0000e+00 -1.0000e+00
       25  1    1    2    0    0 -2.9233859654e+01 -2.8597129833e+01 +3.5346239385e+01 1.3618653026e+02 1.2500000000e+02 0.0000e+00 0.0000e+00
</event>
<event>
 4      1 +2.1368000e-01 2.49462500e+02 7.54677100e-03 1.11364500e-01
      -11 -1    0    0    0    0 +0.0000000000e+00 +0.0000000000e+00 +1.2449341542e+02 1.2449341542e+02 0.0000000000e+00 0.0000e+00 1.0000e+00
       11 -1    0    0    0    0 -0.0000000000e+00 -0.0000000000e+00 -1.2496956941e+02 1.2496956941e+02 0.0000000000e+00 0.0000e+00 -1.0000e+00
       23  1    1    2    0    0 +5.4506610128e+01 +1.6818369424e+01 +2.3211851874e+01 1.1003576468e+02 9.1188000000e+01 0.0000e+00 -1.0000e+00
       25  1    1    2    0    0 -5.4506610128e+01 -1.6818369424e+01 -2.3688005866e+01 1.3942722015e+02 1.2500000000e+02 0.0000e+00 0.0000e+00
</event>
<event>
 4      1 +2.1368000e-01 2.49975000e+02 7.54677100e-03 1.11332100e-01
      -11 -1    0    0    0    0 +0.0000000000e+00 +0.0000000000e+00 +1.2498749999e+02 1.2498749999e+02 0.0000000000e+00 0.0000e+00 1.0000e+00
       11 -1    0    0    0    0 -0.0000000000e+00 -0.0000000000e+00 -1.2498749999e+02 1.2498749999e+02 0.0000000000e+00 0.0000e+00 -1.0000e+00
       23  1    1    2    0    0 -1.0553975072e+01 -3.8444786922e+01 +4.7708845144e+01 1.1036654058e+02 9.1188000000e+01 0.0000e+00 1.0000e+00
       25  1    1    2    0    0 +1.0553975072e+01 +3.8444786922e+01 -4.7708845144e+01 1.3960845940e+02 1.2500000000e+02 0.0000e+00 0.0000e+00
</event>
<event>
 4      1 +2.1368000e-01 2.49966700e+02 7.54677100e-03 1.11332600e-01
      -11 -1    0    0    0    0 +0.0000000000e+00 +0.0000000000e+00 +1.2498769003e+02 1.2498769003e+02 0.0000000000e+00 0.0000e+00 1.0000e+00
       11 -1    0    0    0    0 -0.0000000000e+00 -0.0000000000e+00 -1.2497898361e+02 1.2497898361e+02 0.0000000000e+00 0.0000e+00 -1.0000e+00
       23  1    1    2    0    0 +4.3559138465e+01 +1.6387888107e+01 -4.1209431464e+01 1.1036045490e+02 9.1188000000e+01 0.0000e+00 0.0000e+00
       25  1    1    2    0    0 -4.3559138465e+01 -1.6387888107e+01 +4.1218137889e+01 1.3960621874e+02 1.2500000000e+02 0.0000e+00 0.0000e+00
</event>
<event>
 4      1 +2.1368000e-01 2.47511600e+02 7.54677100e-03 1.11488800e-01
      -11 -1    0    0    0    0 +0.0000000000e+00 +0.0000000000e+00 +1.2486683523e+02 1.2486683523e+02 0.0000000000e+00 0.0000e+00 1.0000e+00
       11 -1    0    0    0    0 -0.0000000000e+00 -0.0000000000e+00 -1.2265469709e+02 1.2265469709e+02 0.0000000000e+00 0.0000e+00 -1.0000e+00
       23  1    1    2    0    0 -2.8416751738e+01 +4.9572041314e+01 -1.6304555835e+01 1.0883928034e+02 9.1188000000e+01 0.0000e+00 -1.0000e+00
       25  1    1    2    0    0 +2.8416751738e+01 -4.9572041314e+01 +1.8516693967e+01 1.3868225198e+02 1.2500000000e+02 0.0000e+00 0.0000e+00
</event>
<event>
 4      1 +2.1368000e-01 2.28533200e+02 7.54677100e-03 1.12767600e-01
      -11 -1    0    0    0    0 +0.0000000000e+00 +0.0000000000e+00 +1.1483956702e+02 1.1483956702e+02 0.0000000000e+00 0.0000e+00 -1.0000e+00
       11 -1    0    0    0    0 -0.0000000000e+00 -0.0000000000e+00 -1.1369652835e+02 1.1369652835e+02 0.0000000000e+00 0.0000e+00 1.0000e+00
       23  1    1    2    0    0 -7.2191104641e+00 -3.5740205367e+01 +4.1005287333e+00 9.8293150908e+01 9.1188000000e+01 0.0000e+00 -1.0000e+00
       25  1    1    2    0    0 +7.2191104641e+00 +3.5740205367e+01 -2.9574900618e+00 1.3024294447e+02 1.2500000000e+02 0.0000e+00 0.0000e+00
</event>
<event>
 4      1 +2.1368000e-01 2.49885000e+02 7.54677100e-03 1.11337800e-01
      -11 -1    0    0    0    0 +0.0000000000e+00 +0.0000000000e+00 +1.2496164297e+02 1.2496164297e+02 0.0000000000e+00 0.0000e+00 1.0000e+00
       11 -1    0    0    0    0 -0.0000000000e+00 -0.0000000000e+00 -1.2492334749e+02 1.2492334749e+02 0.0000000000e+00 0.0000e+00 -1.0000e+00
       23  1    1    2    0    0 +5.2783976383e+00 -5.2554728083e+01 +3.2644604068e+01 1.1032126923e+02 9.1188000000e+01 0.0000e+00 0.0000e+00
       25  1    1    2    0    0 -5.2783976383e+00 +5.2554728083e+01 -3.2606308585e+01 1.3956372124e+02 1.2500000000e+02 0.0000e+00 0.0000e+00
</event>
<event>
 4      1 +2.1368000e-01 2.49666400e+02 7.54677100e-03 1.11351600e-01
      -11 -1    0    0    0    0 +0.0000000000e+00 +0.0000000000e+00 +1.2474106505e+02 1.2474106505e+02 0.0000000000e+00 0.0000e+00 1.0000e+00
       11 -1    0    0    0    0 -0.0000000000e+00 -0.0000000000e+00 -1.2492541960e+02 1.2492541960e+02 0.0000000000e+00 0.0000e+00 -1.0000e+00
       23  1    1    2    0    0 -3.1122400924e+01 -2.6772933529e+01 +4.6201596692e+01 1.1016003218e+02 9.1188000000e+01 0.0000e+00 1.0000e+00
       25  1    1    2    0    0 +3.1122400924e+01 +2.6772933529e+01 -4.6385951233e+01 1.3950645247e+02 1.2500000000e+02 0.0000e+00 0.0000e+00
</event>
<event>
 4      1 +2.1368000e-01 2.23013200e+02 7.54677100e-03 1.13165600e-01
      -11 -1    0    0    0    0 +0.0000000000e+00 +0.0000000000e+00 +9.9480530216e+01 9.9480530216e+01 0.0000000000e+00 0.0000e+00 1.0000e+00
       11 -1    0    0    0    0 -0.0000000000e+00 -0.0000000000e+00 -1.2498644644e+02 1.2498644644e+02 0.0000000000e+00 0.0000e+00 -1.0000e+00
       23  1    1    2    0    0 +2.5414590099e+01 +8.1460979238e+00 -6.3865133230e+00 9.5227617831e+01 9.1188000000e+01 0.0000e+00 1.0000e+00
       25  1    1    2    0    0 -2.5414590099e+01 -8.1460979238e+00 -1.9119402896e+01 1.2923935882e+02 1.2500000000e+02 0.0000e+00 0.0000e+00
</event>
<event>
 4      1 +2.1368000e-01 2.41345900e+02 7.54677100e-03 1.11889900e-01
      -11 -1    0    0    0    0 +0.0000000000e+00 +0.0000000000e+00 +1.2498833536e+02 1.2498833536e+02 0.0000000000e+00 0.0000e+00 1.0000e+00
       11 -1    0    0    0    0 -0.0000000000e+00 -0.0000000000e+00 -1.1650654271e+02 1.1650654271e+02 0.0000000000e+00 0.0000e+00 -1.0000e+00
       23  1    1    2    0    0 -1.1367073547e+01 -1.0556182600e+01 -4.7121510004e+01 1.0380911040e+02 9.1188000000e+01 0.0000e+00 -1.0000e+00
       25  1    1    2    0    0 +1.1367073547e+01 +1.0556182600e+01 +5.5603302654e+01 1.3768576767e+02 1.2500000000e+02 0.0000e+00 0.0000e+00
</event>
<event>
 4      1 +2.1368000e-01 2.49877000e+02 7.54677100e-03 1.11338300e-01
      -11 -1    0    0    0    0 +0.0000000000e+00 +0.0000000000e+00 +1.2489065530e+02 1.2489065530e+02 0.0000000000e+00 0.0000e+00 1.0000e+00
       11 -1    0    0    0    0 -0.0000000000e+00 -0.0000000000e+00 -1.2498639163e+02 1.2498639163e+02 0.0000000000e+00 0.0000e+00 -1.0000e+00
       23  1    1    2    0    0 -3.0947326820e+01 -4.2278962693e+01 +3.3247362415e+01 1.1029907604e+02 9.1188000000e+01 0.0000e+00 1.0000e+00
       25  1    1    2    0    0 +3.0947326820e+01 +4.2278962693e+01 -3.3343098747e+01 1.3957797089e+02 1.2500000000e+02 0.0000e+00 0.0000e+00
</event>
<event>
 4      1 +2.1368000e-01 2.49971100e+02 7.54677100e-03 1.11332300e-01
      -11 -1    0    0    0    0 +0.0000000000e+00 +0.0000000000e+00 +1.2498727422e+02 1.2498727422e+02 0.0000000000e+00 0.0000e+00 1.0000e+00
       11 -1    0    0    0    0 -0.0000000000e+00 -0.0000000000e+00 -1.2498379157e+02 1.2498379157e+02 0.0000000000e+00 0.0000e+00 -1.0000e+00
       23  1    1    2    0    0 +1.4661413696e+01 -1.7571384470e+01 -5.7802669301e+01 1.1036353803e+02 9.1188000000e+01 0.0000e+00 -1.0000e+00
       25  1    1    2    0    0 -1.4661413696e+01 +1.7571384470e+01 +5.7806151956e+01 1.3960752776e+02 1.2500000000e+02 0.0000e+00 0.0000e+00
</event>
<event>
 4      1 +2.1368000e-01 2.49840700e+02 7.54677100e-03 1.11340600e-01
      -11 -1    0    0    0    0 +0.0000000000e+00 +0.0000000000e+00 +1.2485335607e+02 1.2485335607e+02 0.0000000000e+00 0.0000e+00 1.0000e+00
       11 -1    0    0    0    0 -0.0000000000e+00 -0.0000000000e+00 -1.2498736745e+02 1.2498736745e+02 0.0000000000e+00 0.0000e+00 -1.0000e+00
       23  1    1    2    0    0 +6.9750103833e+00 +2.3590402317e+01 +5.6895314623e+01 1.1026099048e+02 9.1188000000e+01 0.0000e+00 1.0000e+00
       25  1    1    2    0    0 -6.9750103833e+00 -2.3590402317e+01 -5.7029326004e+01 1.3957973304e+02 1.2500000000e+02 0.0000e+00 0.0000e+00
</event>
<event>
 4      1 +2.1368000e-01 2.36446200e+02 7.54677100e-03 1.12218300e-01
      -11 -1    0    0    0    0 +0.0000000000e+00 +0.0000000000e+00 +1.1261279773e+02 1.1261279773e+02 0.0000000000e+00 0.0000e+00 -1.0000e+00
       11 -1    0    0    0    0 -0.0000000000e+00 -0.0000000000e+00 -1.2411290822e+02 1.2411290822e+02 0.0000000000e+00 0.0000e+00 1.0000e+00
       23  1    1    2    0    0 +3.7547833480e+01 -2.2470430448e+01 +1.3209826588e+01 1.0200250441e+02 9.1188000000e+01 0.0000e+00 -1.0000e+00
       25  1    1    2    0    0 -3.7547833480e+01 +2.2470430448e+01 -2.4709937071e+01 1.3472320154e+02 1.2500000000e+02 0.0000e+00 0.0000e+00
</event>
<event>
 4      1 +2.1368000e-01 2.49975000e+02 7.54677100e-03 1.11332100e-01
      -11 -1    0    0    0    0 +0.0000000000e+00 +0.0000000000e+00 +1.2498748336e+02 1.2498748336e+02 0.0000000000e+00 0.0000e+00 1.0000e+00
       11 -1    0    0    0    0 -0.0000000000e+00 -0.0000000000e+00 -1.2498748336e+02 1.2498748336e+02 0.0000000000e+00 0.0000e+00 -1.0000e+00
       23  1    1    2    0    0 -3.8730757231e+01 +1.7600485538e+01 -4.5339488195e+01 1.1036652201e+02 9.1188000000e+01 0.0000e+00 0.0000e+00
       25  1    1    2    0    0 +3.8730757231e+01 -1.7600485538e+01 +4.5339488195e+01 1.3960844472e+02 1.2500000000e+02 0.0000e+00 0.0000e+00
</event>
<event>
 4      1 +2.1368000e-01 2.49975000e+02 7.54677100e-03 1.11332100e-01
      -11 -1    0    0    0    0 +0.0000000000e+00 +0.0000000000e+00 +1.2498837045e+02 1.2498837045e+02 0.0000000000e+00 0.0000e+00 1.0000e+00
       11 -1    0    0    0    0 -0.0000000000e+00 -0.0000000000e+00 -1.2498662911e+02 1.2498662911e+02 0.0000000000e+00 0.0000e+00 -1.0000e+00
       23  1    1    2    0    0 -4.9125522834e+01 -1.7999900591e+01 +3.3589583459e+01 1.1036677433e+02 9.1188000000e+01 0.0000e+00 1.0000e+00
       25  1    1    2    0    0 +4.9125522834e+01 +1.7999900591e+01 -3.3587842116e+01 1.3960822523e+02 1.2500000000e+02 0.0000e+00 0.0000e+00
</event>
<event>
 4      1 +2.1368000e-01 2.34471900e+02 7.54677100e-03 1.12353100e-01
      -11 -1    0    0    0    0 +0.0000000000e+00 +0.0000000000e+00 +1.1298741523e+02 1.1298741523e+02 0.0000000000e+00 0.0000e+00 1.0000e+00
       11 -1    0    0    0    0 -0.0000000000e+00 -0.0000000000e+00 -1.2164426567e+02 1.2164426567e+02 0.0000000000e+00 0.0000e+00 -1.0000e+00
       23  1    1    2    0    0 +4.2480739429e+00 +1.1978694771e+01 +3.9352946046e+01 1.0012712403e+02 9.1188000000e+01 0.0000e+00 1.0000e+00
       25  1    1    2    0    0 -4.2480739429e+00 -1.1978694771e+01 -4.8009796485e+01 1.3450455687e+02 1.2500000000e+02 0.0000e+00 0.0000e+00
</event>
<event>
 4      1 +2.1368000e-01 2.33695900e+02 7.54677100e-03 1.12406500e-01
      -11 -1    0    0    0    0 +0.0000000000e+00 +0.0000000000e+00 +1.0923857049e+02 1.0923857049e+02 0.0000000000e+00 0.0000e+00 1.0000e+00
       11 -1    0    0    0    0 -0.0000000000e+00 -0.0000000000e+00 -1.2498733999e+02 1.2498733999e+02 0.0000000000e+00 0.0000e+00 -1.0000e+00
       23  1    1    2    0    0 +6.6057665452e-01 -1.9195575479e+01 -4.6394153012e+01 1.0409887251e+02 9.1188000000e+01 0.0000e+00 -1.0000e+00
       25  1    1    2    0    0 -6.6057665452e-01 +1.9195575479e+01 +3.0645383513e+01 1.3012703797e+02 1.2500000000e+02 0.0000e+00 0.0000e+00
</event>
<event>
 4      1 +2.1368000e-01 2.34018100e+02 7.54677100e-03 1.12384300e-01
      -11 -1    0    0    0    0 +0.0000000000e+00 +0.0000000000e+00 +1.0953979907e+02 1.0953979907e+02 0.0000000000e+00 0.0000e+00 -1.0000e+00
       11 -1    0    0    0    0 -0.0000000000e+00 -0.0000000000e+00 -1.2498759405e+02 1.2498759405e+02 0.0000000000e+00 0.0000e+00 1.0000e+00
       23  1    1    2    0    0 +1.6390443811e+01 +3.1433041310e+01 -3.3363390489e+01 1.0336851505e+02 9.1188000000e+01 0.0000e+00 1.0000e+00
       25  1    1    2    0    0 -1.6390443811e+01 -3.1433041310e+01 +1.7915595507e+01 1.3115887807e+02 1.2500000000e+02 0.0000e+00 0.0000e+00
</event>
<event>
 4      1 +2.1368000e-01 2.49949800e+02 7.54677100e-03 1.11333700e-01
      -11 -1    0    0    0    0 +0.0000000000e+00 +0.0000000000e+00 +1.2496270502e+02 1.2496270502e+02 0.0000000000e+00 0.0000e+00 1.0000e+00
       11 -1    0    0    0    0 -0.0000000000e+00 -0.0000000000e+00 -1.2498708136e+02 1.2498708136e+02 0.0000000000e+00 0.0000e+00 -1.0000e+00
       23  1    1    2    0    0 +5.6139538975e+01 +2.5498126166e+01 -7.7960958154e+00 1.1035321802e+02 9.1188000000e+01 0.0000e+00 -1.0000e+00
       25  1    1    2    0    0 -5.6139538975e+01 -2.5498126166e+01 +7.7717194735e+00 1.3959656836e+02 1.2500000000e+02 0.0000e+00 0.0000e+00
</event>
<event>
 4      1 +2.1368000e-01 2.49972500e+02 7.54677100e-03 1.11332200e-01
      -11 -1    0    0    0    0 +0.0000000000e+00 +0.0000000000e+00 +1.2498800085e+02 1.2498800085e+02 0.0000000000e+00 0.0000e+00 -1.0000e+00
       11 -1    0    0    0    0 -0.0000000000e+00 -0.0000000000e+00 -1.2498451818e+02 1.2498451818e+02 0.0000000000e+00 0.0000e+00 1.0000e+00
       23  1    1    2    0    0 -3.1531618544e+01 +4.8732069376e+01 -2.2273078784e+01 1.1036484466e+02 9.1188000000e+01 0.0000e+00 0.0000e+00
       25  1    1    2    0    0 +3.1531618544e+01 -4.8732069376e+01 +2.2276561460e+01 1.3960767437e+02 1.2500000000e+02 0.0000e+00 0.0000e+00
</event>
<event>
 4      1 +2.1368000e-01 2.48309500e+02 7.54677100e-03 1.11437800e-01
      -11 -1    0    0    0    0 +0.0000000000e+00 +0.0000000000e+00 +1.2498779580e+02 1.2498779580e+02 0.0000000000e+00 0.0000e+00 1.0000e+00
       11 -1    0    0    0    0 -0.0000000000e+00 -0.0000000000e+00 -1.2332724217e+02 1.2332724217e+02 0.0000000000e+00 0.0000e+00 -1.0000e+00
       23  1    1    2    0    0 +2.3302050353e+01 -4.4778963877e+01 -3.2627305748e+01 1.0921507946e+02 9.1188000000e+01 0.0000e+00 -1.0000e+00
       25  1    1    2    0    0 -2.3302050353e+01 +4.4778963877e+01 +3.4287859375e+01 1.3909995851e+02 1.2500000000e+02 0.0000e+00 0.0000e+00
</event>
<event>
 4      1 +2.1368000e-01 2.49432700e+02 7.54677100e-03 1.11366400e-01
      -11 -1    0    0    0    0 +0.0000000000e+00 +0.0000000000e+00 +1.2497553983e+02 1.2497553983e+02 0.0000000000e+00 0.0000e+00 -1.0000e+00
       11 -1    0    0    0    0 -0.0000000000e+00 -0.0000000000e+00 -1.2445774058e+02 1.2445774058e+02 0.0000000000e+00 0.0000e+00 1.0000e+00
       23  1    1    2    0    0 -5.6375112853e+01 +1.6152000038e+01 +1.9194548157e+01 1.1010323554e+02 9.1188000000e+01 0.0000e+00 0.0000e+00
       25  1    1    2    0    0 +5.6375112853e+01 -1.6152000038e+01 -1.8676748910e+01 1.3933004487e+02 1.2500000000e+02 0.0000e+00 0.0000e+00
</event>
<event>
 4      1 +2.1368000e-01 2.49403100e+02 7.54677100e-03 1.11368300e-01
      -11 -1    0    0    0    0 +0.0000000000e+00 +0.0000000000e+00 +1.2489108789e+02 1.2489108789e+02 0.0000000000e+00 0.0000e+00 1.0000e+00
       11 -1    0    0    0    0 -0.0000000000e+00 -0.0000000000e+00 -1.2451234049e+02 1.2451234049e+02 0.0000000000e+00 0.0000e+00 -1.0000e+00
       23  1    1    2    0    0 -4.7101565942e+01 +2.9132639440e+01 +2.7145691639e+01 1.1008818335e+02 9.1188000000e+01 0.0000e+00 1.0000e+00
       25  1    1    2    0    0 +4.7101565942e+01 -2.9132639440e+01 -2.6766944235e+01 1.3931524503e+02 1.2500000000e+02 0.0000e+00 0.0000e+00
</event>
<event>
 4      1 +2.1368000e-01 2.49975000e+02 7.54677100e-03 1.11332100e-01
      -11 -1    0    0    0    0 +0.0000000000e+00 +0.0000000000e+00 +1.2498750000e+02 1.2498750000e+02 0.0000000000e+00 0.0000e+00 -1.0000e+00
       11 -1    0    0    0    0 -0.0000000000e+00 -0.0000000000e+00 -1.2498750000e+02 1.2498750000e+02 0.0000000000e+00 0.0000e+00 1.0000e+00
       23  1    1    2    0    0 +3.5370331887e+01 +7.0182222396e+00 +5.0647863894e+01 1.1036654059e+02 9.1188000000e+01 0.0000e+00 -1.0000e+00
       25  1    1    2    0    0 -3.5370331887e+01 -7.0182222396e+00 -5.0647863894e+01 1.3960845941e+02 1.2500000000e+02 0.0000e+00 0.0000e+00
</event>
<event>
 4      1 +2.1368000e-01 2.49975000e+02 7.54677100e-03 1.11332100e-01
      -11 -1    0    0    0    0 +0.0000000000e+00 +0.0000000000e+00 +1.2498836541e+02 1.2498836541e+02 0.0000000000e+00 0.0000e+00 -1.0000e+00
       11 -1    0    0    0    0 -0.0000000000e+00 -0.0000000000e+00 -1.2498662407e+02 1.2498662407e+02 0.0000000000e+00 0.0000e+00 1.0000e+00
       23  1    1    2    0    0 -1.1284729131e+01 -1.7145104418e+01 -5.8686716414e+01 1.1036612589e+02 9.1188000000e+01 0.0000e+00 1.0000e+00
       25  1    1    2    0    0 +1.1284729131e+01 +1.7145104418e+01 +5.8688457757e+01 1.3960886358e+02 1.2500000000e+02 0.0000e+00 0.0000e+00
</event>
<event>
 4      1 +2.1368000e-01 2.49886600e+02 7.54677100e-03 1.11337700e-01
      -11 -1    0    0    0    0 +0.0000000000e+00 +0.0000000000e+00 +1.2490066226e+02 1.2490066226e+02 0.0000000000e+00 0.0000e+00 1.0000e+00
       11 -1    0    0    0    0 -0.0000000000e+00 -0.0000000000e+00 -1.2498595790e+02 1.2498595790e+02 0.0000000000e+00 0.0000e+00 -1.0000e+00
       23  1    1    2    0    0 -4.0915228992e+01 +4.6403321047e+01 -5.2628633505e+00 1.1031896139e+02 9.1188000000e+01 0.0000e+00 1.0000e+00
       25  1    1    2    0    0 +4.0915228992e+01 -4.6403321047e+01 +5.1775677149e+00 1.3956765877e+02 1.2500000000e+02 0.0000e+00 0.0000e+00
</event>
<event>
 4      1 +2.1368000e-01 2.49974900e+02 7.54677100e-03 1.11332100e-01
      -11 -1    0    0    0    0 +0.0000000000e+00 +0.0000000000e+00 +1.2498834465e+02 1.2498834465e+02 0.0000000000e+00 0.0000e+00 1.0000e+00
       11 -1    0    0    0    0 -0.0000000000e+00 -0.0000000000e+00 -1.2498660331e+02 1.2498660331e+02 0.0000000000e+00 0.0000e+00 -1.0000e+00
       23  1    1    2    0    0 +7.9352438507e+00 -6.1664736886e+01 +8.8241262865e-02 1.1036651213e+02 9.1188000000e+01 0.0000e+00 0.0000e+00
       25  1    1    2    0    0 -7.9352438507e+00 +6.1664736886e+01 -8.6499920309e-02 1.3960843582e+02 1.2500000000e+02 0.0000e+00 0.0000e+00
</event>
<event>
 4      1 +2.1368000e-01 2.48428900e+02 7.54677100e-03 1.11430200e-01
      -11 -1    0    0    0    0 +0.0000000000e+00 +0.0000000000e+00 +1.2497911592e+02 1.2497911592e+02 0.0000000000e+00 0.0000e+00 1.0000e+00
       11 -1    0    0    0    0 -0.0000000000e+00 -0.0000000000e+00 -1.2345448441e+02 1.2345448441e+02 0.0000000000e+00 0.0000e+00 -1.0000e+00
       23  1    1    2    0    0 +5.4049547236e+01 +2.1800654287e+01 +1.7373422080e+01 1.0960706739e+02 9.1188000000e+01 0.0000e+00 1.0000e+00
       25  1    1    2    0    0 -5.4049547236e+01 -2.1800654287e+01 -1.5848790564e+01 1.3882653293e+02 1.2500000000e+02 0.0000e+00 0.0000e+00
</event>
<event>
 4      1 +2.1368000e-01 2.49970200e+02 7.54677100e-03 1.11332400e-01
      -11 -1    0    0    0    0 +0.0000000000e+00 +0.0000000000e+00 +1.2498769012e+02 1.2498769012e+02 0.0000000000e+00 0.0000e+00 1.0000e+00
       11 -1    0    0    0    0 -0.0000000000e+00 -0.0000000000e+00 -1.2498246619e+02 1.2498246619e+02 0.0000000000e+00 0.0000e+00 -1.0000e+00
       23  1    1    2    0    0 +4.4812517280e+01 -3.6619080239e+01 -2.2709058149e+01 1.1036336081e+02 9.1188000000e+01 0.0000e+00 0.0000e+00
       25  1    1    2    0    0 -4.4812517280e+01 +3.6619080239e+01 +2.2714282077e+01 1.3960679551e+02 1.2500000000e+02 0.0000e+00 0.0000e+00
</event>
<event>
 4      1 +2.1368000e-01 2.49974900e+02 7.54677100e-03 1.11332100e-01
      -11 -1    0    0    0    0 +0.0000000000e+00 +0.0000000000e+00 +1.2498830652e+02 1.2498830652e+02 0.0000000000e+00 0.0000e+00 1.0000e+00
       11 -1    0    0    0    0 -0.0000000000e+00 -0.0000000000e+00 -1.2498656518e+02 1.2498656518e+02 0.0000000000e+00 0.0000e+00 -1.0000e+00
       23  1    1    2    0    0 +1.2799482652e+01 +6.0302955723e+01 -8.0759196250e+00 1.1036641268e+02 9.1188000000e+01 0.0000e+00 0.0000e+00
       25  1    1    2    0    0 -1.2799482652e+01 -6.0302955723e+01 +8.0776609670e+00 1.3960845903e+02 1.2500000000e+02 0.0000e+00 0.0000e+00
</event>
<event>
 4      1 +2.1368000e-01 2.49974900e+02 7.54677100e-03 1.11332100e-01
      -11 -1    0    0    0    0 +0.0000000000e+00 +0.0000000000e+00 +1.2498832669e+02 1.2498832669e+02 0.0000000000e+00 0.0000e+00 -1.0000e+00
       11 -1    0    0    0    0 -0.0000000000e+00 -0.0000000000e+00 -1.2498658535e+02 1.2498658535e+02 0.0000000000e+00 0.0000e+00 1.0000e+00
       23  1    1    2    0    0 -3.9446033771e+01 +4.7506744576e+01 -7.2539353685e+00 1.1036644093e+02 9.1188000000e+01 0.0000e+00 -1.0000e+00
       25  1    1    2    0    0 +3.9446033771e+01 -4.7506744576e+01 +7.2556767108e+00 1.3960847111e+02 1.2500000000e+02 0.0000e+00 0.0000e+00
</event>
<event>
 4      1 +2.1368000e-01 2.49972400e+02 7.54677100e-03 1.11332200e-01
      -11 -1    0    0    0    0 +0.0000000000e+00 +0.0000000000e+00 +1.2498532873e+02 1.2498532873e+02 0.0000000000e+00 0.0000e+00 -1.0000e+00
       11 -1    0    0    0    0 -0.0000000000e+00 -0.0000000000e+00 -1.2498707005e+02 1.2498707005e+02 0.0000000000e+00 0.0000e+00 1.0000e+00
       23  1    1    2    0    0 -1.5236728668e+01 -1.3148958971e+01 +5.8822255979e+01 1.1036467807e+02 9.1188000000e+01 0.0000e+00 -1.0000e+00
       25  1    1    2    0    0 +1.5236728668e+01 +1.3148958971e+01 -5.8823997304e+01 1.3960772071e+02 1.2500000000e+02 0.0000e+00 0.0000e+00
</event>
<event>
 4      1 +2.1368000e-01 2.43723500e+02 7.54677100e-03 1.11733700e-01
      -11 -1    0    0    0    0 +0.0000000000e+00 +0.0000000000e+00 +1.2498830769e+02 1.2498830769e+02 0.0000000000e+00 0.0000e+00 1.0000e+00
       11 -1    0    0    0    0 -0.0000000000e+00 -0.0000000000e+00 -1.1881342553e+02 1.1881342553e+02 0.0000000000e+00 0.0000e+00 -1.0000e+00
       23  1    1    2    0    0 -1.3216717668e+01 +5.3807117909e+01 +8.6386037540e+00 1.0705028903e+02 9.1188000000e+01 0.0000e+00 0.0000e+00
       25  1    1    2    0    0 +1.3216717668e+01 -5.3807117909e+01 -2.4637215909e+00 1.3675144419e+02 1.2500000000e+02 0.0000e+00 0.0000e+00
</event>
<event>
 4      1 +2.1368000e-01 2.49855800e+02 7.54677100e-03 1.11339600e-01
      -11 -1    0    0    0    0 +0.0000000000e+00 +0.0000000000e+00 +1.2486875997e+02 1.2486875997e+02 0.0000000000e+00 0.0000e+00 -1.0000e+00
       11 -1    0    0    0    0 -0.0000000000e+00 -0.0000000000e+00 -1.2498711404e+02 1.2498711404e+02 0.0000000000e+00 0.0000e+00 1.0000e+00
       23  1    1    2    0    0 +7.4446998762e+00 -3.3137501544e+01 +5.1883478744e+01 1.1027540195e+02 9.1188000000e+01 0.0000e+00 0.0000e+00
       25  1    1    2    0    0 -7.4446998762e+00 +3.3137501544e+01 -5.2001832809e+01 1.3958047206e+02 1.2500000000e+02 0.0000e+00 0.0000e+00
</event>
<event>
 4      1 +2.1368000e-01 2.49975000e+02 7.54677100e-03 1.11332100e-01
      -11 -1    0    0    0    0 +0.0000000000e+00 +0.0000000000e+00 +1.2498749999e+02 1.2498749999e+02 0.0000000000e+00 0.0000e+00 1.0000e+00
       11 -1    0    0    0    0 -0.0000000000e+00 -0.0000000000e+00 -1.2498749999e+02 1.2498749999e+02 0.0000000000e+00 0.0000e+00 -1.0000e+00
       23  1    1    2    0    0 +1.0410720426e+01 +2.9044682771e+01 +5.3977265940e+01 1.1036654058e+02 9.1188000000e+01 0.0000e+00 1.0000e+00
       25  1    1    2    0    0 -1.0410720426e+01 -2.9044682771e+01 -5.3977265940e+01 1.3960845940e+02 1.2500000000e+02 0.0000e+00 0.0000e+00
</event>
<event>
 4      1 +2.1368000e-01 2.49975000e+02 7.54677100e-03 1.11332100e-01
      -11 -1    0    0    0    0 +0.0000000000e+00 +0.0000000000e+00 +1.2498750000e+02 1.2498750000e+02 0.0000000000e+00 0.0000e+00 1.0000e+00
       11 -1    0    0    0    0 -0.0000000000e+00 -0.0000000000e+00 -1.2498750000e+02 1.2498750000e+02 0.0000000000e+00 0.0000e+00 -1.0000e+00
       23  1    1    2    0    0 -2.3347210884e+01 -3.9360735364e+01 -4.2085177840e+01 1.1036654059e+02 9.1188000000e+01 0.0000e+00 -1.0000e+00
       25  1    1    2    0    0 +2.3347210884e+01 +3.9360735364e+01 +4.2085177840e+01 1.3960845941e+02 1.2500000000e+02 0.0000e+00 0.0000e+00
</event>
<event>
 4      1 +2.1368000e-01 2.32412500e+02 7.54677100e-03 1.12495300e-01
      -11 -1    0    0    0    0 +0.0000000000e+00 +0.0000000000e+00 +1.0804084596e+02 1.0804084596e+02 0.0000000000e+00 0.0000e+00 -1.0000e+00
       11 -1    0    0    0    0 -0.0000000000e+00 -0.0000000000e+00 -1.2498881059e+02 1.2498881059e+02 0.0000000000e+00 0.0000e+00 1.0000e+00
       23  1    1    2    0    0 -3.8516836818e+01 +8.5961469363e+00 -2.2321253449e+01 1.0183776392e+02 9.1188000000e+01 0.0000e+00 1.0000e+00
       25  1    1    2    0    0 +3.8516836818e+01 -8.5961469363e+00 +5.3732888209e+00 1.3119189264e+02 1.2500000000e+02 0.0000e+00 0.0000e+00
</event>
<event>
 4      1 +2.1368000e-01 2.47008000e+02 7.54677100e-03 1.11521000e-01
      -11 -1    0    0    0    0 +0.0000000000e+00 +0.0000000000e+00 +1.2253563707e+02 1.2253563707e+02 0.0000000000e+00 0.0000e+00 -1.0000e+00
       11 -1    0    0    0    0 -0.0000000000e+00 -0.0000000000e+00 -1.2448000535e+02 1.2448000535e+02 0.0000000000e+00 0.0000e+00 1.0000e+00
       23  1    1    2    0    0 -5.6825223657e+01 -7.4302731895e-01 +1.5649098617e+01 1.0858086279e+02 9.1188000000e+01 0.0000e+00 -1.0000e+00
       25  1    1    2    0    0 +5.6825223657e+01 +7.4302731895e-01 -1.7593466889e+01 1.3843477963e+02 1.2500000000e+02 0.0000e+00 0.0000e+00
</event>
<event>
 4      1 +2.1368000e-01 2.27503400e+02 7.54677100e-03 1.12840900e-01
      -11 -1    0    0    0    0 +0.0000000000e+00 +0.0000000000e+00 +1.0352440934e+02 1.0352440934e+02 0.0000000000e+00 0.0000e+00 1.0000e+00
       11 -1    0    0    0    0 -0.0000000000e+00 -0.0000000000e+00 -1.2498937673e+02 1.2498937673e+02 0.0000000000e+00 0.0000e+00 -1.0000e+00
       23  1    1    2    0    0 -3.4914853243e+01 -3.9240299250e-01 -1.2095384857e+01 9.8390805647e+01 9.1188000000e+01 0.0000e+00 -1.0000e+00
       25  1    1    2    0    0 +3.4914853243e+01 +3.9240299250e-01 -9.3695825368e+00 1.3012298042e+02 1.2500000000e+02 0.0000e+00 0.0000e+00
</event>
<event>
 4      1 +2.1368000e-01 2.49975000e+02 7.54677100e-03 1.11332100e-01
      -11 -1    0    0    0    0 +0.0000000000e+00 +0.0000000000e+00 +1.2498837067e+02 1.2498837067e+02 0.0000000000e+00 0.0000e+00 -1.0000e+00
       11 -1    0    0    0    0 -0.0000000000e+00 -0.0000000000e+00 -1.2498662933e+02 1.2498662933e+02 0.0000000000e+00 0.0000e+00 1.0000e+00
       23  1    1    2    0    0 -6.0949908343e+01 -1.0896465518e+01 +5.6485693116e+00 1.1036657994e+02 9.1188000000e+01 0.0000e+00 0.0000e+00
       25  1    1    2    0    0 +6.0949908343e+01 +1.0896465518e+01 -5.6468279687e+00 1.3960842007e+02 1.2500000000e+02 0.0000e+00 0.0000e+00
</event>
<event>
 4      1 +2.1368000e-01 2.49972400e+02 7.54677100e-03 1.11332200e-01
      -11 -1    0    0    0    0 +0.0000000000e+00 +0.0000000000e+00 +1.2498795173e+02 1.2498795173e+02 0.0000000000e+00 0.0000e+00 -1.0000e+00
       11 -1    0    0    0    0 -0.0000000000e+00 -0.0000000000e+00 -1.2498446906e+02 1.2498446906e+02 0.0000000000e+00 0.0000e+00 1.0000e+00
       23  1    1    2    0    0 -1.3815582995e+01 -5.8527012488e+01 -1.5775738917e+01 1.1036488031e+02 9.1188000000e+01 0.0000e+00 0.0000e+00
       25  1    1    2    0    0 +1.3815582995e+01 +5.8527012488e+01 +1.5779221591e+01 1.3960754048e+02 1.2500000000e+02 0.0000e+00 0.0000e+00
</event>
<event>
 4      1 +2.1368000e-01 2.49853400e+02 7.54677100e-03 1.11339800e-01
      -11 -1    0    0    0    0 +0.0000000000e+00 +0.0000000000e+00 +1.2486665558e+02 1.2486665558e+02 0.0000000000e+00 0.0000e+00 -1.0000e+00
       11 -1    0    0    0    0 -0.0000000000e+00 -0.0000000000e+00 -1.2498674979e+02 1.2498674979e+02 0.0000000000e+00 0.0000e+00 1.0000e+00
       23  1    1    2    0    0 +2.4903708479e+00 -5.7683781518e+01 +2.2682680906e+01 1.1028769630e+02 9.1188000000e+01 0.0000e+00 0.0000e+00
       25  1    1    2    0    0 -2.4903708479e+00 +5.7683781518e+01 -2.2802775122e+01 1.3956570908e+02 1.2500000000e+02 0.0000e+00 0.0000e+00
</event>
<event>
 4      1 +2.1368000e-01 2.49974900e+02 7.54677100e-03 1.11332100e-01
      -11 -1    0    0    0    0 +0.0000000000e+00 +0.0000000000e+00 +1.2498747227e+02 1.2498747227e+02 0.0000000000e+00 0.0000e+00 1.0000e+00
       11 -1    0    0    0    0 -0.0000000000e+00 -0.0000000000e+00 -1.2498747227e+02 1.2498747227e+02 0.0000000000e+00 0.0000e+00 -1.0000e+00
       23  1    1    2    0    0 +4.7586997612e+01 +3.8185385141e+01 -1.1952787182e+01 1.1036650962e+02 9.1188000000e+01 0.0000e+00 1.0000e+00
       25  1    1    2    0    0 -4.7586997612e+01 -3.8185385141e+01 +1.1952787182e+01 1.3960843492e+02 1.2500000000e+02 0.0000e+00 0.0000e+00
</event>
<event>
 4      1 +2.1368000e-01 2.49160400e+02 7.54677100e-03 1.11383700e-01
      -11 -1    0    0    0    0 +0.0000000000e+00 +0.0000000000e+00 +1.2417385083e+02 1.2417385083e+02 0.0000000000e+00 0.0000e+00 1.0000e+00
       11 -1    0    0    0    0 -0.0000000000e+00 -0.0000000000e+00 -1.2498788365e+02 1.2498788365e+02 0.0000000000e+00 0.0000e+00 -1.0000e+00
       23  1    1    2    0    0 +2.1722081855e+01 +5.6327148557e+01 -1.1344467292e+01 1.0994791852e+02 9.1188000000e+01 0.0000e+00 -1.0000e+00
       25  1    1    2    0    0 -2.1722081855e+01 -5.6327148557e+01 +1.0530434472e+01 1.3921381596e+02 1.2500000000e+02 0.0000e+00 0.0000e+00
</event>
<event>
 4      1 +2.1368000e-01 2.49975000e+02 7.54677100e-03 1.11332100e-01
      -11 -1    0    0    0    0 +0.0000000000e+00 +0.0000000000e+00 +1.2498662048e+02 1.2498662048e+02 0.0000000000e+00 0.0000e+00 -1.0000e+00
       11 -1    0    0    0    0 -0.0000000000e+00 -0.0000000000e+00 -1.2498836182e+02 1.2498836182e+02 0.0000000000e+00 0.0000e+00 1.0000e+00
       23  1    1    2    0    0 +4.3964879539e+01 +1.9609403989e+01 -3.9346421665e+01 1.1036680479e+02 9.1188000000e+01 0.0000e+00 0.0000e+00
       25  1    1    2    0    0 -4.3964879539e+01 -1.9609403989e+01 +3.9344680322e+01 1.3960817751e+02 1.2500000000e+02 0.0000e+00 0.0000e+00
</event>
<event>
 4      1 +2.1368000e-01 2.49973900e+02 7.54677100e-03 1.11332100e-01
      -11 -1    0    0    0    0 +0.0000000000e+00 +0.0000000000e+00 +1.2498697112e+02 1.2498697112e+02 0.0000000000e+00 0.0000e+00 1.0000e+00
       11 -1    0    0    0    0 -0.0000000000e+00 -0.0000000000e+00 -1.2498697112e+02 1.2498697112e+02 0.0000000000e+00 0.0000e+00 -1.0000e+00
       23  1    1    2    0    0 +5.4686447387e+01 +2.8010854716e+01 +9.4961061302e+00 1.1036594985e+02 9.1188000000e+01 0.0000e+00 0.0000e+00
       25  1    1    2    0    0 -5.4686447387e+01 -2.8010854716e+01 -9.4961061302e+00 1.3960799240e+02 1.2500000000e+02 0.0000e+00 0.0000e+00
</event>
<event>
 4      1 +2.1368000e-01 2.49975000e+02 7.54677100e-03 1.11332100e-01
      -11 -1    0    0    0    0 +0.0000000000e+00 +0.0000000000e+00 +1.2498749921e+02 1.2498749921e+02 0.0000000000e+00 0.0000e+00 -1.0000e+00
       11 -1    0    0    0    0 -0.0000000000e+00 -0.0000000000e+00 -1.2498749921e+02 1.2498749921e+02 0.0000000000e+00 0.0000e+00 1.0000e+00
       23  1    1    2    0    0 -4.9968912948e+01 +2.7696338611e+01 -2.4526359482e+01 1.1036653971e+02 9.1188000000e+01 0.0000e+00 0.0000e+00
       25  1    1    2    0    0 +4.9968912948e+01 -2.7696338611e+01 +2.4526359482e+01 1.3960845871e+02 1.2500000000e+02 0.0000e+00 0.0000e+00
</event>
<event>
 4      1 +2.1368000e-01 2.49887600e+02 7.54677100e-03 1.11337600e-01
      -11 -1    0    0    0    0 +0.0000000000e+00 +0.0000000000e+00 +1.2498733371e+02 1.2498733371e+02 0.0000000000e+00 0.0000e+00 1.0000e+00
       11 -1    0    0    0    0 -0.0000000000e+00 -0.0000000000e+00 -1.2490029639e+02 1.2490029639e+02 0.0000000000e+00 0.0000e+00 -1.0000e+00
       23  1    1    2    0    0 -4.0861311129e+01 -4.3965332988e+01 -1.5840937214e+01 1.1031221096e+02 9.1188000000e+01 0.0000e+00 -1.0000e+00
       25  1    1    2    0    0 +4.0861311129e+01 +4.3965332988e+01 +1.5927974535e+01 1.3957541913e+02 1.2500000000e+02 0.0000e+00 0.0000e+00
</event>
<event>
 4      1 +2.1368000e-01 2.49871500e+02 7.54677100e-03 1.11338600e-01
      -11 -1    0    0    0    0 +0.0000000000e+00 +0.0000000000e+00 +1.2490877899e+02 1.2490877899e+02 0.0000000000e+00 0.0000e+00 1.0000e+00
       11 -1    0    0    0    0 -0.0000000000e+00 -0.0000000000e+00 -1.2496273865e+02 1.2496273865e+02 0.0000000000e+00 0.0000e+00 -1.0000e+00
       23  1    1    2    0    0 +5.9063419769e+01 -1.8431865849e+01 +4.9305470444e+00 1.1030767368e+02 9.1188000000e+01 0.0000e+00 0.0000e+00
       25  1    1    2    0    0 -5.9063419769e+01 +1.8431865849e+01 -4.9845067039e+00 1.3956384396e+02 1.2500000000e+02 0.0000e+00 0.0000e+00
</event>
<event>
 4      1 +2.1368000e-01 2.49975000e+02 7.54677100e-03 1.11332100e-01
      -11 -1    0    0    0    0 +0.0000000000e+00 +0.0000000000e+00 +1.2498750000e+02 1.2498750000e+02 0.0000000000e+00 0.0000e+00 1.0000e+00
       11 -1    0    0    0    0 -0.0000000000e+00 -0.0000000000e+00 -1.2498750000e+02 1.2498750000e+02 0.0000000000e+00 0.0000e+00 -1.0000e+00
       23  1    1    2    0    0 -5.3254545522e+01 +2.0940044031e+01 -2.4310283329e+01 1.1036654059e+02 9.1188000000e+01 0.0000e+00 -1.0000e+00
       25  1    1    2    0    0 +5.3254545522e+01 -2.0940044031e+01 +2.4310283329e+01 1.3960845941e+02 1.2500000000e+02 0.0000e+00 0.0000e+00
</event>
<event>
 4      1 +2.1368000e-01 2.48327800e+02 7.54677100e-03 1.11436600e-01
      -11 -1    0    0    0    0 +0.0000000000e+00 +0.0000000000e+00 +1.2342917634e+02 1.2342917634e+02 0.0000000000e+00 0.0000e+00 1.0000e+00
       11 -1    0    0    0    0 -0.0000000000e+00 -0.0000000000e+00 -1.2490302985e+02 1.2490302985e+02 0.0000000000e+00 0.0000e+00 -1.0000e+00
       23  1    1    2    0    0 +3.9788809421e+01 +4.4140703482e+01 -1.2122314978e+01 1.0951599392e+02 9.1188000000e+01 0.0000e+00 0.0000e+00
       25  1    1    2    0    0 -3.9788809421e+01 -4.4140703482e+01 +1.0648461475e+01 1.3881621228e+02 1.2500000000e+02 0.0000e+00 0.0000e+00
</event>
<event>
 4      1 +2.1368000e-01 2.46579600e+02 7.54677100e-03 1.11548600e-01
      -11 -1    0    0    0    0 +0.0000000000e+00 +0.0000000000e+00 +1.2229417326e+02 1.2229417326e+02 0.0000000000e+00 0.0000e+00 1.0000e+00
       11 -1    0    0    0    0 -0.0000000000e+00 -0.0000000000e+00 -1.2429357516e+02 1.2429357516e+02 0.0000000000e+00 0.0000e+00 -1.0000e+00
       23  1    1    2    0    0 +2.7991675288e+01 -5.1022802385e+01 +7.0639393482e+00 1.0840669182e+02 9.1188000000e+01 0.0000e+00 0.0000e+00
       25  1    1    2    0    0 -2.7991675288e+01 +5.1022802385e+01 -9.0633412524e+00 1.3818105660e+02 1.2500000000e+02 0.0000e+00 0.0000e+00
</event>
<event>
 4      1 +2.1368000e-01 2.49974500e+02 7.54677100e-03 1.11332100e-01
      -11 -1    0    0    0    0 +0.0000000000e+00 +0.0000000000e+00 +1.2498811530e+02 1.2498811530e+02 0.0000000000e+00 0.0000e+00 1.0000e+00
       11 -1    0    0    0    0 -0.0000000000e+00 -0.0000000000e+00 -1.2498637396e+02 1.2498637396e+02 0.0000000000e+00 0.0000e+00 -1.0000e+00
       23  1    1    2    0    0 +1.2877687705e+01 +4.8715010255e+01 +3.6421530894e+01 1.1036650906e+02 9.1188000000e+01 0.0000e+00 1.0000e+00
       25  1    1    2    0    0 -1.2877687705e+01 -4.8715010255e+01 -3.6419789555e+01 1.3960798020e+02 1.2500000000e+02 0.0000e+00 0.0000e+00
</event>
<event>
 4      1 +2.1368000e-01 2.49972500e+02 7.54677100e-03 1.11332200e-01
      -11 -1    0    0    0    0 +0.0000000000e+00 +0.0000000000e+00 +1.2498536416e+02 1.2498536416e+02 0.0000000000e+00 0.0000e+00 1.0000e+00
       11 -1    0    0    0    0 -0.0000000000e+00 -0.0000000000e+00 -1.2498710548e+02 1.2498710548e+02 0.0000000000e+00 0.0000e+00 -1.0000e+00
       23  1    1    2    0    0 +4.0855941446e+01 +1.7248619695e+01 -4.3572401450e+01 1.1036543093e+02 9.1188000000e+01 0.0000e+00 0.0000e+00
       25  1    1    2    0    0 -4.0855941446e+01 -1.7248619695e+01 +4.3570660125e+01 1.3960703871e+02 1.2500000000e+02 0.0000e+00 0.0000e+00
</event>
<event>
 4      1 +2.1368000e-01 2.49960100e+02 7.54677100e-03 1.11333000e-01
      -11 -1    0    0    0    0 +0.0000000000e+00 +0.0000000000e+00 +1.2498788618e+02 1.2498788618e+02 0.0000000000e+00 0.0000e+00 -1.0000e+00
       11 -1    0    0    0    0 -0.0000000000e+00 -0.0000000000e+00 -1.2497221503e+02 1.2497221503e+02 0.0000000000e+00 0.0000e+00 1.0000e+00
       23  1    1    2    0    0 -3.3698253973e+01 -4.7814969358e+01 -2.1013110658e+01 1.1035690182e+02 9.1188000000e+01 0.0000e+00 0.0000e+00
       25  1    1    2    0    0 +3.3698253973e+01 +4.7814969358e+01 +2.1028781810e+01 1.3960319939e+02 1.2500000000e+02 0.0000e+00 0.0000e+00
</event>
<event>
 4      1 +2.1368000e-01 2.49975000e+02 7.54677100e-03 1.11332100e-01
      -11 -1    0    0    0    0 +0.0000000000e+00 +0.0000000000e+00 +1.2498836824e+02 1.2498836824e+02 0.0000000000e+00 0.0000e+00 -1.0000e+00
       11 -1    0    0    0    0 -0.0000000000e+00 -0.0000000000e+00 -1.2498662690e+02 1.2498662690e+02 0.0000000000e+00 0.0000e+00 1.0000e+00
       23  1    1    2    0    0 +1.0477505996e+00 +4.6348681657e+01 -4.1426556281e+01 1.1036624929e+02 9.1188000000e+01 0.0000e+00 1.0000e+00
       25  1    1    2    0    0 -1.0477505996e+00 -4.6348681657e+01 +4.1428297623e+01 1.3960874585e+02 1.2500000000e+02 0.0000e+00 0.0000e+00
</event>
<event>
 4      1 +2.1368000e-01 2.47253200e+02 7.54677100e-03 1.11505300e-01
      -11 -1    0    0    0    0 +0.0000000000e+00 +0.0000000000e+00 +1.2259831833e+02 1.2259831833e+02 0.0000000000e+00 0.0000e+00 -1.0000e+00
       11 -1    0    0    0    0 -0.0000000000e+00 -0.0000000000e+00 -1.2466346934e+02 1.2466346934e+02 0.0000000000e+00 0.0000e+00 1.0000e+00
       23  1    1    2    0    0 +4.4612163657e+00 -5.6597857571e+01 -1.8479328584e+01 1.0899521486e+02 9.1188000000e+01 0.0000e+00 1.0000e+00
       25  1    1    2    0    0 -4.4612163657e+00 +5.6597857571e+01 +1.6414177575e+01 1.3826657282e+02 1.2500000000e+02 0.0000e+00 0.0000e+00
</event>
<event>
 4      1 +2.1368000e-01 2.49975000e+02 7.54677100e-03 1.11332100e-01
      -11 -1    0    0    0    0 +0.0000000000e+00 +0.0000000000e+00 +1.2498748709e+02 1.2498748709e+02 0.0000000000e+00 0.0000e+00 1.0000e+00
       11 -1    0    0    0    0 -0.0000000000e+00 -0.0000000000e+00 -1.2498748709e+02 1.2498748709e+02 0.0000000000e+00 0.0000e+00 -1.0000e+00
       23  1    1    2    0    0 -3.7866242709e+01 +4.8906529869e+01 +6.3101311776e+00 1.1036652618e+02 9.1188000000e+01 0.0000e+00 1.0000e+00
       25  1    1    2    0    0 +3.7866242709e+01 -4.8906529869e+01 -6.3101311776e+00 1.3960844801e+02 1.2500000000e+02 0.0000e+00 0.0000e+00
</event>
<event>
 4      1 +2.1368000e-01 2.49975000e+02 7.54677100e-03 1.11332100e-01
      -11 -1    0    0    0    0 +0.0000000000e+00 +0.0000000000e+00 +1.2498837007e+02 1.2498837007e+02 0.0000000000e+00 0.0000e+00 -1.0000e+00
       11 -1    0    0    0    0 -0.0000000000e+00 -0.0000000000e+00 -1.2498662873e+02 1.2498662873e+02 0.0000000000e+00 0.0000e+00 1.0000e+00
       23  1    1    2    0    0 +2.2073994629e+01 +9.3436679120e+00 -5.7366089396e+01 1.1036614030e+02 9.1188000000e+01 0.0000e+00 1.0000e+00
       25  1    1    2    0    0 -2.2073994629e+01 -9.3436679120e+00 +5.7367830739e+01 1.3960885850e+02 1.2500000000e+02 0.0000e+00 0.0000e+00
</event>
<event>
 4      1 +2.1368000e-01 2.49131100e+02 7.54677100e-03 1.11385500e-01
      -11 -1    0    0    0    0 +0.0000000000e+00 +0.0000000000e+00 +1.2415666050e+02 1.2415666050e+02 0.0000000000e+00 0.0000e+00 1.0000e+00
       11 -1    0    0    0    0 -0.0000000000e+00 -0.0000000000e+00 -1.2497579839e+02 1.2497579839e+02 0.0000000000e+00 0.0000e+00 -1.0000e+00
       23  1    1    2    0    0 -1.1891674468e+01 -2.5480577539e+01 -5.4868539595e+01 1.1007488240e+02 9.1188000000e+01 0.0000e+00 -1.0000e+00
       25  1    1    2    0    0 +1.1891674468e+01 +2.5480577539e+01 +5.4049401705e+01 1.3905757649e+02 1.2500000000e+02 0.0000e+00 0.0000e+00
</event>
<event>
 4      1 +2.1368000e-01 2.49920700e+02 7.54677100e-03 1.11335500e-01
      -11 -1    0    0    0    0 +0.0000000000e+00 +0.0000000000e+00 +1.2498822928e+02 1.2498822928e+02 0.0000000000e+00 0.0000e+00 1.0000e+00
       11 -1    0    0    0    0 -0.0000000000e+00 -0.0000000000e+00 -1.2493251840e+02 1.2493251840e+02 0.0000000000e+00 0.0000e+00 -1.0000e+00
       23  1    1    2    0    0 +4.7090443817e+01 -1.7340746226e+01 -3.6589917414e+01 1.1032807793e+02 9.1188000000e+01 0.0000e+00 0.0000e+00
       25  1    1    2    0    0 -4.7090443817e+01 +1.7340746226e+01 +3.6645628294e+01 1.3959266976e+02 1.2500000000e+02 0.0000e+00 0.0000e+00
</event>
<event>
 4      1 +2.1368000e-01 2.40785200e+02 7.54677100e-03 1.11927100e-01
      -11 -1    0    0    0    0 +0.0000000000e+00 +0.0000000000e+00 +1.2498735769e+02 1.2498735769e+02 0.0000000000e+00 0.0000e+00 1.0000e+00
       11 -1    0    0    0    0 -0.0000000000e+00 -0.0000000000e+00 -1.1596671770e+02 1.1596671770e+02 0.0000000000e+00 0.0000e+00 -1.0000e+00
       23  1    1    2    0    0 +1.3007432062e+01 +4.2129487310e+01 +3.2432015377e+01 1.0635400301e+02 9.1188000000e+01 0.0000e+00 0.0000e+00
       25  1    1    2    0    0 -1.3007432062e+01 -4.2129487310e+01 -2.3411375384e+01 1.3460007239e+02 1.2500000000e+02 0.0000e+00 0.0000e+00
</event>
<event>
 4      1 +2.1368000e-01 2.49975000e+02 7.54677100e-03 1.11332100e-01
      -11 -1    0    0    0    0 +0.0000000000e+00 +0.0000000000e+00 +1.2498750000e+02 1.2498750000e+02 0.0000000000e+00 0.0000e+00 -1.0000e+00
       11 -1    0    0    0    0 -0.0000000000e+00 -0.0000000000e+00 -1.2498750000e+02 1.2498750000e+02 0.0000000000e+00 0.0000e+00 1.0000e+00
       23  1    1    2    0    0 +4.1921882188e+01 +1.3069165498e-01 +4.5913621636e+01 1.1036654059e+02 9.1188000000e+01 0.0000e+00 -1.0000e+00
       25  1    1    2    0    0 -4.1921882188e+01 -1.3069165498e-01 -4.5913621636e+01 1.3960845941e+02 1.2500000000e+02 0.0000e+00 0.0000e+00
</event>
<event>
 4      1 +2.1368000e-01 2.49972300e+02 7.54677100e-03 1.11332200e-01
      -11 -1    0    0    0    0 +0.0000000000e+00 +0.0000000000e+00 +1.2498791298e+02 1.2498791298e+02 0.0000000000e+00 0.0000e+00 1.0000e+00
       11 -1    0    0    0    0 -0.0000000000e+00 -0.0000000000e+00 -1.2498443031e+02 1.2498443031e+02 0.0000000000e+00 0.0000e+00 -1.0000e+00
       23  1    1    2    0    0 +3.9505702053e+01 -3.9442837855e+01 +2.7364952489e+01 1.1036543807e+02 9.1188000000e+01 0.0000e+00 1.0000e+00
       25  1    1    2    0    0 -3.9505702053e+01 +3.9442837855e+01 -2.7361469816e+01 1.3960690521e+02 1.2500000000e+02 0.0000e+00 0.0000e+00
</event>
<event>
 4      1 +2.1368000e-01 2.38227600e+02 7.54677100e-03 1.12097900e-01
      -11 -1    0    0    0    0 +0.0000000000e+00 +0.0000000000e+00 +1.2498711191e+02 1.2498711191e+02 0.0000000000e+00 0.0000e+00 -1.0000e+00
       11 -1    0    0    0    0 -0.0000000000e+00 -0.0000000000e+00 -1.1351647635e+02 1.1351647635e+02 0.0000000000e+00 0.0000e+00 1.0000e+00
       23  1    1    2    0    0 -4.0825558054e+01 -2.0299988676e+01 -1.4378603279e+01 1.0296024139e+02 9.1188000000e+01 0.0000e+00 0.0000e+00
       25  1    1    2    0    0 +4.0825558054e+01 +2.0299988676e+01 +2.5849238843e+01 1.3554334687e+02 1.2500000000e+02 0.0000e+00 0.0000e+00
</event>
<event>
 4      1 +2.1368000e-01 2.49884000e+02 7.54677100e-03 1.11337800e-01
      -11 -1    0    0    0    0 +0.0000000000e+00 +0.0000000000e+00 +1.2490372861e+02 1.2490372861e+02 0.0000000000e+00 0.0000e+00 1.0000e+00
       11 -1    0    0    0    0 -0.0000000000e+00 -0.0000000000e+00 -1.2498031982e+02 1.2498031982e+02 0.0000000000e+00 0.0000e+00 -1.0000e+00
       23  1    1    2    0    0 +2.4460495103e+01 +1.3695222228e+01 -5.5427275610e+01 1.1033272025e+02 9.1188000000e+01 0.0000e+00 -1.0000e+00
       25  1    1    2    0    0 -2.4460495103e+01 -1.3695222228e+01 +5.5350684399e+01 1.3955132818e+02 1.2500000000e+02 0.0000e+00 0.0000e+00
</event>
<event>
 4      1 +2.1368000e-01 2.49953800e+02 7.54677100e-03 1.11333400e-01
      -11 -1    0    0    0    0 +0.0000000000e+00 +0.0000000000e+00 +1.2497080113e+02 1.2497080113e+02 0.0000000000e+00 0.0000e+00 1.0000e+00
       11 -1    0    0    0    0 -0.0000000000e+00 -0.0000000000e+00 -1.2498298950e+02 1.2498298950e+02 0.0000000000e+00 0.0000e+00 -1.0000e+00
       23  1    1    2    0    0 +1.7013057033e+01 +5.5586623228e+01 +2.1985312264e+01 1.1035362292e+02 9.1188000000e+01 0.0000e+00 0.0000e+00
       25  1    1    2    0    0 -1.7013057033e+01 -5.5586623228e+01 -2.1997500630e+01 1.3960016771e+02 1.2500000000e+02 0.0000e+00 0.0000e+00
</event>
<event>
 4      1 +2.1368000e-01 2.49975000e+02 7.54677100e-03 1.11332100e-01
      -11 -1    0    0    0    0 +0.0000000000e+00 +0.0000000000e+00 +1.2498837067e+02 1.2498837067e+02 0.0000000000e+00 0.0000e+00 1.0000e+00
       11 -1    0    0    0    0 -0.0000000000e+00 -0.0000000000e+00 -1.2498662933e+02 1.2498662933e+02 0.0000000000e+00 0.0000e+00 -1.0000e+00
       23  1    1    2    0    0 +5.9736784740e+01 +5.0193449605e+00 -1.6486943628e+01 1.1036642573e+02 9.1188000000e+01 0.0000e+00 0.0000e+00
       25  1    1    2    0    0 -5.9736784740e+01 -5.0193449605e+00 +1.6488684971e+01 1.3960857426e+02 1.2500000000e+02 0.0000e+00 0.0000e+00
</event>
<event>
 4      1 +2.1368000e-01 2.49971700e+02 7.54677100e-03 1.11332300e-01
      -11 -1    0    0    0    0 +0.0000000000e+00 +0.0000000000e+00 +1.2498410590e+02 1.2498410590e+02 0.0000000000e+00 0.0000e+00 1.0000e+00
       11 -1    0    0    0    0 -0.0000000000e+00 -0.0000000000e+00 -1.2498758856e+02 1.2498758856e+02 0.0000000000e+00 0.0000e+00 -1.0000e+00
       23  1    1    2    0    0 -5.4355864676e+01 +5.1073090195e+00 -2.9741574806e+01 1.1036510883e+02 9.1188000000e+01 0.0000e+00 0.0000e+00
       25  1    1    2    0    0 +5.4355864676e+01 -5.1073090195e+00 +2.9738092142e+01 1.3960658564e+02 1.2500000000e+02 0.0000e+00 0.0000e+00
</event>
<event>
 4      1 +2.1368000e-01 2.49950100e+02 7.54677100e-03 1.11333600e-01
      -11 -1    0    0    0    0 +0.0000000000e+00 +0.0000000000e+00 +1.2498635950e+02 1.2498635950e+02 0.0000000000e+00 0.0000e+00 -1.0000e+00
       11 -1    0    0    0    0 -0.0000000000e+00 -0.0000000000e+00 -1.2496372398e+02 1.2496372398e+02 0.0000000000e+00 0.0000e+00 1.0000e+00
       23  1    1    2    0    0 +1.1337382857e+01 -6.0892273638e+01 +5.1134332441e+00 1.1035308687e+02 9.1188000000e+01 0.0000e+00 0.0000e+00
       25  1    1    2    0    0 -1.1337382857e+01 +6.0892273638e+01 -5.0907977273e+00 1.3959699660e+02 1.2500000000e+02 0.0000e+00 0.0000e+00
</event>
<event>
 4      1 +2.1368000e-01 2.49969100e+02 7.54677100e-03 1.11332400e-01
      -11 -1    0    0    0    0 +0.0000000000e+00 +0.0000000000e+00 +1.2498195790e+02 1.2498195790e+02 0.0000000000e+00 0.0000e+00 1.0000e+00
       11 -1    0    0    0    0 -0.0000000000e+00 -0.0000000000e+00 -1.2498718180e+02 1.2498718180e+02 0.0000000000e+00 0.0000e+00 -1.0000e+00
       23  1    1    2    0    0 +1.0209854403e+01 +1.5220118038e+01 +5.9402292597e+01 1.1036202621e+02 9.1188000000e+01 0.0000e+00 1.0000e+00
       25  1    1    2    0    0 -1.0209854403e+01 -1.5220118038e+01 -5.9407516503e+01 1.3960711349e+02 1.2500000000e+02 0.0000e+00 0.0000e+00
</event>
<event>
 4      1 +2.1368000e-01 2.31019900e+02 7.54677100e-03 1.12592400e-01
      -11 -1    0    0    0    0 +0.0000000000e+00 +0.0000000000e+00 +1.2498848626e+02 1.2498848626e+02 0.0000000000e+00 0.0000e+00 1.0000e+00
       11 -1    0    0    0    0 -0.0000000000e+00 -0.0000000000e+00 -1.0675020291e+02 1.0675020291e+02 0.0000000000e+00 0.0000e+00 -1.0000e+00
       23  1    1    2    0    0 +1.9448824247e+00 +3.1631195545e+01 -1.7074809509e+01 9.8036297171e+01 9.1188000000e+01 0.0000e+00 -1.0000e+00
       25  1    1    2    0    0 -1.9448824247e+00 -3.1631195545e+01 +3.5313092861e+01 1.3370239200e+02 1.2500000000e+02 0.0000e+00 0.0000e+00
</event>
<event>
 4      1 +2.1368000e-01 2.49975000e+02 7.54677100e-03 1.11332100e-01
      -11 -1    0    0    0    0 +0.0000000000e+00 +0.0000000000e+00 +1.2498749907e+02 1.2498749907e+02 0.0000000000e+00 0.0000e+00 1.0000e+00
       11 -1    0    0    0    0 -0.0000000000e+00 -0.0000000000e+00 -1.2498749907e+02 1.2498749907e+02 0.0000000000e+00 0.0000e+00 -1.0000e+00
       23  1    1    2    0    0 +2.3491745162e+01 +2.7044960214e+01 +5.0815644696e+01 1.1036653956e+02 9.1188000000e+01 0.0000e+00 1.0000e+00
       25  1    1    2    0    0 -2.3491745162e+01 -2.7044960214e+01 -5.0815644696e+01 1.3960845859e+02 1.2500000000e+02 0.0000e+00 0.0000e+00
</event>
<event>
 4      1 +2.1368000e-01 2.49880100e+02 7.54677100e-03 1.11338100e-01
      -11 -1    0    0    0    0 +0.0000000000e+00 +0.0000000000e+00 +1.2498793491e+02 1.2498793491e+02 0.0000000000e+00 0.0000e+00 1.0000e+00
       11 -1    0    0    0    0 -0.0000000000e+00 -0.0000000000e+00 -1.2489219673e+02 1.2489219673e+02 0.0000000000e+00 0.0000e+00 -1.0000e+00
       23  1    1    2    0    0 -3.5817540866e+01 +3.0596678817e+01 -4.0390075526e+01 1.1029806224e+02 9.1188000000e+01 0.0000e+00 -1.0000e+00
       25  1    1    2    0    0 +3.5817540866e+01 -3.0596678817e+01 +4.0485813706e+01 1.3958206941e+02 1.2500000000e+02 0.0000e+00 0.0000e+00
</event>
<event>
 4      1 +2.1368000e-01 2.49975000e+02 7.54677100e-03 1.11332100e-01
      -11 -1    0    0    0    0 +0.0000000000e+00 +0.0000000000e+00 +1.2498750000e+02 1.2498750000e+02 0.0000000000e+00 0.0000e+00 -1.0000e+00
       11 -1    0    0    0    0 -0.0000000000e+00 -0.0000000000e+00 -1.2498750000e+02 1.2498750000e+02 0.0000000000e+00 0.0000e+00 1.0000e+00
       23  1    1    2    0    0 -5.6567060126e+01 +1.9527867050e+01 +1.6862741633e+01 1.1036654059e+02 9.1188000000e+01 0.0000e+00 0.0000e+00
       25  1    1    2    0    0 +5.6567060126e+01 -1.9527867050e+01 -1.6862741633e+01 1.3960845941e+02 1.2500000000e+02 0.0000e+00 0.0000e+00
</event>
<event>
 4      1 +2.1368000e-01 2.49975000e+02 7.54677100e-03 1.11332100e-01
      -11 -1    0    0    0    0 +0.0000000000e+00 +0.0000000000e+00 +1.2498837066e+02 1.2498837066e+02 0.0000000000e+00 0.0000e+00 -1.0000e+00
       11 -1    0    0    0    0 -0.0000000000e+00 -0.0000000000e+00 -1.2498662931e+02 1.2498662931e+02 0.0000000000e+00 0.0000e+00 1.0000e+00
       23  1    1    2    0    0 -5.0404967774e+01 +2.0534176119e+01 +3.0054200714e+01 1.1036674993e+02 9.1188000000e+01 0.0000e+00 -1.0000e+00
       25  1    1    2    0    0 +5.0404967774e+01 -2.0534176119e+01 -3.0052459371e+01 1.3960825004e+02 1.2500000000e+02 0.0000e+00 0.0000e+00
</event>
<event>
 4      1 +2.1368000e-01 2.23613600e+02 7.54677100e-03 1.13121700e-01
      -11 -1    0    0    0    0 +0.0000000000e+00 +0.0000000000e+00 +1.0001659265e+02 1.0001659265e+02 0.0000000000e+00 0.0000e+00 -1.0000e+00
       11 -1    0    0    0    0 -0.0000000000e+00 -0.0000000000e+00 -1.2498686038e+02 1.2498686038e+02 0.0000000000e+00 0.0000e+00 1.0000e+00
       23  1    1    2    0    0 -2.7281541721e+01 -6.8981739326e+00 -8.2132436278e+00 9.5784007210e+01 9.1188000000e+01 0.0000e+00 0.0000e+00
       25  1    1    2    0    0 +2.7281541721e+01 +6.8981739326e+00 -1.6757024103e+01 1.2921944582e+02 1.2500000000e+02 0.0000e+00 0.0000e+00
</event>
<event>
 4      1 +2.1368000e-01 2.49189500e+02 7.54677100e-03 1.11381800e-01
      -11 -1    0    0    0    0 +0.0000000000e+00 +0.0000000000e+00 +1.2420390442e+02 1.2420390442e+02 0.0000000000e+00 0.0000e+00 1.0000e+00
       11 -1    0    0    0    0 -0.0000000000e+00 -0.0000000000e+00 -1.2498678601e+02 1.2498678601e+02 0.0000000000e+00 0.0000e+00 -1.0000e+00
       23  1    1    2    0    0 +3.2909809516e+01 -2.4044156783e+01 -4.6254916566e+01 1.1007245654e+02 9.1188000000e+01 0.0000e+00 -1.0000e+00
       25  1    1    2    0    0 -3.2909809516e+01 +2.4044156783e+01 +4.5472034973e+01 1.3911823390e+02 1.2500000000e+02 0.0000e+00 0.0000e+00
</event>
<event>
 4      1 +2.1368000e-01 2.30670000e+02 7.54677100e-03 1.12616900e-01
      -11 -1    0    0    0    0 +0.0000000000e+00 +0.0000000000e+00 +1.0642792157e+02 1.0642792157e+02 0.0000000000e+00 0.0000e+00 1.0000e+00
       11 -1    0    0    0    0 -0.0000000000e+00 -0.0000000000e+00 -1.2498756788e+02 1.2498756788e+02 0.0000000000e+00 0.0000e+00 -1.0000e+00
       23  1    1    2    0    0 +1.8883707447e+01 +9.3112069258e+00 +2.5865052924e+01 9.7095547211e+01 9.1188000000e+01 0.0000e+00 1.0000e+00
       25  1    1    2    0    0 -1.8883707447e+01 -9.3112069258e+00 -4.4424699231e+01 1.3431994224e+02 1.2500000000e+02 0.0000e+00 0.0000e+00
</event>
<event>
 4      1 +2.1368000e-01 2.48023800e+02 7.54677100e-03 1.11456000e-01
      -11 -1    0    0    0    0 +0.0000000000e+00 +0.0000000000e+00 +1.2482314961e+02 1.2482314961e+02 0.0000000000e+00 0.0000e+00 -1.0000e+00
       11 -1    0    0    0    0 -0.0000000000e+00 -0.0000000000e+00 -1.2320596282e+02 1.2320596282e+02 0.0000000000e+00 0.0000e+00 1.0000e+00
       23  1    1    2    0    0 +1.9390115718e+01 +5.5694150923e+01 +1.2885062722e+01 1.0935762991e+02 9.1188000000e+01 0.0000e+00 -1.0000e+00
       25  1    1    2    0    0 -1.9390115718e+01 -5.5694150923e+01 -1.1267875934e+01 1.3867148251e+02 1.2500000000e+02 0.0000e+00 0.0000e+00
</event>
<event>
 4      1 +2.1368000e-01 2.49407400e+02 7.54677100e-03 1.11368000e-01
      -11 -1    0    0    0    0 +0.0000000000e+00 +0.0000000000e+00 +1.2463077221e+02 1.2463077221e+02 0.0000000000e+00 0.0000e+00 -1.0000e+00
       11 -1    0    0    0    0 -0.0000000000e+00 -0.0000000000e+00 -1.2477671395e+02 1.2477671395e+02 0.0000000000e+00 0.0000e+00 1.0000e+00
       23  1    1    2    0    0 -1.4714943780e+01 -4.4916959040e+01 +3.9452395314e+01 1.1002638602e+02 9.1188000000e+01 0.0000e+00 -1.0000e+00
       25  1    1    2    0    0 +1.4714943780e+01 +4.4916959040e+01 -3.9598337055e+01 1.3938110014e+02 1.2500000000e+02 0.0000e+00 0.0000e+00
</event>
<event>
 4      1 +2.1368000e-01 2.49833600e+02 7.54677100e-03 1.11341000e-01
      -11 -1    0    0    0    0 +0.0000000000e+00 +0.0000000000e+00 +1.2498817050e+02 1.2498817050e+02 0.0000000000e+00 0.0000e+00 -1.0000e+00
       11 -1    0    0    0    0 -0.0000000000e+00 -0.0000000000e+00 -1.2484546113e+02 1.2484546113e+02 0.0000000000e+00 0.0000e+00 1.0000e+00
       23  1    1    2    0    0 +1.6833008312e+01 +3.4736972152e+01 -4.8497150006e+01 1.1025983995e+02 9.1188000000e+01 0.0000e+00 1.0000e+00
       25  1    1    2    0    0 -1.6833008312e+01 -3.4736972152e+01 +4.8639859374e+01 1.3957379168e+02 1.2500000000e+02 0.0000e+00 0.0000e+00
</event>
<event>
 4      1 +2.1368000e-01 2.49881900e+02 7.54677100e-03 1.11338000e-01
      -11 -1    0    0    0    0 +0.0000000000e+00 +0.0000000000e+00 +1.2489655086e+02 1.2489655086e+02 0.0000000000e+00 0.0000e+00 1.0000e+00
       11 -1    0    0    0    0 -0.0000000000e+00 -0.0000000000e+00 -1.2498532689e+02 1.2498532689e+02 0.0000000000e+00 0.0000e+00 -1.0000e+00
       23  1    1    2    0    0 +5.0891469677e+01 +3.4339675000e+01 +9.1742470323e+00 1.1031125563e+02 9.1188000000e+01 0.0000e+00 1.0000e+00
       25  1    1    2    0    0 -5.0891469677e+01 -3.4339675000e+01 -9.2630230561e+00 1.3957062213e+02 1.2500000000e+02 0.0000e+00 0.0000e+00
</event>
<event>
 4      1 +2.1368000e-01 2.43964000e+02 7.54677100e-03 1.11718000e-01
      -11 -1    0    0    0    0 +0.0000000000e+00 +0.0000000000e+00 +1.2498800222e+02 1.2498800222e+02 0.0000000000e+00 0.0000e+00 -1.0000e+00
       11 -1    0    0    0    0 -0.0000000000e+00 -0.0000000000e+00 -1.1904833171e+02 1.1904833171e+02 0.0000000000e+00 0.0000e+00 1.0000e+00
       23  1    1    2    0    0 +9.5278164702e+00 +2.4479999200e+01 +5.2055300952e+01 1.0823610926e+02 9.1188000000e+01 0.0000e+00 -1.0000e+00
       25  1    1    2    0    0 -9.5278164702e+00 -2.4479999200e+01 -4.6115630440e+01 1.3580022466e+02 1.2500000000e+02 0.0000e+00 0.0000e+00
</event>
<event>
 4      1 +2.1368000e-01 2.43173700e+02 7.54677100e-03 1.11769600e-01
      -11 -1    0    0    0    0 +0.0000000000e+00 +0.0000000000e+00 +1.2498803195e+02 1.2498803195e+02 0.0000000000e+00 0.0000e+00 1.0000e+00
       11 -1    0    0    0    0 -0.0000000000e+00 -0.0000000000e+00 -1.1827825422e+02 1.1827825422e+02 0.0000000000e+00 0.0000e+00 -1.0000e+00
       23  1    1    2    0    0 +4.7264873917e+00 +4.1848289471e+01 +3.8527851157e+01 1.0757911356e+02 9.1188000000e+01 0.0000e+00 1.0000e+00
       25  1    1    2    0    0 -4.7264873917e+00 -4.1848289471e+01 -3.1818073432e+01 1.3568717261e+02 1.2500000000e+02 0.0000e+00 0.0000e+00
</event>
<event>
 4      1 +2.1368000e-01 2.49974900e+02 7.54677100e-03 1.11332100e-01
      -11 -1    0    0    0    0 +0.0000000000e+00 +0.0000000000e+00 +1.2498747137e+02 1.2498747137e+02 0.0000000000e+00 0.0000e+00 1.0000e+00
       11 -1    0    0    0    0 -0.0000000000e+00 -0.0000000000e+00 -1.2498747137e+02 1.2498747137e+02 0.0000000000e+00 0.0000e+00 -1.0000e+00
       23  1    1    2    0    0 +4.2771189585e+01 -4.4284860297e+01 +8.6597557224e+00 1.1036650861e+02 9.1188000000e+01 0.0000e+00 1.0000e+00
       25  1    1    2    0    0 -4.2771189585e+01 +4.4284860297e+01 -8.6597557224e+00 1.3960843413e+02 1.2500000000e+02 0.0000e+00 0.0000e+00
</event>
<event>
 4      1 +2.1368000e-01 2.19541800e+02 7.54677100e-03 1.13422500e-01
      -11 -1    0    0    0    0 +0.0000000000e+00 +0.0000000000e+00 +1.2430779823e+02 1.2430779823e+02 0.0000000000e+00 0.0000e+00 1.0000e+00
       11 -1    0    0    0    0 -0.0000000000e+00 -0.0000000000e+00 -9.6933976625e+01 9.6933976625e+01 0.0000000000e+00 0.0000e+00 -1.0000e+00
       23  1    1    2    0    0 -1.8004125489e+01 +2.4958732028e+00 +1.6778526090e+01 9.4483586931e+01 9.1188000000e+01 0.0000e+00 1.0000e+00
       25  1    1    2    0    0 +1.8004125489e+01 -2.4958732028e+00 +1.0595295511e+01 1.2675818792e+02 1.2500000000e+02 0.0000e+00 0.0000e+00
</event>
<event>
 4      1 +2.1368000e-01 2.48813600e+02 7.54677100e-03 1.11405700e-01
      -11 -1    0    0    0    0 +0.0000000000e+00 +0.0000000000e+00 +1.2383094759e+02 1.2383094759e+02 0.0000000000e+00 0.0000e+00 1.0000e+00
       11 -1    0    0    0    0 -0.0000000000e+00 -0.0000000000e+00 -1.2498529801e+02 1.2498529801e+02 0.0000000000e+00 0.0000e+00 -1.0000e+00
       23  1    1    2    0    0 +6.0805653355e+00 +9.1496121820e+00 -6.0526389212e+01 1.0999719911e+02 9.1188000000e+01 0.0000e+00 -1.0000e+00
       25  1    1    2    0    0 -6.0805653355e+00 -9.1496121820e+00 +5.9372038796e+01 1.3881904649e+02 1.2500000000e+02 0.0000e+00 0.0000e+00
</event>
<event>
 4      1 +2.1368000e-01 2.49975000e+02 7.54677100e-03 1.11332100e-01
      -11 -1    0    0    0    0 +0.0000000000e+00 +0.0000000000e+00 +1.2498837067e+02 1.2498837067e+02 0.0000000000e+00 0.0000e+00 1.0000e+00
       11 -1    0    0    0    0 -0.0000000000e+00 -0.0000000000e+00 -1.2498662933e+02 1.2498662933e+02 0.0000000000e+00 0.0000e+00 -1.0000e+00
       23  1    1    2    0    0 +3.1142858186e+01 -5.0521224379e+01 -1.8526244147e+01 1.1036641153e+02 9.1188000000e+01 0.0000e+00 -1.0000e+00
       25  1    1    2    0    0 -3.1142858186e+01 +5.0521224379e+01 +1.8527985490e+01 1.3960858847e+02 1.2500000000e+02 0.0000e+00 0.0000e+00
</event>
<event>
 4      1 +2.1368000e-01 2.49972100e+02 7.54677100e-03 1.11332200e-01
      -11 -1    0    0    0    0 +0.0000000000e+00 +0.0000000000e+00 +1.2498516551e+02 1.2498516551e+02 0.0000000000e+00 0.0000e+00 -1.0000e+00
       11 -1    0    0    0    0 -0.0000000000e+00 -0.0000000000e+00 -1.2498690683e+02 1.2498690683e+02 0.0000000000e+00 0.0000e+00 1.0000e+00
       23  1    1    2    0    0 +5.6465453645e+01 +3.9446317478e+00 -2.5715617669e+01 1.1036508466e+02 9.1188000000e+01 0.0000e+00 0.0000e+00
       25  1    1    2    0    0 -5.6465453645e+01 -3.9446317478e+00 +2.5713876346e+01 1.3960698769e+02 1.2500000000e+02 0.0000e+00 0.0000e+00
</event>
<event>
 4      1 +2.1368000e-01 2.49940300e+02 7.54677100e-03 1.11334300e-01
      -11 -1    0    0    0    0 +0.0000000000e+00 +0.0000000000e+00 +1.2498755927e+02 1.2498755927e+02 0.0000000000e+00 0.0000e+00 -1.0000e+00
       11 -1    0    0    0    0 -0.0000000000e+00 -0.0000000000e+00 -1.2495273700e+02 1.2495273700e+02 0.0000000000e+00 0.0000e+00 1.0000e+00
       23  1    1    2    0    0 -5.5068604697e+01 -2.5169440833e+01 +1.3986479865e+01 1.1034910484e+02 9.1188000000e+01 0.0000e+00 0.0000e+00
       25  1    1    2    0    0 +5.5068604697e+01 +2.5169440833e+01 -1.3951657599e+01 1.3959119143e+02 1.2500000000e+02 0.0000e+00 0.0000e+00
</event>
<event>
 4      1 +2.1368000e-01 2.49975000e+02 7.54677100e-03 1.11332100e-01
      -11 -1    0    0    0    0 +0.0000000000e+00 +0.0000000000e+00 +1.2498750000e+02 1.2498750000e+02 0.0000000000e+00 0.0000e+00 -1.0000e+00
       11 -1    0    0    0    0 -0.0000000000e+00 -0.0000000000e+00 -1.2498750000e+02 1.2498750000e+02 0.0000000000e+00 0.0000e+00 1.0000e+00
       23  1    1    2    0    0 -1.5767641843e+01 -1.0727896567e+01 -5.9176140836e+01 1.1036654059e+02 9.1188000000e+01 0.0000e+00 1.0000e+00
       25  1    1    2    0    0 +1.5767641843e+01 +1.0727896567e+01 +5.9176140836e+01 1.3960845941e+02 1.2500000000e+02 0.0000e+00 0.0000e+00
</event>
<event>
 4      1 +2.1368000e-01 2.49974900e+02 7.54677100e-03 1.11332100e-01
      -11 -1    0    0    0    0 +0.0000000000e+00 +0.0000000000e+00 +1.2498832935e+02 1.2498832935e+02 0.0000000000e+00 0.0000e+00 1.0000e+00
       11 -1    0    0    0    0 -0.0000000000e+00 -0.0000000000e+00 -1.2498658801e+02 1.2498658801e+02 0.0000000000e+00 0.0000e+00 -1.0000e+00
       23  1    1    2    0    0 -4.7641132682e+01 -1.8358183581e+01 -3.5478962324e+01 1.1036624728e+02 9.1188000000e+01 0.0000e+00 -1.0000e+00
       25  1    1    2    0    0 +4.7641132682e+01 +1.8358183581e+01 +3.5480703666e+01 1.3960867008e+02 1.2500000000e+02 0.0000e+00 0.0000e+00
</event>
<event>
 4      1 +2.1368000e-01 2.49975000e+02 7.54677100e-03 1.11332100e-01
      -11 -1    0    0    0    0 +0.0000000000e+00 +0.0000000000e+00 +1.2498750000e+02 1.2498750000e+02 0.0000000000e+00 0.0000e+00 1.0000e+00
       11 -1    0    0    0    0 -0.0000000000e+00 -0.0000000000e+00 -1.2498750000e+02 1.2498750000e+02 0.0000000000e+00 0.0000e+00 -1.0000e+00
       23  1    1    2    0    0 -5.2692572008e+01 -3.0947577875e+01 +1.1456972421e+01 1.1036654059e+02 9.1188000000e+01 0.0000e+00 -1.0000e+00
       25  1    1    2    0    0 +5.2692572008e+01 +3.0947577875e+01 -1.1456972421e+01 1.3960845941e+02 1.2500000000e+02 0.0000e+00 0.0000e+00
</event>
<event>
 4      1 +2.1368000e-01 2.49975000e+02 7.54677100e-03 1.11332100e-01
      -11 -1    0    0    0    0 +0.0000000000e+00 +0.0000000000e+00 +1.2498749758e+02 1.2498749758e+02 0.0000000000e+00 0.0000e+00 1.0000e+00
       11 -1    0    0    0    0 -0.0000000000e+00 -0.0000000000e+00 -1.2498749758e+02 1.2498749758e+02 0.0000000000e+00 0.0000e+00 -1.0000e+00
       23  1    1    2    0    0 -3.1002548192e+00 -5.7829636217e+01 +2.2619525557e+01 1.1036653789e+02 9.1188000000e+01 0.0000e+00 -1.0000e+00
       25  1    1    2    0    0 +3.1002548192e+00 +5.7829636217e+01 -2.2619525557e+01 1.3960845727e+02 1.2500000000e+02 0.0000e+00 0.0000e+00
</event>
<event>
 4      1 +2.1368000e-01 2.49891000e+02 7.54677100e-03 1.11337400e-01
      -11 -1    0    0    0    0 +0.0000000000e+00 +0.0000000000e+00 +1.2494896775e+02 1.2494896775e+02 0.0000000000e+00 0.0000e+00 -1.0000e+00
       11 -1    0    0    0    0 -0.0000000000e+00 -0.0000000000e+00 -1.2494200467e+02 1.2494200467e+02 0.0000000000e+00 0.0000e+00 1.0000e+00
       23  1    1    2    0    0 -3.9260008536e+01 -3.7755288446e+01 -2.9802210894e+01 1.1031877988e+02 9.1188000000e+01 0.0000e+00 0.0000e+00
       25  1    1    2    0    0 +3.9260008536e+01 +3.7755288446e+01 +2.9809173973e+01 1.3957219253e+02 1.2500000000e+02 0.0000e+00 0.0000e+00
</event>
<event>
 4      1 +2.1368000e-01 2.49975000e+02 7.54677100e-03 1.11332100e-01
      -11 -1    0    0    0    0 +0.0000000000e+00 +0.0000000000e+00 +1.2498835225e+02 1.2498835225e+02 0.0000000000e+00 0.0000e+00 1.0000e+00
       11 -1    0    0    0    0 -0.0000000000e+00 -0.0000000000e+00 -1.2498661091e+02 1.2498661091e+02 0.0000000000e+00 0.0000e+00 -1.0000e+00
       23  1    1    2    0    0 -3.1868437359e+01 -7.9070595542e+00 +5.2796587835e+01 1.1036688779e+02 9.1188000000e+01 0.0000e+00 1.0000e+00
       25  1    1    2    0    0 +3.1868437359e+01 +7.9070595542e+00 -5.2794846493e+01 1.3960807536e+02 1.2500000000e+02 0.0000e+00 0.0000e+00
</event>
<event>
 4      1 +2.1368000e-01 2.49904000e+02 7.54677100e-03 1.11336600e-01
      -11 -1    0    0    0    0 +0.0000000000e+00 +0.0000000000e+00 +1.2498420171e+02 1.2498420171e+02 0.0000000000e+00 0.0000e+00 1.0000e+00
       11 -1    0    0    0    0 -0.0000000000e+00 -0.0000000000e+00 -1.2491979033e+02 1.2491979033e+02 0.0000000000e+00 0.0000e+00 -1.0000e+00
       23  1    1    2    0    0 -1.3634549480e+01 +4.4392364916e+00 +6.0453274179e+01 1.1034245540e+02 9.1188000000e+01 0.0000e+00 1.0000e+00
       25  1    1    2    0    0 +1.3634549480e+01 -4.4392364916e+00 -6.0388862793e+01 1.3956153664e+02 1.2500000000e+02 0.0000e+00 0.0000e+00
</event>
<event>
 4      1 +2.1368000e-01 2.40941000e+02 7.54677100e-03 1.11916800e-01
      -11 -1    0    0    0    0 +0.0000000000e+00 +0.0000000000e+00 +1.1611689583e+02 1.1611689583e+02 0.0000000000e+00 0.0000e+00 1.0000e+00
       11 -1    0    0    0    0 -0.0000000000e+00 -0.0000000000e+00 -1.2498731529e+02 1.2498731529e+02 0.0000000000e+00 0.0000e+00 -1.0000e+00
       23  1    1    2    0    0 +3.1070487691e+01 -2.8886367420e+01 +2.7342461214e+01 1.0422408051e+02 9.1188000000e+01 0.0000e+00 0.0000e+00
       25  1    1    2    0    0 -3.1070487691e+01 +2.8886367420e+01 -3.6212880676e+01 1.3688013061e+02 1.2500000000e+02 0.0000e+00 0.0000e+00
</event>
<event>
 4      1 +2.1368000e-01 2.49894000e+02 7.54677100e-03 1.11337200e-01
      -11 -1    0    0    0    0 +0.0000000000e+00 +0.0000000000e+00 +1.2498792318e+02 1.2498792318e+02 0.0000000000e+00 0.0000e+00 -1.0000e+00
       11 -1    0    0    0    0 -0.0000000000e+00 -0.0000000000e+00 -1.2490610657e+02 1.2490610657e+02 0.0000000000e+00 0.0000e+00 1.0000e+00
       23  1    1    2    0    0 -1.8780994253e+01 +5.8991738179e+01 -4.7376937609e+00 1.1031975347e+02 9.1188000000e+01 0.0000e+00 1.0000e+00
       25  1    1    2    0    0 +1.8780994253e+01 -5.8991738179e+01 +4.8195103680e+00 1.3957427628e+02 1.2500000000e+02 0.0000e+00 0.0000e+00
</event>
<event>
 4      1 +2.1368000e-01 2.49975000e+02 7.54677100e-03 1.11332100e-01
      -11 -1    0    0    0    0 +0.0000000000e+00 +0.0000000000e+00 +1.2498834814e+02 1.2498834814e+02 0.0000000000e+00 0.0000e+00 1.0000e+00
       11 -1    0    0    0    0 -0.0000000000e+00 -0.0000000000e+00 -1.2498660680e+02 1.2498660680e+02 0.0000000000e+00 0.0000e+00 -1.0000e+00
       23  1    1    2    0    0 -2.1509331100e+01 +1.7272365114e+01 +5.5719082351e+01 1.1036690357e+02 9.1188000000e+01 0.0000e+00 1.0000e+00
       25  1    1    2    0    0 +2.1509331100e+01 -1.7272365114e+01 -5.5717341008e+01 1.3960805138e+02 1.2500000000e+02 0.0000e+00 0.0000e+00
</event>
<event>
 4      1 +2.1368000e-01 2.49911200e+02 7.54677100e-03 1.11336100e-01
      -11 -1    0    0    0    0 +0.0000000000e+00 +0.0000000000e+00 +1.2492426902e+02 1.2492426902e+02 0.0000000000e+00 0.0000e+00 1.0000e+00
       11 -1    0    0    0    0 -0.0000000000e+00 -0.0000000000e+00 -1.2498694180e+02 1.2498694180e+02 0.0000000000e+00 0.0000e+00 -1.0000e+00
       23  1    1    2    0    0 +2.0614894636e+01 +2.6350219735e+00 +5.8502163534e+01 1.1031623500e+02 9.1188000000e+01 0.0000e+00 1.0000e+00
       25  1    1    2    0    0 -2.0614894636e+01 -2.6350219735e+00 -5.8564836318e+01 1.3959497582e+02 1.2500000000e+02 0.0000e+00 0.0000e+00
</event>
<event>
 4      1 +2.1368000e-01 2.49975000e+02 7.54677100e-03 1.11332100e-01
      -11 -1    0    0    0    0 +0.0000000000e+00 +0.0000000000e+00 +1.2498836748e+02 1.2498836748e+02 0.0000000000e+00 0.0000e+00 1.0000e+00
       11 -1    0    0    0    0 -0.0000000000e+00 -0.0000000000e+00 -1.2498662614e+02 1.2498662614e+02 0.0000000000e+00 0.0000e+00 -1.0000e+00
       23  1    1    2    0    0 +2.2910728416e+01 +4.9356298478e+01 +3.0076930068e+01 1.1036674654e+02 9.1188000000e+01 0.0000e+00 0.0000e+00
       25  1    1    2    0    0 -2.2910728416e+01 -4.9356298478e+01 -3.0075188725e+01 1.3960824708e+02 1.2500000000e+02 0.0000e+00 0.0000e+00
</event>
<event>
 4      1 +2.1368000e-01 2.49975000e+02 7.54677100e-03 1.11332100e-01
      -11 -1    0    0    0    0 +0.0000000000e+00 +0.0000000000e+00 +1.2498835966e+02 1.2498835966e+02 0.0000000000e+00 0.0000e+00 1.0000e+00
       11 -1    0    0    0    0 -0.0000000000e+00 -0.0000000000e+00 -1.2498661832e+02 1.2498661832e+02 0.0000000000e+00 0.0000e+00 -1.0000e+00
       23  1    1    2    0    0 -1.8676094936e+01 -5.8426729462e+01 +1.0151630162e+01 1.1036659901e+02 9.1188000000e+01 0.0000e+00 0.0000e+00
       25  1    1    2    0    0 +1.8676094936e+01 +5.8426729462e+01 -1.0149888819e+01 1.3960837898e+02 1.2500000000e+02 0.0000e+00 0.0000e+00
</event>
<event>
 4      1 +2.1368000e-01 2.49558300e+02 7.54677100e-03 1.11358400e-01
      -11 -1    0    0    0    0 +0.0000000000e+00 +0.0000000000e+00 +1.2457159880e+02 1.2457159880e+02 0.0000000000e+00 0.0000e+00 -1.0000e+00
       11 -1    0    0    0    0 -0.0000000000e+00 -0.0000000000e+00 -1.2498708664e+02 1.2498708664e+02 0.0000000000e+00 0.0000e+00 1.0000e+00
       23  1    1    2    0    0 +2.3128407494e+01 -1.5102976028e+00 +5.7061789645e+01 1.1003864509e+02 9.1188000000e+01 0.0000e+00 -1.0000e+00
       25  1    1    2    0    0 -2.3128407494e+01 +1.5102976028e+00 -5.7477277484e+01 1.3952004035e+02 1.2500000000e+02 0.0000e+00 0.0000e+00
</event>
<event>
 4      1 +2.1368000e-01 2.26616000e+02 7.54677100e-03 1.12904400e-01
      -11 -1    0    0    0    0 +0.0000000000e+00 +0.0000000000e+00 +1.2498778585e+02 1.2498778585e+02 0.0000000000e+00 0.0000e+00 1.0000e+00
       11 -1    0    0    0    0 -0.0000000000e+00 -0.0000000000e+00 -1.0271967461e+02 1.0271967461e+02 0.0000000000e+00 0.0000e+00 -1.0000e+00
       23  1    1    2    0    0 +1.2717824116e+01 -1.7627987887e+00 +4.0744592865e+01 1.0069867775e+02 9.1188000000e+01 0.0000e+00 1.0000e+00
       25  1    1    2    0    0 -1.2717824116e+01 +1.7627987887e+00 -1.8476481629e+01 1.2700878270e+02 1.2500000000e+02 0.0000e+00 0.0000e+00
</event>
<event>
 4      1 +2.1368000e-01 2.43690000e+02 7.54677100e-03 1.11735900e-01
      -11 -1    0    0    0    0 +0.0000000000e+00 +0.0000000000e+00 +1.2498768611e+02 1.2498768611e+02 0.0000000000e+00 0.0000e+00 -1.0000e+00
       11 -1    0    0    0    0 -0.0000000000e+00 -0.0000000000e+00 -1.1878137759e+02 1.1878137759e+02 0.0000000000e+00 0.0000e+00 1.0000e+00
       23  1    1    2    0    0 +4.3906626446e+00 -5.5423824437e+01 -4.3372483691e-01 1.0680130006e+02 9.1188000000e+01 0.0000e+00 1.0000e+00
       25  1    1    2    0    0 -4.3906626446e+00 +5.5423824437e+01 +6.6400333550e+00 1.3696776364e+02 1.2500000000e+02 0.0000e+00 0.0000e+00
</event>
<event>
 4      1 +2.1368000e-01 2.49975000e+02 7.54677100e-03 1.11332100e-01
      -11 -1    0    0    0    0 +0.0000000000e+00 +0.0000000000e+00 +1.2498747606e+02 1.2498747606e+02 0.0000000000e+00 0.0000e+00 1.0000e+00
       11 -1    0    0    0    0 -0.0000000000e+00 -0.0000000000e+00 -1.2498747606e+02 1.2498747606e+02 0.0000000000e+00 0.0000e+00 -1.0000e+00
       23  1    1    2    0    0 +5.8538776414e+01 -1.8258573397e+01 -1.0264121472e+01 1.1036651385e+02 9.1188000000e+01 0.0000e+00 1.0000e+00
       25  1    1    2    0    0 -5.8538776414e+01 +1.8258573397e+01 +1.0264121472e+01 1.3960843827e+02 1.2500000000e+02 0.0000e+00 0.0000e+00
</event>
<event>
 4      1 +2.1368000e-01 2.49966100e+02 7.54677100e-03 1.11332600e-01
      -11 -1    0    0    0    0 +0.0000000000e+00 +0.0000000000e+00 +1.2497867687e+02 1.2497867687e+02 0.0000000000e+00 0.0000e+00 1.0000e+00
       11 -1    0    0    0    0 -0.0000000000e+00 -0.0000000000e+00 -1.2498738327e+02 1.2498738327e+02 0.0000000000e+00 0.0000e+00 -1.0000e+00
       23  1    1    2    0    0 +5.3749187887e+00 -2.7561822848e+01 -5.5464424828e+01 1.1036347945e+02 9.1188000000e+01 0.0000e+00 0.0000e+00
       25  1    1    2    0    0 -5.3749187887e+00 +2.7561822848e+01 +5.5455718425e+01 1.3960258070e+02 1.2500000000e+02 0.0000e+00 0.0000e+00
</event>
<event>
 4      1 +2.1368000e-01 2.49813900e+02 7.54677100e-03 1.11342200e-01
      -11 -1    0    0    0    0 +0.0000000000e+00 +0.0000000000e+00 +1.2490868837e+02 1.2490868837e+02 0.0000000000e+00 0.0000e+00 1.0000e+00
       11 -1    0    0    0    0 -0.0000000000e+00 -0.0000000000e+00 -1.2490520790e+02 1.2490520790e+02 0.0000000000e+00 0.0000e+00 -1.0000e+00
       23  1    1    2    0    0 -4.4294260070e+01 -2.5645206127e+01 -3.5012892201e+01 1.1027607191e+02 9.1188000000e+01 0.0000e+00 -1.0000e+00
       25  1    1    2    0    0 +4.4294260070e+01 +2.5645206127e+01 +3.5016372667e+01 1.3953782436e+02 1.2500000000e+02 0.0000e+00 0.0000e+00
</event>
<event>
 4      1 +2.1368000e-01 2.45782500e+02 7.54677100e-03 1.11600000e-01
      -11 -1    0    0    0    0 +0.0000000000e+00 +0.0000000000e+00 +1.2086313019e+02 1.2086313019e+02 0.0000000000e+00 0.0000e+00 1.0000e+00
       11 -1    0    0    0    0 -0.0000000000e+00 -0.0000000000e+00 -1.2495342396e+02 1.2495342396e+02 0.0000000000e+00 0.0000e+00 -1.0000e+00
       23  1    1    2    0    0 -7.3499921103e-01 -5.6572620963e+01 -1.4138840593e+01 1.0824121130e+02 9.1188000000e+01 0.0000e+00 0.0000e+00
       25  1    1    2    0    0 +7.3499921103e-01 +5.6572620963e+01 +1.0048546820e+01 1.3757534285e+02 1.2500000000e+02 0.0000e+00 0.0000e+00
</event>
<event>
 4      1 +2.1368000e-01 2.47382900e+02 7.54677100e-03 1.11497000e-01
      -11 -1    0    0    0    0 +0.0000000000e+00 +0.0000000000e+00 +1.2498547884e+02 1.2498547884e+02 0.0000000000e+00 0.0000e+00 -1.0000e+00
       11 -1    0    0    0    0 -0.0000000000e+00 -0.0000000000e+00 -1.2241085708e+02 1.2241085708e+02 0.0000000000e+00 0.0000e+00 1.0000e+00
       23  1    1    2    0    0 -1.0086181405e+00 -2.4157682900e+01 +5.5571033411e+01 1.0948973492e+02 9.1188000000e+01 0.0000e+00 -1.0000e+00
       25  1    1    2    0    0 +1.0086181405e+00 +2.4157682900e+01 -5.2996411647e+01 1.3790660101e+02 1.2500000000e+02 0.0000e+00 0.0000e+00
</event>
<event>
 4      1 +2.1368000e-01 2.49277400e+02 7.54677100e-03 1.11376200e-01
      -11 -1    0    0    0    0 +0.0000000000e+00 +0.0000000000e+00 +1.2498298589e+02 1.2498298589e+02 0.0000000000e+00 0.0000e+00 1.0000e+00
       11 -1    0    0    0    0 -0.0000000000e+00 -0.0000000000e+00 -1.2429533592e+02 1.2429533592e+02 0.0000000000e+00 0.0000e+00 -1.0000e+00
       23  1    1    2    0    0 +1.2037949529e+00 -2.3713432626e+01 -5.6405488440e+01 1.0982079256e+02 9.1188000000e+01 0.0000e+00 -1.0000e+00
       25  1    1    2    0    0 -1.2037949529e+00 +2.3713432626e+01 +5.7093138405e+01 1.3945752924e+02 1.2500000000e+02 0.0000e+00 0.0000e+00
</event>
<event>
 4      1 +2.1368000e-01 2.49975000e+02 7.54677100e-03 1.11332100e-01
      -11 -1    0    0    0    0 +0.0000000000e+00 +0.0000000000e+00 +1.2498749981e+02 1.2498749981e+02 0.0000000000e+00 0.0000e+00 -1.0000e+00
       11 -1    0    0    0    0 -0.0000000000e+00 -0.0000000000e+00 -1.2498749981e+02 1.2498749981e+02 0.0000000000e+00 0.0000e+00 1.0000e+00
       23  1    1    2    0    0 +5.8022863940e+01 +5.2375404316e+00 -2.1712607452e+01 1.1036654038e+02 9.1188000000e+01 0.0000e+00 1.0000e+00
       25  1    1    2    0    0 -5.8022863940e+01 -5.2375404316e+00 +2.1712607452e+01 1.3960845924e+02 1.2500000000e+02 0.0000e+00 0.0000e+00
</event>
<event>
 4      1 +2.1368000e-01 2.49473800e+02 7.54677100e-03 1.11363800e-01
      -11 -1    0    0    0    0 +0.0000000000e+00 +0.0000000000e+00 +1.2458060432e+02 1.2458060432e+02 0.0000000000e+00 0.0000e+00 1.0000e+00
       11 -1    0    0    0    0 -0.0000000000e+00 -0.0000000000e+00 -1.2489342006e+02 1.2489342006e+02 0.0000000000e+00 0.0000e+00 -1.0000e+00
       23  1    1    2    0    0 -1.5025897395e+00 +5.9415921299e+01 +1.6333004666e+01 1.1006601594e+02 9.1188000000e+01 0.0000e+00 0.0000e+00
       25  1    1    2    0    0 +1.5025897395e+00 -5.9415921299e+01 -1.6645820401e+01 1.3940800844e+02 1.2500000000e+02 0.0000e+00 0.0000e+00
</event>
<event>
 4      1 +2.1368000e-01 2.46878100e+02 7.54677100e-03 1.11529400e-01
      -11 -1    0    0    0    0 +0.0000000000e+00 +0.0000000000e+00 +1.2191028234e+02 1.2191028234e+02 0.0000000000e+00 0.0000e+00 -1.0000e+00
       11 -1    0    0    0    0 -0.0000000000e+00 -0.0000000000e+00 -1.2498697476e+02 1.2498697476e+02 0.0000000000e+00 0.0000e+00 1.0000e+00
       23  1    1    2    0    0 -1.8417219505e+01 +5.0700003106e+01 +2.2659612771e+01 1.0834386777e+02 9.1188000000e+01 0.0000e+00 0.0000e+00
       25  1    1    2    0    0 +1.8417219505e+01 -5.0700003106e+01 -2.5736305184e+01 1.3855338933e+02 1.2500000000e+02 0.0000e+00 0.0000e+00
</event>
<event>
 4      1 +2.1368000e-01 2.48716100e+02 7.54677100e-03 1.11411900e-01
      -11 -1    0    0    0    0 +0.0000000000e+00 +0.0000000000e+00 +1.2373157591e+02 1.2373157591e+02 0.0000000000e+00 0.0000e+00 1.0000e+00
       11 -1    0    0    0    0 -0.0000000000e+00 -0.0000000000e+00 -1.2498769886e+02 1.2498769886e+02 0.0000000000e+00 0.0000e+00 -1.0000e+00
       23  1    1    2    0    0 -1.8957503193e+01 -4.1861216503e+01 +3.9434073482e+01 1.0946253181e+02 9.1188000000e+01 0.0000e+00 0.0000e+00
       25  1    1    2    0    0 +1.8957503193e+01 +4.1861216503e+01 -4.0690196433e+01 1.3925674296e+02 1.2500000000e+02 0.0000e+00 0.0000e+00
</event>
<event>
 4      1 +2.1368000e-01 2.49974900e+02 7.54677100e-03 1.11332100e-01
      -11 -1    0    0    0    0 +0.0000000000e+00 +0.0000000000e+00 +1.2498834100e+02 1.2498834100e+02 0.0000000000e+00 0.0000e+00 -1.0000e+00
       11 -1    0    0    0    0 -0.0000000000e+00 -0.0000000000e+00 -1.2498659966e+02 1.2498659966e+02 0.0000000000e+00 0.0000e+00 1.0000e+00
       23  1    1    2    0    0 +5.4894618946e+01 -2.6659896878e+01 -1.1888105492e+01 1.1036642464e+02 9.1188000000e+01 0.0000e+00 0.0000e+00
       25  1    1    2    0    0 -5.4894618946e+01 +2.6659896878e+01 +1.1889846834e+01 1.3960851603e+02 1.2500000000e+02 0.0000e+00 0.0000e+00
</event>
<event>
 4      1 +2.1368000e-01 2.49974900e+02 7.54677100e-03 1.11332100e-01
      -11 -1    0    0    0    0 +0.0000000000e+00 +0.0000000000e+00 +1.2498742519e+02 1.2498742519e+02 0.0000000000e+00 0.0000e+00 1.0000e+00
       11 -1    0    0    0    0 -0.0000000000e+00 -0.0000000000e+00 -1.2498742519e+02 1.2498742519e+02 0.0000000000e+00 0.0000e+00 -1.0000e+00
       23  1    1    2    0    0 -4.8016735607e+01 -3.3862962513e+01 -2.0327232103e+01 1.1036645703e+02 9.1188000000e+01 0.0000e+00 1.0000e+00
       25  1    1    2    0    0 +4.8016735607e+01 +3.3862962513e+01 +2.0327232103e+01 1.3960839335e+02 1.2500000000e+02 0.0000e+00 0.0000e+00
</event>
<event>
 4      1 +2.1368000e-01 2.49975000e+02 7.54677100e-03 1.11332100e-01
      -11 -1    0    0    0    0 +0.0000000000e+00 +0.0000000000e+00 +1.2498837067e+02 1.2498837067e+02 0.0000000000e+00 0.0000e+00 1.0000e+00
       11 -1    0    0    0    0 -0.0000000000e+00 -0.0000000000e+00 -1.2498662933e+02 1.2498662933e+02 0.0000000000e+00 0.0000e+00 -1.0000e+00
       23  1    1    2    0    0 -5.3497705679e+01 +3.0192615379e+01 -9.5869004327e+00 1.1036647381e+02 9.1188000000e+01 0.0000e+00 0.0000e+00
       25  1    1    2    0    0 +5.3497705679e+01 -3.0192615379e+01 +9.5886417756e+00 1.3960852620e+02 1.2500000000e+02 0.0000e+00 0.0000e+00
</event>
<event>
 4      1 +2.1368000e-01 2.49975000e+02 7.54677100e-03 1.11332100e-01
      -11 -1    0    0    0    0 +0.0000000000e+00 +0.0000000000e+00 +1.2498749572e+02 1.2498749572e+02 0.0000000000e+00 0.0000e+00 1.0000e+00
       11 -1    0    0    0    0 -0.0000000000e+00 -0.0000000000e+00 -1.2498749572e+02 1.2498749572e+02 0.0000000000e+00 0.0000e+00 -1.0000e+00
       23  1    1    2    0    0 +4.2499814443e+01 +2.2363279392e+01 -3.9486331699e+01 1.1036653582e+02 9.1188000000e+01 0.0000e+00 0.0000e+00
       25  1    1    2    0    0 -4.2499814443e+01 -2.2363279392e+01 +3.9486331699e+01 1.3960845563e+02 1.2500000000e+02 0.0000e+00 0.0000e+00
</event>
<event>
 4      1 +2.1368000e-01 2.49950400e+02 7.54677100e-03 1.11333600e-01
      -11 -1    0    0    0    0 +0.0000000000e+00 +0.0000000000e+00 +1.2496299514e+02 1.2496299514e+02 0.0000000000e+00 0.0000e+00 -1.0000e+00
       11 -1    0    0    0    0 -0.0000000000e+00 -0.0000000000e+00 -1.2498737171e+02 1.2498737171e+02 0.0000000000e+00 0.0000e+00 1.0000e+00
       23  1    1    2    0    0 -6.1718005239e+01 -7.2460807926e+00 -9.4209856690e-01 1.1035287378e+02 9.1188000000e+01 0.0000e+00 0.0000e+00
       25  1    1    2    0    0 +6.1718005239e+01 +7.2460807926e+00 +9.1772199857e-01 1.3959749307e+02 1.2500000000e+02 0.0000e+00 0.0000e+00
</event>
<event>
 4      1 +2.1368000e-01 2.49975000e+02 7.54677100e-03 1.11332100e-01
      -11 -1    0    0    0    0 +0.0000000000e+00 +0.0000000000e+00 +1.2498750000e+02 1.2498750000e+02 0.0000000000e+00 0.0000e+00 1.0000e+00
       11 -1    0    0    0    0 -0.0000000000e+00 -0.0000000000e+00 -1.2498750000e+02 1.2498750000e+02 0.0000000000e+00 0.0000e+00 -1.0000e+00
       23  1    1    2    0    0 +5.0395100425e+01 +3.2450232616e+01 -1.6517814462e+01 1.1036654059e+02 9.1188000000e+01 0.0000e+00 0.0000e+00
       25  1    1    2    0    0 -5.0395100425e+01 -3.2450232616e+01 +1.6517814462e+01 1.3960845941e+02 1.2500000000e+02 0.0000e+00 0.0000e+00
</event>
<event>
 4      1 +2.1368000e-01 2.49973800e+02 7.54677100e-03 1.11332100e-01
      -11 -1    0    0    0    0 +0.0000000000e+00 +0.0000000000e+00 +1.2498774650e+02 1.2498774650e+02 0.0000000000e+00 0.0000e+00 -1.0000e+00
       11 -1    0    0    0    0 -0.0000000000e+00 -0.0000000000e+00 -1.2498600516e+02 1.2498600516e+02 0.0000000000e+00 0.0000e+00 1.0000e+00
       23  1    1    2    0    0 -1.7992102509e+01 +5.0968412980e+00 -5.9292354750e+01 1.1036543037e+02 9.1188000000e+01 0.0000e+00 1.0000e+00
       25  1    1    2    0    0 +1.7992102509e+01 -5.0968412980e+00 +5.9294096084e+01 1.3960832129e+02 1.2500000000e+02 0.0000e+00 0.0000e+00
</event>
<event>
 4      1 +2.1368000e-01 2.44970200e+02 7.54677100e-03 1.11652500e-01
      -11 -1    0    0    0    0 +0.0000000000e+00 +0.0000000000e+00 +1.2003318598e+02 1.2003318598e+02 0.0000000000e+00 0.0000e+00 -1.0000e+00
       11 -1    0    0    0    0 -0.0000000000e+00 -0.0000000000e+00 -1.2498710716e+02 1.2498710716e+02 0.0000000000e+00 0.0000e+00 1.0000e+00
       23  1    1    2    0    0 -1.1008710184e+01 -5.1123057640e+01 -2.4990276581e+01 1.0804871119e+02 9.1188000000e+01 0.0000e+00 1.0000e+00
       25  1    1    2    0    0 +1.1008710184e+01 +5.1123057640e+01 +2.0036355400e+01 1.3697158194e+02 1.2500000000e+02 0.0000e+00 0.0000e+00
</event>
<event>
 4      1 +2.1368000e-01 2.48427200e+02 7.54677100e-03 1.11430300e-01
      -11 -1    0    0    0    0 +0.0000000000e+00 +0.0000000000e+00 +1.2344587488e+02 1.2344587488e+02 0.0000000000e+00 0.0000e+00 -1.0000e+00
       11 -1    0    0    0    0 -0.0000000000e+00 -0.0000000000e+00 -1.2498607127e+02 1.2498607127e+02 0.0000000000e+00 0.0000e+00 1.0000e+00
       23  1    1    2    0    0 +5.9771357084e+01 +1.0107696924e+01 +6.4871496137e-02 1.0949902382e+02 9.1188000000e+01 0.0000e+00 0.0000e+00
       25  1    1    2    0    0 -5.9771357084e+01 -1.0107696924e+01 -1.6050678799e+00 1.3893292233e+02 1.2500000000e+02 0.0000e+00 0.0000e+00
</event>
<event>
 4      1 +2.1368000e-01 2.24162900e+02 7.54677100e-03 1.13081700e-01
      -11 -1    0    0    0    0 +0.0000000000e+00 +0.0000000000e+00 +1.0050842421e+02 1.0050842421e+02 0.0000000000e+00 0.0000e+00 -1.0000e+00
       11 -1    0    0    0    0 -0.0000000000e+00 -0.0000000000e+00 -1.2498710141e+02 1.2498710141e+02 0.0000000000e+00 0.0000e+00 1.0000e+00
       23  1    1    2    0    0 +1.5582873891e+01 -6.9777711951e+00 -3.4400651772e+01 9.8945295168e+01 9.1188000000e+01 0.0000e+00 1.0000e+00
       25  1    1    2    0    0 -1.5582873891e+01 +6.9777711951e+00 +9.9219745723e+00 1.2655023046e+02 1.2500000000e+02 0.0000e+00 0.0000e+00
</event>
<event>
 4      1 +2.1368000e-01 2.49317900e+02 7.54677100e-03 1.11373700e-01
      -11 -1    0    0    0    0 +0.0000000000e+00 +0.0000000000e+00 +1.2498764505e+02 1.2498764505e+02 0.0000000000e+00 0.0000e+00 -1.0000e+00
       11 -1    0    0    0    0 -0.0000000000e+00 -0.0000000000e+00 -1.2433114534e+02 1.2433114534e+02 0.0000000000e+00 0.0000e+00 1.0000e+00
       23  1    1    2    0    0 -4.3989428263e+01 +2.9386493217e+01 +3.1690336156e+01 1.1008253509e+02 9.1188000000e+01 0.0000e+00 -1.0000e+00
       25  1    1    2    0    0 +4.3989428263e+01 -2.9386493217e+01 -3.1033836447e+01 1.3923625529e+02 1.2500000000e+02 0.0000e+00 0.0000e+00
</event>
<event>
 4      1 +2.1368000e-01 2.49975000e+02 7.54677100e-03 1.11332100e-01
      -11 -1    0    0    0    0 +0.0000000000e+00 +0.0000000000e+00 +1.2498835950e+02 1.2498835950e+02 0.0000000000e+00 0.0000e+00 -1.0000e+00
       11 -1    0    0    0    0 -0.0000000000e+00 -0.0000000000e+00 -1.2498661816e+02 1.2498661816e+02 0.0000000000e+00 0.0000e+00 1.0000e+00
       23  1    1    2    0    0 -1.0539499831e+01 +6.0586722674e+01 +9.1488375717e+00 1.1036659184e+02 9.1188000000e+01 0.0000e+00 1.0000e+00
       25  1    1    2    0    0 +1.0539499831e+01 -6.0586722674e+01 -9.1470962289e+00 1.3960838582e+02 1.2500000000e+02 0.0000e+00 0.0000e+00
</event>
<event>
 4      1 +2.1368000e-01 2.49975000e+02 7.54677100e-03 1.11332100e-01
      -11 -1    0    0    0    0 +0.0000000000e+00 +0.0000000000e+00 +1.2498836751e+02 1.2498836751e+02 0.0000000000e+00 0.0000e+00 -1.0000e+00
       11 -1    0    0    0    0 -0.0000000000e+00 -0.0000000000e+00 -1.2498662616e+02 1.2498662616e+02 0.0000000000e+00 0.0000e+00 1.0000e+00
       23  1    1    2    0    0 -1.7514303534e+01 -2.4712329358e+01 +5.4296911473e+01 1.1036691529e+02 9.1188000000e+01 0.0000e+00 -1.0000e+00
       25  1    1    2    0    0 +1.7514303534e+01 +2.4712329358e+01 -5.4295170130e+01 1.3960807838e+02 1.2500000000e+02 0.0000e+00 0.0000e+00
</event>
<event>
 4      1 +2.1368000e-01 2.32695700e+02 7.54677100e-03 1.12475700e-01
      -11 -1    0    0    0    0 +0.0000000000e+00 +0.0000000000e+00 +1.0830648638e+02 1.0830648638e+02 0.0000000000e+00 0.0000e+00 -1.0000e+00
       11 -1    0    0    0    0 -0.0000000000e+00 -0.0000000000e+00 -1.2498622992e+02 1.2498622992e+02 0.0000000000e+00 0.0000e+00 1.0000e+00
       23  1    1    2    0    0 +4.9114295163e+00 -3.8770921947e+01 -2.4171505066e+01 1.0211179917e+02 9.1188000000e+01 0.0000e+00 1.0000e+00
       25  1    1    2    0    0 -4.9114295163e+00 +3.8770921947e+01 +7.4917615193e+00 1.3118091713e+02 1.2500000000e+02 0.0000e+00 0.0000e+00
</event>
<event>
 4      1 +2.1368000e-01 2.49975000e+02 7.54677100e-03 1.11332100e-01
      -11 -1    0    0    0    0 +0.0000000000e+00 +0.0000000000e+00 +1.2498748328e+02 1.2498748328e+02 0.0000000000e+00 0.0000e+00 -1.0000e+00
       11 -1    0    0    0    0 -0.0000000000e+00 -0.0000000000e+00 -1.2498748328e+02 1.2498748328e+02 0.0000000000e+00 0.0000e+00 1.0000e+00
       23  1    1    2    0    0 +4.1819913006e+01 +9.7412598303e+00 +4.4963546884e+01 1.1036652191e+02 9.1188000000e+01 0.0000e+00 0.0000e+00
       25  1    1    2    0    0 -4.1819913006e+01 -9.7412598303e+00 -4.4963546884e+01 1.3960844464e+02 1.2500000000e+02 0.0000e+00 0.0000e+00
</event>
<event>
 4      1 +2.1368000e-01 2.49959600e+02 7.54677100e-03 1.11333000e-01
      -11 -1    0    0    0    0 +0.0000000000e+00 +0.0000000000e+00 +1.2497197991e+02 1.2497197991e+02 0.0000000000e+00 0.0000e+00 1.0000e+00
       11 -1    0    0    0    0 -0.0000000000e+00 -0.0000000000e+00 -1.2498765104e+02 1.2498765104e+02 0.0000000000e+00 0.0000e+00 -1.0000e+00
       23  1    1    2    0    0 +3.4586936751e+01 -5.1544556663e+01 +3.2380420047e+00 1.1035775358e+02 9.1188000000e+01 0.0000e+00 0.0000e+00
       25  1    1    2    0    0 -3.4586936751e+01 +5.1544556663e+01 -3.2537131274e+00 1.3960187737e+02 1.2500000000e+02 0.0000e+00 0.0000e+00
</event>
<event>
 4      1 +2.1368000e-01 2.42286700e+02 7.54677100e-03 1.11827900e-01
      -11 -1    0    0    0    0 +0.0000000000e+00 +0.0000000000e+00 +1.2498730753e+02 1.2498730753e+02 0.0000000000e+00 0.0000e+00 -1.0000e+00
       11 -1    0    0    0    0 -0.0000000000e+00 -0.0000000000e+00 -1.1741758713e+02 1.1741758713e+02 0.0000000000e+00 0.0000e+00 1.0000e+00
       23  1    1    2    0    0 +3.8806091996e+01 +3.0440496122e+01 +2.5698586088e+01 1.0680920022e+02 9.1188000000e+01 0.0000e+00 0.0000e+00
       25  1    1    2    0    0 -3.8806091996e+01 -3.0440496122e+01 -1.8128865691e+01 1.3559569444e+02 1.2500000000e+02 0.0000e+00 0.0000e+00
</event>
<event>
 4      1 +2.1368000e-01 2.42234500e+02 7.54677100e-03 1.11831300e-01
      -11 -1    0    0    0    0 +0.0000000000e+00 +0.0000000000e+00 +1.1736696074e+02 1.1736696074e+02 0.0000000000e+00 0.0000e+00 -1.0000e+00
       11 -1    0    0    0    0 -0.0000000000e+00 -0.0000000000e+00 -1.2498735920e+02 1.2498735920e+02 0.0000000000e+00 0.0000e+00 1.0000e+00
       23  1    1    2    0    0 +4.0512482595e+01 -8.1655972317e+00 +3.1595555600e+01 1.0498318295e+02 9.1188000000e+01 0.0000e+00 -1.0000e+00
       25  1    1    2    0    0 -4.0512482595e+01 +8.1655972317e+00 -3.9215954062e+01 1.3737113699e+02 1.2500000000e+02 0.0000e+00 0.0000e+00
</event>
<event>
 4      1 +2.1368000e-01 2.49676700e+02 7.54677100e-03 1.11350900e-01
      -11 -1    0    0    0    0 +0.0000000000e+00 +0.0000000000e+00 +1.2498802130e+02 1.2498802130e+02 0.0000000000e+00 0.0000e+00 -1.0000e+00
       11 -1    0    0    0    0 -0.0000000000e+00 -0.0000000000e+00 -1.2468886542e+02 1.2468886542e+02 0.0000000000e+00 0.0000e+00 1.0000e+00
       23  1    1    2    0    0 -2.8657296910e+01 +5.3844543235e+01 -1.0274550806e+01 1.1018753668e+02 9.1188000000e+01 0.0000e+00 -1.0000e+00
       25  1    1    2    0    0 +2.8657296910e+01 -5.3844543235e+01 +1.0573706683e+01 1.3948935004e+02 1.2500000000e+02 0.0000e+00 0.0000e+00
</event>
<event>
 4      1 +2.1368000e-01 2.49975000e+02 7.54677100e-03 1.11332100e-01
      -11 -1    0    0    0    0 +0.0000000000e+00 +0.0000000000e+00 +1.2498749357e+02 1.2498749357e+02 0.0000000000e+00 0.0000e+00 1.0000e+00
       11 -1    0    0    0    0 -0.0000000000e+00 -0.0000000000e+00 -1.2498749357e+02 1.2498749357e+02 0.0000000000e+00 0.0000e+00 -1.0000e+00
       23  1    1    2    0    0 -2.8282293255e+01 +5.2628955422e+01 +1.7199572462e+01 1.1036653341e+02 9.1188000000e+01 0.0000e+00 1.0000e+00
       25  1    1    2    0    0 +2.8282293255e+01 -5.2628955422e+01 -1.7199572462e+01 1.3960845373e+02 1.2500000000e+02 0.0000e+00 0.0000e+00
</event>
<event>
 4      1 +2.1368000e-01 2.49974400e+02 7.54677100e-03 1.11332100e-01
      -11 -1    0    0    0    0 +0.0000000000e+00 +0.0000000000e+00 +1.2498892373e+02 1.2498892373e+02 0.0000000000e+00 0.0000e+00 -1.0000e+00
       11 -1    0    0    0    0 -0.0000000000e+00 -0.0000000000e+00 -1.2498544103e+02 1.2498544103e+02 0.0000000000e+00 0.0000e+00 1.0000e+00
       23  1    1    2    0    0 -5.9155587317e+01 -1.3799152616e+00 -1.9081332874e+01 1.1036591994e+02 9.1188000000e+01 0.0000e+00 1.0000e+00
       25  1    1    2    0    0 +5.9155587317e+01 +1.3799152616e+00 +1.9084815575e+01 1.3960844481e+02 1.2500000000e+02 0.0000e+00 0.0000e+00
</event>
<event>
 4      1 +2.1368000e-01 2.49919000e+02 7.54677100e-03 1.11335600e-01
      -11 -1    0    0    0    0 +0.0000000000e+00 +0.0000000000e+00 +1.2498735295e+02 1.2498735295e+02 0.0000000000e+00 0.0000e+00 -1.0000e+00
       11 -1    0    0    0    0 -0.0000000000e+00 -0.0000000000e+00 -1.2493164207e+02 1.2493164207e+02 0.0000000000e+00 0.0000e+00 1.0000e+00
       23  1    1    2    0    0 +4.5662321991e+01 +3.1428470666e+00 -4.1971747302e+01 1.1032589928e+02 9.1188000000e+01 0.0000e+00 0.0000e+00
       25  1    1    2    0    0 -4.5662321991e+01 -3.1428470666e+00 +4.2027458179e+01 1.3959309574e+02 1.2500000000e+02 0.0000e+00 0.0000e+00
</event>
<event>
 4      1 +2.1368000e-01 2.49975000e+02 7.54677100e-03 1.11332100e-01
      -11 -1    0    0    0    0 +0.0000000000e+00 +0.0000000000e+00 +1.2498837067e+02 1.2498837067e+02 0.0000000000e+00 0.0000e+00 1.0000e+00
       11 -1    0    0    0    0 -0.0000000000e+00 -0.0000000000e+00 -1.2498662933e+02 1.2498662933e+02 0.0000000000e+00 0.0000e+00 -1.0000e+00
       23  1    1    2    0    0 -3.1063051909e+01 -5.2646723133e+01 +1.1355560219e+01 1.1036661969e+02 9.1188000000e+01 0.0000e+00 0.0000e+00
       25  1    1    2    0    0 +3.1063051909e+01 +5.2646723133e+01 -1.1353818876e+01 1.3960838031e+02 1.2500000000e+02 0.0000e+00 0.0000e+00
</event>
<event>
 4      1 +2.1368000e-01 2.49604200e+02 7.54677100e-03 1.11355500e-01
      -11 -1    0    0    0    0 +0.0000000000e+00 +0.0000000000e+00 +1.2498828158e+02 1.2498828158e+02 0.0000000000e+00 0.0000e+00 1.0000e+00
       11 -1    0    0    0    0 -0.0000000000e+00 -0.0000000000e+00 -1.2461618657e+02 1.2461618657e+02 0.0000000000e+00 0.0000e+00 -1.0000e+00
       23  1    1    2    0    0 +5.8896225190e+01 +9.0709684205e+00 +1.6559285826e+01 1.1018397842e+02 9.1188000000e+01 0.0000e+00 1.0000e+00
       25  1    1    2    0    0 -5.8896225190e+01 -9.0709684205e+00 -1.6187190807e+01 1.3942048973e+02 1.2500000000e+02 0.0000e+00 0.0000e+00
</event>
<event>
 4      1 +2.1368000e-01 2.49975000e+02 7.54677100e-03 1.11332100e-01
      -11 -1    0    0    0    0 +0.0000000000e+00 +0.0000000000e+00 +1.2498750000e+02 1.2498750000e+02 0.0000000000e+00 0.0000e+00 1.0000e+00
       11 -1    0    0    0    0 -0.0000000000e+00 -0.0000000000e+00 -1.2498750000e+02 1.2498750000e+02 0.0000000000e+00 0.0000e+00 -1.0000e+00
       23  1    1    2    0    0 -1.0723148057e+01 -5.9451350143e+01 -1.4699421762e+01 1.1036654059e+02 9.1188000000e+01 0.0000e+00 0.0000e+00
       25  1    1    2    0    0 +1.0723148057e+01 +5.9451350143e+01 +1.4699421762e+01 1.3960845941e+02 1.2500000000e+02 0.0000e+00 0.0000e+00
</event>
<event>
 4      1 +2.1368000e-01 2.49953700e+02 7.54677100e-03 1.11333400e-01
      -11 -1    0    0    0    0 +0.0000000000e+00 +0.0000000000e+00 +1.2498817627e+02 1.2498817627e+02 0.0000000000e+00 0.0000e+00 1.0000e+00
       11 -1    0    0    0    0 -0.0000000000e+00 -0.0000000000e+00 -1.2496554074e+02 1.2496554074e+02 0.0000000000e+00 0.0000e+00 -1.0000e+00
       23  1    1    2    0    0 +1.8028503458e+01 +4.8420121504e+01 -3.4535094774e+01 1.1035152567e+02 9.1188000000e+01 0.0000e+00 -1.0000e+00
       25  1    1    2    0    0 -1.8028503458e+01 -4.8420121504e+01 +3.4557730304e+01 1.3960219134e+02 1.2500000000e+02 0.0000e+00 0.0000e+00
</event>
<event>
 4      1 +2.1368000e-01 2.49839700e+02 7.54677100e-03 1.11340600e-01
      -11 -1    0    0    0    0 +0.0000000000e+00 +0.0000000000e+00 +1.2485201047e+02 1.2485201047e+02 0.0000000000e+00 0.0000e+00 1.0000e+00
       11 -1    0    0    0    0 -0.0000000000e+00 -0.0000000000e+00 -1.2498776268e+02 1.2498776268e+02 0.0000000000e+00 0.0000e+00 -1.0000e+00
       23  1    1    2    0    0 +1.3185114031e+01 -3.7116403771e+01 -4.7990896413e+01 1.1031705282e+02 9.1188000000e+01 0.0000e+00 -1.0000e+00
       25  1    1    2    0    0 -1.3185114031e+01 +3.7116403771e+01 +4.7855144196e+01 1.3952272033e+02 1.2500000000e+02 0.0000e+00 0.0000e+00
</event>
<event>
 4      1 +2.1368000e-01 2.49974900e+02 7.54677100e-03 1.11332100e-01
      -11 -1    0    0    0    0 +0.0000000000e+00 +0.0000000000e+00 +1.2498743004e+02 1.2498743004e+02 0.0000000000e+00 0.0000e+00 -1.0000e+00
       11 -1    0    0    0    0 -0.0000000000e+00 -0.0000000000e+00 -1.2498743004e+02 1.2498743004e+02 0.0000000000e+00 0.0000e+00 1.0000e+00
       23  1    1    2    0    0 +5.1670507658e+01 +4.3863852429e+00 +3.4299022624e+01 1.1036646245e+02 9.1188000000e+01 0.0000e+00 -1.0000e+00
       25  1    1    2    0    0 -5.1670507658e+01 -4.3863852429e+00 -3.4299022624e+01 1.3960839763e+02 1.2500000000e+02 0.0000e+00 0.0000e+00
</event>
<event>
 4      1 +2.1368000e-01 2.49972600e+02 7.54677100e-03 1.11332200e-01
      -11 -1    0    0    0    0 +0.0000000000e+00 +0.0000000000e+00 +1.2498805329e+02 1.2498805329e+02 0.0000000000e+00 0.0000e+00 -1.0000e+00
       11 -1    0    0    0    0 -0.0000000000e+00 -0.0000000000e+00 -1.2498457061e+02 1.2498457061e+02 0.0000000000e+00 0.0000e+00 1.0000e+00
       23  1    1    2    0    0 +3.3368277325e+00 +1.3019134733e+01 +6.0702416793e+01 1.1036605926e+02 9.1188000000e+01 0.0000e+00 -1.0000e+00
       25  1    1    2    0    0 -3.3368277325e+00 -1.3019134733e+01 -6.0698934116e+01 1.3960656464e+02 1.2500000000e+02 0.0000e+00 0.0000e+00
</event>
<event>
 4      1 +2.1368000e-01 2.42515100e+02 7.54677100e-03 1.11812900e-01
      -11 -1    0    0    0    0 +0.0000000000e+00 +0.0000000000e+00 +1.1763875906e+02 1.1763875906e+02 0.0000000000e+00 0.0000e+00 1.0000e+00
       11 -1    0    0    0    0 -0.0000000000e+00 -0.0000000000e+00 -1.2498764432e+02 1.2498764432e+02 0.0000000000e+00 0.0000e+00 -1.0000e+00
       23  1    1    2    0    0 +3.5215180593e+01 +3.3932590205e+01 +2.0644025801e+01 1.0551282750e+02 9.1188000000e+01 0.0000e+00 0.0000e+00
       25  1    1    2    0    0 -3.5215180593e+01 -3.3932590205e+01 -2.7992911063e+01 1.3711357589e+02 1.2500000000e+02 0.0000e+00 0.0000e+00
</event>
<event>
 4      1 +2.1368000e-01 2.48875500e+02 7.54677100e-03 1.11401800e-01
      -11 -1    0    0    0    0 +0.0000000000e+00 +0.0000000000e+00 +1.2480147711e+02 1.2480147711e+02 0.0000000000e+00 0.0000e+00 1.0000e+00
       11 -1    0    0    0    0 -0.0000000000e+00 -0.0000000000e+00 -1.2407506060e+02 1.2407506060e+02 0.0000000000e+00 0.0000e+00 -1.0000e+00
       23  1    1    2    0    0 +5.3366895644e+01 -2.8444190165e+01 -8.2349925082e+00 1.0972768088e+02 9.1188000000e+01 0.0000e+00 0.0000e+00
       25  1    1    2    0    0 -5.3366895644e+01 +2.8444190165e+01 +8.9614090184e+00 1.3914885683e+02 1.2500000000e+02 0.0000e+00 0.0000e+00
</event>
<event>
 4      1 +2.1368000e-01 2.49975000e+02 7.54677100e-03 1.11332100e-01
      -11 -1    0    0    0    0 +0.0000000000e+00 +0.0000000000e+00 +1.2498750000e+02 1.2498750000e+02 0.0000000000e+00 0.0000e+00 -1.0000e+00
       11 -1    0    0    0    0 -0.0000000000e+00 -0.0000000000e+00 -1.2498750000e+02 1.2498750000e+02 0.0000000000e+00 0.0000e+00 1.0000e+00
       23  1    1    2    0    0 -1.1119692895e+01 +1.9714725614e+01 -5.7906855917e+01 1.1036654059e+02 9.1188000000e+01 0.0000e+00 1.0000e+00
       25  1    1    2    0    0 +1.1119692895e+01 -1.9714725614e+01 +5.7906855917e+01 1.3960845941e+02 1.2500000000e+02 0.0000e+00 0.0000e+00
</event>
<event>
 4      1 +2.1368000e-01 2.49974000e+02 7.54677100e-03 1.11332100e-01
      -11 -1    0    0    0    0 +0.0000000000e+00 +0.0000000000e+00 +1.2498875029e+02 1.2498875029e+02 0.0000000000e+00 0.0000e+00 1.0000e+00
       11 -1    0    0    0    0 -0.0000000000e+00 -0.0000000000e+00 -1.2498526759e+02 1.2498526759e+02 0.0000000000e+00 0.0000e+00 -1.0000e+00
       23  1    1    2    0    0 +6.0053035151e+01 +8.0301722663e+00 +1.3949661744e+01 1.1036618642e+02 9.1188000000e+01 0.0000e+00 0.0000e+00
       25  1    1    2    0    0 -6.0053035151e+01 -8.0301722663e+00 -1.3946179048e+01 1.3960783147e+02 1.2500000000e+02 0.0000e+00 0.0000e+00
</event>
<event>
 4      1 +2.1368000e-01 2.49974900e+02 7.54677100e-03 1.11332100e-01
      -11 -1    0    0    0    0 +0.0000000000e+00 +0.0000000000e+00 +1.2498832940e+02 1.2498832940e+02 0.0000000000e+00 0.0000e+00 -1.0000e+00
       11 -1    0    0    0    0 -0.0000000000e+00 -0.0000000000e+00 -1.2498658806e+02 1.2498658806e+02 0.0000000000e+00 0.0000e+00 1.0000e+00
       23  1    1    2    0    0 +5.9112718872e+00 -1.8271334682e+01 -5.9132360262e+01 1.1036608256e+02 9.1188000000e+01 0.0000e+00 1.0000e+00
       25  1    1    2    0    0 -5.9112718872e+00 +1.8271334682e+01 +5.9134101604e+01 1.3960883489e+02 1.2500000000e+02 0.0000e+00 0.0000e+00
</event>
<event>
 4      1 +2.1368000e-01 2.49957800e+02 7.54677100e-03 1.11333100e-01
      -11 -1    0    0    0    0 +0.0000000000e+00 +0.0000000000e+00 +1.2497106444e+02 1.2497106444e+02 0.0000000000e+00 0.0000e+00 1.0000e+00
       11 -1    0    0    0    0 -0.0000000000e+00 -0.0000000000e+00 -1.2498673545e+02 1.2498673545e+02 0.0000000000e+00 0.0000e+00 -1.0000e+00
       23  1    1    2    0    0 -2.0482551131e+01 +3.2144376441e+01 -4.9104838756e+01 1.1036001255e+02 9.1188000000e+01 0.0000e+00 -1.0000e+00
       25  1    1    2    0    0 +2.0482551131e+01 -3.2144376441e+01 +4.9089167748e+01 1.3959778733e+02 1.2500000000e+02 0.0000e+00 0.0000e+00
</event>
<event>
 4      1 +2.1368000e-01 2.44782300e+02 7.54677100e-03 1.11664700e-01
      -11 -1    0    0    0    0 +0.0000000000e+00 +0.0000000000e+00 +1.2235109116e+02 1.2235109116e+02 0.0000000000e+00 0.0000e+00 1.0000e+00
       11 -1    0    0    0    0 -0.0000000000e+00 -0.0000000000e+00 -1.2243123416e+02 1.2243123416e+02 0.0000000000e+00 0.0000e+00 -1.0000e+00
       23  1    1    2    0    0 +5.3987792707e+01 +9.8508270795e+00 +1.4820363548e+01 1.0745517705e+02 9.1188000000e+01 0.0000e+00 0.0000e+00
       25  1    1    2    0    0 -5.3987792707e+01 -9.8508270795e+00 -1.4900506557e+01 1.3732714827e+02 1.2500000000e+02 0.0000e+00 0.0000e+00
</event>
<event>
 4      1 +2.1368000e-01 2.49975000e+02 7.54677100e-03 1.11332100e-01
      -11 -1    0    0    0    0 +0.0000000000e+00 +0.0000000000e+00 +1.2498837067e+02 1.2498837067e+02 0.0000000000e+00 0.0000e+00 1.0000e+00
       11 -1    0    0    0    0 -0.0000000000e+00 -0.0000000000e+00 -1.2498662933e+02 1.2498662933e+02 0.0000000000e+00 0.0000e+00 -1.0000e+00
       23  1    1    2    0    0 -4.8143540135e+01 -5.9885483374e+00 -3.8881859307e+01 1.1036626973e+02 9.1188000000e+01 0.0000e+00 0.0000e+00
       25  1    1    2    0    0 +4.8143540135e+01 +5.9885483374e+00 +3.8883600650e+01 1.3960873027e+02 1.2500000000e+02 0.0000e+00 0.0000e+00
</event>
<event>
 4      1 +2.1368000e-01 2.49686200e+02 7.54677100e-03 1.11350300e-01
      -11 -1    0    0    0    0 +0.0000000000e+00 +0.0000000000e+00 +1.2498840721e+02 1.2498840721e+02 0.0000000000e+00 0.0000e+00 -1.0000e+00
       11 -1    0    0    0    0 -0.0000000000e+00 -0.0000000000e+00 -1.2469793874e+02 1.2469793874e+02 0.0000000000e+00 0.0000e+00 1.0000e+00
       23  1    1    2    0    0 -2.1644806432e+01 +2.2338674002e+01 +5.3629871320e+01 1.1026753123e+02 9.1188000000e+01 0.0000e+00 -1.0000e+00
       25  1    1    2    0    0 +2.1644806432e+01 -2.2338674002e+01 -5.3339402853e+01 1.3941881472e+02 1.2500000000e+02 0.0000e+00 0.0000e+00
</event>
<event>
 4      1 +2.1368000e-01 2.49913600e+02 7.54677100e-03 1.11335900e-01
      -11 -1    0    0    0    0 +0.0000000000e+00 +0.0000000000e+00 +1.2492718741e+02 1.2492718741e+02 0.0000000000e+00 0.0000e+00 1.0000e+00
       11 -1    0    0    0    0 -0.0000000000e+00 -0.0000000000e+00 -1.2498637852e+02 1.2498637852e+02 0.0000000000e+00 0.0000e+00 -1.0000e+00
       23  1    1    2    0    0 -4.3300669992e+01 -3.5796054891e+01 +2.6462415004e+01 1.1032595488e+02 9.1188000000e+01 0.0000e+00 1.0000e+00
       25  1    1    2    0    0 +4.3300669992e+01 +3.5796054891e+01 -2.6521606113e+01 1.3958761105e+02 1.2500000000e+02 0.0000e+00 0.0000e+00
</event>
<event>
 4      1 +2.1368000e-01 2.49975000e+02 7.54677100e-03 1.11332100e-01
      -11 -1    0    0    0    0 +0.0000000000e+00 +0.0000000000e+00 +1.2498749979e+02 1.2498749979e+02 0.0000000000e+00 0.0000e+00 1.0000e+00
       11 -1    0    0    0    0 -0.0000000000e+00 -0.0000000000e+00 -1.2498749979e+02 1.2498749979e+02 0.0000000000e+00 0.0000e+00 -1.0000e+00
       23  1    1    2    0    0 -8.7445642032e+00 -4.6609579914e+01 -4.0206983757e+01 1.1036654035e+02 9.1188000000e+01 0.0000e+00 -1.0000e+00
       25  1    1    2    0    0 +8.7445642032e+00 +4.6609579914e+01 +4.0206983757e+01 1.3960845922e+02 1.2500000000e+02 0.0000e+00 0.0000e+00
</event>
<event>
 4      1 +2.1368000e-01 2.49965500e+02 7.54677100e-03 1.11332700e-01
      -11 -1    0    0    0    0 +0.0000000000e+00 +0.0000000000e+00 +1.2497927178e+02 1.2497927178e+02 0.0000000000e+00 0.0000e+00 -1.0000e+00
       11 -1    0    0    0    0 -0.0000000000e+00 -0.0000000000e+00 -1.2498623694e+02 1.2498623694e+02 0.0000000000e+00 0.0000e+00 1.0000e+00
       23  1    1    2    0    0 -3.3614903170e+01 +4.8198299796e+01 +2.0277804355e+01 1.1036067466e+02 9.1188000000e+01 0.0000e+00 -1.0000e+00
       25  1    1    2    0    0 +3.3614903170e+01 -4.8198299796e+01 -2.0284769511e+01 1.3960483406e+02 1.2500000000e+02 0.0000e+00 0.0000e+00
</event>
<event>
 4      1 +2.1368000e-01 2.35057600e+02 7.54677100e-03 1.12313000e-01
      -11 -1    0    0    0    0 +0.0000000000e+00 +0.0000000000e+00 +1.2498716741e+02 1.2498716741e+02 0.0000000000e+00 0.0000e+00 1.0000e+00
       11 -1    0    0    0    0 -0.0000000000e+00 -0.0000000000e+00 -1.1051550340e+02 1.1051550340e+02 0.0000000000e+00 0.0000e+00 -1.0000e+00
       23  1    1    2    0    0 -3.4697698052e+01 -2.7091390356e+01 -5.8599618370e+00 1.0142713729e+02 9.1188000000e+01 0.0000e+00 -1.0000e+00
       25  1    1    2    0    0 +3.4697698052e+01 +2.7091390356e+01 +2.0331625848e+01 1.3407553353e+02 1.2500000000e+02 0.0000e+00 0.0000e+00
</event>
<event>
 4      1 +2.1368000e-01 2.49356400e+02 7.54677100e-03 1.11371200e-01
      -11 -1    0    0    0    0 +0.0000000000e+00 +0.0000000000e+00 +1.2437024874e+02 1.2437024874e+02 0.0000000000e+00 0.0000e+00 1.0000e+00
       11 -1    0    0    0    0 -0.0000000000e+00 -0.0000000000e+00 -1.2498689755e+02 1.2498689755e+02 0.0000000000e+00 0.0000e+00 -1.0000e+00
       23  1    1    2    0    0 +5.0708969975e+00 +1.3537023455e+01 +5.9564509890e+01 1.0987332334e+02 9.1188000000e+01 0.0000e+00 1.0000e+00
       25  1    1    2    0    0 -5.0708969975e+00 -1.3537023455e+01 -6.0181158702e+01 1.3948382294e+02 1.2500000000e+02 0.0000e+00 0.0000e+00
</event>
<event>
 4      1 +2.1368000e-01 2.49818900e+02 7.54677100e-03 1.11341900e-01
      -11 -1    0    0    0    0 +0.0000000000e+00 +0.0000000000e+00 +1.2494337994e+02 1.2494337994e+02 0.0000000000e+00 0.0000e+00 1.0000e+00
       11 -1    0    0    0    0 -0.0000000000e+00 -0.0000000000e+00 -1.2487550950e+02 1.2487550950e+02 0.0000000000e+00 0.0000e+00 -1.0000e+00
       23  1    1    2    0    0 +2.3422504083e+00 +6.1848242299e+01 +3.9785133738e+00 1.1028042041e+02 9.1188000000e+01 0.0000e+00 1.0000e+00
       25  1    1    2    0    0 -2.3422504083e+00 -6.1848242299e+01 -3.9106429388e+00 1.3953846903e+02 1.2500000000e+02 0.0000e+00 0.0000e+00
</event>
<event>
 4      1 +2.1368000e-01 2.36892200e+02 7.54677100e-03 1.12188100e-01
      -11 -1    0    0    0    0 +0.0000000000e+00 +0.0000000000e+00 +1.1224578288e+02 1.1224578288e+02 0.0000000000e+00 0.0000e+00 1.0000e+00
       11 -1    0    0    0    0 -0.0000000000e+00 -0.0000000000e+00 -1.2498890874e+02 1.2498890874e+02 0.0000000000e+00 0.0000e+00 -1.0000e+00
       23  1    1    2    0    0 -5.6812035157e+00 -1.8408200325e+01 +3.8410905213e+01 1.0080568881e+02 9.1188000000e+01 0.0000e+00 1.0000e+00
       25  1    1    2    0    0 +5.6812035157e+00 +1.8408200325e+01 -5.1154031082e+01 1.3642900281e+02 1.2500000000e+02 0.0000e+00 0.0000e+00
</event>
<event>
 4      1 +2.1368000e-01 2.49974800e+02 7.54677100e-03 1.11332100e-01
      -11 -1    0    0    0    0 +0.0000000000e+00 +0.0000000000e+00 +1.2498738880e+02 1.2498738880e+02 0.0000000000e+00 0.0000e+00 -1.0000e+00
       11 -1    0    0    0    0 -0.0000000000e+00 -0.0000000000e+00 -1.2498738880e+02 1.2498738880e+02 0.0000000000e+00 0.0000e+00 1.0000e+00
       23  1    1    2    0    0 +5.6566465820e+01 -2.4984888206e+01 -6.4408715634e+00 1.1036641638e+02 9.1188000000e+01 0.0000e+00 -1.0000e+00
       25  1    1    2    0    0 -5.6566465820e+01 +2.4984888206e+01 +6.4408715634e+00 1.3960836121e+02 1.2500000000e+02 0.0000e+00 0.0000e+00
</event>
<event>
 4      1 +2.1368000e-01 2.49967100e+02 7.54677100e-03 1.11332600e-01
      -11 -1    0    0    0    0 +0.0000000000e+00 +0.0000000000e+00 +1.2498878842e+02 1.2498878842e+02 0.0000000000e+00 0.0000e+00 1.0000e+00
       11 -1    0    0    0    0 -0.0000000000e+00 -0.0000000000e+00 -1.2497834061e+02 1.2497834061e+02 0.0000000000e+00 0.0000e+00 -1.0000e+00
       23  1    1    2    0    0 +2.8030184749e+01 +4.2082924963e+01 +3.6169344052e+01 1.1036365626e+02 9.1188000000e+01 0.0000e+00 1.0000e+00
       25  1    1    2    0    0 -2.8030184749e+01 -4.2082924963e+01 -3.6158896251e+01 1.3960347277e+02 1.2500000000e+02 0.0000e+00 0.0000e+00
</event>
<event>
 4      1 +2.1368000e-01 2.49974900e+02 7.54677100e-03 1.11332100e-01
      -11 -1    0    0    0    0 +0.0000000000e+00 +0.0000000000e+00 +1.2498746724e+02 1.2498746724e+02 0.0000000000e+00 0.0000e+00 -1.0000e+00
       11 -1    0    0    0    0 -0.0000000000e+00 -0.0000000000e+00 -1.2498746724e+02 1.2498746724e+02 0.0000000000e+00 0.0000e+00 1.0000e+00
       23  1    1    2    0    0 -4.0783706200e+01 -7.9659932116e+00 -4.6246579574e+01 1.1036650400e+02 9.1188000000e+01 0.0000e+00 0.0000e+00
       25  1    1    2    0    0 +4.0783706200e+01 +7.9659932116e+00 +4.6246579574e+01 1.3960843048e+02 1.2500000000e+02 0.0000e+00 0.0000e+00
</event>
<event>
 4      1 +2.1368000e-01 2.35591400e+02 7.54677100e-03 1.12276500e-01
      -11 -1    0    0    0    0 +0.0000000000e+00 +0.0000000000e+00 +1.2498819393e+02 1.2498819393e+02 0.0000000000e+00 0.0000e+00 1.0000e+00
       11 -1    0    0    0    0 -0.0000000000e+00 -0.0000000000e+00 -1.1101710063e+02 1.1101710063e+02 0.0000000000e+00 0.0000e+00 -1.0000e+00
       23  1    1    2    0    0 -1.8716011287e+01 +3.6971469427e+01 +2.6818969740e+01 1.0369034242e+02 9.1188000000e+01 0.0000e+00 1.0000e+00
       25  1    1    2    0    0 +1.8716011287e+01 -3.6971469427e+01 -1.2847876436e+01 1.3231495214e+02 1.2500000000e+02 0.0000e+00 0.0000e+00
</event>
<event>
 4      1 +2.1368000e-01 2.35765500e+02 7.54677100e-03 1.12264600e-01
      -11 -1    0    0    0    0 +0.0000000000e+00 +0.0000000000e+00 +1.2498757096e+02 1.2498757096e+02 0.0000000000e+00 0.0000e+00 -1.0000e+00
       11 -1    0    0    0    0 -0.0000000000e+00 -0.0000000000e+00 -1.1118181656e+02 1.1118181656e+02 0.0000000000e+00 0.0000e+00 1.0000e+00
       23  1    1    2    0    0 +9.4148979586e+00 +3.3972593101e+01 +3.6440583513e+01 1.0433573145e+02 9.1188000000e+01 0.0000e+00 0.0000e+00
       25  1    1    2    0    0 -9.4148979586e+00 -3.3972593101e+01 -2.2634829111e+01 1.3183365608e+02 1.2500000000e+02 0.0000e+00 0.0000e+00
</event>
<event>
 4      1 +2.1368000e-01 2.49963800e+02 7.54677100e-03 1.11332800e-01
      -11 -1    0    0    0    0 +0.0000000000e+00 +0.0000000000e+00 +1.2498016208e+02 1.2498016208e+02 0.0000000000e+00 0.0000e+00 -1.0000e+00
       11 -1    0    0    0    0 -0.0000000000e+00 -0.0000000000e+00 -1.2498364464e+02 1.2498364464e+02 0.0000000000e+00 0.0000e+00 1.0000e+00
       23  1    1    2    0    0 +2.5740497539e+01 -6.1833309331e+00 +5.6241998046e+01 1.1035950563e+02 9.1188000000e+01 0.0000e+00 -1.0000e+00
       25  1    1    2    0    0 -2.5740497539e+01 +6.1833309331e+00 -5.6245480601e+01 1.3960430109e+02 1.2500000000e+02 0.0000e+00 0.0000e+00
</event>
<event>
 4      1 +2.1368000e-01 2.49560700e+02 7.54677100e-03 1.11358300e-01
      -11 -1    0    0    0    0 +0.0000000000e+00 +0.0000000000e+00 +1.2497083868e+02 1.2497083868e+02 0.0000000000e+00 0.0000e+00 -1.0000e+00
       11 -1    0    0    0    0 -0.0000000000e+00 -0.0000000000e+00 -1.2459011624e+02 1.2459011624e+02 0.0000000000e+00 0.0000e+00 1.0000e+00
       23  1    1    2    0    0 +5.0468191768e+00 +6.1357351024e+01 +5.0968800903e+00 1.1014274574e+02 9.1188000000e+01 0.0000e+00 0.0000e+00
       25  1    1    2    0    0 -5.0468191768e+00 -6.1357351024e+01 -4.7161576455e+00 1.3941820918e+02 1.2500000000e+02 0.0000e+00 0.0000e+00
</event>
<event>
 4      1 +2.1368000e-01 2.49975000e+02 7.54677100e-03 1.11332100e-01
      -11 -1    0    0    0    0 +0.0000000000e+00 +0.0000000000e+00 +1.2498749909e+02 1.2498749909e+02 0.0000000000e+00 0.0000e+00 1.0000e+00
       11 -1    0    0    0    0 -0.0000000000e+00 -0.0000000000e+00 -1.2498749909e+02 1.2498749909e+02 0.0000000000e+00 0.0000e+00 -1.0000e+00
       23  1    1    2    0    0 -5.4632602979e+01 -2.8704602455e+01 -7.5396421194e+00 1.1036653957e+02 9.1188000000e+01 0.0000e+00 0.0000e+00
       25  1    1    2    0    0 +5.4632602979e+01 +2.8704602455e+01 +7.5396421194e+00 1.3960845860e+02 1.2500000000e+02 0.0000e+00 0.0000e+00
</event>
<event>
 4      1 +2.1368000e-01 2.49920800e+02 7.54677100e-03 1.11335500e-01
      -11 -1    0    0    0    0 +0.0000000000e+00 +0.0000000000e+00 +1.2493429099e+02 1.2493429099e+02 0.0000000000e+00 0.0000e+00 -1.0000e+00
       11 -1    0    0    0    0 -0.0000000000e+00 -0.0000000000e+00 -1.2498651996e+02 1.2498651996e+02 0.0000000000e+00 0.0000e+00 1.0000e+00
       23  1    1    2    0    0 +2.6054985665e+00 -9.8867120843e+00 -6.1295451948e+01 1.1034908007e+02 9.1188000000e+01 0.0000e+00 1.0000e+00
       25  1    1    2    0    0 -2.6054985665e+00 +9.8867120843e+00 +6.1243222985e+01 1.3957173088e+02 1.2500000000e+02 0.0000e+00 0.0000e+00
</event>
<event>
 4      1 +2.1368000e-01 2.40169100e+02 7.54677100e-03 1.11968000e-01
      -11 -1    0    0    0    0 +0.0000000000e+00 +0.0000000000e+00 +1.2498212237e+02 1.2498212237e+02 0.0000000000e+00 0.0000e+00 -1.0000e+00
       11 -1    0    0    0    0 -0.0000000000e+00 -0.0000000000e+00 -1.1537892332e+02 1.1537892332e+02 0.0000000000e+00 0.0000e+00 1.0000e+00
       23  1    1    2    0    0 +2.9411811454e+00 +3.1600077310e+01 +4.5147033448e+01 1.0658668494e+02 9.1188000000e+01 0.0000e+00 -1.0000e+00
       25  1    1    2    0    0 -2.9411811454e+00 -3.1600077310e+01 -3.5543834390e+01 1.3377436076e+02 1.2500000000e+02 0.0000e+00 0.0000e+00
</event>
<event>
 4      1 +2.1368000e-01 2.48641400e+02 7.54677100e-03 1.11416600e-01
      -11 -1    0    0    0    0 +0.0000000000e+00 +0.0000000000e+00 +1.2365822503e+02 1.2365822503e+02 0.0000000000e+00 0.0000e+00 1.0000e+00
       11 -1    0    0    0    0 -0.0000000000e+00 -0.0000000000e+00 -1.2498671004e+02 1.2498671004e+02 0.0000000000e+00 0.0000e+00 -1.0000e+00
       23  1    1    2    0    0 -1.1620085771e+01 +5.4296104816e+01 +2.4284058576e+01 1.0949000062e+02 9.1188000000e+01 0.0000e+00 1.0000e+00
       25  1    1    2    0    0 +1.1620085771e+01 -5.4296104816e+01 -2.5612543583e+01 1.3915493444e+02 1.2500000000e+02 0.0000e+00 0.0000e+00
</event>
<event>
 4      1 +2.1368000e-01 2.38284700e+02 7.54677100e-03 1.12094100e-01
      -11 -1    0    0    0    0 +0.0000000000e+00 +0.0000000000e+00 +1.1357054774e+02 1.1357054774e+02 0.0000000000e+00 0.0000e+00 -1.0000e+00
       11 -1    0    0    0    0 -0.0000000000e+00 -0.0000000000e+00 -1.2498752588e+02 1.2498752588e+02 0.0000000000e+00 0.0000e+00 1.0000e+00
       23  1    1    2    0    0 +2.5423469742e+01 +2.0179394814e+01 -4.2519642673e+01 1.0572006501e+02 9.1188000000e+01 0.0000e+00 1.0000e+00
       25  1    1    2    0    0 -2.5423469742e+01 -2.0179394814e+01 +3.1102664534e+01 1.3283800860e+02 1.2500000000e+02 0.0000e+00 0.0000e+00
</event>
<event>
 4      1 +2.1368000e-01 2.35744300e+02 7.54677100e-03 1.12266100e-01
      -11 -1    0    0    0    0 +0.0000000000e+00 +0.0000000000e+00 +1.2498845101e+02 1.2498845101e+02 0.0000000000e+00 0.0000e+00 -1.0000e+00
       11 -1    0    0    0    0 -0.0000000000e+00 -0.0000000000e+00 -1.1116105963e+02 1.1116105963e+02 0.0000000000e+00 0.0000e+00 1.0000e+00
       23  1    1    2    0    0 -2.3983598541e+01 +4.4735236677e+00 +4.5681230228e+01 1.0486778129e+02 9.1188000000e+01 0.0000e+00 -1.0000e+00
       25  1    1    2    0    0 +2.3983598541e+01 -4.4735236677e+00 -3.1853838854e+01 1.3128172936e+02 1.2500000000e+02 0.0000e+00 0.0000e+00
</event>
<event>
 4      1 +2.1368000e-01 2.49972700e+02 7.54677100e-03 1.11332200e-01
      -11 -1    0    0    0    0 +0.0000000000e+00 +0.0000000000e+00 +1.2498633167e+02 1.2498633167e+02 0.0000000000e+00 0.0000e+00 1.0000e+00
       11 -1    0    0    0    0 -0.0000000000e+00 -0.0000000000e+00 -1.2498633167e+02 1.2498633167e+02 0.0000000000e+00 0.0000e+00 -1.0000e+00
       23  1    1    2    0    0 -5.8284039652e+01 -2.0930179682e+01 -5.4892788627e+00 1.1036523559e+02 9.1188000000e+01 0.0000e+00 0.0000e+00
       25  1    1    2    0    0 +5.8284039652e+01 +2.0930179682e+01 +5.4892788627e+00 1.3960742775e+02 1.2500000000e+02 0.0000e+00 0.0000e+00
</event>
<event>
 4      1 +2.1368000e-01 2.49975000e+02 7.54677100e-03 1.11332100e-01
      -11 -1    0    0    0    0 +0.0000000000e+00 +0.0000000000e+00 +1.2498749982e+02 1.2498749982e+02 0.0000000000e+00 0.0000e+00 -1.0000e+00
       11 -1    0    0    0    0 -0.0000000000e+00 -0.0000000000e+00 -1.2498749982e+02 1.2498749982e+02 0.0000000000e+00 0.0000e+00 1.0000e+00
       23  1    1    2    0    0 -1.3027893654e+01 -5.2498432195e+01 +3.0654697792e+01 1.1036654039e+02 9.1188000000e+01 0.0000e+00 0.0000e+00
       25  1    1    2    0    0 +1.3027893654e+01 +5.2498432195e+01 -3.0654697792e+01 1.3960845924e+02 1.2500000000e+02 0.0000e+00 0.0000e+00
</event>
<event>
 4      1 +2.1368000e-01 2.49975000e+02 7.54677100e-03 1.11332100e-01
      -11 -1    0    0    0    0 +0.0000000000e+00 +0.0000000000e+00 +1.2498750000e+02 1.2498750000e+02 0.0000000000e+00 0.0000e+00 -1.0000e+00
       11 -1    0    0    0    0 -0.0000000000e+00 -0.0000000000e+00 -1.2498750000e+02 1.2498750000e+02 0.0000000000e+00 0.0000e+00 1.0000e+00
       23  1    1    2    0    0 -4.5057085679e+01 -2.8709701992e+01 +3.1798332974e+01 1.1036654059e+02 9.1188000000e+01 0.0000e+00 -1.0000e+00
       25  1    1    2    0    0 +4.5057085679e+01 +2.8709701992e+01 -3.1798332974e+01 1.3960845941e+02 1.2500000000e+02 0.0000e+00 0.0000e+00
</event>
<event>
 4      1 +2.1368000e-01 2.48420600e+02 7.54677100e-03 1.11430700e-01
      -11 -1    0    0    0    0 +0.0000000000e+00 +0.0000000000e+00 +1.2367585058e+02 1.2367585058e+02 0.0000000000e+00 0.0000e+00 1.0000e+00
       11 -1    0    0    0    0 -0.0000000000e+00 -0.0000000000e+00 -1.2474704170e+02 1.2474704170e+02 0.0000000000e+00 0.0000e+00 -1.0000e+00
       23  1    1    2    0    0 +7.5457711694e+00 +4.7508574002e+01 +3.6413463823e+01 1.0933981415e+02 9.1188000000e+01 0.0000e+00 1.0000e+00
       25  1    1    2    0    0 -7.5457711694e+00 -4.7508574002e+01 -3.7484654945e+01 1.3908307813e+02 1.2500000000e+02 0.0000e+00 0.0000e+00
</event>
<event>
 4      1 +2.1368000e-01 2.49975000e+02 7.54677100e-03 1.11332100e-01
      -11 -1    0    0    0    0 +0.0000000000e+00 +0.0000000000e+00 +1.2498836970e+02 1.2498836970e+02 0.0000000000e+00 0.0000e+00 1.0000e+00
       11 -1    0    0    0    0 -0.0000000000e+00 -0.0000000000e+00 -1.2498662835e+02 1.2498662835e+02 0.0000000000e+00 0.0000e+00 -1.0000e+00
       23  1    1    2    0    0 -2.2916614069e+01 -2.1068294045e+01 +5.3819701205e+01 1.1036691441e+02 9.1188000000e+01 0.0000e+00 1.0000e+00
       25  1    1    2    0    0 +2.2916614069e+01 +2.1068294045e+01 -5.3817959862e+01 1.3960808364e+02 1.2500000000e+02 0.0000e+00 0.0000e+00
</event>
<event>
 4      1 +2.1368000e-01 2.45341500e+02 7.54677100e-03 1.11628500e-01
      -11 -1    0    0    0    0 +0.0000000000e+00 +0.0000000000e+00 +1.2039778020e+02 1.2039778020e+02 0.0000000000e+00 0.0000e+00 1.0000e+00
       11 -1    0    0    0    0 -0.0000000000e+00 -0.0000000000e+00 -1.2498662478e+02 1.2498662478e+02 0.0000000000e+00 0.0000e+00 -1.0000e+00
       23  1    1    2    0    0 +4.8762147409e+01 +3.4915620560e+00 +2.8155225943e+01 1.0722828973e+02 9.1188000000e+01 0.0000e+00 1.0000e+00
       25  1    1    2    0    0 -4.8762147409e+01 -3.4915620560e+00 -3.2744070525e+01 1.3815611525e+02 1.2500000000e+02 0.0000e+00 0.0000e+00
</event>
<event>
 4      1 +2.1368000e-01 2.49949900e+02 7.54677100e-03 1.11333600e-01
      -11 -1    0    0    0    0 +0.0000000000e+00 +0.0000000000e+00 +1.2498800298e+02 1.2498800298e+02 0.0000000000e+00 0.0000e+00 1.0000e+00
       11 -1    0    0    0    0 -0.0000000000e+00 -0.0000000000e+00 -1.2496188528e+02 1.2496188528e+02 0.0000000000e+00 0.0000e+00 -1.0000e+00
       23  1    1    2    0    0 -5.4167860512e+01 +2.5653675762e+01 -1.6424954109e+01 1.1035079816e+02 9.1188000000e+01 0.0000e+00 0.0000e+00
       25  1    1    2    0    0 +5.4167860512e+01 -2.5653675762e+01 +1.6451071811e+01 1.3959909010e+02 1.2500000000e+02 0.0000e+00 0.0000e+00
</event>
<event>
 4      1 +2.1368000e-01 2.49972700e+02 7.54677100e-03 1.11332200e-01
      -11 -1    0    0    0    0 +0.0000000000e+00 +0.0000000000e+00 +1.2498633561e+02 1.2498633561e+02 0.0000000000e+00 0.0000e+00 1.0000e+00
       11 -1    0    0    0    0 -0.0000000000e+00 -0.0000000000e+00 -1.2498633561e+02 1.2498633561e+02 0.0000000000e+00 0.0000e+00 -1.0000e+00
       23  1    1    2    0    0 +2.3370505939e+01 -3.5964830470e+01 +4.5006502600e+01 1.1036523999e+02 9.1188000000e+01 0.0000e+00 1.0000e+00
       25  1    1    2    0    0 -2.3370505939e+01 +3.5964830470e+01 -4.5006502600e+01 1.3960743123e+02 1.2500000000e+02 0.0000e+00 0.0000e+00
</event>
<event>
 4      1 +2.1368000e-01 2.49973500e+02 7.54677100e-03 1.11332200e-01
      -11 -1    0    0    0    0 +0.0000000000e+00 +0.0000000000e+00 +1.2498673037e+02 1.2498673037e+02 0.0000000000e+00 0.0000e+00 -1.0000e+00
       11 -1    0    0    0    0 -0.0000000000e+00 -0.0000000000e+00 -1.2498673037e+02 1.2498673037e+02 0.0000000000e+00 0.0000e+00 1.0000e+00
       23  1    1    2    0    0 -4.7386946579e+00 -6.0190810790e+01 +1.4830483871e+01 1.1036568093e+02 9.1188000000e+01 0.0000e+00 -1.0000e+00
       25  1    1    2    0    0 +4.7386946579e+00 +6.0190810790e+01 -1.4830483871e+01 1.3960777981e+02 1.2500000000e+02 0.0000e+00 0.0000e+00
</event>
<event>
 4      1 +2.1368000e-01 2.46790200e+02 7.54677100e-03 1.11535000e-01
      -11 -1    0    0    0    0 +0.0000000000e+00 +0.0000000000e+00 +1.2495638311e+02 1.2495638311e+02 0.0000000000e+00 0.0000e+00 1.0000e+00
       11 -1    0    0    0    0 -0.0000000000e+00 -0.0000000000e+00 -1.2185329688e+02 1.2185329688e+02 0.0000000000e+00 0.0000e+00 -1.0000e+00
       23  1    1    2    0    0 -7.7165047887e+00 +4.8957044773e+01 +3.3292928566e+01 1.0899544539e+02 9.1188000000e+01 0.0000e+00 1.0000e+00
       25  1    1    2    0    0 +7.7165047887e+00 -4.8957044773e+01 -3.0189842330e+01 1.3781423460e+02 1.2500000000e+02 0.0000e+00 0.0000e+00
</event>
<event>
 4      1 +2.1368000e-01 2.49975000e+02 7.54677100e-03 1.11332100e-01
      -11 -1    0    0    0    0 +0.0000000000e+00 +0.0000000000e+00 +1.2498837067e+02 1.2498837067e+02 0.0000000000e+00 0.0000e+00 -1.0000e+00
       11 -1    0    0    0    0 -0.0000000000e+00 -0.0000000000e+00 -1.2498662933e+02 1.2498662933e+02 0.0000000000e+00 0.0000e+00 1.0000e+00
       23  1    1    2    0    0 -6.0691828820e+01 -7.1066647650e+00 -1.1467411858e+01 1.1036646070e+02 9.1188000000e+01 0.0000e+00 0.0000e+00
       25  1    1    2    0    0 +6.0691828820e+01 +7.1066647650e+00 +1.1469153201e+01 1.3960853930e+02 1.2500000000e+02 0.0000e+00 0.0000e+00
</event>
<event>
 4      1 +2.1368000e-01 2.49765100e+02 7.54677100e-03 1.11345300e-01
      -11 -1    0    0    0    0 +0.0000000000e+00 +0.0000000000e+00 +1.2477821424e+02 1.2477821424e+02 0.0000000000e+00 0.0000e+00 1.0000e+00
       11 -1    0    0    0    0 -0.0000000000e+00 -0.0000000000e+00 -1.2498700003e+02 1.2498700003e+02 0.0000000000e+00 0.0000e+00 -1.0000e+00
       23  1    1    2    0    0 +1.8096520143e+01 -4.8385782350e+01 -3.4311945770e+01 1.1027796217e+02 9.1188000000e+01 0.0000e+00 -1.0000e+00
       25  1    1    2    0    0 -1.8096520143e+01 +4.8385782350e+01 +3.4103159985e+01 1.3948725209e+02 1.2500000000e+02 0.0000e+00 0.0000e+00
</event>
<event>
 4      1 +2.1368000e-01 2.49934800e+02 7.54677100e-03 1.11334600e-01
      -11 -1    0    0    0    0 +0.0000000000e+00 +0.0000000000e+00 +1.2498482200e+02 1.2498482200e+02 0.0000000000e+00 0.0000e+00 -1.0000e+00
       11 -1    0    0    0    0 -0.0000000000e+00 -0.0000000000e+00 -1.2495000074e+02 1.2495000074e+02 0.0000000000e+00 0.0000e+00 1.0000e+00
       23  1    1    2    0    0 +6.8448963899e+00 +6.1472140938e+01 -5.8916059605e+00 1.1034327838e+02 9.1188000000e+01 0.0000e+00 0.0000e+00
       25  1    1    2    0    0 -6.8448963899e+00 -6.1472140938e+01 +5.9264272214e+00 1.3959154436e+02 1.2500000000e+02 0.0000e+00 0.0000e+00
</event>
<event>
 4      1 +2.1368000e-01 2.49975000e+02 7.54677100e-03 1.11332100e-01
      -11 -1    0    0    0    0 +0.0000000000e+00 +0.0000000000e+00 +1.2498750000e+02 1.2498750000e+02 0.0000000000e+00 0.0000e+00 -1.0000e+00
       11 -1    0    0    0    0 -0.0000000000e+00 -0.0000000000e+00 -1.2498750000e+02 1.2498750000e+02 0.0000000000e+00 0.0000e+00 1.0000e+00
       23  1    1    2    0    0 -4.0540929113e+01 +4.3127849786e+01 -1.9024814789e+01 1.1036654059e+02 9.1188000000e+01 0.0000e+00 1.0000e+00
       25  1    1    2    0    0 +4.0540929113e+01 -4.3127849786e+01 +1.9024814789e+01 1.3960845941e+02 1.2500000000e+02 0.0000e+00 0.0000e+00
</event>
<event>
 4      1 +2.1368000e-01 2.49975000e+02 7.54677100e-03 1.11332100e-01
      -11 -1    0    0    0    0 +0.0000000000e+00 +0.0000000000e+00 +1.2498749997e+02 1.2498749997e+02 0.0000000000e+00 0.0000e+00 -1.0000e+00
       11 -1    0    0    0    0 -0.0000000000e+00 -0.0000000000e+00 -1.2498749997e+02 1.2498749997e+02 0.0000000000e+00 0.0000e+00 1.0000e+00
       23  1    1    2    0    0 +2.4727262422e+01 -3.2404051120e+01 +4.6947437572e+01 1.1036654056e+02 9.1188000000e+01 0.0000e+00 -1.0000e+00
       25  1    1    2    0    0 -2.4727262422e+01 +3.2404051120e+01 -4.6947437572e+01 1.3960845938e+02 1.2500000000e+02 0.0000e+00 0.0000e+00
</event>
<event>
 4      1 +2.1368000e-01 2.49975000e+02 7.54677100e-03 1.11332100e-01
      -11 -1    0    0    0    0 +0.0000000000e+00 +0.0000000000e+00 +1.2498749541e+02 1.2498749541e+02 0.0000000000e+00 0.0000e+00 1.0000e+00
       11 -1    0    0    0    0 -0.0000000000e+00 -0.0000000000e+00 -1.2498749541e+02 1.2498749541e+02 0.0000000000e+00 0.0000e+00 -1.0000e+00
       23  1    1    2    0    0 +3.1082472764e+01 -4.5516889320e+01 +2.8768272110e+01 1.1036653547e+02 9.1188000000e+01 0.0000e+00 1.0000e+00
       25  1    1    2    0    0 -3.1082472764e+01 +4.5516889320e+01 -2.8768272110e+01 1.3960845536e+02 1.2500000000e+02 0.0000e+00 0.0000e+00
</event>
<event>
 4      1 +2.1368000e-01 2.49975000e+02 7.54677100e-03 1.11332100e-01
      -11 -1    0    0    0    0 +0.0000000000e+00 +0.0000000000e+00 +1.2498750000e+02 1.2498750000e+02 0.0000000000e+00 0.0000e+00 -1.0000e+00
       11 -1    0    0    0    0 -0.0000000000e+00 -0.0000000000e+00 -1.2498750000e+02 1.2498750000e+02 0.0000000000e+00 0.0000e+00 1.0000e+00
       23  1    1    2    0    0 +2.3836321878e+01 -5.6671203162e+00 -5.7142238706e+01 1.1036654059e+02 9.1188000000e+01 0.0000e+00 1.0000e+00
       25  1    1    2    0    0 -2.3836321878e+01 +5.6671203162e+00 +5.7142238706e+01 1.3960845941e+02 1.2500000000e+02 0.0000e+00 0.0000e+00
</event>
<event>
 4      1 +2.1368000e-01 2.47694500e+02 7.54677100e-03 1.11477100e-01
      -11 -1    0    0    0    0 +0.0000000000e+00 +0.0000000000e+00 +1.2367996915e+02 1.2367996915e+02 0.0000000000e+00 0.0000e+00 -1.0000e+00
       11 -1    0    0    0    0 -0.0000000000e+00 -0.0000000000e+00 -1.2401470801e+02 1.2401470801e+02 0.0000000000e+00 0.0000e+00 1.0000e+00
       23  1    1    2    0    0 -1.7192351236e+01 -2.0149206675e+01 +5.3557081690e+01 1.0901917177e+02 9.1188000000e+01 0.0000e+00 -1.0000e+00
       25  1    1    2    0    0 +1.7192351236e+01 +2.0149206675e+01 -5.3891820548e+01 1.3867550538e+02 1.2500000000e+02 0.0000e+00 0.0000e+00
</event>
<event>
 4      1 +2.1368000e-01 2.49109700e+02 7.54677100e-03 1.11386900e-01
      -11 -1    0    0    0    0 +0.0000000000e+00 +0.0000000000e+00 +1.2496765246e+02 1.2496765246e+02 0.0000000000e+00 0.0000e+00 1.0000e+00
       11 -1    0    0    0    0 -0.0000000000e+00 -0.0000000000e+00 -1.2414337337e+02 1.2414337337e+02 0.0000000000e+00 0.0000e+00 -1.0000e+00
       23  1    1    2    0    0 +1.8755329983e+01 +1.7764822778e+01 -5.5239672026e+01 1.0969969936e+02 9.1188000000e+01 0.0000e+00 -1.0000e+00
       25  1    1    2    0    0 -1.8755329983e+01 -1.7764822778e+01 +5.6063951123e+01 1.3941132646e+02 1.2500000000e+02 0.0000e+00 0.0000e+00
</event>
<event>
 4      1 +2.1368000e-01 2.29182300e+02 7.54677100e-03 1.12721700e-01
      -11 -1    0    0    0    0 +0.0000000000e+00 +0.0000000000e+00 +1.0505957040e+02 1.0505957040e+02 0.0000000000e+00 0.0000e+00 1.0000e+00
       11 -1    0    0    0    0 -0.0000000000e+00 -0.0000000000e+00 -1.2498744150e+02 1.2498744150e+02 0.0000000000e+00 0.0000e+00 -1.0000e+00
       23  1    1    2    0    0 +3.1632079738e+00 -3.7487486430e+01 -8.6490594817e+00 9.9022093986e+01 9.1188000000e+01 0.0000e+00 0.0000e+00
       25  1    1    2    0    0 -3.1632079738e+00 +3.7487486430e+01 -1.1278811619e+01 1.3102491792e+02 1.2500000000e+02 0.0000e+00 0.0000e+00
</event>
<event>
 4      1 +2.1368000e-01 2.24432800e+02 7.54677100e-03 1.13062100e-01
      -11 -1    0    0    0    0 +0.0000000000e+00 +0.0000000000e+00 +1.0075082213e+02 1.0075082213e+02 0.0000000000e+00 0.0000e+00 -1.0000e+00
       11 -1    0    0    0    0 -0.0000000000e+00 -0.0000000000e+00 -1.2498680190e+02 1.2498680190e+02 0.0000000000e+00 0.0000e+00 1.0000e+00
       23  1    1    2    0    0 -1.1187609035e+01 -1.1316242988e+01 +1.4973846708e+01 9.3769330703e+01 9.1188000000e+01 0.0000e+00 -1.0000e+00
       25  1    1    2    0    0 +1.1187609035e+01 +1.1316242988e+01 -3.9209826483e+01 1.3196829333e+02 1.2500000000e+02 0.0000e+00 0.0000e+00
</event>
<event>
 4      1 +2.1368000e-01 2.29532700e+02 7.54677100e-03 1.12696900e-01
      -11 -1    0    0    0    0 +0.0000000000e+00 +0.0000000000e+00 +1.0664430314e+02 1.0664430314e+02 0.0000000000e+00 0.0000e+00 1.0000e+00
       11 -1    0    0    0    0 -0.0000000000e+00 -0.0000000000e+00 -1.2350694589e+02 1.2350694589e+02 0.0000000000e+00 0.0000e+00 -1.0000e+00
       23  1    1    2    0    0 -2.8535528338e+01 +2.0911487128e+01 -2.1553547564e+01 1.0015674430e+02 9.1188000000e+01 0.0000e+00 0.0000e+00
       25  1    1    2    0    0 +2.8535528338e+01 -2.0911487128e+01 +4.6909048138e+00 1.2999450473e+02 1.2500000000e+02 0.0000e+00 0.0000e+00
</event>
<event>
 4      1 +2.1368000e-01 2.47143500e+02 7.54677100e-03 1.11512400e-01
      -11 -1    0    0    0    0 +0.0000000000e+00 +0.0000000000e+00 +1.2498107533e+02 1.2498107533e+02 0.0000000000e+00 0.0000e+00 -1.0000e+00
       11 -1    0    0    0    0 -0.0000000000e+00 -0.0000000000e+00 -1.2217827636e+02 1.2217827636e+02 0.0000000000e+00 0.0000e+00 1.0000e+00
       23  1    1    2    0    0 +5.3014344805e+00 -5.2093802181e+01 -2.6637016111e+01 1.0847419695e+02 9.1188000000e+01 0.0000e+00 1.0000e+00
       25  1    1    2    0    0 -5.3014344805e+00 +5.2093802181e+01 +2.9439815073e+01 1.3868515474e+02 1.2500000000e+02 0.0000e+00 0.0000e+00
</event>
<event>
 4      1 +2.1368000e-01 2.49761200e+02 7.54677100e-03 1.11345600e-01
      -11 -1    0    0    0    0 +0.0000000000e+00 +0.0000000000e+00 +1.2498766768e+02 1.2498766768e+02 0.0000000000e+00 0.0000e+00 1.0000e+00
       11 -1    0    0    0    0 -0.0000000000e+00 -0.0000000000e+00 -1.2477366408e+02 1.2477366408e+02 0.0000000000e+00 0.0000e+00 -1.0000e+00
       23  1    1    2    0    0 +1.2036489920e+01 -2.1806189014e+01 +5.6828910665e+01 1.1029579956e+02 9.1188000000e+01 0.0000e+00 1.0000e+00
       25  1    1    2    0    0 -1.2036489920e+01 +2.1806189014e+01 -5.6614907072e+01 1.3946553220e+02 1.2500000000e+02 0.0000e+00 0.0000e+00
</event>
<event>
 4      1 +2.1368000e-01 2.49068900e+02 7.54677100e-03 1.11389500e-01
      -11 -1    0    0    0    0 +0.0000000000e+00 +0.0000000000e+00 +1.2498813231e+02 1.2498813231e+02 0.0000000000e+00 0.0000e+00 1.0000e+00
       11 -1    0    0    0    0 -0.0000000000e+00 -0.0000000000e+00 -1.2408244635e+02 1.2408244635e+02 0.0000000000e+00 0.0000e+00 -1.0000e+00
       23  1    1    2    0    0 +6.0763207308e+01 +3.2824350375e+00 -6.7487397736e+00 1.0983505167e+02 9.1188000000e+01 0.0000e+00 0.0000e+00
       25  1    1    2    0    0 -6.0763207308e+01 -3.2824350375e+00 +7.6544257319e+00 1.3923552699e+02 1.2500000000e+02 0.0000e+00 0.0000e+00
</event>
<event>
 4      1 +2.1368000e-01 2.49386700e+02 7.54677100e-03 1.11369300e-01
      -11 -1    0    0    0    0 +0.0000000000e+00 +0.0000000000e+00 +1.2447899226e+02 1.2447899226e+02 0.0000000000e+00 0.0000e+00 -1.0000e+00
       11 -1    0    0    0    0 -0.0000000000e+00 -0.0000000000e+00 -1.2490809238e+02 1.2490809238e+02 0.0000000000e+00 0.0000e+00 1.0000e+00
       23  1    1    2    0    0 +4.3282064758e+00 +6.1435625553e+01 -3.3259323479e-01 1.1003831797e+02 9.1188000000e+01 0.0000e+00 0.0000e+00
       25  1    1    2    0    0 -4.3282064758e+00 -6.1435625553e+01 -9.6506887841e-02 1.3934876667e+02 1.2500000000e+02 0.0000e+00 0.0000e+00
</event>
<event>
 4      1 +2.1368000e-01 2.49949500e+02 7.54677100e-03 1.11333700e-01
      -11 -1    0    0    0    0 +0.0000000000e+00 +0.0000000000e+00 +1.2496256780e+02 1.2496256780e+02 0.0000000000e+00 0.0000e+00 -1.0000e+00
       11 -1    0    0    0    0 -0.0000000000e+00 -0.0000000000e+00 -1.2498694428e+02 1.2498694428e+02 0.0000000000e+00 0.0000e+00 1.0000e+00
       23  1    1    2    0    0 -3.3073335012e+01 +5.1701607723e+01 +9.7605301679e+00 1.1035135261e+02 9.1188000000e+01 0.0000e+00 0.0000e+00
       25  1    1    2    0    0 +3.3073335012e+01 -5.1701607723e+01 -9.7849066528e+00 1.3959815947e+02 1.2500000000e+02 0.0000e+00 0.0000e+00
</event>
<event>
 4      1 +2.1368000e-01 2.49975000e+02 7.54677100e-03 1.11332100e-01
      -11 -1    0    0    0    0 +0.0000000000e+00 +0.0000000000e+00 +1.2498749881e+02 1.2498749881e+02 0.0000000000e+00 0.0000e+00 1.0000e+00
       11 -1    0    0    0    0 -0.0000000000e+00 -0.0000000000e+00 -1.2498749881e+02 1.2498749881e+02 0.0000000000e+00 0.0000e+00 -1.0000e+00
       23  1    1    2    0    0 +8.6411403101e+00 -5.9715748455e+01 +1.4996057029e+01 1.1036653927e+02 9.1188000000e+01 0.0000e+00 0.0000e+00
       25  1    1    2    0    0 -8.6411403101e+00 +5.9715748455e+01 -1.4996057029e+01 1.3960845836e+02 1.2500000000e+02 0.0000e+00 0.0000e+00
</event>
<event>
 4      1 +2.1368000e-01 2.45699300e+02 7.54677100e-03 1.11605300e-01
      -11 -1    0    0    0    0 +0.0000000000e+00 +0.0000000000e+00 +1.2074816629e+02 1.2074816629e+02 0.0000000000e+00 0.0000e+00 1.0000e+00
       11 -1    0    0    0    0 -0.0000000000e+00 -0.0000000000e+00 -1.2498773662e+02 1.2498773662e+02 0.0000000000e+00 0.0000e+00 -1.0000e+00
       23  1    1    2    0    0 +3.7578798301e+01 -4.2932330154e+01 -1.1236836720e+01 1.0815206377e+02 9.1188000000e+01 0.0000e+00 -1.0000e+00
       25  1    1    2    0    0 -3.7578798301e+01 +4.2932330154e+01 +6.9972663869e+00 1.3758383913e+02 1.2500000000e+02 0.0000e+00 0.0000e+00
</event>
<event>
 4      1 +2.1368000e-01 2.49925300e+02 7.54677100e-03 1.11335200e-01
      -11 -1    0    0    0    0 +0.0000000000e+00 +0.0000000000e+00 +1.2498791566e+02 1.2498791566e+02 0.0000000000e+00 0.0000e+00 1.0000e+00
       11 -1    0    0    0    0 -0.0000000000e+00 -0.0000000000e+00 -1.2493742640e+02 1.2493742640e+02 0.0000000000e+00 0.0000e+00 -1.0000e+00
       23  1    1    2    0    0 +1.9622951814e+01 -5.8878602864e+01 -2.7435998894e+00 1.1033824721e+02 9.1188000000e+01 0.0000e+00 0.0000e+00
       25  1    1    2    0    0 -1.9622951814e+01 +5.8878602864e+01 +2.7940891541e+00 1.3958709485e+02 1.2500000000e+02 0.0000e+00 0.0000e+00
</event>
<event>
 4      1 +2.1368000e-01 2.49975000e+02 7.54677100e-03 1.11332100e-01
      -11 -1    0    0    0    0 +0.0000000000e+00 +0.0000000000e+00 +1.2498836166e+02 1.2498836166e+02 0.0000000000e+00 0.0000e+00 -1.0000e+00
       11 -1    0    0    0    0 -0.0000000000e+00 -0.0000000000e+00 -1.2498662032e+02 1.2498662032e+02 0.0000000000e+00 0.0000e+00 1.0000e+00
       23  1    1    2    0    0 +1.1303093986e+01 +1.2424782431e+01 +5.9862146716e+01 1.1036694752e+02 9.1188000000e+01 0.0000e+00 -1.0000e+00
       25  1    1    2    0    0 -1.1303093986e+01 -1.2424782431e+01 -5.9860405374e+01 1.3960803445e+02 1.2500000000e+02 0.0000e+00 0.0000e+00
</event>
<event>
 4      1 +2.1368000e-01 2.46069100e+02 7.54677100e-03 1.11581500e-01
      -11 -1    0    0    0    0 +0.0000000000e+00 +0.0000000000e+00 +1.2498762521e+02 1.2498762521e+02 0.0000000000e+00 0.0000e+00 1.0000e+00
       11 -1    0    0    0    0 -0.0000000000e+00 -0.0000000000e+00 -1.2111194691e+02 1.2111194691e+02 0.0000000000e+00 0.0000e+00 -1.0000e+00
       23  1    1    2    0    0 +1.0942070480e+01 -2.1438922698e+01 +5.4706938632e+01 1.0902961429e+02 9.1188000000e+01 0.0000e+00 1.0000e+00
       25  1    1    2    0    0 -1.0942070480e+01 +2.1438922698e+01 -5.0831260339e+01 1.3706995783e+02 1.2500000000e+02 0.0000e+00 0.0000e+00
</event>
<event>
 4      1 +2.1368000e-01 2.28781800e+02 7.54677100e-03 1.12750000e-01
      -11 -1    0    0    0    0 +0.0000000000e+00 +0.0000000000e+00 +1.0469276000e+02 1.0469276000e+02 0.0000000000e+00 0.0000e+00 1.0000e+00
       11 -1    0    0    0    0 -0.0000000000e+00 -0.0000000000e+00 -1.2498744117e+02 1.2498744117e+02 0.0000000000e+00 0.0000e+00 -1.0000e+00
       23  1    1    2    0    0 +3.3158135185e+01 -5.2848812057e+00 +6.9186633536e+00 9.7419254487e+01 9.1188000000e+01 0.0000e+00 -1.0000e+00
       25  1    1    2    0    0 -3.3158135185e+01 +5.2848812057e+00 -2.7213344521e+01 1.3226094669e+02 1.2500000000e+02 0.0000e+00 0.0000e+00
</event>
<event>
 4      1 +2.1368000e-01 2.43753100e+02 7.54677100e-03 1.11731800e-01
      -11 -1    0    0    0    0 +0.0000000000e+00 +0.0000000000e+00 +1.1884272045e+02 1.1884272045e+02 0.0000000000e+00 0.0000e+00 -1.0000e+00
       11 -1    0    0    0    0 -0.0000000000e+00 -0.0000000000e+00 -1.2498781086e+02 1.2498781086e+02 0.0000000000e+00 0.0000e+00 1.0000e+00
       23  1    1    2    0    0 -5.4317931421e+01 +9.4120127040e+00 +5.6488058414e+00 1.0670606360e+02 9.1188000000e+01 0.0000e+00 -1.0000e+00
       25  1    1    2    0    0 +5.4317931421e+01 -9.4120127040e+00 -1.1793896252e+01 1.3712446771e+02 1.2500000000e+02 0.0000e+00 0.0000e+00
</event>
<event>
 4      1 +2.1368000e-01 2.45796300e+02 7.54677100e-03 1.11599100e-01
      -11 -1    0    0    0    0 +0.0000000000e+00 +0.0000000000e+00 +1.2084378091e+02 1.2084378091e+02 0.0000000000e+00 0.0000e+00 1.0000e+00
       11 -1    0    0    0    0 -0.0000000000e+00 -0.0000000000e+00 -1.2498739741e+02 1.2498739741e+02 0.0000000000e+00 0.0000e+00 -1.0000e+00
       23  1    1    2    0    0 -8.6122362689e+00 -2.9937957566e+01 -5.0659162802e+01 1.0886713938e+02 9.1188000000e+01 0.0000e+00 0.0000e+00
       25  1    1    2    0    0 +8.6122362689e+00 +2.9937957566e+01 +4.6515546303e+01 1.3696403895e+02 1.2500000000e+02 0.0000e+00 0.0000e+00
</event>
<event>
 4      1 +2.1368000e-01 2.49974700e+02 7.54677100e-03 1.11332100e-01
      -11 -1    0    0    0    0 +0.0000000000e+00 +0.0000000000e+00 +1.2498735607e+02 1.2498735607e+02 0.0000000000e+00 0.0000e+00 1.0000e+00
       11 -1    0    0    0    0 -0.0000000000e+00 -0.0000000000e+00 -1.2498735607e+02 1.2498735607e+02 0.0000000000e+00 0.0000e+00 -1.0000e+00
       23  1    1    2    0    0 -1.1148856913e+01 +7.9007210898e+00 -6.0652848625e+01 1.1036637982e+02 9.1188000000e+01 0.0000e+00 -1.0000e+00
       25  1    1    2    0    0 +1.1148856913e+01 -7.9007210898e+00 +6.0652848625e+01 1.3960833231e+02 1.2500000000e+02 0.0000e+00 0.0000e+00
</event>
<event>
 4      1 +2.1368000e-01 2.49814100e+02 7.54677100e-03 1.11342200e-01
      -11 -1    0    0    0    0 +0.0000000000e+00 +0.0000000000e+00 +1.2482702837e+02 1.2482702837e+02 0.0000000000e+00 0.0000e+00 1.0000e+00
       11 -1    0    0    0    0 -0.0000000000e+00 -0.0000000000e+00 -1.2498712996e+02 1.2498712996e+02 0.0000000000e+00 0.0000e+00 -1.0000e+00
       23  1    1    2    0    0 +4.0204054850e+01 +3.8740467623e+00 +4.6985896771e+01 1.1024654237e+02 9.1188000000e+01 0.0000e+00 1.0000e+00
       25  1    1    2    0    0 -4.0204054850e+01 -3.8740467623e+00 -4.7145998355e+01 1.3956761596e+02 1.2500000000e+02 0.0000e+00 0.0000e+00
</event>
<event>
 4      1 +2.1368000e-01 2.41524700e+02 7.54677100e-03 1.11878100e-01
      -11 -1    0    0    0    0 +0.0000000000e+00 +0.0000000000e+00 +1.2495910605e+02 1.2495910605e+02 0.0000000000e+00 0.0000e+00 -1.0000e+00
       11 -1    0    0    0    0 -0.0000000000e+00 -0.0000000000e+00 -1.1670651026e+02 1.1670651026e+02 0.0000000000e+00 0.0000e+00 1.0000e+00
       23  1    1    2    0    0 -2.8208236629e+01 -7.4753953967e+00 -4.1035430444e+01 1.0416690475e+02 9.1188000000e+01 0.0000e+00 1.0000e+00
       25  1    1    2    0    0 +2.8208236629e+01 +7.4753953967e+00 +4.9288026228e+01 1.3749871156e+02 1.2500000000e+02 0.0000e+00 0.0000e+00
</event>
<event>
 4      1 +2.1368000e-01 2.49974800e+02 7.54677100e-03 1.11332100e-01
      -11 -1    0    0    0    0 +0.0000000000e+00 +0.0000000000e+00 +1.2498827934e+02 1.2498827934e+02 0.0000000000e+00 0.0000e+00 1.0000e+00
       11 -1    0    0    0    0 -0.0000000000e+00 -0.0000000000e+00 -1.2498653800e+02 1.2498653800e+02 0.0000000000e+00 0.0000e+00 -1.0000e+00
       23  1    1    2    0    0 -4.0901128223e+01 -4.1129173620e+01 -2.2381997031e+01 1.1036628266e+02 9.1188000000e+01 0.0000e+00 -1.0000e+00
       25  1    1    2    0    0 +4.0901128223e+01 +4.1129173620e+01 +2.2383738373e+01 1.3960853468e+02 1.2500000000e+02 0.0000e+00 0.0000e+00
</event>
<event>
 4      1 +2.1368000e-01 2.33371700e+02 7.54677100e-03 1.12428900e-01
      -11 -1    0    0    0    0 +0.0000000000e+00 +0.0000000000e+00 +1.2498673030e+02 1.2498673030e+02 0.0000000000e+00 0.0000e+00 -1.0000e+00
       11 -1    0    0    0    0 -0.0000000000e+00 -0.0000000000e+00 -1.0893623749e+02 1.0893623749e+02 0.0000000000e+00 0.0000e+00 1.0000e+00
       23  1    1    2    0    0 +2.0462010685e+01 -2.6889087210e+01 +3.4380896449e+01 1.0314559747e+02 9.1188000000e+01 0.0000e+00 0.0000e+00
       25  1    1    2    0    0 -2.0462010685e+01 +2.6889087210e+01 -1.8330403638e+01 1.3077737033e+02 1.2500000000e+02 0.0000e+00 0.0000e+00
</event>
<event>
 4      1 +2.1368000e-01 2.49975000e+02 7.54677100e-03 1.11332100e-01
      -11 -1    0    0    0    0 +0.0000000000e+00 +0.0000000000e+00 +1.2498836959e+02 1.2498836959e+02 0.0000000000e+00 0.0000e+00 1.0000e+00
       11 -1    0    0    0    0 -0.0000000000e+00 -0.0000000000e+00 -1.2498662825e+02 1.2498662825e+02 0.0000000000e+00 0.0000e+00 -1.0000e+00
       23  1    1    2    0    0 -1.4498511102e+01 -3.2121873649e+01 -5.1219345208e+01 1.1036618259e+02 9.1188000000e+01 0.0000e+00 -1.0000e+00
       25  1    1    2    0    0 +1.4498511102e+01 +3.2121873649e+01 +5.1221086551e+01 1.3960881526e+02 1.2500000000e+02 0.0000e+00 0.0000e+00
</event>
<event>
 4      1 +2.1368000e-01 2.49944300e+02 7.54677100e-03 1.11334000e-01
      -11 -1    0    0    0    0 +0.0000000000e+00 +0.0000000000e+00 +1.2495737377e+02 1.2495737377e+02 0.0000000000e+00 0.0000e+00 -1.0000e+00
       11 -1    0    0    0    0 -0.0000000000e+00 -0.0000000000e+00 -1.2498697297e+02 1.2498697297e+02 0.0000000000e+00 0.0000e+00 1.0000e+00
       23  1    1    2    0    0 -5.2492695570e+01 +3.3250623079e+01 -8.2306553803e-01 1.1034951656e+02 9.1188000000e+01 0.0000e+00 1.0000e+00
       25  1    1    2    0    0 +5.2492695570e+01 -3.3250623079e+01 +7.9346633847e-01 1.3959483018e+02 1.2500000000e+02 0.0000e+00 0.0000e+00
</event>
<event>
 4      1 +2.1368000e-01 2.49874100e+02 7.54677100e-03 1.11338400e-01
      -11 -1    0    0    0    0 +0.0000000000e+00 +0.0000000000e+00 +1.2488658011e+02 1.2488658011e+02 0.0000000000e+00 0.0000e+00 1.0000e+00
       11 -1    0    0    0    0 -0.0000000000e+00 -0.0000000000e+00 -1.2498753794e+02 1.2498753794e+02 0.0000000000e+00 0.0000e+00 -1.0000e+00
       23  1    1    2    0    0 +1.9467988823e+01 +5.8756297720e+01 +4.6223921207e+00 1.1030830868e+02 9.1188000000e+01 0.0000e+00 0.0000e+00
       25  1    1    2    0    0 -1.9467988823e+01 -5.8756297720e+01 -4.7233499537e+00 1.3956580937e+02 1.2500000000e+02 0.0000e+00 0.0000e+00
</event>
<event>
 4      1 +2.1368000e-01 2.45135200e+02 7.54677100e-03 1.11641800e-01
      -11 -1    0    0    0    0 +0.0000000000e+00 +0.0000000000e+00 +1.2498856962e+02 1.2498856962e+02 0.0000000000e+00 0.0000e+00 1.0000e+00
       11 -1    0    0    0    0 -0.0000000000e+00 -0.0000000000e+00 -1.2019353309e+02 1.2019353309e+02 0.0000000000e+00 0.0000e+00 -1.0000e+00
       23  1    1    2    0    0 +5.7179527716e+01 +9.1601325652e-01 -5.1292099206e-02 1.0763638532e+02 9.1188000000e+01 0.0000e+00 0.0000e+00
       25  1    1    2    0    0 -5.7179527716e+01 -9.1601325652e-01 +4.8463286252e+00 1.3754571739e+02 1.2500000000e+02 0.0000e+00 0.0000e+00
</event>
<event>
 4      1 +2.1368000e-01 2.49975000e+02 7.54677100e-03 1.11332100e-01
      -11 -1    0    0    0    0 +0.0000000000e+00 +0.0000000000e+00 +1.2498837064e+02 1.2498837064e+02 0.0000000000e+00 0.0000e+00 1.0000e+00
       11 -1    0    0    0    0 -0.0000000000e+00 -0.0000000000e+00 -1.2498662930e+02 1.2498662930e+02 0.0000000000e+00 0.0000e+00 -1.0000e+00
       23  1    1    2    0    0 -3.4659301026e+01 -1.7776163694e+01 -4.8458108464e+01 1.1036620299e+02 9.1188000000e+01 0.0000e+00 -1.0000e+00
       25  1    1    2    0    0 +3.4659301026e+01 +1.7776163694e+01 +4.8459849807e+01 1.3960879695e+02 1.2500000000e+02 0.0000e+00 0.0000e+00
</event>
<event>
 4      1 +2.1368000e-01 2.49971500e+02 7.54677100e-03 1.11332300e-01
      -11 -1    0    0    0    0 +0.0000000000e+00 +0.0000000000e+00 +1.2498401697e+02 1.2498401697e+02 0.0000000000e+00 0.0000e+00 1.0000e+00
       11 -1    0    0    0    0 -0.0000000000e+00 -0.0000000000e+00 -1.2498749964e+02 1.2498749964e+02 0.0000000000e+00 0.0000e+00 -1.0000e+00
       23  1    1    2    0    0 -5.1188870369e+01 +3.0784162028e+00 +3.5145516596e+01 1.1036410547e+02 9.1188000000e+01 0.0000e+00 1.0000e+00
       25  1    1    2    0    0 +5.1188870369e+01 -3.0784162028e+00 -3.5148999257e+01 1.3960741114e+02 1.2500000000e+02 0.0000e+00 0.0000e+00
</event>
<event>
 4      1 +2.1368000e-01 2.49324100e+02 7.54677100e-03 1.11373300e-01
      -11 -1    0    0    0    0 +0.0000000000e+00 +0.0000000000e+00 +1.2498724262e+02 1.2498724262e+02 0.0000000000e+00 0.0000e+00 1.0000e+00
       11 -1    0    0    0    0 -0.0000000000e+00 -0.0000000000e+00 -1.2433767404e+02 1.2433767404e+02 0.0000000000e+00 0.0000e+00 -1.0000e+00
       23  1    1    2    0    0 +4.5602373694e+01 -6.0714103056e+00 +4.1139503296e+01 1.1010971158e+02 9.1188000000e+01 0.0000e+00 0.0000e+00
       25  1    1    2    0    0 -4.5602373694e+01 +6.0714103056e+00 -4.0489934712e+01 1.3921520507e+02 1.2500000000e+02 0.0000e+00 0.0000e+00
</event>
<event>
 4      1 +2.1368000e-01 2.49975000e+02 7.54677100e-03 1.11332100e-01
      -11 -1    0    0    0    0 +0.0000000000e+00 +0.0000000000e+00 +1.2498836458e+02 1.2498836458e+02 0.0000000000e+00 0.0000e+00 -1.0000e+00
       11 -1    0    0    0    0 -0.0000000000e+00 -0.0000000000e+00 -1.2498662323e+02 1.2498662323e+02 0.0000000000e+00 0.0000e+00 1.0000e+00
       23  1    1    2    0    0 +1.0198130361e+01 +4.4638409181e+01 -4.2057892566e+01 1.1036624080e+02 9.1188000000e+01 0.0000e+00 0.0000e+00
       25  1    1    2    0    0 -1.0198130361e+01 -4.4638409181e+01 +4.2059633909e+01 1.3960874701e+02 1.2500000000e+02 0.0000e+00 0.0000e+00
</event>
<event>
 4      1 +2.1368000e-01 2.49975000e+02 7.54677100e-03 1.11332100e-01
      -11 -1    0    0    0    0 +0.0000000000e+00 +0.0000000000e+00 +1.2498837064e+02 1.2498837064e+02 0.0000000000e+00 0.0000e+00 1.0000e+00
       11 -1    0    0    0    0 -0.0000000000e+00 -0.0000000000e+00 -1.2498662930e+02 1.2498662930e+02 0.0000000000e+00 0.0000e+00 -1.0000e+00
       23  1    1    2    0    0 +1.5498858055e+01 -2.0770416115e+01 -5.6513805794e+01 1.1036614687e+02 9.1188000000e+01 0.0000e+00 -1.0000e+00
       25  1    1    2    0    0 -1.5498858055e+01 +2.0770416115e+01 +5.6515547136e+01 1.3960885307e+02 1.2500000000e+02 0.0000e+00 0.0000e+00
</event>
<event>
 4      1 +2.1368000e-01 2.49975000e+02 7.54677100e-03 1.11332100e-01
      -11 -1    0    0    0    0 +0.0000000000e+00 +0.0000000000e+00 +1.2498749956e+02 1.2498749956e+02 0.0000000000e+00 0.0000e+00 -1.0000e+00
       11 -1    0    0    0    0 -0.0000000000e+00 -0.0000000000e+00 -1.2498749956e+02 1.2498749956e+02 0.0000000000e+00 0.0000e+00 1.0000e+00
       23  1    1    2    0    0 -5.3546325925e+01 +2.9918156094e+01 -1.0159564290e+01 1.1036654010e+02 9.1188000000e+01 0.0000e+00 1.0000e+00
       25  1    1    2    0    0 +5.3546325925e+01 -2.9918156094e+01 +1.0159564290e+01 1.3960845902e+02 1.2500000000e+02 0.0000e+00 0.0000e+00
</event>
<event>
 4      1 +2.1368000e-01 2.47000800e+02 7.54677100e-03 1.11521500e-01
      -11 -1    0    0    0    0 +0.0000000000e+00 +0.0000000000e+00 +1.2498729508e+02 1.2498729508e+02 0.0000000000e+00 0.0000e+00 1.0000e+00
       11 -1    0    0    0    0 -0.0000000000e+00 -0.0000000000e+00 -1.2203123543e+02 1.2203123543e+02 0.0000000000e+00 0.0000e+00 -1.0000e+00
       23  1    1    2    0    0 +1.8848370924e+01 +3.3188192912e+01 +4.6519914770e+01 1.0925232743e+02 9.1188000000e+01 0.0000e+00 1.0000e+00
       25  1    1    2    0    0 -1.8848370924e+01 -3.3188192912e+01 -4.3563855121e+01 1.3776620307e+02 1.2500000000e+02 0.0000e+00 0.0000e+00
</event>
<event>
 4      1 +2.1368000e-01 2.49975000e+02 7.54677100e-03 1.11332100e-01
      -11 -1    0    0    0    0 +0.0000000000e+00 +0.0000000000e+00 +1.2498837067e+02 1.2498837067e+02 0.0000000000e+00 0.0000e+00 1.0000e+00
       11 -1    0    0    0    0 -0.0000000000e+00 -0.0000000000e+00 -1.2498662933e+02 1.2498662933e+02 0.0000000000e+00 0.0000e+00 -1.0000e+00
       23  1    1    2    0    0 +3.9139595015e+01 -5.1039230507e+00 -4.8036341929e+01 1.1036620596e+02 9.1188000000e+01 0.0000e+00 0.0000e+00
       25  1    1    2    0    0 -3.9139595015e+01 +5.1039230507e+00 +4.8038083272e+01 1.3960879404e+02 1.2500000000e+02 0.0000e+00 0.0000e+00
</event>
<event>
 4      1 +2.1368000e-01 2.49974800e+02 7.54677100e-03 1.11332100e-01
      -11 -1    0    0    0    0 +0.0000000000e+00 +0.0000000000e+00 +1.2498825243e+02 1.2498825243e+02 0.0000000000e+00 0.0000e+00 1.0000e+00
       11 -1    0    0    0    0 -0.0000000000e+00 -0.0000000000e+00 -1.2498651109e+02 1.2498651109e+02 0.0000000000e+00 0.0000e+00 -1.0000e+00
       23  1    1    2    0    0 +4.9339864004e+01 +3.5968023137e+01 -1.1719807840e+01 1.1036632688e+02 9.1188000000e+01 0.0000e+00 0.0000e+00
       25  1    1    2    0    0 -4.9339864004e+01 -3.5968023137e+01 +1.1721549181e+01 1.3960843665e+02 1.2500000000e+02 0.0000e+00 0.0000e+00
</event>
<event>
 4      1 +2.1368000e-01 2.49951600e+02 7.54677100e-03 1.11333500e-01
      -11 -1    0    0    0    0 +0.0000000000e+00 +0.0000000000e+00 +1.2496537230e+02 1.2496537230e+02 0.0000000000e+00 0.0000e+00 1.0000e+00
       11 -1    0    0    0    0 -0.0000000000e+00 -0.0000000000e+00 -1.2498626661e+02 1.2498626661e+02 0.0000000000e+00 0.0000e+00 -1.0000e+00
       23  1    1    2    0    0 -4.7567256496e+00 +2.0427613737e+01 -5.8513312427e+01 1.1035838399e+02 9.1188000000e+01 0.0000e+00 -1.0000e+00
       25  1    1    2    0    0 +4.7567256496e+00 -2.0427613737e+01 +5.8492418119e+01 1.3959325492e+02 1.2500000000e+02 0.0000e+00 0.0000e+00
</event>
<event>
 4      1 +2.1368000e-01 2.49974900e+02 7.54677100e-03 1.11332100e-01
      -11 -1    0    0    0    0 +0.0000000000e+00 +0.0000000000e+00 +1.2498831348e+02 1.2498831348e+02 0.0000000000e+00 0.0000e+00 1.0000e+00
       11 -1    0    0    0    0 -0.0000000000e+00 -0.0000000000e+00 -1.2498657213e+02 1.2498657213e+02 0.0000000000e+00 0.0000e+00 -1.0000e+00
       23  1    1    2    0    0 -2.0003300588e+01 -4.3750634632e+01 -3.9385241014e+01 1.1036620234e+02 9.1188000000e+01 0.0000e+00 -1.0000e+00
       25  1    1    2    0    0 +2.0003300588e+01 +4.3750634632e+01 +3.9386982356e+01 1.3960868327e+02 1.2500000000e+02 0.0000e+00 0.0000e+00
</event>
<event>
 4      1 +2.1368000e-01 2.48782600e+02 7.54677100e-03 1.11407700e-01
      -11 -1    0    0    0    0 +0.0000000000e+00 +0.0000000000e+00 +1.2498454413e+02 1.2498454413e+02 0.0000000000e+00 0.0000e+00 1.0000e+00
       11 -1    0    0    0    0 -0.0000000000e+00 -0.0000000000e+00 -1.2380087498e+02 1.2380087498e+02 0.0000000000e+00 0.0000e+00 -1.0000e+00
       23  1    1    2    0    0 -2.5784889781e+00 +1.7366851584e+01 -5.7879414749e+01 1.0942364523e+02 9.1188000000e+01 0.0000e+00 -1.0000e+00
       25  1    1    2    0    0 +2.5784889781e+00 -1.7366851584e+01 +5.9063083900e+01 1.3936177388e+02 1.2500000000e+02 0.0000e+00 0.0000e+00
</event>
<event>
 4      1 +2.1368000e-01 2.49956000e+02 7.54677100e-03 1.11333300e-01
      -11 -1    0    0    0    0 +0.0000000000e+00 +0.0000000000e+00 +1.2498756119e+02 1.2498756119e+02 0.0000000000e+00 0.0000e+00 -1.0000e+00
       11 -1    0    0    0    0 -0.0000000000e+00 -0.0000000000e+00 -1.2496840787e+02 1.2496840787e+02 0.0000000000e+00 0.0000e+00 1.0000e+00
       23  1    1    2    0    0 +3.4341343181e+01 -2.6305524923e-01 +5.1813657001e+01 1.1035988150e+02 9.1188000000e+01 0.0000e+00 -1.0000e+00
       25  1    1    2    0    0 -3.4341343181e+01 +2.6305524923e-01 -5.1794503687e+01 1.3959608756e+02 1.2500000000e+02 0.0000e+00 0.0000e+00
</event>
<event>
 4      1 +2.1368000e-01 2.47979800e+02 7.54677100e-03 1.11458800e-01
      -11 -1    0    0    0    0 +0.0000000000e+00 +0.0000000000e+00 +1.2300661256e+02 1.2300661256e+02 0.0000000000e+00 0.0000e+00 -1.0000e+00
       11 -1    0    0    0    0 -0.0000000000e+00 -0.0000000000e+00 -1.2498108920e+02 1.2498108920e+02 0.0000000000e+00 0.0000e+00 1.0000e+00
       23  1    1    2    0    0 -4.9402699948e+01 -1.1772453696e+01 -3.3141382794e+01 1.0951173465e+02 9.1188000000e+01 0.0000e+00 0.0000e+00
       25  1    1    2    0    0 +4.9402699948e+01 +1.1772453696e+01 +3.1166906153e+01 1.3847596711e+02 1.2500000000e+02 0.0000e+00 0.0000e+00
</event>
<event>
 4      1 +2.1368000e-01 2.48694900e+02 7.54677100e-03 1.11413200e-01
      -11 -1    0    0    0    0 +0.0000000000e+00 +0.0000000000e+00 +1.2491524248e+02 1.2491524248e+02 0.0000000000e+00 0.0000e+00 1.0000e+00
       11 -1    0    0    0    0 -0.0000000000e+00 -0.0000000000e+00 -1.2378223226e+02 1.2378223226e+02 0.0000000000e+00 0.0000e+00 -1.0000e+00
       23  1    1    2    0    0 +5.9054448915e+01 +1.4088929318e+01 -4.2137590004e+00 1.0963089425e+02 9.1188000000e+01 0.0000e+00 0.0000e+00
       25  1    1    2    0    0 -5.9054448915e+01 -1.4088929318e+01 +5.3467692159e+00 1.3906658048e+02 1.2500000000e+02 0.0000e+00 0.0000e+00
</event>
<event>
 4      1 +2.1368000e-01 2.35112300e+02 7.54677100e-03 1.12309200e-01
      -11 -1    0    0    0    0 +0.0000000000e+00 +0.0000000000e+00 +1.2498757725e+02 1.2498757725e+02 0.0000000000e+00 0.0000e+00 -1.0000e+00
       11 -1    0    0    0    0 -0.0000000000e+00 -0.0000000000e+00 -1.1056659514e+02 1.1056659514e+02 0.0000000000e+00 0.0000e+00 1.0000e+00
       23  1    1    2    0    0 +1.9655380957e+01 -1.0453079682e+01 +4.6274252385e+01 1.0465256162e+02 9.1188000000e+01 0.0000e+00 -1.0000e+00
       25  1    1    2    0    0 -1.9655380957e+01 +1.0453079682e+01 -3.1853270283e+01 1.3090161077e+02 1.2500000000e+02 0.0000e+00 0.0000e+00
</event>
<event>
 4      1 +2.1368000e-01 2.49975000e+02 7.54677100e-03 1.11332100e-01
      -11 -1    0    0    0    0 +0.0000000000e+00 +0.0000000000e+00 +1.2498749764e+02 1.2498749764e+02 0.0000000000e+00 0.0000e+00 1.0000e+00
       11 -1    0    0    0    0 -0.0000000000e+00 -0.0000000000e+00 -1.2498749764e+02 1.2498749764e+02 0.0000000000e+00 0.0000e+00 -1.0000e+00
       23  1    1    2    0    0 +4.1825623714e+00 -4.6419275139e+01 -4.1149464438e+01 1.1036653795e+02 9.1188000000e+01 0.0000e+00 0.0000e+00
       25  1    1    2    0    0 -4.1825623714e+00 +4.6419275139e+01 +4.1149464438e+01 1.3960845732e+02 1.2500000000e+02 0.0000e+00 0.0000e+00
</event>
<event>
 4      1 +2.1368000e-01 2.49474900e+02 7.54677100e-03 1.11363700e-01
      -11 -1    0    0    0    0 +0.0000000000e+00 +0.0000000000e+00 +1.2497922595e+02 1.2497922595e+02 0.0000000000e+00 0.0000e+00 1.0000e+00
       11 -1    0    0    0    0 -0.0000000000e+00 -0.0000000000e+00 -1.2449609691e+02 1.2449609691e+02 0.0000000000e+00 0.0000e+00 -1.0000e+00
       23  1    1    2    0    0 -3.6221004216e+01 +3.1581989047e+01 +3.8872642485e+01 1.1016222972e+02 9.1188000000e+01 0.0000e+00 1.0000e+00
       25  1    1    2    0    0 +3.6221004216e+01 -3.1581989047e+01 -3.8389513446e+01 1.3931309314e+02 1.2500000000e+02 0.0000e+00 0.0000e+00
</event>
<event>
 4      1 +2.1368000e-01 2.49307700e+02 7.54677100e-03 1.11374300e-01
      -11 -1    0    0    0    0 +0.0000000000e+00 +0.0000000000e+00 +1.2439363439e+02 1.2439363439e+02 0.0000000000e+00 0.0000e+00 1.0000e+00
       11 -1    0    0    0    0 -0.0000000000e+00 -0.0000000000e+00 -1.2491464393e+02 1.2491464393e+02 0.0000000000e+00 0.0000e+00 -1.0000e+00
       23  1    1    2    0    0 +7.2789079636e+00 +5.6841134428e+01 -2.2579012944e+01 1.1004072080e+02 9.1188000000e+01 0.0000e+00 0.0000e+00
       25  1    1    2    0    0 -7.2789079636e+00 -5.6841134428e+01 +2.2058003397e+01 1.3926755752e+02 1.2500000000e+02 0.0000e+00 0.0000e+00
</event>
<event>
 4      1 +2.1368000e-01 2.48964000e+02 7.54677100e-03 1.11396100e-01
      -11 -1    0    0    0    0 +0.0000000000e+00 +0.0000000000e+00 +1.2398008010e+02 1.2398008010e+02 0.0000000000e+00 0.0000e+00 -1.0000e+00
       11 -1    0    0    0    0 -0.0000000000e+00 -0.0000000000e+00 -1.2498597553e+02 1.2498597553e+02 0.0000000000e+00 0.0000e+00 1.0000e+00
       23  1    1    2    0    0 -4.6509283834e+01 -2.8552806346e+01 -2.8062358647e+01 1.0991416446e+02 9.1188000000e+01 0.0000e+00 1.0000e+00
       25  1    1    2    0    0 +4.6509283834e+01 +2.8552806346e+01 +2.7056463219e+01 1.3905189116e+02 1.2500000000e+02 0.0000e+00 0.0000e+00
</event>
<event>
 4      1 +2.1368000e-01 2.49974600e+02 7.54677100e-03 1.11332100e-01
      -11 -1    0    0    0    0 +0.0000000000e+00 +0.0000000000e+00 +1.2498730576e+02 1.2498730576e+02 0.0000000000e+00 0.0000e+00 -1.0000e+00
       11 -1    0    0    0    0 -0.0000000000e+00 -0.0000000000e+00 -1.2498730576e+02 1.2498730576e+02 0.0000000000e+00 0.0000e+00 1.0000e+00
       23  1    1    2    0    0 +4.7184219962e+01 -7.1715513120e+00 +3.9845856559e+01 1.1036632362e+02 9.1188000000e+01 0.0000e+00 0.0000e+00
       25  1    1    2    0    0 -4.7184219962e+01 +7.1715513120e+00 -3.9845856559e+01 1.3960828789e+02 1.2500000000e+02 0.0000e+00 0.0000e+00
</event>
<event>
 4      1 +2.1368000e-01 2.49975000e+02 7.54677100e-03 1.11332100e-01
      -11 -1    0    0    0    0 +0.0000000000e+00 +0.0000000000e+00 +1.2498748548e+02 1.2498748548e+02 0.0000000000e+00 0.0000e+00 1.0000e+00
       11 -1    0    0    0    0 -0.0000000000e+00 -0.0000000000e+00 -1.2498748548e+02 1.2498748548e+02 0.0000000000e+00 0.0000e+00 -1.0000e+00
       23  1    1    2    0    0 -2.7933289949e+01 -2.4608581136e+01 -4.9796258955e+01 1.1036652438e+02 9.1188000000e+01 0.0000e+00 -1.0000e+00
       25  1    1    2    0    0 +2.7933289949e+01 +2.4608581136e+01 +4.9796258955e+01 1.3960844659e+02 1.2500000000e+02 0.0000e+00 0.0000e+00
</event>
<event>
 4      1 +2.1368000e-01 2.49974700e+02 7.54677100e-03 1.11332100e-01
      -11 -1    0    0    0    0 +0.0000000000e+00 +0.0000000000e+00 +1.2498823934e+02 1.2498823934e+02 0.0000000000e+00 0.0000e+00 1.0000e+00
       11 -1    0    0    0    0 -0.0000000000e+00 -0.0000000000e+00 -1.2498649800e+02 1.2498649800e+02 0.0000000000e+00 0.0000e+00 -1.0000e+00
       23  1    1    2    0    0 -4.7274236613e+01 +2.9270880036e+01 -2.7817421129e+01 1.1036620011e+02 9.1188000000e+01 0.0000e+00 -1.0000e+00
       25  1    1    2    0    0 +4.7274236613e+01 -2.9270880036e+01 +2.7819162470e+01 1.3960853722e+02 1.2500000000e+02 0.0000e+00 0.0000e+00
</event>
<event>
 4      1 +2.1368000e-01 2.47333500e+02 7.54677100e-03 1.11500200e-01
      -11 -1    0    0    0    0 +0.0000000000e+00 +0.0000000000e+00 +1.2236081928e+02 1.2236081928e+02 0.0000000000e+00 0.0000e+00 1.0000e+00
       11 -1    0    0    0    0 -0.0000000000e+00 -0.0000000000e+00 -1.2498658423e+02 1.2498658423e+02 0.0000000000e+00 0.0000e+00 -1.0000e+00
       23  1    1    2    0    0 +4.4455397739e+01 -2.5691941011e+01 +2.8934559471e+01 1.0857632475e+02 9.1188000000e+01 0.0000e+00 0.0000e+00
       25  1    1    2    0    0 -4.4455397739e+01 +2.5691941011e+01 -3.1560324428e+01 1.3877107876e+02 1.2500000000e+02 0.0000e+00 0.0000e+00
</event>
<event>
 4      1 +2.1368000e-01 2.46800900e+02 7.54677100e-03 1.11534300e-01
      -11 -1    0    0    0    0 +0.0000000000e+00 +0.0000000000e+00 +1.2498790687e+02 1.2498790687e+02 0.0000000000e+00 0.0000e+00 -1.0000e+00
       11 -1    0    0    0    0 -0.0000000000e+00 -0.0000000000e+00 -1.2183312270e+02 1.2183312270e+02 0.0000000000e+00 0.0000e+00 1.0000e+00
       23  1    1    2    0    0 -2.1229446381e+01 +5.2155687886e+01 -1.6104552846e+01 1.0837671862e+02 9.1188000000e+01 0.0000e+00 1.0000e+00
       25  1    1    2    0    0 +2.1229446381e+01 -5.2155687886e+01 +1.9259337016e+01 1.3844431095e+02 1.2500000000e+02 0.0000e+00 0.0000e+00
</event>
<event>
 4      1 +2.1368000e-01 2.49974500e+02 7.54677100e-03 1.11332100e-01
      -11 -1    0    0    0    0 +0.0000000000e+00 +0.0000000000e+00 +1.2498812441e+02 1.2498812441e+02 0.0000000000e+00 0.0000e+00 1.0000e+00
       11 -1    0    0    0    0 -0.0000000000e+00 -0.0000000000e+00 -1.2498638306e+02 1.2498638306e+02 0.0000000000e+00 0.0000e+00 -1.0000e+00
       23  1    1    2    0    0 +2.3356389946e+00 +5.0372897082e+01 -3.6366486375e+01 1.1036601218e+02 9.1188000000e+01 0.0000e+00 -1.0000e+00
       25  1    1    2    0    0 -2.3356389946e+00 -5.0372897082e+01 +3.6368227727e+01 1.3960849529e+02 1.2500000000e+02 0.0000e+00 0.0000e+00
</event>
<event>
 4      1 +2.1368000e-01 2.49761700e+02 7.54677100e-03 1.11345600e-01
      -11 -1    0    0    0    0 +0.0000000000e+00 +0.0000000000e+00 +1.2477474084e+02 1.2477474084e+02 0.0000000000e+00 0.0000e+00 1.0000e+00
       11 -1    0    0    0    0 -0.0000000000e+00 -0.0000000000e+00 -1.2498700344e+02 1.2498700344e+02 0.0000000000e+00 0.0000e+00 -1.0000e+00
       23  1    1    2    0    0 +2.4996182764e+01 -1.3279556556e+01 -5.5212471448e+01 1.1029426151e+02 9.1188000000e+01 0.0000e+00 -1.0000e+00
       25  1    1    2    0    0 -2.4996182764e+01 +1.3279556556e+01 +5.5000208850e+01 1.3946748276e+02 1.2500000000e+02 0.0000e+00 0.0000e+00
</event>
<event>
 4      1 +2.1368000e-01 2.49961400e+02 7.54677100e-03 1.11332900e-01
      -11 -1    0    0    0    0 +0.0000000000e+00 +0.0000000000e+00 +1.2497896974e+02 1.2497896974e+02 0.0000000000e+00 0.0000e+00 -1.0000e+00
       11 -1    0    0    0    0 -0.0000000000e+00 -0.0000000000e+00 -1.2498245224e+02 1.2498245224e+02 0.0000000000e+00 0.0000e+00 1.0000e+00
       23  1    1    2    0    0 +4.0869614727e+01 -4.6761200961e+01 -2.6307579616e+00 1.1035899399e+02 9.1188000000e+01 0.0000e+00 0.0000e+00
       25  1    1    2    0    0 -4.0869614727e+01 +4.6761200961e+01 +2.6272754649e+00 1.3960242799e+02 1.2500000000e+02 0.0000e+00 0.0000e+00
</event>
<event>
 4      1 +2.1368000e-01 2.49975000e+02 7.54677100e-03 1.11332100e-01
      -11 -1    0    0    0    0 +0.0000000000e+00 +0.0000000000e+00 +1.2498750000e+02 1.2498750000e+02 0.0000000000e+00 0.0000e+00 -1.0000e+00
       11 -1    0    0    0    0 -0.0000000000e+00 -0.0000000000e+00 -1.2498750000e+02 1.2498750000e+02 0.0000000000e+00 0.0000e+00 1.0000e+00
       23  1    1    2    0    0 -4.4856248337e+01 +5.7023700304e+00 -4.2672261474e+01 1.1036654059e+02 9.1188000000e+01 0.0000e+00 1.0000e+00
       25  1    1    2    0    0 +4.4856248337e+01 -5.7023700304e+00 +4.2672261474e+01 1.3960845941e+02 1.2500000000e+02 0.0000e+00 0.0000e+00
</event>
<event>
 4      1 +2.1368000e-01 2.49926800e+02 7.54677100e-03 1.11335100e-01
      -11 -1    0    0    0    0 +0.0000000000e+00 +0.0000000000e+00 +1.2498775779e+02 1.2498775779e+02 0.0000000000e+00 0.0000e+00 1.0000e+00
       11 -1    0    0    0    0 -0.0000000000e+00 -0.0000000000e+00 -1.2493900960e+02 1.2493900960e+02 0.0000000000e+00 0.0000e+00 -1.0000e+00
       23  1    1    2    0    0 -1.4172915923e+01 +5.9400849473e+01 +1.1433950031e+01 1.1034182807e+02 9.1188000000e+01 0.0000e+00 1.0000e+00
       25  1    1    2    0    0 +1.4172915923e+01 -5.9400849473e+01 -1.1385201837e+01 1.3958493932e+02 1.2500000000e+02 0.0000e+00 0.0000e+00
</event>
<event>
 4      1 +2.1368000e-01 2.49975000e+02 7.54677100e-03 1.11332100e-01
      -11 -1    0    0    0    0 +0.0000000000e+00 +0.0000000000e+00 +1.2498836977e+02 1.2498836977e+02 0.0000000000e+00 0.0000e+00 -1.0000e+00
       11 -1    0    0    0    0 -0.0000000000e+00 -0.0000000000e+00 -1.2498662843e+02 1.2498662843e+02 0.0000000000e+00 0.0000e+00 1.0000e+00
       23  1    1    2    0    0 +3.7813667501e+01 +4.8972321039e+01 +6.1130546452e+00 1.1036658217e+02 9.1188000000e+01 0.0000e+00 -1.0000e+00
       25  1    1    2    0    0 -3.7813667501e+01 -4.8972321039e+01 -6.1113133023e+00 1.3960841604e+02 1.2500000000e+02 0.0000e+00 0.0000e+00
</event>
<event>
 4      1 +2.1368000e-01 2.49970200e+02 7.54677100e-03 1.11332400e-01
      -11 -1    0    0    0    0 +0.0000000000e+00 +0.0000000000e+00 +1.2498250862e+02 1.2498250862e+02 0.0000000000e+00 0.0000e+00 1.0000e+00
       11 -1    0    0    0    0 -0.0000000000e+00 -0.0000000000e+00 -1.2498773255e+02 1.2498773255e+02 0.0000000000e+00 0.0000e+00 -1.0000e+00
       23  1    1    2    0    0 +5.4992652177e+01 +3.6803426950e+00 -2.8763366318e+01 1.1036448388e+02 9.1188000000e+01 0.0000e+00 -1.0000e+00
       25  1    1    2    0    0 -5.4992652177e+01 -3.6803426950e+00 +2.8758142389e+01 1.3960575729e+02 1.2500000000e+02 0.0000e+00 0.0000e+00
</event>
<event>
 4      1 +2.1368000e-01 2.49958900e+02 7.54677100e-03 1.11333100e-01
      -11 -1    0    0    0    0 +0.0000000000e+00 +0.0000000000e+00 +1.2497769928e+02 1.2497769928e+02 0.0000000000e+00 0.0000e+00 -1.0000e+00
       11 -1    0    0    0    0 -0.0000000000e+00 -0.0000000000e+00 -1.2498118177e+02 1.2498118177e+02 0.0000000000e+00 0.0000e+00 1.0000e+00
       23  1    1    2    0    0 -4.8255761490e+00 -6.1909470204e+01 +2.7309006812e+00 1.1035750019e+02 9.1188000000e+01 0.0000e+00 0.0000e+00
       25  1    1    2    0    0 +4.8255761490e+00 +6.1909470204e+01 -2.7343831667e+00 1.3960138086e+02 1.2500000000e+02 0.0000e+00 0.0000e+00
</event>
<event>
 4      1 +2.1368000e-01 2.47595200e+02 7.54677100e-03 1.11483400e-01
      -11 -1    0    0    0    0 +0.0000000000e+00 +0.0000000000e+00 +1.2262007220e+02 1.2262007220e+02 0.0000000000e+00 0.0000e+00 1.0000e+00
       11 -1    0    0    0    0 -0.0000000000e+00 -0.0000000000e+00 -1.2498645927e+02 1.2498645927e+02 0.0000000000e+00 0.0000e+00 -1.0000e+00
       23  1    1    2    0    0 +3.2501239102e+01 -1.3911958148e+01 +4.7165395882e+01 1.0858038053e+02 9.1188000000e+01 0.0000e+00 1.0000e+00
       25  1    1    2    0    0 -3.2501239102e+01 +1.3911958148e+01 -4.9531782951e+01 1.3902615094e+02 1.2500000000e+02 0.0000e+00 0.0000e+00
</event>
<event>
 4      1 +2.1368000e-01 2.33521400e+02 7.54677100e-03 1.12418600e-01
      -11 -1    0    0    0    0 +0.0000000000e+00 +0.0000000000e+00 +1.2498694260e+02 1.2498694260e+02 0.0000000000e+00 0.0000e+00 -1.0000e+00
       11 -1    0    0    0    0 -0.0000000000e+00 -0.0000000000e+00 -1.0907584599e+02 1.0907584599e+02 0.0000000000e+00 0.0000e+00 1.0000e+00
       23  1    1    2    0    0 +4.1015195396e+01 -1.3420488855e+01 +1.2568487554e-01 1.0088420548e+02 9.1188000000e+01 0.0000e+00 1.0000e+00
       25  1    1    2    0    0 -4.1015195396e+01 +1.3420488855e+01 +1.5785411730e+01 1.3317858311e+02 1.2500000000e+02 0.0000e+00 0.0000e+00
</event>
<event>
 4      1 +2.1368000e-01 2.49974900e+02 7.54677100e-03 1.11332100e-01
      -11 -1    0    0    0    0 +0.0000000000e+00 +0.0000000000e+00 +1.2498745556e+02 1.2498745556e+02 0.0000000000e+00 0.0000e+00 -1.0000e+00
       11 -1    0    0    0    0 -0.0000000000e+00 -0.0000000000e+00 -1.2498745556e+02 1.2498745556e+02 0.0000000000e+00 0.0000e+00 1.0000e+00
       23  1    1    2    0    0 -1.6639029087e+01 -2.2058703250e+01 -5.5696205465e+01 1.1036649095e+02 9.1188000000e+01 0.0000e+00 1.0000e+00
       25  1    1    2    0    0 +1.6639029087e+01 +2.2058703250e+01 +5.5696205465e+01 1.3960842017e+02 1.2500000000e+02 0.0000e+00 0.0000e+00
</event>
<event>
 4      1 +2.1368000e-01 2.49863800e+02 7.54677100e-03 1.11339100e-01
      -11 -1    0    0    0    0 +0.0000000000e+00 +0.0000000000e+00 +1.2498586752e+02 1.2498586752e+02 0.0000000000e+00 0.0000e+00 1.0000e+00
       11 -1    0    0    0    0 -0.0000000000e+00 -0.0000000000e+00 -1.2487795228e+02 1.2487795228e+02 0.0000000000e+00 0.0000e+00 -1.0000e+00
       23  1    1    2    0    0 +5.7581678770e+01 -9.6728152127e+00 +2.1085779355e+01 1.1031352827e+02 9.1188000000e+01 0.0000e+00 0.0000e+00
       25  1    1    2    0    0 -5.7581678770e+01 +9.6728152127e+00 -2.0977864112e+01 1.3955029153e+02 1.2500000000e+02 0.0000e+00 0.0000e+00
</event>
<event>
 4      1 +2.1368000e-01 2.37935000e+02 7.54677100e-03 1.12117600e-01
      -11 -1    0    0    0    0 +0.0000000000e+00 +0.0000000000e+00 +1.2498823356e+02 1.2498823356e+02 0.0000000000e+00 0.0000e+00 1.0000e+00
       11 -1    0    0    0    0 -0.0000000000e+00 -0.0000000000e+00 -1.1323676389e+02 1.1323676389e+02 0.0000000000e+00 0.0000e+00 -1.0000e+00
       23  1    1    2    0    0 +3.6829311005e+01 +3.2413183584e+01 +1.6373031157e+00 1.0356130901e+02 9.1188000000e+01 0.0000e+00 0.0000e+00
       25  1    1    2    0    0 -3.6829311005e+01 -3.2413183584e+01 +1.0114166549e+01 1.3466368844e+02 1.2500000000e+02 0.0000e+00 0.0000e+00
</event>
<event>
 4      1 +2.1368000e-01 2.49162800e+02 7.54677100e-03 1.11383500e-01
      -11 -1    0    0    0    0 +0.0000000000e+00 +0.0000000000e+00 +1.2417675298e+02 1.2417675298e+02 0.0000000000e+00 0.0000e+00 -1.0000e+00
       11 -1    0    0    0    0 -0.0000000000e+00 -0.0000000000e+00 -1.2498732206e+02 1.2498732206e+02 0.0000000000e+00 0.0000e+00 1.0000e+00
       23  1    1    2    0    0 -2.0791401262e+01 +2.8685077141e+00 -5.8021133289e+01 1.1010092622e+02 9.1188000000e+01 0.0000e+00 1.0000e+00
       25  1    1    2    0    0 +2.0791401262e+01 -2.8685077141e+00 +5.7210564210e+01 1.3906314882e+02 1.2500000000e+02 0.0000e+00 0.0000e+00
</event>
<event>
 4      1 +2.1368000e-01 2.33724100e+02 7.54677100e-03 1.12404600e-01
      -11 -1    0    0    0    0 +0.0000000000e+00 +0.0000000000e+00 +1.0926538821e+02 1.0926538821e+02 0.0000000000e+00 0.0000e+00 -1.0000e+00
       11 -1    0    0    0    0 -0.0000000000e+00 -0.0000000000e+00 -1.2498683939e+02 1.2498683939e+02 0.0000000000e+00 0.0000e+00 1.0000e+00
       23  1    1    2    0    0 +4.2948311827e+01 -5.8784642902e-01 -1.6116405057e+01 1.0207787668e+02 9.1188000000e+01 0.0000e+00 0.0000e+00
       25  1    1    2    0    0 -4.2948311827e+01 +5.8784642902e-01 +3.9495387876e-01 1.3217435092e+02 1.2500000000e+02 0.0000e+00 0.0000e+00
</event>
<event>
 4      1 +2.1368000e-01 2.49975000e+02 7.54677100e-03 1.11332100e-01
      -11 -1    0    0    0    0 +0.0000000000e+00 +0.0000000000e+00 +1.2498750000e+02 1.2498750000e+02 0.0000000000e+00 0.0000e+00 1.0000e+00
       11 -1    0    0    0    0 -0.0000000000e+00 -0.0000000000e+00 -1.2498750000e+02 1.2498750000e+02 0.0000000000e+00 0.0000e+00 -1.0000e+00
       23  1    1    2    0    0 +9.1642414022e+00 +8.8544345380e+00 -6.0853410805e+01 1.1036654059e+02 9.1188000000e+01 0.0000e+00 -1.0000e+00
       25  1    1    2    0    0 -9.1642414022e+00 -8.8544345380e+00 +6.0853410805e+01 1.3960845941e+02 1.2500000000e+02 0.0000e+00 0.0000e+00
</event>
<event>
 4      1 +2.1368000e-01 2.49975000e+02 7.54677100e-03 1.11332100e-01
      -11 -1    0    0    0    0 +0.0000000000e+00 +0.0000000000e+00 +1.2498749947e+02 1.2498749947e+02 0.0000000000e+00 0.0000e+00 1.0000e+00
       11 -1    0    0    0    0 -0.0000000000e+00 -0.0000000000e+00 -1.2498749947e+02 1.2498749947e+02 0.0000000000e+00 0.0000e+00 -1.0000e+00
       23  1    1    2    0    0 -4.8979977301e+01 +1.8542832972e+01 +3.3505924482e+01 1.1036653999e+02 9.1188000000e+01 0.0000e+00 1.0000e+00
       25  1    1    2    0    0 +4.8979977301e+01 -1.8542832972e+01 -3.3505924482e+01 1.3960845894e+02 1.2500000000e+02 0.0000e+00 0.0000e+00
</event>
<event>
 4      1 +2.1368000e-01 2.49975000e+02 7.54677100e-03 1.11332100e-01
      -11 -1    0    0    0    0 +0.0000000000e+00 +0.0000000000e+00 +1.2498836650e+02 1.2498836650e+02 0.0000000000e+00 0.0000e+00 1.0000e+00
       11 -1    0    0    0    0 -0.0000000000e+00 -0.0000000000e+00 -1.2498662516e+02 1.2498662516e+02 0.0000000000e+00 0.0000e+00 -1.0000e+00
       23  1    1    2    0    0 +1.6250150931e+01 -3.9695357231e+01 -4.5007365103e+01 1.1036622241e+02 9.1188000000e+01 0.0000e+00 -1.0000e+00
       25  1    1    2    0    0 -1.6250150931e+01 +3.9695357231e+01 +4.5009106446e+01 1.3960876926e+02 1.2500000000e+02 0.0000e+00 0.0000e+00
</event>
<event>
 4      1 +2.1368000e-01 2.49975000e+02 7.54677100e-03 1.11332100e-01
      -11 -1    0    0    0    0 +0.0000000000e+00 +0.0000000000e+00 +1.2498749998e+02 1.2498749998e+02 0.0000000000e+00 0.0000e+00 1.0000e+00
       11 -1    0    0    0    0 -0.0000000000e+00 -0.0000000000e+00 -1.2498749998e+02 1.2498749998e+02 0.0000000000e+00 0.0000e+00 -1.0000e+00
       23  1    1    2    0    0 -2.9252021179e+01 +2.5874086292e+01 +4.8377400186e+01 1.1036654057e+02 9.1188000000e+01 0.0000e+00 0.0000e+00
       25  1    1    2    0    0 +2.9252021179e+01 -2.5874086292e+01 -4.8377400186e+01 1.3960845939e+02 1.2500000000e+02 0.0000e+00 0.0000e+00
</event>
<event>
 4      1 +2.1368000e-01 2.49975000e+02 7.54677100e-03 1.11332100e-01
      -11 -1    0    0    0    0 +0.0000000000e+00 +0.0000000000e+00 +1.2498750000e+02 1.2498750000e+02 0.0000000000e+00 0.0000e+00 1.0000e+00
       11 -1    0    0    0    0 -0.0000000000e+00 -0.0000000000e+00 -1.2498750000e+02 1.2498750000e+02 0.0000000000e+00 0.0000e+00 -1.0000e+00
       23  1    1    2    0    0 -2.6523551046e+01 -4.7882396265e+01 -2.9483882126e+01 1.1036654059e+02 9.1188000000e+01 0.0000e+00 -1.0000e+00
       25  1    1    2    0    0 +2.6523551046e+01 +4.7882396265e+01 +2.9483882126e+01 1.3960845940e+02 1.2500000000e+02 0.0000e+00 0.0000e+00
</event>
<event>
 4      1 +2.1368000e-01 2.41764900e+02 7.54677100e-03 1.11862300e-01
      -11 -1    0    0    0    0 +0.0000000000e+00 +0.0000000000e+00 +1.2498854017e+02 1.2498854017e+02 0.0000000000e+00 0.0000e+00 -1.0000e+00
       11 -1    0    0    0    0 -0.0000000000e+00 -0.0000000000e+00 -1.1691129007e+02 1.1691129007e+02 0.0000000000e+00 0.0000e+00 1.0000e+00
       23  1    1    2    0    0 -1.8855240899e+01 +4.7416626592e+01 +1.9886700954e+01 1.0637005596e+02 9.1188000000e+01 0.0000e+00 0.0000e+00
       25  1    1    2    0    0 +1.8855240899e+01 -4.7416626592e+01 -1.1809450857e+01 1.3552977428e+02 1.2500000000e+02 0.0000e+00 0.0000e+00
</event>
<event>
 4      1 +2.1368000e-01 2.49975000e+02 7.54677100e-03 1.11332100e-01
      -11 -1    0    0    0    0 +0.0000000000e+00 +0.0000000000e+00 +1.2498836886e+02 1.2498836886e+02 0.0000000000e+00 0.0000e+00 1.0000e+00
       11 -1    0    0    0    0 -0.0000000000e+00 -0.0000000000e+00 -1.2498662752e+02 1.2498662752e+02 0.0000000000e+00 0.0000e+00 -1.0000e+00
       23  1    1    2    0    0 +3.3091367373e+01 +4.5128589849e+01 +2.7091233458e+01 1.1036672728e+02 9.1188000000e+01 0.0000e+00 0.0000e+00
       25  1    1    2    0    0 -3.3091367373e+01 -4.5128589849e+01 -2.7089492116e+01 1.3960826909e+02 1.2500000000e+02 0.0000e+00 0.0000e+00
</event>
<event>
 4      1 +2.1368000e-01 2.49768600e+02 7.54677100e-03 1.11345100e-01
      -11 -1    0    0    0    0 +0.0000000000e+00 +0.0000000000e+00 +1.2478166594e+02 1.2478166594e+02 0.0000000000e+00 0.0000e+00 -1.0000e+00
       11 -1    0    0    0    0 -0.0000000000e+00 -0.0000000000e+00 -1.2498697478e+02 1.2498697478e+02 0.0000000000e+00 0.0000e+00 1.0000e+00
       23  1    1    2    0    0 +4.7638526009e+01 +1.6306283679e+01 +3.6030836732e+01 1.1022157950e+02 9.1188000000e+01 0.0000e+00 -1.0000e+00
       25  1    1    2    0    0 -4.7638526009e+01 -1.6306283679e+01 -3.6236145569e+01 1.3954706121e+02 1.2500000000e+02 0.0000e+00 0.0000e+00
</event>
<event>
 4      1 +2.1368000e-01 2.44512100e+02 7.54677100e-03 1.11682300e-01
      -11 -1    0    0    0    0 +0.0000000000e+00 +0.0000000000e+00 +1.2498817338e+02 1.2498817338e+02 0.0000000000e+00 0.0000e+00 1.0000e+00
       11 -1    0    0    0    0 -0.0000000000e+00 -0.0000000000e+00 -1.1958363847e+02 1.1958363847e+02 0.0000000000e+00 0.0000e+00 -1.0000e+00
       23  1    1    2    0    0 -6.2317366892e+00 -3.9411782283e+01 +4.2478091666e+01 1.0822089789e+02 9.1188000000e+01 0.0000e+00 1.0000e+00
       25  1    1    2    0    0 +6.2317366892e+00 +3.9411782283e+01 -3.7073556753e+01 1.3635091395e+02 1.2500000000e+02 0.0000e+00 0.0000e+00
</event>
<event>
 4      1 +2.1368000e-01 2.47194000e+02 7.54677100e-03 1.11509100e-01
      -11 -1    0    0    0    0 +0.0000000000e+00 +0.0000000000e+00 +1.2235400339e+02 1.2235400339e+02 0.0000000000e+00 0.0000e+00 1.0000e+00
       11 -1    0    0    0    0 -0.0000000000e+00 -0.0000000000e+00 -1.2485258770e+02 1.2485258770e+02 0.0000000000e+00 0.0000e+00 -1.0000e+00
       23  1    1    2    0    0 -5.2687597432e+01 -2.6382626077e+01 +6.1580715251e+00 1.0874373118e+02 9.1188000000e+01 0.0000e+00 -1.0000e+00
       25  1    1    2    0    0 +5.2687597432e+01 +2.6382626077e+01 -8.6566558359e+00 1.3846285990e+02 1.2500000000e+02 0.0000e+00 0.0000e+00
</event>
<event>
 4      1 +2.1368000e-01 2.41425200e+02 7.54677100e-03 1.11884700e-01
      -11 -1    0    0    0    0 +0.0000000000e+00 +0.0000000000e+00 +1.1658374529e+02 1.1658374529e+02 0.0000000000e+00 0.0000e+00 1.0000e+00
       11 -1    0    0    0    0 -0.0000000000e+00 -0.0000000000e+00 -1.2498767736e+02 1.2498767736e+02 0.0000000000e+00 0.0000e+00 -1.0000e+00
       23  1    1    2    0    0 -5.2497152902e+01 -7.9065487411e+00 -7.1588915896e+00 1.0575899796e+02 9.1188000000e+01 0.0000e+00 0.0000e+00
       25  1    1    2    0    0 +5.2497152902e+01 +7.9065487411e+00 -1.2450404831e+00 1.3581242470e+02 1.2500000000e+02 0.0000e+00 0.0000e+00
</event>
<event>
 4      1 +2.1368000e-01 2.49975000e+02 7.54677100e-03 1.11332100e-01
      -11 -1    0    0    0    0 +0.0000000000e+00 +0.0000000000e+00 +1.2498750000e+02 1.2498750000e+02 0.0000000000e+00 0.0000e+00 -1.0000e+00
       11 -1    0    0    0    0 -0.0000000000e+00 -0.0000000000e+00 -1.2498750000e+02 1.2498750000e+02 0.0000000000e+00 0.0000e+00 1.0000e+00
       23  1    1    2    0    0 -6.0689252085e+01 -6.2630869226e+00 +1.1962874313e+01 1.1036654059e+02 9.1188000000e+01 0.0000e+00 1.0000e+00
       25  1    1    2    0    0 +6.0689252085e+01 +6.2630869226e+00 -1.1962874313e+01 1.3960845941e+02 1.2500000000e+02 0.0000e+00 0.0000e+00
</event>
<event>
 4      1 +2.1368000e-01 2.37005900e+02 7.54677100e-03 1.12180400e-01
      -11 -1    0    0    0    0 +0.0000000000e+00 +0.0000000000e+00 +1.2498793812e+02 1.2498793812e+02 0.0000000000e+00 0.0000e+00 1.0000e+00
       11 -1    0    0    0    0 -0.0000000000e+00 -0.0000000000e+00 -1.1235442202e+02 1.1235442202e+02 0.0000000000e+00 0.0000e+00 -1.0000e+00
       23  1    1    2    0    0 +1.4870879062e+01 +3.7530794300e+01 +3.1626358187e+01 1.0461922118e+02 9.1188000000e+01 0.0000e+00 1.0000e+00
       25  1    1    2    0    0 -1.4870879062e+01 -3.7530794300e+01 -1.8992842092e+01 1.3272313896e+02 1.2500000000e+02 0.0000e+00 0.0000e+00
</event>
<event>
 4      1 +2.1368000e-01 2.37279100e+02 7.54677100e-03 1.12161900e-01
      -11 -1    0    0    0    0 +0.0000000000e+00 +0.0000000000e+00 +1.1261235036e+02 1.1261235036e+02 0.0000000000e+00 0.0000e+00 1.0000e+00
       11 -1    0    0    0    0 -0.0000000000e+00 -0.0000000000e+00 -1.2498929560e+02 1.2498929560e+02 0.0000000000e+00 0.0000e+00 -1.0000e+00
       23  1    1    2    0    0 -1.9964591280e+00 -2.9696912469e+01 +3.2832059805e+01 1.0138583705e+02 9.1188000000e+01 0.0000e+00 -1.0000e+00
       25  1    1    2    0    0 +1.9964591280e+00 +2.9696912469e+01 -4.5209005049e+01 1.3621580891e+02 1.2500000000e+02 0.0000e+00 0.0000e+00
</event>
<event>
 4      1 +2.1368000e-01 2.48939500e+02 7.54677100e-03 1.11397700e-01
      -11 -1    0    0    0    0 +0.0000000000e+00 +0.0000000000e+00 +1.2440820250e+02 1.2440820250e+02 0.0000000000e+00 0.0000e+00 -1.0000e+00
       11 -1    0    0    0    0 -0.0000000000e+00 -0.0000000000e+00 -1.2453132571e+02 1.2453132571e+02 0.0000000000e+00 0.0000e+00 1.0000e+00
       23  1    1    2    0    0 -4.3023504218e+01 -1.5494584750e+00 -4.3467720076e+01 1.0980945665e+02 9.1188000000e+01 0.0000e+00 1.0000e+00
       25  1    1    2    0    0 +4.3023504218e+01 +1.5494584750e+00 +4.3344596864e+01 1.3913007157e+02 1.2500000000e+02 0.0000e+00 0.0000e+00
</event>
<event>
 4      1 +2.1368000e-01 2.45142300e+02 7.54677100e-03 1.11641400e-01
      -11 -1    0    0    0    0 +0.0000000000e+00 +0.0000000000e+00 +1.2020454402e+02 1.2020454402e+02 0.0000000000e+00 0.0000e+00 -1.0000e+00
       11 -1    0    0    0    0 -0.0000000000e+00 -0.0000000000e+00 -1.2498434411e+02 1.2498434411e+02 0.0000000000e+00 0.0000e+00 1.0000e+00
       23  1    1    2    0    0 +3.9682723200e+01 +8.5557883282e+00 -4.2454414700e+01 1.0846911406e+02 9.1188000000e+01 0.0000e+00 0.0000e+00
       25  1    1    2    0    0 -3.9682723200e+01 -8.5557883282e+00 +3.7674614603e+01 1.3671977406e+02 1.2500000000e+02 0.0000e+00 0.0000e+00
</event>
<event>
 4      1 +2.1368000e-01 2.49899500e+02 7.54677100e-03 1.11336800e-01
      -11 -1    0    0    0    0 +0.0000000000e+00 +0.0000000000e+00 +1.2498803824e+02 1.2498803824e+02 0.0000000000e+00 0.0000e+00 1.0000e+00
       11 -1    0    0    0    0 -0.0000000000e+00 -0.0000000000e+00 -1.2491144230e+02 1.2491144230e+02 0.0000000000e+00 0.0000e+00 -1.0000e+00
       23  1    1    2    0    0 +3.2889225049e+01 +6.1351955188e-01 +5.2703871972e+01 1.1034050478e+02 9.1188000000e+01 0.0000e+00 1.0000e+00
       25  1    1    2    0    0 -3.2889225049e+01 -6.1351955188e-01 -5.2627276031e+01 1.3955897575e+02 1.2500000000e+02 0.0000e+00 0.0000e+00
</event>
<event>
 4      1 +2.1368000e-01 2.48828600e+02 7.54677100e-03 1.11404700e-01
      -11 -1    0    0    0    0 +0.0000000000e+00 +0.0000000000e+00 +1.2498760478e+02 1.2498760478e+02 0.0000000000e+00 0.0000e+00 1.0000e+00
       11 -1    0    0    0    0 -0.0000000000e+00 -0.0000000000e+00 -1.2384358521e+02 1.2384358521e+02 0.0000000000e+00 0.0000e+00 -1.0000e+00
       23  1    1    2    0    0 -1.2521234575e+01 -2.7826760765e+01 +5.3357892398e+01 1.0997011392e+02 9.1188000000e+01 0.0000e+00 1.0000e+00
       25  1    1    2    0    0 +1.2521234575e+01 +2.7826760765e+01 -5.2213872827e+01 1.3886107606e+02 1.2500000000e+02 0.0000e+00 0.0000e+00
</event>
<event>
 4      1 +2.1368000e-01 2.49873800e+02 7.54677100e-03 1.11338500e-01
      -11 -1    0    0    0    0 +0.0000000000e+00 +0.0000000000e+00 +1.2498653574e+02 1.2498653574e+02 0.0000000000e+00 0.0000e+00 1.0000e+00
       11 -1    0    0    0    0 -0.0000000000e+00 -0.0000000000e+00 -1.2488731866e+02 1.2488731866e+02 0.0000000000e+00 0.0000e+00 -1.0000e+00
       23  1    1    2    0    0 -2.4252920168e+01 -5.5857931783e+01 -1.1987017048e+01 1.1030527005e+02 9.1188000000e+01 0.0000e+00 0.0000e+00
       25  1    1    2    0    0 +2.4252920168e+01 +5.5857931783e+01 +1.2086234124e+01 1.3956858434e+02 1.2500000000e+02 0.0000e+00 0.0000e+00
</event>
<event>
 4      1 +2.1368000e-01 2.49972000e+02 7.54677100e-03 1.11332300e-01
      -11 -1    0    0    0    0 +0.0000000000e+00 +0.0000000000e+00 +1.2498773777e+02 1.2498773777e+02 0.0000000000e+00 0.0000e+00 1.0000e+00
       11 -1    0    0    0    0 -0.0000000000e+00 -0.0000000000e+00 -1.2498425511e+02 1.2498425511e+02 0.0000000000e+00 0.0000e+00 -1.0000e+00
       23  1    1    2    0    0 -3.3808697463e+01 +3.6933468334e+01 -3.6850085417e+01 1.1036434772e+02 9.1188000000e+01 0.0000e+00 0.0000e+00
       25  1    1    2    0    0 +3.3808697463e+01 -3.6933468334e+01 +3.6853568085e+01 1.3960764516e+02 1.2500000000e+02 0.0000e+00 0.0000e+00
</event>
<event>
 4      1 +2.1368000e-01 2.49975000e+02 7.54677100e-03 1.11332100e-01
      -11 -1    0    0    0    0 +0.0000000000e+00 +0.0000000000e+00 +1.2498750000e+02 1.2498750000e+02 0.0000000000e+00 0.0000e+00 -1.0000e+00
       11 -1    0    0    0    0 -0.0000000000e+00 -0.0000000000e+00 -1.2498750000e+02 1.2498750000e+02 0.0000000000e+00 0.0000e+00 1.0000e+00
       23  1    1    2    0    0 +1.6556655826e+01 -2.6137307760e+01 -5.3928102407e+01 1.1036654059e+02 9.1188000000e+01 0.0000e+00 1.0000e+00
       25  1    1    2    0    0 -1.6556655826e+01 +2.6137307760e+01 +5.3928102407e+01 1.3960845941e+02 1.2500000000e+02 0.0000e+00 0.0000e+00
</event>
<event>
 4      1 +2.1368000e-01 2.49892800e+02 7.54677100e-03 1.11337300e-01
      -11 -1    0    0    0    0 +0.0000000000e+00 +0.0000000000e+00 +1.2498905157e+02 1.2498905157e+02 0.0000000000e+00 0.0000e+00 -1.0000e+00
       11 -1    0    0    0    0 -0.0000000000e+00 -0.0000000000e+00 -1.2490375383e+02 1.2490375383e+02 0.0000000000e+00 0.0000e+00 1.0000e+00
       23  1    1    2    0    0 -5.9697408145e+01 -1.4109837038e+01 +9.6564484274e+00 1.1032391572e+02 9.1188000000e+01 0.0000e+00 1.0000e+00
       25  1    1    2    0    0 +5.9697408145e+01 +1.4109837038e+01 -9.5711506805e+00 1.3956888968e+02 1.2500000000e+02 0.0000e+00 0.0000e+00
</event>
<event>
 4      1 +2.1368000e-01 2.35519700e+02 7.54677100e-03 1.12281400e-01
      -11 -1    0    0    0    0 +0.0000000000e+00 +0.0000000000e+00 +1.1095013229e+02 1.1095013229e+02 0.0000000000e+00 0.0000e+00 -1.0000e+00
       11 -1    0    0    0    0 -0.0000000000e+00 -0.0000000000e+00 -1.2498747490e+02 1.2498747490e+02 0.0000000000e+00 0.0000e+00 1.0000e+00
       23  1    1    2    0    0 +3.5594406076e+01 +1.5296052525e+01 +1.9192655398e+01 1.0091848360e+02 9.1188000000e+01 0.0000e+00 -1.0000e+00
       25  1    1    2    0    0 -3.5594406076e+01 -1.5296052525e+01 -3.3229998015e+01 1.3501912359e+02 1.2500000000e+02 0.0000e+00 0.0000e+00
</event>
<event>
 4      1 +2.1368000e-01 2.49975000e+02 7.54677100e-03 1.11332100e-01
      -11 -1    0    0    0    0 +0.0000000000e+00 +0.0000000000e+00 +1.2498837067e+02 1.2498837067e+02 0.0000000000e+00 0.0000e+00 -1.0000e+00
       11 -1    0    0    0    0 -0.0000000000e+00 -0.0000000000e+00 -1.2498662933e+02 1.2498662933e+02 0.0000000000e+00 0.0000e+00 1.0000e+00
       23  1    1    2    0    0 +2.3961567561e+01 -5.6836582899e+01 +7.8089736472e+00 1.1036659499e+02 9.1188000000e+01 0.0000e+00 0.0000e+00
       25  1    1    2    0    0 -2.3961567561e+01 +5.6836582899e+01 -7.8072323043e+00 1.3960840502e+02 1.2500000000e+02 0.0000e+00 0.0000e+00
</event>
<event>
 4      1 +2.1368000e-01 2.46404200e+02 7.54677100e-03 1.11559900e-01
      -11 -1    0    0    0    0 +0.0000000000e+00 +0.0000000000e+00 +1.2144345325e+02 1.2144345325e+02 0.0000000000e+00 0.0000e+00 -1.0000e+00
       11 -1    0    0    0    0 -0.0000000000e+00 -0.0000000000e+00 -1.2498624055e+02 1.2498624055e+02 0.0000000000e+00 0.0000e+00 1.0000e+00
       23  1    1    2    0    0 -5.4238222144e+01 +1.1757623523e+01 +1.7115214977e+01 1.0811201774e+02 9.1188000000e+01 0.0000e+00 1.0000e+00
       25  1    1    2    0    0 +5.4238222144e+01 -1.1757623523e+01 -2.0658002284e+01 1.3831767606e+02 1.2500000000e+02 0.0000e+00 0.0000e+00
</event>
<event>
 4      1 +2.1368000e-01 2.49975000e+02 7.54677100e-03 1.11332100e-01
      -11 -1    0    0    0    0 +0.0000000000e+00 +0.0000000000e+00 +1.2498747857e+02 1.2498747857e+02 0.0000000000e+00 0.0000e+00 1.0000e+00
       11 -1    0    0    0    0 -0.0000000000e+00 -0.0000000000e+00 -1.2498747857e+02 1.2498747857e+02 0.0000000000e+00 0.0000e+00 -1.0000e+00
       23  1    1    2    0    0 +5.2035867561e+01 -3.3836354156e+01 +3.5897464804e+00 1.1036651666e+02 9.1188000000e+01 0.0000e+00 -1.0000e+00
       25  1    1    2    0    0 -5.2035867561e+01 +3.3836354156e+01 -3.5897464804e+00 1.3960844049e+02 1.2500000000e+02 0.0000e+00 0.0000e+00
</event>
<event>
 4      1 +2.1368000e-01 2.49975000e+02 7.54677100e-03 1.11332100e-01
      -11 -1    0    0    0    0 +0.0000000000e+00 +0.0000000000e+00 +1.2498750000e+02 1.2498750000e+02 0.0000000000e+00 0.0000e+00 1.0000e+00
       11 -1    0    0    0    0 -0.0000000000e+00 -0.0000000000e+00 -1.2498750000e+02 1.2498750000e+02 0.0000000000e+00 0.0000e+00 -1.0000e+00
       23  1    1    2    0    0 +2.5776170632e+00 +5.8850842119e+01 +1.9886080822e+01 1.1036654059e+02 9.1188000000e+01 0.0000e+00 0.0000e+00
       25  1    1    2    0    0 -2.5776170632e+00 -5.8850842119e+01 -1.9886080822e+01 1.3960845941e+02 1.2500000000e+02 0.0000e+00 0.0000e+00
</event>
<event>
 4      1 +2.1368000e-01 2.49047700e+02 7.54677100e-03 1.11390800e-01
      -11 -1    0    0    0    0 +0.0000000000e+00 +0.0000000000e+00 +1.2406321949e+02 1.2406321949e+02 0.0000000000e+00 0.0000e+00 1.0000e+00
       11 -1    0    0    0    0 -0.0000000000e+00 -0.0000000000e+00 -1.2498617726e+02 1.2498617726e+02 0.0000000000e+00 0.0000e+00 -1.0000e+00
       23  1    1    2    0    0 -4.0437822678e+01 +2.3745963831e+01 +3.8992935857e+01 1.0970318451e+02 9.1188000000e+01 0.0000e+00 1.0000e+00
       25  1    1    2    0    0 +4.0437822678e+01 -2.3745963831e+01 -3.9915893622e+01 1.3934621224e+02 1.2500000000e+02 0.0000e+00 0.0000e+00
</event>
<event>
 4      1 +2.1368000e-01 2.49975000e+02 7.54677100e-03 1.11332100e-01
      -11 -1    0    0    0    0 +0.0000000000e+00 +0.0000000000e+00 +1.2498836099e+02 1.2498836099e+02 0.0000000000e+00 0.0000e+00 -1.0000e+00
       11 -1    0    0    0    0 -0.0000000000e+00 -0.0000000000e+00 -1.2498661964e+02 1.2498661964e+02 0.0000000000e+00 0.0000e+00 1.0000e+00
       23  1    1    2    0    0 +2.1737822310e+01 -4.3898261066e+01 +3.8288225074e+01 1.1036679649e+02 9.1188000000e+01 0.0000e+00 0.0000e+00
       25  1    1    2    0    0 -2.1737822310e+01 +4.3898261066e+01 -3.8286483731e+01 1.3960818414e+02 1.2500000000e+02 0.0000e+00 0.0000e+00
</event>
<event>
 4      1 +2.1368000e-01 2.49975000e+02 7.54677100e-03 1.11332100e-01
      -11 -1    0    0    0    0 +0.0000000000e+00 +0.0000000000e+00 +1.2498835821e+02 1.2498835821e+02 0.0000000000e+00 0.0000e+00 1.0000e+00
       11 -1    0    0    0    0 -0.0000000000e+00 -0.0000000000e+00 -1.2498661686e+02 1.2498661686e+02 0.0000000000e+00 0.0000e+00 -1.0000e+00
       23  1    1    2    0    0 +5.2396345311e+01 +3.0885450350e+01 -1.2892284315e+01 1.1036643686e+02 9.1188000000e+01 0.0000e+00 0.0000e+00
       25  1    1    2    0    0 -5.2396345311e+01 -3.0885450350e+01 +1.2894025658e+01 1.3960853822e+02 1.2500000000e+02 0.0000e+00 0.0000e+00
</event>
<event>
 4      1 +2.1368000e-01 2.49975000e+02 7.54677100e-03 1.11332100e-01
      -11 -1    0    0    0    0 +0.0000000000e+00 +0.0000000000e+00 +1.2498750000e+02 1.2498750000e+02 0.0000000000e+00 0.0000e+00 1.0000e+00
       11 -1    0    0    0    0 -0.0000000000e+00 -0.0000000000e+00 -1.2498750000e+02 1.2498750000e+02 0.0000000000e+00 0.0000e+00 -1.0000e+00
       23  1    1    2    0    0 +5.6372378750e+01 +1.0380575129e+01 -2.4081538824e+01 1.1036654059e+02 9.1188000000e+01 0.0000e+00 0.0000e+00
       25  1    1    2    0    0 -5.6372378750e+01 -1.0380575129e+01 +2.4081538824e+01 1.3960845941e+02 1.2500000000e+02 0.0000e+00 0.0000e+00
</event>
<event>
 4      1 +2.1368000e-01 2.26908800e+02 7.54677100e-03 1.12883500e-01
      -11 -1    0    0    0    0 +0.0000000000e+00 +0.0000000000e+00 +1.0298654770e+02 1.0298654770e+02 0.0000000000e+00 0.0000e+00 -1.0000e+00
       11 -1    0    0    0    0 -0.0000000000e+00 -0.0000000000e+00 -1.2498622186e+02 1.2498622186e+02 0.0000000000e+00 0.0000e+00 1.0000e+00
       23  1    1    2    0    0 +1.7648237377e+01 +1.0059818854e+01 +1.8049877707e+01 9.5150983532e+01 9.1188000000e+01 0.0000e+00 -1.0000e+00
       25  1    1    2    0    0 -1.7648237377e+01 -1.0059818854e+01 -4.0049551877e+01 1.3282178603e+02 1.2500000000e+02 0.0000e+00 0.0000e+00
</event>
<event>
 4      1 +2.1368000e-01 2.49802300e+02 7.54677100e-03 1.11343000e-01
      -11 -1    0    0    0    0 +0.0000000000e+00 +0.0000000000e+00 +1.2493161870e+02 1.2493161870e+02 0.0000000000e+00 0.0000e+00 -1.0000e+00
       11 -1    0    0    0    0 -0.0000000000e+00 -0.0000000000e+00 -1.2487071337e+02 1.2487071337e+02 0.0000000000e+00 0.0000e+00 1.0000e+00
       23  1    1    2    0    0 -2.4341718601e+01 +4.7669881716e+01 +3.1320749718e+01 1.1027772937e+02 9.1188000000e+01 0.0000e+00 1.0000e+00
       25  1    1    2    0    0 +2.4341718601e+01 -4.7669881716e+01 -3.1259844390e+01 1.3952460270e+02 1.2500000000e+02 0.0000e+00 0.0000e+00
</event>
<event>
 4      1 +2.1368000e-01 2.49948900e+02 7.54677100e-03 1.11333700e-01
      -11 -1    0    0    0    0 +0.0000000000e+00 +0.0000000000e+00 +1.2498751260e+02 1.2498751260e+02 0.0000000000e+00 0.0000e+00 1.0000e+00
       11 -1    0    0    0    0 -0.0000000000e+00 -0.0000000000e+00 -1.2496139500e+02 1.2496139500e+02 0.0000000000e+00 0.0000e+00 -1.0000e+00
       23  1    1    2    0    0 +4.9931495676e+01 +2.8412163830e+01 +2.3715961717e+01 1.1035444485e+02 9.1188000000e+01 0.0000e+00 1.0000e+00
       25  1    1    2    0    0 -4.9931495676e+01 -2.8412163830e+01 -2.3689844118e+01 1.3959446274e+02 1.2500000000e+02 0.0000e+00 0.0000e+00
</event>
<event>
 4      1 +2.1368000e-01 2.49962700e+02 7.54677100e-03 1.11332800e-01
      -11 -1    0    0    0    0 +0.0000000000e+00 +0.0000000000e+00 +1.2497615089e+02 1.2497615089e+02 0.0000000000e+00 0.0000e+00 -1.0000e+00
       11 -1    0    0    0    0 -0.0000000000e+00 -0.0000000000e+00 -1.2498659844e+02 1.2498659844e+02 0.0000000000e+00 0.0000e+00 1.0000e+00
       23  1    1    2    0    0 -5.5674775583e+01 +2.5064739840e+01 -1.1670370380e+01 1.1036018625e+02 9.1188000000e+01 0.0000e+00 0.0000e+00
       25  1    1    2    0    0 +5.5674775583e+01 -2.5064739840e+01 +1.1659922834e+01 1.3960256309e+02 1.2500000000e+02 0.0000e+00 0.0000e+00
</event>
<event>
 4      1 +2.1368000e-01 2.47050100e+02 7.54677100e-03 1.11518300e-01
      -11 -1    0    0    0    0 +0.0000000000e+00 +0.0000000000e+00 +1.2208110820e+02 1.2208110820e+02 0.0000000000e+00 0.0000e+00 1.0000e+00
       11 -1    0    0    0    0 -0.0000000000e+00 -0.0000000000e+00 -1.2498610078e+02 1.2498610078e+02 0.0000000000e+00 0.0000e+00 -1.0000e+00
       23  1    1    2    0    0 +9.1310629271e+00 +2.5864460837e+01 -5.3768674079e+01 1.0935569624e+02 9.1188000000e+01 0.0000e+00 0.0000e+00
       25  1    1    2    0    0 -9.1310629271e+00 -2.5864460837e+01 +5.0863681506e+01 1.3771151274e+02 1.2500000000e+02 0.0000e+00 0.0000e+00
</event>
<event>
 4      1 +2.1368000e-01 2.46768600e+02 7.54677100e-03 1.11536400e-01
      -11 -1    0    0    0    0 +0.0000000000e+00 +0.0000000000e+00 +1.2498813267e+02 1.2498813267e+02 0.0000000000e+00 0.0000e+00 1.0000e+00
       11 -1    0    0    0    0 -0.0000000000e+00 -0.0000000000e+00 -1.2180109387e+02 1.2180109387e+02 0.0000000000e+00 0.0000e+00 -1.0000e+00
       23  1    1    2    0    0 -4.9644701847e+01 +9.7064965120e+00 +3.1639122526e+01 1.0897292285e+02 9.1188000000e+01 0.0000e+00 1.0000e+00
       25  1    1    2    0    0 +4.9644701847e+01 -9.7064965120e+00 -2.8452083721e+01 1.3781630369e+02 1.2500000000e+02 0.0000e+00 0.0000e+00
</event>
<event>
 4      1 +2.1368000e-01 2.49950500e+02 7.54677100e-03 1.11333600e-01
      -11 -1    0    0    0    0 +0.0000000000e+00 +0.0000000000e+00 +1.2498746164e+02 1.2498746164e+02 0.0000000000e+00 0.0000e+00 -1.0000e+00
       11 -1    0    0    0    0 -0.0000000000e+00 -0.0000000000e+00 -1.2496308506e+02 1.2496308506e+02 0.0000000000e+00 0.0000e+00 1.0000e+00
       23  1    1    2    0    0 +3.3348062437e+01 -5.1223247545e+01 -1.1240595817e+01 1.1035178610e+02 9.1188000000e+01 0.0000e+00 -1.0000e+00
       25  1    1    2    0    0 -3.3348062437e+01 +5.1223247545e+01 +1.1264972403e+01 1.3959876060e+02 1.2500000000e+02 0.0000e+00 0.0000e+00
</event>
<event>
 4      1 +2.1368000e-01 2.43560500e+02 7.54677100e-03 1.11744300e-01
      -11 -1    0    0    0    0 +0.0000000000e+00 +0.0000000000e+00 +1.2435614427e+02 1.2435614427e+02 0.0000000000e+00 0.0000e+00 1.0000e+00
       11 -1    0    0    0    0 -0.0000000000e+00 -0.0000000000e+00 -1.1925766876e+02 1.1925766876e+02 0.0000000000e+00 0.0000e+00 -1.0000e+00
       23  1    1    2    0    0 -2.9262739669e+01 +3.8496304494e+01 +2.9576165045e+01 1.0736980151e+02 9.1188000000e+01 0.0000e+00 0.0000e+00
       25  1    1    2    0    0 +2.9262739669e+01 -3.8496304494e+01 -2.4477689531e+01 1.3624401153e+02 1.2500000000e+02 0.0000e+00 0.0000e+00
</event>
<event>
 4      1 +2.1368000e-01 2.49974800e+02 7.54677100e-03 1.11332100e-01
      -11 -1    0    0    0    0 +0.0000000000e+00 +0.0000000000e+00 +1.2498829337e+02 1.2498829337e+02 0.0000000000e+00 0.0000e+00 1.0000e+00
       11 -1    0    0    0    0 -0.0000000000e+00 -0.0000000000e+00 -1.2498655203e+02 1.2498655203e+02 0.0000000000e+00 0.0000e+00 -1.0000e+00
       23  1    1    2    0    0 -5.0483795048e+01 -3.5550720730e+01 +7.2833214588e+00 1.1036650498e+02 9.1188000000e+01 0.0000e+00 0.0000e+00
       25  1    1    2    0    0 +5.0483795048e+01 +3.5550720730e+01 -7.2815801170e+00 1.3960834042e+02 1.2500000000e+02 0.0000e+00 0.0000e+00
</event>
<event>
 4      1 +2.1368000e-01 2.49312200e+02 7.54677100e-03 1.11374000e-01
      -11 -1    0    0    0    0 +0.0000000000e+00 +0.0000000000e+00 +1.2432915569e+02 1.2432915569e+02 0.0000000000e+00 0.0000e+00 1.0000e+00
       11 -1    0    0    0    0 -0.0000000000e+00 -0.0000000000e+00 -1.2498390358e+02 1.2498390358e+02 0.0000000000e+00 0.0000e+00 -1.0000e+00
       23  1    1    2    0    0 -5.6868007397e+01 -4.1682792085e+00 +2.2788972283e+01 1.0993604240e+02 9.1188000000e+01 0.0000e+00 0.0000e+00
       25  1    1    2    0    0 +5.6868007397e+01 +4.1682792085e+00 -2.3443720169e+01 1.3937701687e+02 1.2500000000e+02 0.0000e+00 0.0000e+00
</event>
<event>
 4      1 +2.1368000e-01 2.22840700e+02 7.54677100e-03 1.13178300e-01
      -11 -1    0    0    0    0 +0.0000000000e+00 +0.0000000000e+00 +1.2073170974e+02 1.2073170974e+02 0.0000000000e+00 0.0000e+00 1.0000e+00
       11 -1    0    0    0    0 -0.0000000000e+00 -0.0000000000e+00 -1.0282713253e+02 1.0282713253e+02 0.0000000000e+00 0.0000e+00 -1.0000e+00
       23  1    1    2    0    0 +2.5181505311e+01 -5.9336955347e+00 +9.7570396287e-01 9.4791984338e+01 9.1188000000e+01 0.0000e+00 0.0000e+00
       25  1    1    2    0    0 -2.5181505311e+01 +5.9336955347e+00 +1.6928873246e+01 1.2876685793e+02 1.2500000000e+02 0.0000e+00 0.0000e+00
</event>
<event>
 4      1 +2.1368000e-01 2.49964400e+02 7.54677100e-03 1.11332700e-01
      -11 -1    0    0    0    0 +0.0000000000e+00 +0.0000000000e+00 +1.2497696965e+02 1.2497696965e+02 0.0000000000e+00 0.0000e+00 -1.0000e+00
       11 -1    0    0    0    0 -0.0000000000e+00 -0.0000000000e+00 -1.2498741733e+02 1.2498741733e+02 0.0000000000e+00 0.0000e+00 1.0000e+00
       23  1    1    2    0    0 -5.2142913301e+01 +2.1447189381e+01 -2.6183769671e+01 1.1036170748e+02 9.1188000000e+01 0.0000e+00 1.0000e+00
       25  1    1    2    0    0 +5.2142913301e+01 -2.1447189381e+01 +2.6173321984e+01 1.3960267950e+02 1.2500000000e+02 0.0000e+00 0.0000e+00
</event>
<event>
 4      1 +2.1368000e-01 2.49090000e+02 7.54677100e-03 1.11388100e-01
      -11 -1    0    0    0    0 +0.0000000000e+00 +0.0000000000e+00 +1.2430056598e+02 1.2430056598e+02 0.0000000000e+00 0.0000e+00 -1.0000e+00
       11 -1    0    0    0    0 -0.0000000000e+00 -0.0000000000e+00 -1.2478988705e+02 1.2478988705e+02 0.0000000000e+00 0.0000e+00 1.0000e+00
       23  1    1    2    0    0 -6.1071004820e+01 -1.8264035317e+00 -5.0757612336e+00 1.0988183688e+02 9.1188000000e+01 0.0000e+00 1.0000e+00
       25  1    1    2    0    0 +6.1071004820e+01 +1.8264035317e+00 +4.5864401623e+00 1.3920861616e+02 1.2500000000e+02 0.0000e+00 0.0000e+00
</event>
<event>
 4      1 +2.1368000e-01 2.49960000e+02 7.54677100e-03 1.11333000e-01
      -11 -1    0    0    0    0 +0.0000000000e+00 +0.0000000000e+00 +1.2498782244e+02 1.2498782244e+02 0.0000000000e+00 0.0000e+00 1.0000e+00
       11 -1    0    0    0    0 -0.0000000000e+00 -0.0000000000e+00 -1.2497215130e+02 1.2497215130e+02 0.0000000000e+00 0.0000e+00 -1.0000e+00
       23  1    1    2    0    0 -5.5967217941e+01 +1.8597213208e+01 -1.9626820473e+01 1.1035691754e+02 9.1188000000e+01 0.0000e+00 1.0000e+00
       25  1    1    2    0    0 +5.5967217941e+01 -1.8597213208e+01 +1.9642491617e+01 1.3960305620e+02 1.2500000000e+02 0.0000e+00 0.0000e+00
</event>
<event>
 4      1 +2.1368000e-01 2.37885400e+02 7.54677100e-03 1.12121000e-01
      -11 -1    0    0    0    0 +0.0000000000e+00 +0.0000000000e+00 +1.1579143275e+02 1.1579143275e+02 0.0000000000e+00 0.0000e+00 1.0000e+00
       11 -1    0    0    0    0 -0.0000000000e+00 -0.0000000000e+00 -1.2217973131e+02 1.2217973131e+02 0.0000000000e+00 0.0000e+00 -1.0000e+00
       23  1    1    2    0    0 +1.2432057661e+01 +2.4036148855e+01 -4.3796347604e+01 1.0471706603e+02 9.1188000000e+01 0.0000e+00 -1.0000e+00
       25  1    1    2    0    0 -1.2432057661e+01 -2.4036148855e+01 +3.7408049049e+01 1.3325409803e+02 1.2500000000e+02 0.0000e+00 0.0000e+00
</event>
<event>
 4      1 +2.1368000e-01 2.49973800e+02 7.54677100e-03 1.11332100e-01
      -11 -1    0    0    0    0 +0.0000000000e+00 +0.0000000000e+00 +1.2498777052e+02 1.2498777052e+02 0.0000000000e+00 0.0000e+00 -1.0000e+00
       11 -1    0    0    0    0 -0.0000000000e+00 -0.0000000000e+00 -1.2498602919e+02 1.2498602919e+02 0.0000000000e+00 0.0000e+00 1.0000e+00
       23  1    1    2    0    0 +3.8300400467e+00 +6.2053019083e+01 +3.5796087784e-01 1.1036587273e+02 9.1188000000e+01 0.0000e+00 0.0000e+00
       25  1    1    2    0    0 -3.8300400467e+00 -6.2053019083e+01 -3.5621954328e-01 1.3960792698e+02 1.2500000000e+02 0.0000e+00 0.0000e+00
</event>
<event>
 4      1 +2.1368000e-01 2.49955100e+02 7.54677100e-03 1.11333300e-01
      -11 -1    0    0    0    0 +0.0000000000e+00 +0.0000000000e+00 +1.2496885030e+02 1.2496885030e+02 0.0000000000e+00 0.0000e+00 1.0000e+00
       11 -1    0    0    0    0 -0.0000000000e+00 -0.0000000000e+00 -1.2498626246e+02 1.2498626246e+02 0.0000000000e+00 0.0000e+00 -1.0000e+00
       23  1    1    2    0    0 -2.6908928979e+01 -1.3892324102e+01 +5.4269224831e+01 1.1035165262e+02 9.1188000000e+01 0.0000e+00 1.0000e+00
       25  1    1    2    0    0 +2.6908928979e+01 +1.3892324102e+01 -5.4286636996e+01 1.3960346014e+02 1.2500000000e+02 0.0000e+00 0.0000e+00
</event>
<event>
 4      1 +2.1368000e-01 2.49974900e+02 7.54677100e-03 1.11332100e-01
      -11 -1    0    0    0    0 +0.0000000000e+00 +0.0000000000e+00 +1.2498834563e+02 1.2498834563e+02 0.0000000000e+00 0.0000e+00 1.0000e+00
       11 -1    0    0    0    0 -0.0000000000e+00 -0.0000000000e+00 -1.2498660429e+02 1.2498660429e+02 0.0000000000e+00 0.0000e+00 -1.0000e+00
       23  1    1    2    0    0 +1.1140068332e+01 -2.6265687341e+01 +5.5241408838e+01 1.1036689743e+02 9.1188000000e+01 0.0000e+00 1.0000e+00
       25  1    1    2    0    0 -1.1140068332e+01 +2.6265687341e+01 -5.5239667496e+01 1.3960805249e+02 1.2500000000e+02 0.0000e+00 0.0000e+00
</event>
<event>
 4      1 +2.1368000e-01 2.22959900e+02 7.54677100e-03 1.13169500e-01
      -11 -1    0    0    0    0 +0.0000000000e+00 +0.0000000000e+00 +1.2498762201e+02 1.2498762201e+02 0.0000000000e+00 0.0000e+00 1.0000e+00
       11 -1    0    0    0    0 -0.0000000000e+00 -0.0000000000e+00 -9.9432049892e+01 9.9432049892e+01 0.0000000000e+00 0.0000e+00 -1.0000e+00
       23  1    1    2    0    0 +1.4303859284e+01 +1.5361251106e+01 +2.7915074331e+01 9.7647688887e+01 9.1188000000e+01 0.0000e+00 1.0000e+00
       25  1    1    2    0    0 -1.4303859284e+01 -1.5361251106e+01 -2.3595022178e+00 1.2677198301e+02 1.2500000000e+02 0.0000e+00 0.0000e+00
</event>
<event>
 4      1 +2.1368000e-01 2.48821500e+02 7.54677100e-03 1.11405200e-01
      -11 -1    0    0    0    0 +0.0000000000e+00 +0.0000000000e+00 +1.2396265242e+02 1.2396265242e+02 0.0000000000e+00 0.0000e+00 -1.0000e+00
       11 -1    0    0    0    0 -0.0000000000e+00 -0.0000000000e+00 -1.2486051174e+02 1.2486051174e+02 0.0000000000e+00 0.0000e+00 1.0000e+00
       23  1    1    2    0    0 +3.4531281397e+01 -3.5146142553e+01 -3.6396338579e+01 1.0985265376e+02 9.1188000000e+01 0.0000e+00 1.0000e+00
       25  1    1    2    0    0 -3.4531281397e+01 +3.5146142553e+01 +3.5498479258e+01 1.3897051040e+02 1.2500000000e+02 0.0000e+00 0.0000e+00
</event>
<event>
 4      1 +2.1368000e-01 2.36289500e+02 7.54677100e-03 1.12229000e-01
      -11 -1    0    0    0    0 +0.0000000000e+00 +0.0000000000e+00 +1.2460840483e+02 1.2460840483e+02 0.0000000000e+00 0.0000e+00 -1.0000e+00
       11 -1    0    0    0    0 -0.0000000000e+00 -0.0000000000e+00 -1.1201637681e+02 1.1201637681e+02 0.0000000000e+00 0.0000e+00 1.0000e+00
       23  1    1    2    0    0 +2.4155061447e+01 +2.8117198649e+01 +3.4723869749e+01 1.0437931944e+02 9.1188000000e+01 0.0000e+00 -1.0000e+00
       25  1    1    2    0    0 -2.4155061447e+01 -2.8117198649e+01 -2.2131841733e+01 1.3224546220e+02 1.2500000000e+02 0.0000e+00 0.0000e+00
</event>
<event>
 4      1 +2.1368000e-01 2.49955300e+02 7.54677100e-03 1.11333300e-01
      -11 -1    0    0    0    0 +0.0000000000e+00 +0.0000000000e+00 +1.2498723147e+02 1.2498723147e+02 0.0000000000e+00 0.0000e+00 1.0000e+00
       11 -1    0    0    0    0 -0.0000000000e+00 -0.0000000000e+00 -1.2496807807e+02 1.2496807807e+02 0.0000000000e+00 0.0000e+00 -1.0000e+00
       23  1    1    2    0    0 +5.2839438740e+00 +5.7185671069e+01 +2.3777628091e+01 1.1035736487e+02 9.1188000000e+01 0.0000e+00 1.0000e+00
       25  1    1    2    0    0 -5.2839438740e+00 -5.7185671069e+01 -2.3758474694e+01 1.3959794468e+02 1.2500000000e+02 0.0000e+00 0.0000e+00
</event>
<event>
 4      1 +2.1368000e-01 2.49974600e+02 7.54677100e-03 1.11332100e-01
      -11 -1    0    0    0    0 +0.0000000000e+00 +0.0000000000e+00 +1.2498816942e+02 1.2498816942e+02 0.0000000000e+00 0.0000e+00 -1.0000e+00
       11 -1    0    0    0    0 -0.0000000000e+00 -0.0000000000e+00 -1.2498642808e+02 1.2498642808e+02 0.0000000000e+00 0.0000e+00 1.0000e+00
       23  1    1    2    0    0 -6.1372378978e+01 -9.7750939644e+00 +1.8313300947e+00 1.1036632855e+02 9.1188000000e+01 0.0000e+00 1.0000e+00
       25  1    1    2    0    0 +6.1372378978e+01 +9.7750939644e+00 -1.8295887546e+00 1.3960826895e+02 1.2500000000e+02 0.0000e+00 0.0000e+00
</event>
<event>
 4      1 +2.1368000e-01 2.49964700e+02 7.54677100e-03 1.11332700e-01
      -11 -1    0    0    0    0 +0.0000000000e+00 +0.0000000000e+00 +1.2498845901e+02 1.2498845901e+02 0.0000000000e+00 0.0000e+00 1.0000e+00
       11 -1    0    0    0    0 -0.0000000000e+00 -0.0000000000e+00 -1.2497627011e+02 1.2497627011e+02 0.0000000000e+00 0.0000e+00 -1.0000e+00
       23  1    1    2    0    0 +1.9622366746e+01 +1.6283149839e+01 +5.6698216335e+01 1.1036356883e+02 9.1188000000e+01 0.0000e+00 1.0000e+00
       25  1    1    2    0    0 -1.9622366746e+01 -1.6283149839e+01 -5.6686027435e+01 1.3960116028e+02 1.2500000000e+02 0.0000e+00 0.0000e+00
</event>
<event>
 4      1 +2.1368000e-01 2.28426000e+02 7.54677100e-03 1.12775300e-01
      -11 -1    0    0    0    0 +0.0000000000e+00 +0.0000000000e+00 +1.1266029613e+02 1.1266029613e+02 0.0000000000e+00 0.0000e+00 1.0000e+00
       11 -1    0    0    0    0 -0.0000000000e+00 -0.0000000000e+00 -1.1578707464e+02 1.1578707464e+02 0.0000000000e+00 0.0000e+00 -1.0000e+00
       23  1    1    2    0    0 -3.6025370568e+01 -2.7609920495e+00 -6.3486669991e+00 9.8290423330e+01 9.1188000000e+01 0.0000e+00 -1.0000e+00
       25  1    1    2    0    0 +3.6025370568e+01 +2.7609920495e+00 +3.2218884891e+00 1.3015694744e+02 1.2500000000e+02 0.0000e+00 0.0000e+00
</event>
<event>
 4      1 +2.1368000e-01 2.49975000e+02 7.54677100e-03 1.11332100e-01
      -11 -1    0    0    0    0 +0.0000000000e+00 +0.0000000000e+00 +1.2498837030e+02 1.2498837030e+02 0.0000000000e+00 0.0000e+00 1.0000e+00
       11 -1    0    0    0    0 -0.0000000000e+00 -0.0000000000e+00 -1.2498662895e+02 1.2498662895e+02 0.0000000000e+00 0.0000e+00 -1.0000e+00
       23  1    1    2    0    0 -5.6478194684e+01 -2.2072524857e+01 -1.3730182217e+01 1.1036644452e+02 9.1188000000e+01 0.0000e+00 0.0000e+00
       25  1    1    2    0    0 +5.6478194684e+01 +2.2072524857e+01 +1.3731923560e+01 1.3960855473e+02 1.2500000000e+02 0.0000e+00 0.0000e+00
</event>
<event>
 4      1 +2.1368000e-01 2.49969700e+02 7.54677100e-03 1.11332400e-01
      -11 -1    0    0    0    0 +0.0000000000e+00 +0.0000000000e+00 +1.2498309999e+02 1.2498309999e+02 0.0000000000e+00 0.0000e+00 1.0000e+00
       11 -1    0    0    0    0 -0.0000000000e+00 -0.0000000000e+00 -1.2498658263e+02 1.2498658263e+02 0.0000000000e+00 0.0000e+00 -1.0000e+00
       23  1    1    2    0    0 +2.6257756375e+01 -5.4239132974e+01 -1.5282673552e+01 1.1036378378e+02 9.1188000000e+01 0.0000e+00 -1.0000e+00
       25  1    1    2    0    0 -2.6257756375e+01 +5.4239132974e+01 +1.5279190916e+01 1.3960589884e+02 1.2500000000e+02 0.0000e+00 0.0000e+00
</event>
<event>
 4      1 +2.1368000e-01 2.25797200e+02 7.54677100e-03 1.12963300e-01
      -11 -1    0    0    0    0 +0.0000000000e+00 +0.0000000000e+00 +1.0197886018e+02 1.0197886018e+02 0.0000000000e+00 0.0000e+00 -1.0000e+00
       11 -1    0    0    0    0 -0.0000000000e+00 -0.0000000000e+00 -1.2498757115e+02 1.2498757115e+02 0.0000000000e+00 0.0000e+00 1.0000e+00
       23  1    1    2    0    0 +1.1605613724e+01 -5.3187306509e+00 +1.9878445556e+01 9.4198636441e+01 9.1188000000e+01 0.0000e+00 -1.0000e+00
       25  1    1    2    0    0 -1.1605613724e+01 +5.3187306509e+00 -4.2887156522e+01 1.3276779489e+02 1.2500000000e+02 0.0000e+00 0.0000e+00
</event>
<event>
 4      1 +2.1368000e-01 2.49848500e+02 7.54677100e-03 1.11340100e-01
      -11 -1    0    0    0    0 +0.0000000000e+00 +0.0000000000e+00 +1.2498777230e+02 1.2498777230e+02 0.0000000000e+00 0.0000e+00 1.0000e+00
       11 -1    0    0    0    0 -0.0000000000e+00 -0.0000000000e+00 -1.2486071860e+02 1.2486071860e+02 0.0000000000e+00 0.0000e+00 -1.0000e+00
       23  1    1    2    0    0 -3.6175605545e+01 +2.4181499379e+01 -4.4176339037e+01 1.1027338583e+02 9.1188000000e+01 0.0000e+00 -1.0000e+00
       25  1    1    2    0    0 +3.6175605545e+01 -2.4181499379e+01 +4.4303392737e+01 1.3957510508e+02 1.2500000000e+02 0.0000e+00 0.0000e+00
</event>
<event>
 4      1 +2.1368000e-01 2.49974300e+02 7.54677100e-03 1.11332100e-01
      -11 -1    0    0    0    0 +0.0000000000e+00 +0.0000000000e+00 +1.2498715612e+02 1.2498715612e+02 0.0000000000e+00 0.0000e+00 1.0000e+00
       11 -1    0    0    0    0 -0.0000000000e+00 -0.0000000000e+00 -1.2498715612e+02 1.2498715612e+02 0.0000000000e+00 0.0000e+00 -1.0000e+00
       23  1    1    2    0    0 +2.2298961618e+01 -5.4645650583e+01 -1.9546005635e+01 1.1036615648e+02 9.1188000000e+01 0.0000e+00 0.0000e+00
       25  1    1    2    0    0 -2.2298961618e+01 +5.4645650583e+01 +1.9546005635e+01 1.3960815575e+02 1.2500000000e+02 0.0000e+00 0.0000e+00
</event>
<event>
 4      1 +2.1368000e-01 2.49975000e+02 7.54677100e-03 1.11332100e-01
      -11 -1    0    0    0    0 +0.0000000000e+00 +0.0000000000e+00 +1.2498749998e+02 1.2498749998e+02 0.0000000000e+00 0.0000e+00 1.0000e+00
       11 -1    0    0    0    0 -0.0000000000e+00 -0.0000000000e+00 -1.2498749998e+02 1.2498749998e+02 0.0000000000e+00 0.0000e+00 -1.0000e+00
       23  1    1    2    0    0 -4.8043033990e+01 -3.5341393492e+01 +1.7560601448e+01 1.1036654056e+02 9.1188000000e+01 0.0000e+00 0.0000e+00
       25  1    1    2    0    0 +4.8043033990e+01 +3.5341393492e+01 -1.7560601448e+01 1.3960845939e+02 1.2500000000e+02 0.0000e+00 0.0000e+00
</event>
<event>
 4      1 +2.1368000e-01 2.47279900e+02 7.54677100e-03 1.11503600e-01
      -11 -1    0    0    0    0 +0.0000000000e+00 +0.0000000000e+00 +1.2231387608e+02 1.2231387608e+02 0.0000000000e+00 0.0000e+00 -1.0000e+00
       11 -1    0    0    0    0 -0.0000000000e+00 -0.0000000000e+00 -1.2498041900e+02 1.2498041900e+02 0.0000000000e+00 0.0000e+00 1.0000e+00
       23  1    1    2    0    0 +3.6593679830e+01 -1.8211220089e+01 +4.2007616084e+01 1.0840035560e+02 9.1188000000e+01 0.0000e+00 0.0000e+00
       25  1    1    2    0    0 -3.6593679830e+01 +1.8211220089e+01 -4.4674159009e+01 1.3889393948e+02 1.2500000000e+02 0.0000e+00 0.0000e+00
</event>
<event>
 4      1 +2.1368000e-01 2.49714500e+02 7.54677100e-03 1.11348500e-01
      -11 -1    0    0    0    0 +0.0000000000e+00 +0.0000000000e+00 +1.2492075378e+02 1.2492075378e+02 0.0000000000e+00 0.0000e+00 1.0000e+00
       11 -1    0    0    0    0 -0.0000000000e+00 -0.0000000000e+00 -1.2479376821e+02 1.2479376821e+02 0.0000000000e+00 0.0000e+00 -1.0000e+00
       23  1    1    2    0    0 -6.1287918145e+01 -3.4401489217e+00 -8.0298091202e+00 1.1021693479e+02 9.1188000000e+01 0.0000e+00 0.0000e+00
       25  1    1    2    0    0 +6.1287918145e+01 +3.4401489217e+00 +8.1567946942e+00 1.3949758720e+02 1.2500000000e+02 0.0000e+00 0.0000e+00
</event>
<event>
 4      1 +2.1368000e-01 2.48712000e+02 7.54677100e-03 1.11412200e-01
      -11 -1    0    0    0    0 +0.0000000000e+00 +0.0000000000e+00 +1.2372781328e+02 1.2372781328e+02 0.0000000000e+00 0.0000e+00 -1.0000e+00
       11 -1    0    0    0    0 -0.0000000000e+00 -0.0000000000e+00 -1.2498737191e+02 1.2498737191e+02 0.0000000000e+00 0.0000e+00 1.0000e+00
       23  1    1    2    0    0 +3.2428765467e+00 -5.8784023264e+01 +1.5070462964e+01 1.0958306364e+02 9.1188000000e+01 0.0000e+00 -1.0000e+00
       25  1    1    2    0    0 -3.2428765467e+00 +5.8784023264e+01 -1.6330021598e+01 1.3913212154e+02 1.2500000000e+02 0.0000e+00 0.0000e+00
</event>
<event>
 4      1 +2.1368000e-01 2.49943400e+02 7.54677100e-03 1.11334100e-01
      -11 -1    0    0    0    0 +0.0000000000e+00 +0.0000000000e+00 +1.2495602175e+02 1.2495602175e+02 0.0000000000e+00 0.0000e+00 1.0000e+00
       11 -1    0    0    0    0 -0.0000000000e+00 -0.0000000000e+00 -1.2498736218e+02 1.2498736218e+02 0.0000000000e+00 0.0000e+00 -1.0000e+00
       23  1    1    2    0    0 -1.2574251918e+01 +6.0433781203e+01 -7.1741925592e+00 1.1034978072e+02 9.1188000000e+01 0.0000e+00 1.0000e+00
       25  1    1    2    0    0 +1.2574251918e+01 -6.0433781203e+01 +7.1428521326e+00 1.3959360321e+02 1.2500000000e+02 0.0000e+00 0.0000e+00
</event>
<event>
 4      1 +2.1368000e-01 2.49874100e+02 7.54677100e-03 1.11338400e-01
      -11 -1    0    0    0    0 +0.0000000000e+00 +0.0000000000e+00 +1.2488656599e+02 1.2488656599e+02 0.0000000000e+00 0.0000e+00 1.0000e+00
       11 -1    0    0    0    0 -0.0000000000e+00 -0.0000000000e+00 -1.2498752381e+02 1.2498752381e+02 0.0000000000e+00 0.0000e+00 -1.0000e+00
       23  1    1    2    0    0 +5.2702300948e+01 -2.2776724391e+01 -2.3640554950e+01 1.1031971212e+02 9.1188000000e+01 0.0000e+00 0.0000e+00
       25  1    1    2    0    0 -5.2702300948e+01 +2.2776724391e+01 +2.3539597129e+01 1.3955437769e+02 1.2500000000e+02 0.0000e+00 0.0000e+00
</event>
<event>
 4      1 +2.1368000e-01 2.49971400e+02 7.54677100e-03 1.11332300e-01
      -11 -1    0    0    0    0 +0.0000000000e+00 +0.0000000000e+00 +1.2498830586e+02 1.2498830586e+02 0.0000000000e+00 0.0000e+00 -1.0000e+00
       11 -1    0    0    0    0 -0.0000000000e+00 -0.0000000000e+00 -1.2498308191e+02 1.2498308191e+02 0.0000000000e+00 0.0000e+00 1.0000e+00
       23  1    1    2    0    0 +1.3039378747e+01 +2.0985057700e+01 -5.7047483986e+01 1.1036333095e+02 9.1188000000e+01 0.0000e+00 1.0000e+00
       25  1    1    2    0    0 -1.3039378747e+01 -2.0985057700e+01 +5.7052707939e+01 1.3960805682e+02 1.2500000000e+02 0.0000e+00 0.0000e+00
</event>
<event>
 4      1 +2.1368000e-01 2.49974900e+02 7.54677100e-03 1.11332100e-01
      -11 -1    0    0    0    0 +0.0000000000e+00 +0.0000000000e+00 +1.2498745045e+02 1.2498745045e+02 0.0000000000e+00 0.0000e+00 -1.0000e+00
       11 -1    0    0    0    0 -0.0000000000e+00 -0.0000000000e+00 -1.2498745045e+02 1.2498745045e+02 0.0000000000e+00 0.0000e+00 1.0000e+00
       23  1    1    2    0    0 +4.2651422271e-01 +2.7793812647e+01 +5.5613233909e+01 1.1036648525e+02 9.1188000000e+01 0.0000e+00 -1.0000e+00
       25  1    1    2    0    0 -4.2651422271e-01 -2.7793812647e+01 -5.5613233909e+01 1.3960841565e+02 1.2500000000e+02 0.0000e+00 0.0000e+00
</event>
<event>
 4      1 +2.1368000e-01 2.46689000e+02 7.54677100e-03 1.11541500e-01
      -11 -1    0    0    0    0 +0.0000000000e+00 +0.0000000000e+00 +1.2496956924e+02 1.2496956924e+02 0.0000000000e+00 0.0000e+00 -1.0000e+00
       11 -1    0    0    0    0 -0.0000000000e+00 -0.0000000000e+00 -1.2174059010e+02 1.2174059010e+02 0.0000000000e+00 0.0000e+00 1.0000e+00
       23  1    1    2    0    0 -4.5154366349e+01 -1.7691798348e+01 +3.4760069526e+01 1.0897444795e+02 9.1188000000e+01 0.0000e+00 -1.0000e+00
       25  1    1    2    0    0 +4.5154366349e+01 +1.7691798348e+01 -3.1531090392e+01 1.3773571138e+02 1.2500000000e+02 0.0000e+00 0.0000e+00
</event>
<event>
 4      1 +2.1368000e-01 2.49063900e+02 7.54677100e-03 1.11389800e-01
      -11 -1    0    0    0    0 +0.0000000000e+00 +0.0000000000e+00 +1.2407820696e+02 1.2407820696e+02 0.0000000000e+00 0.0000e+00 -1.0000e+00
       11 -1    0    0    0    0 -0.0000000000e+00 -0.0000000000e+00 -1.2498735099e+02 1.2498735099e+02 0.0000000000e+00 0.0000e+00 1.0000e+00
       23  1    1    2    0    0 -2.8967560865e+01 -5.3291405647e+01 -9.0223489235e+00 1.0988970663e+02 9.1188000000e+01 0.0000e+00 1.0000e+00
       25  1    1    2    0    0 +2.8967560865e+01 +5.3291405647e+01 +8.1132048975e+00 1.3917585132e+02 1.2500000000e+02 0.0000e+00 0.0000e+00
</event>
<event>
 4      1 +2.1368000e-01 2.49970200e+02 7.54677100e-03 1.11332400e-01
      -11 -1    0    0    0    0 +0.0000000000e+00 +0.0000000000e+00 +1.2498771403e+02 1.2498771403e+02 0.0000000000e+00 0.0000e+00 -1.0000e+00
       11 -1    0    0    0    0 -0.0000000000e+00 -0.0000000000e+00 -1.2498249010e+02 1.2498249010e+02 0.0000000000e+00 0.0000e+00 1.0000e+00
       23  1    1    2    0    0 +2.5202152847e+01 +5.6275151036e+01 +7.9326018003e+00 1.1036402787e+02 9.1188000000e+01 0.0000e+00 -1.0000e+00
       25  1    1    2    0    0 -2.5202152847e+01 -5.6275151036e+01 -7.9273778718e+00 1.3960617627e+02 1.2500000000e+02 0.0000e+00 0.0000e+00
</event>
<event>
 4      1 +2.1368000e-01 2.49975000e+02 7.54677100e-03 1.11332100e-01
      -11 -1    0    0    0    0 +0.0000000000e+00 +0.0000000000e+00 +1.2498837067e+02 1.2498837067e+02 0.0000000000e+00 0.0000e+00 -1.0000e+00
       11 -1    0    0    0    0 -0.0000000000e+00 -0.0000000000e+00 -1.2498662933e+02 1.2498662933e+02 0.0000000000e+00 0.0000e+00 1.0000e+00
       23  1    1    2    0    0 -3.5723723518e+01 -5.0708734372e+01 -4.2373645728e+00 1.1036651107e+02 9.1188000000e+01 0.0000e+00 0.0000e+00
       25  1    1    2    0    0 +3.5723723518e+01 +5.0708734372e+01 +4.2391059157e+00 1.3960848893e+02 1.2500000000e+02 0.0000e+00 0.0000e+00
</event>
<event>
 4      1 +2.1368000e-01 2.49975000e+02 7.54677100e-03 1.11332100e-01
      -11 -1    0    0    0    0 +0.0000000000e+00 +0.0000000000e+00 +1.2498837067e+02 1.2498837067e+02 0.0000000000e+00 0.0000e+00 -1.0000e+00
       11 -1    0    0    0    0 -0.0000000000e+00 -0.0000000000e+00 -1.2498662933e+02 1.2498662933e+02 0.0000000000e+00 0.0000e+00 1.0000e+00
       23  1    1    2    0    0 +4.8508074261e+01 +3.7836318771e+01 +8.9953033634e+00 1.1036660325e+02 9.1188000000e+01 0.0000e+00 0.0000e+00
       25  1    1    2    0    0 -4.8508074261e+01 -3.7836318771e+01 -8.9935620205e+00 1.3960839675e+02 1.2500000000e+02 0.0000e+00 0.0000e+00
</event>
<event>
 4      1 +2.1368000e-01 2.49975000e+02 7.54677100e-03 1.11332100e-01
      -11 -1    0    0    0    0 +0.0000000000e+00 +0.0000000000e+00 +1.2498836858e+02 1.2498836858e+02 0.0000000000e+00 0.0000e+00 -1.0000e+00
       11 -1    0    0    0    0 -0.0000000000e+00 -0.0000000000e+00 -1.2498662724e+02 1.2498662724e+02 0.0000000000e+00 0.0000e+00 1.0000e+00
       23  1    1    2    0    0 +1.6946425918e+01 +4.5770667272e+01 -3.8513982758e+01 1.1036626996e+02 9.1188000000e+01 0.0000e+00 1.0000e+00
       25  1    1    2    0    0 -1.6946425918e+01 -4.5770667272e+01 +3.8515724101e+01 1.3960872586e+02 1.2500000000e+02 0.0000e+00 0.0000e+00
</event>
<event>
 4      1 +2.1368000e-01 2.49955500e+02 7.54677100e-03 1.11333300e-01
      -11 -1    0    0    0    0 +0.0000000000e+00 +0.0000000000e+00 +1.2497076422e+02 1.2497076422e+02 0.0000000000e+00 0.0000e+00 -1.0000e+00
       11 -1    0    0    0    0 -0.0000000000e+00 -0.0000000000e+00 -1.2498469388e+02 1.2498469388e+02 0.0000000000e+00 0.0000e+00 1.0000e+00
       23  1    1    2    0    0 +2.7332858607e+01 +5.3400443201e+01 +1.6254859448e+01 1.1035472030e+02 9.1188000000e+01 0.0000e+00 0.0000e+00
       25  1    1    2    0    0 -2.7332858607e+01 -5.3400443201e+01 -1.6268789102e+01 1.3960073779e+02 1.2500000000e+02 0.0000e+00 0.0000e+00
</event>
<event>
 4      1 +2.1368000e-01 2.49974000e+02 7.54677100e-03 1.11332100e-01
      -11 -1    0    0    0    0 +0.0000000000e+00 +0.0000000000e+00 +1.2498702050e+02 1.2498702050e+02 0.0000000000e+00 0.0000e+00 -1.0000e+00
       11 -1    0    0    0    0 -0.0000000000e+00 -0.0000000000e+00 -1.2498702050e+02 1.2498702050e+02 0.0000000000e+00 0.0000e+00 1.0000e+00
       23  1    1    2    0    0 -2.3753946280e+01 +5.7292188929e+01 +4.3311475756e+00 1.1036600500e+02 9.1188000000e+01 0.0000e+00 0.0000e+00
       25  1    1    2    0    0 +2.3753946280e+01 -5.7292188929e+01 -4.3311475756e+00 1.3960803600e+02 1.2500000000e+02 0.0000e+00 0.0000e+00
</event>
<event>
 4      1 +2.1368000e-01 2.40381100e+02 7.54677100e-03 1.11953900e-01
      -11 -1    0    0    0    0 +0.0000000000e+00 +0.0000000000e+00 +1.2498709921e+02 1.2498709921e+02 0.0000000000e+00 0.0000e+00 -1.0000e+00
       11 -1    0    0    0    0 -0.0000000000e+00 -0.0000000000e+00 -1.1557802765e+02 1.1557802765e+02 0.0000000000e+00 0.0000e+00 1.0000e+00
       23  1    1    2    0    0 -4.0944309369e+01 +1.0563403594e-01 +3.6233291681e+01 1.0632285925e+02 9.1188000000e+01 0.0000e+00 -1.0000e+00
       25  1    1    2    0    0 +4.0944309369e+01 -1.0563403594e-01 -2.6824220119e+01 1.3424226761e+02 1.2500000000e+02 0.0000e+00 0.0000e+00
</event>
<event>
 4      1 +2.1368000e-01 2.47989500e+02 7.54677100e-03 1.11458200e-01
      -11 -1    0    0    0    0 +0.0000000000e+00 +0.0000000000e+00 +1.2498772173e+02 1.2498772173e+02 0.0000000000e+00 0.0000e+00 1.0000e+00
       11 -1    0    0    0    0 -0.0000000000e+00 -0.0000000000e+00 -1.2300971256e+02 1.2300971256e+02 0.0000000000e+00 0.0000e+00 -1.0000e+00
       23  1    1    2    0    0 -4.8564569265e+01 +2.5372962714e+01 -2.4018747464e+01 1.0906170821e+02 9.1188000000e+01 0.0000e+00 0.0000e+00
       25  1    1    2    0    0 +4.8564569265e+01 -2.5372962714e+01 +2.5996756633e+01 1.3893572608e+02 1.2500000000e+02 0.0000e+00 0.0000e+00
</event>
<event>
 4      1 +2.1368000e-01 2.49974900e+02 7.54677100e-03 1.11332100e-01
      -11 -1    0    0    0    0 +0.0000000000e+00 +0.0000000000e+00 +1.2498831831e+02 1.2498831831e+02 0.0000000000e+00 0.0000e+00 -1.0000e+00
       11 -1    0    0    0    0 -0.0000000000e+00 -0.0000000000e+00 -1.2498657697e+02 1.2498657697e+02 0.0000000000e+00 0.0000e+00 1.0000e+00
       23  1    1    2    0    0 -2.2726277328e+01 -5.7128750423e+01 -9.2367212141e+00 1.1036641776e+02 9.1188000000e+01 0.0000e+00 0.0000e+00
       25  1    1    2    0    0 +2.2726277328e+01 +5.7128750423e+01 +9.2384625563e+00 1.3960847752e+02 1.2500000000e+02 0.0000e+00 0.0000e+00
</event>
<event>
 4      1 +2.1368000e-01 2.49615700e+02 7.54677100e-03 1.11354800e-01
      -11 -1    0    0    0    0 +0.0000000000e+00 +0.0000000000e+00 +1.2463059751e+02 1.2463059751e+02 0.0000000000e+00 0.0000e+00 1.0000e+00
       11 -1    0    0    0    0 -0.0000000000e+00 -0.0000000000e+00 -1.2498532366e+02 1.2498532366e+02 0.0000000000e+00 0.0000e+00 -1.0000e+00
       23  1    1    2    0    0 -7.0595864167e+00 +5.5265395968e+01 +2.6623249523e+01 1.1012788253e+02 9.1188000000e+01 0.0000e+00 0.0000e+00
       25  1    1    2    0    0 +7.0595864167e+00 -5.5265395968e+01 -2.6977975670e+01 1.3948803864e+02 1.2500000000e+02 0.0000e+00 0.0000e+00
</event>
<event>
 4      1 +2.1368000e-01 2.49974900e+02 7.54677100e-03 1.11332100e-01
      -11 -1    0    0    0    0 +0.0000000000e+00 +0.0000000000e+00 +1.2498832018e+02 1.2498832018e+02 0.0000000000e+00 0.0000e+00 1.0000e+00
       11 -1    0    0    0    0 -0.0000000000e+00 -0.0000000000e+00 -1.2498657884e+02 1.2498657884e+02 0.0000000000e+00 0.0000e+00 -1.0000e+00
       23  1    1    2    0    0 -4.9588707270e+01 -3.6754855645e+01 -7.4524310154e+00 1.1036643228e+02 9.1188000000e+01 0.0000e+00 0.0000e+00
       25  1    1    2    0    0 +4.9588707270e+01 +3.6754855645e+01 +7.4541723576e+00 1.3960846675e+02 1.2500000000e+02 0.0000e+00 0.0000e+00
</event>
<event>
 4      1 +2.1368000e-01 2.44284600e+02 7.54677100e-03 1.11697100e-01
      -11 -1    0    0    0    0 +0.0000000000e+00 +0.0000000000e+00 +1.2227171773e+02 1.2227171773e+02 0.0000000000e+00 0.0000e+00 1.0000e+00
       11 -1    0    0    0    0 -0.0000000000e+00 -0.0000000000e+00 -1.2201305686e+02 1.2201305686e+02 0.0000000000e+00 0.0000e+00 -1.0000e+00
       23  1    1    2    0    0 -5.0078866820e+01 -1.4467359918e+01 +2.1450572403e+01 1.0720343187e+02 9.1188000000e+01 0.0000e+00 0.0000e+00
       25  1    1    2    0    0 +5.0078866820e+01 +1.4467359918e+01 -2.1191911529e+01 1.3708134271e+02 1.2500000000e+02 0.0000e+00 0.0000e+00
</event>
<event>
 4      1 +2.1368000e-01 2.43829600e+02 7.54677100e-03 1.11726800e-01
      -11 -1    0    0    0    0 +0.0000000000e+00 +0.0000000000e+00 +1.2498701080e+02 1.2498701080e+02 0.0000000000e+00 0.0000e+00 1.0000e+00
       11 -1    0    0    0    0 -0.0000000000e+00 -0.0000000000e+00 -1.1891813005e+02 1.1891813005e+02 0.0000000000e+00 0.0000e+00 -1.0000e+00
       23  1    1    2    0    0 +1.3555446305e+01 +4.1350698153e+01 +3.7660038439e+01 1.0782931049e+02 9.1188000000e+01 0.0000e+00 1.0000e+00
       25  1    1    2    0    0 -1.3555446305e+01 -4.1350698153e+01 -3.1591157695e+01 1.3607583035e+02 1.2500000000e+02 0.0000e+00 0.0000e+00
</event>
<event>
 4      1 +2.1368000e-01 2.49975000e+02 7.54677100e-03 1.11332100e-01
      -11 -1    0    0    0    0 +0.0000000000e+00 +0.0000000000e+00 +1.2498750000e+02 1.2498750000e+02 0.0000000000e+00 0.0000e+00 1.0000e+00
       11 -1    0    0    0    0 -0.0000000000e+00 -0.0000000000e+00 -1.2498750000e+02 1.2498750000e+02 0.0000000000e+00 0.0000e+00 -1.0000e+00
       23  1    1    2    0    0 +4.6240119163e+01 +2.3011755920e+01 +3.4609715508e+01 1.1036654059e+02 9.1188000000e+01 0.0000e+00 1.0000e+00
       25  1    1    2    0    0 -4.6240119163e+01 -2.3011755920e+01 -3.4609715508e+01 1.3960845941e+02 1.2500000000e+02 0.0000e+00 0.0000e+00
</event>
<event>
 4      1 +2.1368000e-01 2.49973900e+02 7.54677100e-03 1.11332100e-01
      -11 -1    0    0    0    0 +0.0000000000e+00 +0.0000000000e+00 +1.2498610345e+02 1.2498610345e+02 0.0000000000e+00 0.0000e+00 1.0000e+00
       11 -1    0    0    0    0 -0.0000000000e+00 -0.0000000000e+00 -1.2498784479e+02 1.2498784479e+02 0.0000000000e+00 0.0000e+00 -1.0000e+00
       23  1    1    2    0    0 -1.3575255535e+01 -5.9207298288e+01 -1.3252204471e+01 1.1036604551e+02 9.1188000000e+01 0.0000e+00 1.0000e+00
       25  1    1    2    0    0 +1.3575255535e+01 +5.9207298288e+01 +1.3250463135e+01 1.3960790274e+02 1.2500000000e+02 0.0000e+00 0.0000e+00
</event>
<event>
 4      1 +2.1368000e-01 2.49968300e+02 7.54677100e-03 1.11332500e-01
      -11 -1    0    0    0    0 +0.0000000000e+00 +0.0000000000e+00 +1.2498674018e+02 1.2498674018e+02 0.0000000000e+00 0.0000e+00 -1.0000e+00
       11 -1    0    0    0    0 -0.0000000000e+00 -0.0000000000e+00 -1.2498151629e+02 1.2498151629e+02 0.0000000000e+00 0.0000e+00 1.0000e+00
       23  1    1    2    0    0 +3.4588762600e+01 +4.9497183758e+01 -1.4773921879e+01 1.1036246558e+02 9.1188000000e+01 0.0000e+00 0.0000e+00
       25  1    1    2    0    0 -3.4588762600e+01 -4.9497183758e+01 +1.4779145766e+01 1.3960579088e+02 1.2500000000e+02 0.0000e+00 0.0000e+00
</event>
<event>
 4      1 +2.1368000e-01 2.34209300e+02 7.54677100e-03 1.12371200e-01
      -11 -1    0    0    0    0 +0.0000000000e+00 +0.0000000000e+00 +1.2498716624e+02 1.2498716624e+02 0.0000000000e+00 0.0000e+00 1.0000e+00
       11 -1    0    0    0    0 -0.0000000000e+00 -0.0000000000e+00 -1.0971924161e+02 1.0971924161e+02 0.0000000000e+00 0.0000e+00 -1.0000e+00
       23  1    1    2    0    0 +3.1507128898e+01 -1.5619502532e+01 +3.4065038166e+01 1.0350046473e+02 9.1188000000e+01 0.0000e+00 1.0000e+00
       25  1    1    2    0    0 -3.1507128898e+01 +1.5619502532e+01 -1.8797113543e+01 1.3120594311e+02 1.2500000000e+02 0.0000e+00 0.0000e+00
</event>
<event>
 4      1 +2.1368000e-01 2.37456700e+02 7.54677100e-03 1.12149900e-01
      -11 -1    0    0    0    0 +0.0000000000e+00 +0.0000000000e+00 +1.2495684614e+02 1.2495684614e+02 0.0000000000e+00 0.0000e+00 1.0000e+00
       11 -1    0    0    0    0 -0.0000000000e+00 -0.0000000000e+00 -1.1281035455e+02 1.1281035455e+02 0.0000000000e+00 0.0000e+00 -1.0000e+00
       23  1    1    2    0    0 -3.7348996636e+01 -1.6236495781e+01 -2.1293747325e+01 1.0211388918e+02 9.1188000000e+01 0.0000e+00 1.0000e+00
       25  1    1    2    0    0 +3.7348996636e+01 +1.6236495781e+01 +3.3440238915e+01 1.3565331151e+02 1.2500000000e+02 0.0000e+00 0.0000e+00
</event>
<event>
 4      1 +2.1368000e-01 2.49975000e+02 7.54677100e-03 1.11332100e-01
      -11 -1    0    0    0    0 +0.0000000000e+00 +0.0000000000e+00 +1.2498837048e+02 1.2498837048e+02 0.0000000000e+00 0.0000e+00 1.0000e+00
       11 -1    0    0    0    0 -0.0000000000e+00 -0.0000000000e+00 -1.2498662914e+02 1.2498662914e+02 0.0000000000e+00 0.0000e+00 -1.0000e+00
       23  1    1    2    0    0 +4.2741623695e+01 -1.0131520360e+01 -4.3999546972e+01 1.1036623387e+02 9.1188000000e+01 0.0000e+00 0.0000e+00
       25  1    1    2    0    0 -4.2741623695e+01 +1.0131520360e+01 +4.4001288314e+01 1.3960876575e+02 1.2500000000e+02 0.0000e+00 0.0000e+00
</event>
<event>
 4      1 +2.1368000e-01 2.48893900e+02 7.54677100e-03 1.11400600e-01
      -11 -1    0    0    0    0 +0.0000000000e+00 +0.0000000000e+00 +1.2498822745e+02 1.2498822745e+02 0.0000000000e+00 0.0000e+00 1.0000e+00
       11 -1    0    0    0    0 -0.0000000000e+00 -0.0000000000e+00 -1.2390805980e+02 1.2390805980e+02 0.0000000000e+00 0.0000e+00 -1.0000e+00
       23  1    1    2    0    0 +2.0343904594e+01 -5.6587582363e+01 +1.1271254687e+01 1.0981038866e+02 9.1188000000e+01 0.0000e+00 1.0000e+00
       25  1    1    2    0    0 -2.0343904594e+01 +5.6587582363e+01 -1.0191087036e+01 1.3908589859e+02 1.2500000000e+02 0.0000e+00 0.0000e+00
</event>
<event>
 4      1 +2.1368000e-01 2.49974700e+02 7.54677100e-03 1.11332100e-01
      -11 -1    0    0    0    0 +0.0000000000e+00 +0.0000000000e+00 +1.2498736243e+02 1.2498736243e+02 0.0000000000e+00 0.0000e+00 -1.0000e+00
       11 -1    0    0    0    0 -0.0000000000e+00 -0.0000000000e+00 -1.2498736243e+02 1.2498736243e+02 0.0000000000e+00 0.0000e+00 1.0000e+00
       23  1    1    2    0    0 +4.1293539579e+01 +4.2165665375e+01 -1.9554750627e+01 1.1036638693e+02 9.1188000000e+01 0.0000e+00 0.0000e+00
       25  1    1    2    0    0 -4.1293539579e+01 -4.2165665375e+01 +1.9554750627e+01 1.3960833793e+02 1.2500000000e+02 0.0000e+00 0.0000e+00
</event>
<event>
 4      1 +2.1368000e-01 2.32920000e+02 7.54677100e-03 1.12460100e-01
      -11 -1    0    0    0    0 +0.0000000000e+00 +0.0000000000e+00 +1.2339402622e+02 1.2339402622e+02 0.0000000000e+00 0.0000e+00 -1.0000e+00
       11 -1    0    0    0    0 -0.0000000000e+00 -0.0000000000e+00 -1.0991560181e+02 1.0991560181e+02 0.0000000000e+00 0.0000e+00 1.0000e+00
       23  1    1    2    0    0 -2.5206532884e+01 +2.0593033507e+01 -2.2136576518e+01 9.9321305333e+01 9.1188000000e+01 0.0000e+00 0.0000e+00
       25  1    1    2    0    0 +2.5206532884e+01 -2.0593033507e+01 +3.5615000920e+01 1.3398832270e+02 1.2500000000e+02 0.0000e+00 0.0000e+00
</event>
<event>
 4      1 +2.1368000e-01 2.49575300e+02 7.54677100e-03 1.11357300e-01
      -11 -1    0    0    0    0 +0.0000000000e+00 +0.0000000000e+00 +1.2498340534e+02 1.2498340534e+02 0.0000000000e+00 0.0000e+00 -1.0000e+00
       11 -1    0    0    0    0 -0.0000000000e+00 -0.0000000000e+00 -1.2459222913e+02 1.2459222913e+02 0.0000000000e+00 0.0000e+00 1.0000e+00
       23  1    1    2    0    0 -5.6477073787e+01 -1.6306054557e+01 -1.8820697728e+01 1.1011365622e+02 9.1188000000e+01 0.0000e+00 0.0000e+00
       25  1    1    2    0    0 +5.6477073787e+01 +1.6306054557e+01 +1.9211873933e+01 1.3946197825e+02 1.2500000000e+02 0.0000e+00 0.0000e+00
</event>
<event>
 4      1 +2.1368000e-01 2.47500800e+02 7.54677100e-03 1.11489500e-01
      -11 -1    0    0    0    0 +0.0000000000e+00 +0.0000000000e+00 +1.2498752149e+02 1.2498752149e+02 0.0000000000e+00 0.0000e+00 1.0000e+00
       11 -1    0    0    0    0 -0.0000000000e+00 -0.0000000000e+00 -1.2252547757e+02 1.2252547757e+02 0.0000000000e+00 0.0000e+00 -1.0000e+00
       23  1    1    2    0    0 -5.8168699369e+01 +3.5264754905e+00 -1.1803112083e+01 1.0886045386e+02 9.1188000000e+01 0.0000e+00 1.0000e+00
       25  1    1    2    0    0 +5.8168699369e+01 -3.5264754905e+00 +1.4265156000e+01 1.3865254520e+02 1.2500000000e+02 0.0000e+00 0.0000e+00
</event>
<event>
 4      1 +2.1368000e-01 2.49241600e+02 7.54677100e-03 1.11378500e-01
      -11 -1    0    0    0    0 +0.0000000000e+00 +0.0000000000e+00 +1.2425498299e+02 1.2425498299e+02 0.0000000000e+00 0.0000e+00 1.0000e+00
       11 -1    0    0    0    0 -0.0000000000e+00 -0.0000000000e+00 -1.2498767174e+02 1.2498767174e+02 0.0000000000e+00 0.0000e+00 -1.0000e+00
       23  1    1    2    0    0 -5.9158940448e+01 +1.4176482663e+01 +8.3078409412e+00 1.0993190829e+02 9.1188000000e+01 0.0000e+00 0.0000e+00
       25  1    1    2    0    0 +5.9158940448e+01 -1.4176482663e+01 -9.0405296876e+00 1.3931074644e+02 1.2500000000e+02 0.0000e+00 0.0000e+00
</event>
<event>
 4      1 +2.1368000e-01 2.49569600e+02 7.54677100e-03 1.11357700e-01
      -11 -1    0    0    0    0 +0.0000000000e+00 +0.0000000000e+00 +1.2458242542e+02 1.2458242542e+02 0.0000000000e+00 0.0000e+00 1.0000e+00
       11 -1    0    0    0    0 -0.0000000000e+00 -0.0000000000e+00 -1.2498750085e+02 1.2498750085e+02 0.0000000000e+00 0.0000e+00 -1.0000e+00
       23  1    1    2    0    0 +4.6820553276e+01 -2.7999822200e+01 -2.9151786686e+01 1.1018725999e+02 9.1188000000e+01 0.0000e+00 0.0000e+00
       25  1    1    2    0    0 -4.6820553276e+01 +2.7999822200e+01 +2.8746711259e+01 1.3938266628e+02 1.2500000000e+02 0.0000e+00 0.0000e+00
</event>
<event>
 4      1 +2.1368000e-01 2.49975000e+02 7.54677100e-03 1.11332100e-01
      -11 -1    0    0    0    0 +0.0000000000e+00 +0.0000000000e+00 +1.2498837067e+02 1.2498837067e+02 0.0000000000e+00 0.0000e+00 1.0000e+00
       11 -1    0    0    0    0 -0.0000000000e+00 -0.0000000000e+00 -1.2498662933e+02 1.2498662933e+02 0.0000000000e+00 0.0000e+00 -1.0000e+00
       23  1    1    2    0    0 +2.3073113020e+01 -5.0657671396e+01 +2.7694698151e+01 1.1036673351e+02 9.1188000000e+01 0.0000e+00 1.0000e+00
       25  1    1    2    0    0 -2.3073113020e+01 +5.0657671396e+01 -2.7692956808e+01 1.3960826649e+02 1.2500000000e+02 0.0000e+00 0.0000e+00
</event>
<event>
 4      1 +2.1368000e-01 2.31662700e+02 7.54677100e-03 1.12547500e-01
      -11 -1    0    0    0    0 +0.0000000000e+00 +0.0000000000e+00 +1.2498768289e+02 1.2498768289e+02 0.0000000000e+00 0.0000e+00 1.0000e+00
       11 -1    0    0    0    0 -0.0000000000e+00 -0.0000000000e+00 -1.0734578038e+02 1.0734578038e+02 0.0000000000e+00 0.0000e+00 -1.0000e+00
       23  1    1    2    0    0 +1.8072871676e+01 -1.3178968923e+01 -2.7054661743e+01 9.7711411711e+01 9.1188000000e+01 0.0000e+00 0.0000e+00
       25  1    1    2    0    0 -1.8072871676e+01 +1.3178968923e+01 +4.4696564253e+01 1.3462205157e+02 1.2500000000e+02 0.0000e+00 0.0000e+00
</event>
<event>
 4      1 +2.1368000e-01 2.49967900e+02 7.54677100e-03 1.11332500e-01
      -11 -1    0    0    0    0 +0.0000000000e+00 +0.0000000000e+00 +1.2498047951e+02 1.2498047951e+02 0.0000000000e+00 0.0000e+00 -1.0000e+00
       11 -1    0    0    0    0 -0.0000000000e+00 -0.0000000000e+00 -1.2498744474e+02 1.2498744474e+02 0.0000000000e+00 0.0000e+00 1.0000e+00
       23  1    1    2    0    0 -1.2814719968e+01 -5.7387273513e+01 +2.0174473023e+01 1.1036202660e+02 9.1188000000e+01 0.0000e+00 0.0000e+00
       25  1    1    2    0    0 +1.2814719968e+01 +5.7387273513e+01 -2.0181438246e+01 1.3960589765e+02 1.2500000000e+02 0.0000e+00 0.0000e+00
</event>
<event>
 4      1 +2.1368000e-01 2.49951600e+02 7.54677100e-03 1.11333500e-01
      -11 -1    0    0    0    0 +0.0000000000e+00 +0.0000000000e+00 +1.2497490734e+02 1.2497490734e+02 0.0000000000e+00 0.0000e+00 1.0000e+00
       11 -1    0    0    0    0 -0.0000000000e+00 -0.0000000000e+00 -1.2497664852e+02 1.2497664852e+02 0.0000000000e+00 0.0000e+00 -1.0000e+00
       23  1    1    2    0    0 +5.1092047051e-01 +5.7466278120e+01 -2.3665041232e+01 1.1035361200e+02 9.1188000000e+01 0.0000e+00 -1.0000e+00
       25  1    1    2    0    0 -5.1092047051e-01 -5.7466278120e+01 +2.3663300053e+01 1.3959794386e+02 1.2500000000e+02 0.0000e+00 0.0000e+00
</event>
<event>
 4      1 +2.1368000e-01 2.49972400e+02 7.54677100e-03 1.11332200e-01
      -11 -1    0    0    0    0 +0.0000000000e+00 +0.0000000000e+00 +1.2498534962e+02 1.2498534962e+02 0.0000000000e+00 0.0000e+00 1.0000e+00
       11 -1    0    0    0    0 -0.0000000000e+00 -0.0000000000e+00 -1.2498709094e+02 1.2498709094e+02 0.0000000000e+00 0.0000e+00 -1.0000e+00
       23  1    1    2    0    0 +1.6973699480e+01 +3.6624033030e+01 -4.7284805750e+01 1.1036544055e+02 9.1188000000e+01 0.0000e+00 -1.0000e+00
       25  1    1    2    0    0 -1.6973699480e+01 -3.6624033030e+01 +4.7283064425e+01 1.3960700001e+02 1.2500000000e+02 0.0000e+00 0.0000e+00
</event>
<event>
 4      1 +2.1368000e-01 2.49975000e+02 7.54677100e-03 1.11332100e-01
      -11 -1    0    0    0    0 +0.0000000000e+00 +0.0000000000e+00 +1.2498749850e+02 1.2498749850e+02 0.0000000000e+00 0.0000e+00 1.0000e+00
       11 -1    0    0    0    0 -0.0000000000e+00 -0.0000000000e+00 -1.2498749850e+02 1.2498749850e+02 0.0000000000e+00 0.0000e+00 -1.0000e+00
       23  1    1    2    0    0 -2.0635901876e+01 +5.8324723955e+01 +6.1569227472e+00 1.1036653892e+02 9.1188000000e+01 0.0000e+00 1.0000e+00
       25  1    1    2    0    0 +2.0635901876e+01 -5.8324723955e+01 -6.1569227472e+00 1.3960845808e+02 1.2500000000e+02 0.0000e+00 0.0000e+00
</event>
<event>
 4      1 +2.1368000e-01 2.45979900e+02 7.54677100e-03 1.11587200e-01
      -11 -1    0    0    0    0 +0.0000000000e+00 +0.0000000000e+00 +1.2102504890e+02 1.2102504890e+02 0.0000000000e+00 0.0000e+00 -1.0000e+00
       11 -1    0    0    0    0 -0.0000000000e+00 -0.0000000000e+00 -1.2498670675e+02 1.2498670675e+02 0.0000000000e+00 0.0000e+00 1.0000e+00
       23  1    1    2    0    0 +1.5508909264e+01 +5.4545779883e+01 +1.0964499328e+01 1.0794090957e+02 9.1188000000e+01 0.0000e+00 0.0000e+00
       25  1    1    2    0    0 -1.5508909264e+01 -5.4545779883e+01 -1.4926157177e+01 1.3807084608e+02 1.2500000000e+02 0.0000e+00 0.0000e+00
</event>
<event>
 4      1 +2.1368000e-01 2.48317000e+02 7.54677100e-03 1.11437300e-01
      -11 -1    0    0    0    0 +0.0000000000e+00 +0.0000000000e+00 +1.2386391484e+02 1.2386391484e+02 0.0000000000e+00 0.0000e+00 1.0000e+00
       11 -1    0    0    0    0 -0.0000000000e+00 -0.0000000000e+00 -1.2445377596e+02 1.2445377596e+02 0.0000000000e+00 0.0000e+00 -1.0000e+00
       23  1    1    2    0    0 +5.1949408195e+01 -2.9859065548e+01 +8.1980777169e+00 1.0942012900e+02 9.1188000000e+01 0.0000e+00 0.0000e+00
       25  1    1    2    0    0 -5.1949408195e+01 +2.9859065548e+01 -8.7879388314e+00 1.3889756181e+02 1.2500000000e+02 0.0000e+00 0.0000e+00
</event>
<event>
 4      1 +2.1368000e-01 2.48824100e+02 7.54677100e-03 1.11405000e-01
      -11 -1    0    0    0    0 +0.0000000000e+00 +0.0000000000e+00 +1.2383964317e+02 1.2383964317e+02 0.0000000000e+00 0.0000e+00 1.0000e+00
       11 -1    0    0    0    0 -0.0000000000e+00 -0.0000000000e+00 -1.2498710900e+02 1.2498710900e+02 0.0000000000e+00 0.0000e+00 -1.0000e+00
       23  1    1    2    0    0 -4.0698515020e+01 +4.5264301579e+01 +3.8255336795e+00 1.0970465885e+02 9.1188000000e+01 0.0000e+00 -1.0000e+00
       25  1    1    2    0    0 +4.0698515020e+01 -4.5264301579e+01 -4.9729995107e+00 1.3912209331e+02 1.2500000000e+02 0.0000e+00 0.0000e+00
</event>
<event>
 4      1 +2.1368000e-01 2.21488300e+02 7.54677100e-03 1.13277800e-01
      -11 -1    0    0    0    0 +0.0000000000e+00 +0.0000000000e+00 +1.2498671349e+02 1.2498671349e+02 0.0000000000e+00 0.0000e+00 1.0000e+00
       11 -1    0    0    0    0 -0.0000000000e+00 -0.0000000000e+00 -9.8124606734e+01 9.8124606734e+01 0.0000000000e+00 0.0000e+00 -1.0000e+00
       23  1    1    2    0    0 -2.7070678056e+00 +8.6146473497e+00 +3.3611635621e+01 9.7603963844e+01 9.1188000000e+01 0.0000e+00 1.0000e+00
       25  1    1    2    0    0 +2.7070678056e+00 -8.6146473497e+00 -6.7495288665e+00 1.2550735638e+02 1.2500000000e+02 0.0000e+00 0.0000e+00
</event>
<event>
 4      1 +2.1368000e-01 2.49975000e+02 7.54677100e-03 1.11332100e-01
      -11 -1    0    0    0    0 +0.0000000000e+00 +0.0000000000e+00 +1.2498837058e+02 1.2498837058e+02 0.0000000000e+00 0.0000e+00 1.0000e+00
       11 -1    0    0    0    0 -0.0000000000e+00 -0.0000000000e+00 -1.2498662924e+02 1.2498662924e+02 0.0000000000e+00 0.0000e+00 -1.0000e+00
       23  1    1    2    0    0 +1.4919857609e+01 +4.3818418815e+01 +4.1508189074e+01 1.1036682963e+02 9.1188000000e+01 0.0000e+00 1.0000e+00
       25  1    1    2    0    0 -1.4919857609e+01 -4.3818418815e+01 -4.1506447731e+01 1.3960817018e+02 1.2500000000e+02 0.0000e+00 0.0000e+00
</event>
<event>
 4      1 +2.1368000e-01 2.49975000e+02 7.54677100e-03 1.11332100e-01
      -11 -1    0    0    0    0 +0.0000000000e+00 +0.0000000000e+00 +1.2498750000e+02 1.2498750000e+02 0.0000000000e+00 0.0000e+00 1.0000e+00
       11 -1    0    0    0    0 -0.0000000000e+00 -0.0000000000e+00 -1.2498750000e+02 1.2498750000e+02 0.0000000000e+00 0.0000e+00 -1.0000e+00
       23  1    1    2    0    0 +4.9326372537e-01 +5.0826885529e+01 -3.5803719591e+01 1.1036654059e+02 9.1188000000e+01 0.0000e+00 -1.0000e+00
       25  1    1    2    0    0 -4.9326372537e-01 -5.0826885529e+01 +3.5803719591e+01 1.3960845941e+02 1.2500000000e+02 0.0000e+00 0.0000e+00
</event>
<event>
 4      1 +2.1368000e-01 2.49974900e+02 7.54677100e-03 1.11332100e-01
      -11 -1    0    0    0    0 +0.0000000000e+00 +0.0000000000e+00 +1.2498747401e+02 1.2498747401e+02 0.0000000000e+00 0.0000e+00 1.0000e+00
       11 -1    0    0    0    0 -0.0000000000e+00 -0.0000000000e+00 -1.2498747401e+02 1.2498747401e+02 0.0000000000e+00 0.0000e+00 -1.0000e+00
       23  1    1    2    0    0 +2.1930611795e+01 +2.1243865557e+01 +5.4159597237e+01 1.1036651156e+02 9.1188000000e+01 0.0000e+00 0.0000e+00
       25  1    1    2    0    0 -2.1930611795e+01 -2.1243865557e+01 -5.4159597237e+01 1.3960843646e+02 1.2500000000e+02 0.0000e+00 0.0000e+00
</event>
<event>
 4      1 +2.1368000e-01 2.49962000e+02 7.54677100e-03 1.11332900e-01
      -11 -1    0    0    0    0 +0.0000000000e+00 +0.0000000000e+00 +1.2497488846e+02 1.2497488846e+02 0.0000000000e+00 0.0000e+00 -1.0000e+00
       11 -1    0    0    0    0 -0.0000000000e+00 -0.0000000000e+00 -1.2498707722e+02 1.2498707722e+02 0.0000000000e+00 0.0000e+00 1.0000e+00
       23  1    1    2    0    0 +4.8528090426e+01 +3.6078954621e+01 +1.4390749550e+01 1.1035855900e+02 9.1188000000e+01 0.0000e+00 0.0000e+00
       25  1    1    2    0    0 -4.8528090426e+01 -3.6078954621e+01 -1.4402938315e+01 1.3960340669e+02 1.2500000000e+02 0.0000e+00 0.0000e+00
</event>
<event>
 4      1 +2.1368000e-01 2.47741100e+02 7.54677100e-03 1.11474100e-01
      -11 -1    0    0    0    0 +0.0000000000e+00 +0.0000000000e+00 +1.2276414259e+02 1.2276414259e+02 0.0000000000e+00 0.0000e+00 1.0000e+00
       11 -1    0    0    0    0 -0.0000000000e+00 -0.0000000000e+00 -1.2498696140e+02 1.2498696140e+02 0.0000000000e+00 0.0000e+00 -1.0000e+00
       23  1    1    2    0    0 -2.8842786939e+01 -4.9132289330e+01 +1.7610634116e+01 1.0895537615e+02 9.1188000000e+01 0.0000e+00 0.0000e+00
       25  1    1    2    0    0 +2.8842786939e+01 +4.9132289330e+01 -1.9833452920e+01 1.3879572784e+02 1.2500000000e+02 0.0000e+00 0.0000e+00
</event>
<event>
 4      1 +2.1368000e-01 2.49975000e+02 7.54677100e-03 1.11332100e-01
      -11 -1    0    0    0    0 +0.0000000000e+00 +0.0000000000e+00 +1.2498750000e+02 1.2498750000e+02 0.0000000000e+00 0.0000e+00 -1.0000e+00
       11 -1    0    0    0    0 -0.0000000000e+00 -0.0000000000e+00 -1.2498750000e+02 1.2498750000e+02 0.0000000000e+00 0.0000e+00 1.0000e+00
       23  1    1    2    0    0 -2.8727282085e+01 -4.9687908407e+01 +2.3903492641e+01 1.1036654059e+02 9.1188000000e+01 0.0000e+00 0.0000e+00
       25  1    1    2    0    0 +2.8727282085e+01 +4.9687908407e+01 -2.3903492641e+01 1.3960845941e+02 1.2500000000e+02 0.0000e+00 0.0000e+00
</event>
<event>
 4      1 +2.1368000e-01 2.49974000e+02 7.54677100e-03 1.11332100e-01
      -11 -1    0    0    0    0 +0.0000000000e+00 +0.0000000000e+00 +1.2498701525e+02 1.2498701525e+02 0.0000000000e+00 0.0000e+00 1.0000e+00
       11 -1    0    0    0    0 -0.0000000000e+00 -0.0000000000e+00 -1.2498701525e+02 1.2498701525e+02 0.0000000000e+00 0.0000e+00 -1.0000e+00
       23  1    1    2    0    0 +5.1940037671e+01 -2.5320342380e+01 -2.2945918349e+01 1.1036599913e+02 9.1188000000e+01 0.0000e+00 0.0000e+00
       25  1    1    2    0    0 -5.1940037671e+01 +2.5320342380e+01 +2.2945918349e+01 1.3960803136e+02 1.2500000000e+02 0.0000e+00 0.0000e+00
</event>
<event>
 4      1 +2.1368000e-01 2.47213100e+02 7.54677100e-03 1.11507900e-01
      -11 -1    0    0    0    0 +0.0000000000e+00 +0.0000000000e+00 +1.2318189994e+02 1.2318189994e+02 0.0000000000e+00 0.0000e+00 -1.0000e+00
       11 -1    0    0    0    0 -0.0000000000e+00 -0.0000000000e+00 -1.2403261794e+02 1.2403261794e+02 0.0000000000e+00 0.0000e+00 1.0000e+00
       23  1    1    2    0    0 +4.8768316474e+00 +3.5826329130e+01 -4.7488605991e+01 1.0898499158e+02 9.1188000000e+01 0.0000e+00 0.0000e+00
       25  1    1    2    0    0 -4.8768316474e+00 -3.5826329130e+01 +4.6637887991e+01 1.3822952630e+02 1.2500000000e+02 0.0000e+00 0.0000e+00
</event>
<event>
 4      1 +2.1368000e-01 2.49974300e+02 7.54677100e-03 1.11332100e-01
      -11 -1    0    0    0    0 +0.0000000000e+00 +0.0000000000e+00 +1.2498888874e+02 1.2498888874e+02 0.0000000000e+00 0.0000e+00 1.0000e+00
       11 -1    0    0    0    0 -0.0000000000e+00 -0.0000000000e+00 -1.2498540604e+02 1.2498540604e+02 0.0000000000e+00 0.0000e+00 -1.0000e+00
       23  1    1    2    0    0 +3.3082907019e+01 -5.2402701602e+01 +4.9928427341e+00 1.1036621627e+02 9.1188000000e+01 0.0000e+00 0.0000e+00
       25  1    1    2    0    0 -3.3082907019e+01 +5.2402701602e+01 -4.9893600339e+00 1.3960807851e+02 1.2500000000e+02 0.0000e+00 0.0000e+00
</event>
<event>
 4      1 +2.1368000e-01 2.46355100e+02 7.54677100e-03 1.11563000e-01
      -11 -1    0    0    0    0 +0.0000000000e+00 +0.0000000000e+00 +1.2498743547e+02 1.2498743547e+02 0.0000000000e+00 0.0000e+00 1.0000e+00
       11 -1    0    0    0    0 -0.0000000000e+00 -0.0000000000e+00 -1.2139383541e+02 1.2139383541e+02 0.0000000000e+00 0.0000e+00 -1.0000e+00
       23  1    1    2    0    0 +3.0655108091e+01 +3.7240696308e+01 +3.4690924565e+01 1.0883619207e+02 9.1188000000e+01 0.0000e+00 0.0000e+00
       25  1    1    2    0    0 -3.0655108091e+01 -3.7240696308e+01 -3.1097324495e+01 1.3754507881e+02 1.2500000000e+02 0.0000e+00 0.0000e+00
</event>
<event>
 4      1 +2.1368000e-01 2.49974200e+02 7.54677100e-03 1.11332100e-01
      -11 -1    0    0    0    0 +0.0000000000e+00 +0.0000000000e+00 +1.2498882143e+02 1.2498882143e+02 0.0000000000e+00 0.0000e+00 -1.0000e+00
       11 -1    0    0    0    0 -0.0000000000e+00 -0.0000000000e+00 -1.2498533873e+02 1.2498533873e+02 0.0000000000e+00 0.0000e+00 1.0000e+00
       23  1    1    2    0    0 -4.5488392606e+01 -2.6583993352e+01 -3.3006277167e+01 1.1036561168e+02 9.1188000000e+01 0.0000e+00 0.0000e+00
       25  1    1    2    0    0 +4.5488392606e+01 +2.6583993352e+01 +3.3009759865e+01 1.3960854849e+02 1.2500000000e+02 0.0000e+00 0.0000e+00
</event>
<event>
 4      1 +2.1368000e-01 2.48477400e+02 7.54677100e-03 1.11427100e-01
      -11 -1    0    0    0    0 +0.0000000000e+00 +0.0000000000e+00 +1.2497302801e+02 1.2497302801e+02 0.0000000000e+00 0.0000e+00 1.0000e+00
       11 -1    0    0    0    0 -0.0000000000e+00 -0.0000000000e+00 -1.2350866261e+02 1.2350866261e+02 0.0000000000e+00 0.0000e+00 -1.0000e+00
       23  1    1    2    0    0 -3.0041068272e+01 -5.0289705636e+01 -1.5164987236e+01 1.0943833176e+02 9.1188000000e+01 0.0000e+00 0.0000e+00
       25  1    1    2    0    0 +3.0041068272e+01 +5.0289705636e+01 +1.6629352634e+01 1.3904335887e+02 1.2500000000e+02 0.0000e+00 0.0000e+00
</event>
<event>
 4      1 +2.1368000e-01 2.38071000e+02 7.54677100e-03 1.12108500e-01
      -11 -1    0    0    0    0 +0.0000000000e+00 +0.0000000000e+00 +1.1336768596e+02 1.1336768596e+02 0.0000000000e+00 0.0000e+00 -1.0000e+00
       11 -1    0    0    0    0 -0.0000000000e+00 -0.0000000000e+00 -1.2498672116e+02 1.2498672116e+02 0.0000000000e+00 0.0000e+00 1.0000e+00
       23  1    1    2    0    0 -3.9355361716e+01 -5.1458226794e+00 -3.4415642524e+01 1.0523788187e+02 9.1188000000e+01 0.0000e+00 1.0000e+00
       25  1    1    2    0    0 +3.9355361716e+01 +5.1458226794e+00 +2.2796607329e+01 1.3311652524e+02 1.2500000000e+02 0.0000e+00 0.0000e+00
</event>
<event>
 4      1 +2.1368000e-01 2.47087600e+02 7.54677100e-03 1.11515900e-01
      -11 -1    0    0    0    0 +0.0000000000e+00 +0.0000000000e+00 +1.2211747363e+02 1.2211747363e+02 0.0000000000e+00 0.0000e+00 -1.0000e+00
       11 -1    0    0    0    0 -0.0000000000e+00 -0.0000000000e+00 -1.2498679620e+02 1.2498679620e+02 0.0000000000e+00 0.0000e+00 1.0000e+00
       23  1    1    2    0    0 -3.9982733425e+01 -3.4686613113e+01 +2.5384052499e+01 1.0844990349e+02 9.1188000000e+01 0.0000e+00 -1.0000e+00
       25  1    1    2    0    0 +3.9982733425e+01 +3.4686613113e+01 -2.8253375071e+01 1.3865436634e+02 1.2500000000e+02 0.0000e+00 0.0000e+00
</event>
<event>
 4      1 +2.1368000e-01 2.34924000e+02 7.54677100e-03 1.12322100e-01
      -11 -1    0    0    0    0 +0.0000000000e+00 +0.0000000000e+00 +1.1389468026e+02 1.1389468026e+02 0.0000000000e+00 0.0000e+00 -1.0000e+00
       11 -1    0    0    0    0 -0.0000000000e+00 -0.0000000000e+00 -1.2114105071e+02 1.2114105071e+02 0.0000000000e+00 0.0000e+00 1.0000e+00
       23  1    1    2    0    0 +9.7572270888e+00 -4.2559763321e+01 -1.5904768250e+01 1.0234622578e+02 9.1188000000e+01 0.0000e+00 0.0000e+00
       25  1    1    2    0    0 -9.7572270888e+00 +4.2559763321e+01 +8.6583978005e+00 1.3268950519e+02 1.2500000000e+02 0.0000e+00 0.0000e+00
</event>
<event>
 4      1 +2.1368000e-01 2.49971200e+02 7.54677100e-03 1.11332300e-01
      -11 -1    0    0    0    0 +0.0000000000e+00 +0.0000000000e+00 +1.2498819316e+02 1.2498819316e+02 0.0000000000e+00 0.0000e+00 1.0000e+00
       11 -1    0    0    0    0 -0.0000000000e+00 -0.0000000000e+00 -1.2498296921e+02 1.2498296921e+02 0.0000000000e+00 0.0000e+00 -1.0000e+00
       23  1    1    2    0    0 +2.1898398865e+01 -5.2687914456e+01 +2.4690211148e+01 1.1036491323e+02 9.1188000000e+01 0.0000e+00 1.0000e+00
       25  1    1    2    0    0 -2.1898398865e+01 +5.2687914456e+01 -2.4684987199e+01 1.3960624913e+02 1.2500000000e+02 0.0000e+00 0.0000e+00
</event>
<event>
 4      1 +2.1368000e-01 2.40492100e+02 7.54677100e-03 1.11946500e-01
      -11 -1    0    0    0    0 +0.0000000000e+00 +0.0000000000e+00 +1.1568452424e+02 1.1568452424e+02 0.0000000000e+00 0.0000e+00 1.0000e+00
       11 -1    0    0    0    0 -0.0000000000e+00 -0.0000000000e+00 -1.2498740046e+02 1.2498740046e+02 0.0000000000e+00 0.0000e+00 -1.0000e+00
       23  1    1    2    0    0 -1.9349803895e+01 -1.0309326844e+01 +4.3292532529e+01 1.0329662070e+02 9.1188000000e+01 0.0000e+00 1.0000e+00
       25  1    1    2    0    0 +1.9349803895e+01 +1.0309326844e+01 -5.2595408750e+01 1.3737530401e+02 1.2500000000e+02 0.0000e+00 0.0000e+00
</event>
<event>
 4      1 +2.1368000e-01 2.49975000e+02 7.54677100e-03 1.11332100e-01
      -11 -1    0    0    0    0 +0.0000000000e+00 +0.0000000000e+00 +1.2498837067e+02 1.2498837067e+02 0.0000000000e+00 0.0000e+00 1.0000e+00
       11 -1    0    0    0    0 -0.0000000000e+00 -0.0000000000e+00 -1.2498662933e+02 1.2498662933e+02 0.0000000000e+00 0.0000e+00 -1.0000e+00
       23  1    1    2    0    0 -3.0878834450e+01 -4.2431266654e+01 -3.3340003984e+01 1.1036630834e+02 9.1188000000e+01 0.0000e+00 -1.0000e+00
       25  1    1    2    0    0 +3.0878834450e+01 +4.2431266654e+01 +3.3341745327e+01 1.3960869166e+02 1.2500000000e+02 0.0000e+00 0.0000e+00
</event>
<event>
 4      1 +2.1368000e-01 2.44962200e+02 7.54677100e-03 1.11653100e-01
      -11 -1    0    0    0    0 +0.0000000000e+00 +0.0000000000e+00 +1.2002506118e+02 1.2002506118e+02 0.0000000000e+00 0.0000e+00 1.0000e+00
       11 -1    0    0    0    0 -0.0000000000e+00 -0.0000000000e+00 -1.2498739053e+02 1.2498739053e+02 0.0000000000e+00 0.0000e+00 -1.0000e+00
       23  1    1    2    0    0 +4.4601344012e+01 -3.5449617847e+01 -5.0342036682e+00 1.0764083725e+02 9.1188000000e+01 0.0000e+00 0.0000e+00
       25  1    1    2    0    0 -4.4601344012e+01 +3.5449617847e+01 +7.1874324034e-02 1.3737161446e+02 1.2500000000e+02 0.0000e+00 0.0000e+00
</event>
<event>
 4      1 +2.1368000e-01 2.49963800e+02 7.54677100e-03 1.11332800e-01
      -11 -1    0    0    0    0 +0.0000000000e+00 +0.0000000000e+00 +1.2498276455e+02 1.2498276455e+02 0.0000000000e+00 0.0000e+00 -1.0000e+00
       11 -1    0    0    0    0 -0.0000000000e+00 -0.0000000000e+00 -1.2498102328e+02 1.2498102328e+02 0.0000000000e+00 0.0000e+00 1.0000e+00
       23  1    1    2    0    0 -4.9969606969e+01 +6.8632752833e-02 +3.6976077223e+01 1.1036053625e+02 9.1188000000e+01 0.0000e+00 -1.0000e+00
       25  1    1    2    0    0 +4.9969606969e+01 -6.8632752833e-02 -3.6974335958e+01 1.3960325158e+02 1.2500000000e+02 0.0000e+00 0.0000e+00
</event>
<event>
 4      1 +2.1368000e-01 2.49969600e+02 7.54677100e-03 1.11332400e-01
      -11 -1    0    0    0    0 +0.0000000000e+00 +0.0000000000e+00 +1.2498305039e+02 1.2498305039e+02 0.0000000000e+00 0.0000e+00 -1.0000e+00
       11 -1    0    0    0    0 -0.0000000000e+00 -0.0000000000e+00 -1.2498653302e+02 1.2498653302e+02 0.0000000000e+00 0.0000e+00 1.0000e+00
       23  1    1    2    0    0 +5.3601822537e+01 +1.6328411543e+01 -2.6928880566e+01 1.1036389063e+02 9.1188000000e+01 0.0000e+00 -1.0000e+00
       25  1    1    2    0    0 -5.3601822537e+01 -1.6328411543e+01 +2.6925397932e+01 1.3960569278e+02 1.2500000000e+02 0.0000e+00 0.0000e+00
</event>
<event>
 4      1 +2.1368000e-01 2.48707100e+02 7.54677100e-03 1.11412500e-01
      -11 -1    0    0    0    0 +0.0000000000e+00 +0.0000000000e+00 +1.2498837828e+02 1.2498837828e+02 0.0000000000e+00 0.0000e+00 -1.0000e+00
       11 -1    0    0    0    0 -0.0000000000e+00 -0.0000000000e+00 -1.2372190561e+02 1.2372190561e+02 0.0000000000e+00 0.0000e+00 1.0000e+00
       23  1    1    2    0    0 +2.8896686860e+01 +2.4031283982e+01 +4.8487213253e+01 1.0990351366e+02 9.1188000000e+01 0.0000e+00 -1.0000e+00
       25  1    1    2    0    0 -2.8896686860e+01 -2.4031283982e+01 -4.7220740584e+01 1.3880677023e+02 1.2500000000e+02 0.0000e+00 0.0000e+00
</event>
<event>
 4      1 +2.1368000e-01 2.49974600e+02 7.54677100e-03 1.11332100e-01
      -11 -1    0    0    0    0 +0.0000000000e+00 +0.0000000000e+00 +1.2498729008e+02 1.2498729008e+02 0.0000000000e+00 0.0000e+00 1.0000e+00
       11 -1    0    0    0    0 -0.0000000000e+00 -0.0000000000e+00 -1.2498729008e+02 1.2498729008e+02 0.0000000000e+00 0.0000e+00 -1.0000e+00
       23  1    1    2    0    0 +9.9408677620e+00 +4.8676610775e+01 -3.7379632062e+01 1.1036630612e+02 9.1188000000e+01 0.0000e+00 -1.0000e+00
       25  1    1    2    0    0 -9.9408677620e+00 -4.8676610775e+01 +3.7379632062e+01 1.3960827404e+02 1.2500000000e+02 0.0000e+00 0.0000e+00
</event>
<event>
 4      1 +2.1368000e-01 2.49527100e+02 7.54677100e-03 1.11360400e-01
      -11 -1    0    0    0    0 +0.0000000000e+00 +0.0000000000e+00 +1.2464281122e+02 1.2464281122e+02 0.0000000000e+00 0.0000e+00 -1.0000e+00
       11 -1    0    0    0    0 -0.0000000000e+00 -0.0000000000e+00 -1.2488442432e+02 1.2488442432e+02 0.0000000000e+00 0.0000e+00 1.0000e+00
       23  1    1    2    0    0 -5.0581602504e+01 +8.4261654641e+00 +3.4257062388e+01 1.1008313424e+02 9.1188000000e+01 0.0000e+00 0.0000e+00
       25  1    1    2    0    0 +5.0581602504e+01 -8.4261654641e+00 -3.4498675491e+01 1.3944410130e+02 1.2500000000e+02 0.0000e+00 0.0000e+00
</event>
<event>
 4      1 +2.1368000e-01 2.49610700e+02 7.54677100e-03 1.11355100e-01
      -11 -1    0    0    0    0 +0.0000000000e+00 +0.0000000000e+00 +1.2498371365e+02 1.2498371365e+02 0.0000000000e+00 0.0000e+00 -1.0000e+00
       11 -1    0    0    0    0 -0.0000000000e+00 -0.0000000000e+00 -1.2462725820e+02 1.2462725820e+02 0.0000000000e+00 0.0000e+00 1.0000e+00
       23  1    1    2    0    0 +6.1544705762e+01 -1.1512975442e+00 -5.4616251452e+00 1.1015514961e+02 9.1188000000e+01 0.0000e+00 -1.0000e+00
       25  1    1    2    0    0 -6.1544705762e+01 +1.1512975442e+00 +5.8180805953e+00 1.3945582223e+02 1.2500000000e+02 0.0000e+00 0.0000e+00
</event>
<event>
 4      1 +2.1368000e-01 2.49973500e+02 7.54677100e-03 1.11332200e-01
      -11 -1    0    0    0    0 +0.0000000000e+00 +0.0000000000e+00 +1.2498675129e+02 1.2498675129e+02 0.0000000000e+00 0.0000e+00 1.0000e+00
       11 -1    0    0    0    0 -0.0000000000e+00 -0.0000000000e+00 -1.2498675129e+02 1.2498675129e+02 0.0000000000e+00 0.0000e+00 -1.0000e+00
       23  1    1    2    0    0 +5.1009238134e+01 -3.5099460285e+01 -5.6056091241e+00 1.1036570430e+02 9.1188000000e+01 0.0000e+00 0.0000e+00
       25  1    1    2    0    0 -5.1009238134e+01 +3.5099460285e+01 +5.6056091241e+00 1.3960779828e+02 1.2500000000e+02 0.0000e+00 0.0000e+00
</event>
<event>
 4      1 +2.1368000e-01 2.49784200e+02 7.54677100e-03 1.11344100e-01
      -11 -1    0    0    0    0 +0.0000000000e+00 +0.0000000000e+00 +1.2498872422e+02 1.2498872422e+02 0.0000000000e+00 0.0000e+00 1.0000e+00
       11 -1    0    0    0    0 -0.0000000000e+00 -0.0000000000e+00 -1.2479558261e+02 1.2479558261e+02 0.0000000000e+00 0.0000e+00 -1.0000e+00
       23  1    1    2    0    0 +5.8310808144e+01 +1.1023631335e+01 -1.7812885368e+01 1.1024618371e+02 9.1188000000e+01 0.0000e+00 0.0000e+00
       25  1    1    2    0    0 -5.8310808144e+01 -1.1023631335e+01 +1.8006026982e+01 1.3953812311e+02 1.2500000000e+02 0.0000e+00 0.0000e+00
</event>
<event>
 4      1 +2.1368000e-01 2.49768800e+02 7.54677100e-03 1.11345100e-01
      -11 -1    0    0    0    0 +0.0000000000e+00 +0.0000000000e+00 +1.2478181093e+02 1.2478181093e+02 0.0000000000e+00 0.0000e+00 1.0000e+00
       11 -1    0    0    0    0 -0.0000000000e+00 -0.0000000000e+00 -1.2498712144e+02 1.2498712144e+02 0.0000000000e+00 0.0000e+00 -1.0000e+00
       23  1    1    2    0    0 -3.4539565121e+01 -3.9828836284e+01 +3.2479330544e+01 1.1022466156e+02 9.1188000000e+01 0.0000e+00 1.0000e+00
       25  1    1    2    0    0 +3.4539565121e+01 +3.9828836284e+01 -3.2684641052e+01 1.3954427082e+02 1.2500000000e+02 0.0000e+00 0.0000e+00
</event>
<event>
 4      1 +2.1368000e-01 2.49938600e+02 7.54677100e-03 1.11334400e-01
      -11 -1    0    0    0    0 +0.0000000000e+00 +0.0000000000e+00 +1.2495187407e+02 1.2495187407e+02 0.0000000000e+00 0.0000e+00 -1.0000e+00
       11 -1    0    0    0    0 -0.0000000000e+00 -0.0000000000e+00 -1.2498669609e+02 1.2498669609e+02 0.0000000000e+00 0.0000e+00 1.0000e+00
       23  1    1    2    0    0 +1.0605274101e+01 -1.7610325824e+01 -5.8653549570e+01 1.1035436392e+02 9.1188000000e+01 0.0000e+00 0.0000e+00
       25  1    1    2    0    0 -1.0605274101e+01 +1.7610325824e+01 +5.8618727544e+01 1.3958420625e+02 1.2500000000e+02 0.0000e+00 0.0000e+00
</event>
<event>
 4      1 +2.1368000e-01 2.49705500e+02 7.54677100e-03 1.11349100e-01
      -11 -1    0    0    0    0 +0.0000000000e+00 +0.0000000000e+00 +1.2498852438e+02 1.2498852438e+02 0.0000000000e+00 0.0000e+00 1.0000e+00
       11 -1    0    0    0    0 -0.0000000000e+00 -0.0000000000e+00 -1.2471716565e+02 1.2471716565e+02 0.0000000000e+00 0.0000e+00 -1.0000e+00
       23  1    1    2    0    0 +3.5685756278e+01 -1.4919464043e+00 -5.0443323898e+01 1.1016115184e+02 9.1188000000e+01 0.0000e+00 -1.0000e+00
       25  1    1    2    0    0 -3.5685756278e+01 +1.4919464043e+00 +5.0714682623e+01 1.3954453819e+02 1.2500000000e+02 0.0000e+00 0.0000e+00
</event>
<event>
 4      1 +2.1368000e-01 2.49975000e+02 7.54677100e-03 1.11332100e-01
      -11 -1    0    0    0    0 +0.0000000000e+00 +0.0000000000e+00 +1.2498836961e+02 1.2498836961e+02 0.0000000000e+00 0.0000e+00 -1.0000e+00
       11 -1    0    0    0    0 -0.0000000000e+00 -0.0000000000e+00 -1.2498662827e+02 1.2498662827e+02 0.0000000000e+00 0.0000e+00 1.0000e+00
       23  1    1    2    0    0 +1.4949272829e+01 +3.7740352256e+01 -4.7091764864e+01 1.1036621135e+02 9.1188000000e+01 0.0000e+00 1.0000e+00
       25  1    1    2    0    0 -1.4949272829e+01 -3.7740352256e+01 +4.7093506207e+01 1.3960878652e+02 1.2500000000e+02 0.0000e+00 0.0000e+00
</event>
<event>
 4      1 +2.1368000e-01 2.23941900e+02 7.54677100e-03 1.13097800e-01
      -11 -1    0    0    0    0 +0.0000000000e+00 +0.0000000000e+00 +1.0030913144e+02 1.0030913144e+02 0.0000000000e+00 0.0000e+00 1.0000e+00
       11 -1    0    0    0    0 -0.0000000000e+00 -0.0000000000e+00 -1.2498860981e+02 1.2498860981e+02 0.0000000000e+00 0.0000e+00 -1.0000e+00
       23  1    1    2    0    0 +6.8179175679e+00 +1.5679818086e+01 +1.2867650962e+01 9.3665193538e+01 9.1188000000e+01 0.0000e+00 1.0000e+00
       25  1    1    2    0    0 -6.8179175679e+00 -1.5679818086e+01 -3.7547129334e+01 1.3163254771e+02 1.2500000000e+02 0.0000e+00 0.0000e+00
</event>
<event>
 4      1 +2.1368000e-01 2.39817500e+02 7.54677100e-03 1.11991400e-01
      -11 -1    0    0    0    0 +0.0000000000e+00 +0.0000000000e+00 +1.2498868733e+02 1.2498868733e+02 0.0000000000e+00 0.0000e+00 -1.0000e+00
       11 -1    0    0    0    0 -0.0000000000e+00 -0.0000000000e+00 -1.1503529974e+02 1.1503529974e+02 0.0000000000e+00 0.0000e+00 1.0000e+00
       23  1    1    2    0    0 +4.7621663314e+01 -2.3465375214e+00 -1.4827510197e+01 1.0396362565e+02 9.1188000000e+01 0.0000e+00 1.0000e+00
       25  1    1    2    0    0 -4.7621663314e+01 +2.3465375214e+00 +2.4780897784e+01 1.3606036142e+02 1.2500000000e+02 0.0000e+00 0.0000e+00
</event>
<event>
 4      1 +2.1368000e-01 2.49971600e+02 7.54677100e-03 1.11332300e-01
      -11 -1    0    0    0    0 +0.0000000000e+00 +0.0000000000e+00 +1.2498665284e+02 1.2498665284e+02 0.0000000000e+00 0.0000e+00 1.0000e+00
       11 -1    0    0    0    0 -0.0000000000e+00 -0.0000000000e+00 -1.2498491152e+02 1.2498491152e+02 0.0000000000e+00 0.0000e+00 -1.0000e+00
       23  1    1    2    0    0 +1.4352846824e+01 +3.4383745963e+01 +4.9768752548e+01 1.1036496850e+02 9.1188000000e+01 0.0000e+00 1.0000e+00
       25  1    1    2    0    0 -1.4352846824e+01 -3.4383745963e+01 -4.9767011229e+01 1.3960659585e+02 1.2500000000e+02 0.0000e+00 0.0000e+00
</event>
<event>
 4      1 +2.1368000e-01 2.36681900e+02 7.54677100e-03 1.12202300e-01
      -11 -1    0    0    0    0 +0.0000000000e+00 +0.0000000000e+00 +1.1227887999e+02 1.1227887999e+02 0.0000000000e+00 0.0000e+00 1.0000e+00
       11 -1    0    0    0    0 -0.0000000000e+00 -0.0000000000e+00 -1.2473031249e+02 1.2473031249e+02 0.0000000000e+00 0.0000e+00 -1.0000e+00
       23  1    1    2    0    0 -1.9086440541e+01 -1.0011466336e+01 +3.7170667927e+01 1.0080392636e+02 9.1188000000e+01 0.0000e+00 1.0000e+00
       25  1    1    2    0    0 +1.9086440541e+01 +1.0011466336e+01 -4.9622100426e+01 1.3620526613e+02 1.2500000000e+02 0.0000e+00 0.0000e+00
</event>
<event>
 4      1 +2.1368000e-01 2.42739400e+02 7.54677100e-03 1.11798100e-01
      -11 -1    0    0    0    0 +0.0000000000e+00 +0.0000000000e+00 +1.1785587425e+02 1.1785587425e+02 0.0000000000e+00 0.0000e+00 1.0000e+00
       11 -1    0    0    0    0 -0.0000000000e+00 -0.0000000000e+00 -1.2498830384e+02 1.2498830384e+02 0.0000000000e+00 0.0000e+00 -1.0000e+00
       23  1    1    2    0    0 -4.0781689876e+01 -3.6336499687e+01 -5.0480072001e+00 1.0641532389e+02 9.1188000000e+01 0.0000e+00 -1.0000e+00
       25  1    1    2    0    0 +4.0781689876e+01 +3.6336499687e+01 -2.0844223900e+00 1.3642885419e+02 1.2500000000e+02 0.0000e+00 0.0000e+00
</event>
<event>
 4      1 +2.1368000e-01 2.49901600e+02 7.54677100e-03 1.11336700e-01
      -11 -1    0    0    0    0 +0.0000000000e+00 +0.0000000000e+00 +1.2498825246e+02 1.2498825246e+02 0.0000000000e+00 0.0000e+00 1.0000e+00
       11 -1    0    0    0    0 -0.0000000000e+00 -0.0000000000e+00 -1.2491339669e+02 1.2491339669e+02 0.0000000000e+00 0.0000e+00 -1.0000e+00
       23  1    1    2    0    0 +5.3341952301e+01 +1.1252787201e+01 +2.9773431320e+01 1.1033448079e+02 9.1188000000e+01 0.0000e+00 1.0000e+00
       25  1    1    2    0    0 -5.3341952301e+01 -1.1252787201e+01 -2.9698575546e+01 1.3956716836e+02 1.2500000000e+02 0.0000e+00 0.0000e+00
</event>
<event>
 4      1 +2.1368000e-01 2.49729500e+02 7.54677100e-03 1.11347600e-01
      -11 -1    0    0    0    0 +0.0000000000e+00 +0.0000000000e+00 +1.2492040942e+02 1.2492040942e+02 0.0000000000e+00 0.0000e+00 -1.0000e+00
       11 -1    0    0    0    0 -0.0000000000e+00 -0.0000000000e+00 -1.2480907293e+02 1.2480907293e+02 0.0000000000e+00 0.0000e+00 1.0000e+00
       23  1    1    2    0    0 +4.8115213082e+01 -1.3704252292e+00 +3.9014722589e+01 1.1024677645e+02 9.1188000000e+01 0.0000e+00 0.0000e+00
       25  1    1    2    0    0 -4.8115213082e+01 +1.3704252292e+00 -3.8903386101e+01 1.3948270590e+02 1.2500000000e+02 0.0000e+00 0.0000e+00
</event>
<event>
 4      1 +2.1368000e-01 2.49975000e+02 7.54677100e-03 1.11332100e-01
      -11 -1    0    0    0    0 +0.0000000000e+00 +0.0000000000e+00 +1.2498837067e+02 1.2498837067e+02 0.0000000000e+00 0.0000e+00 -1.0000e+00
       11 -1    0    0    0    0 -0.0000000000e+00 -0.0000000000e+00 -1.2498662933e+02 1.2498662933e+02 0.0000000000e+00 0.0000e+00 1.0000e+00
       23  1    1    2    0    0 -5.4469116102e+01 -1.7309325726e+01 -2.4474209672e+01 1.1036637010e+02 9.1188000000e+01 0.0000e+00 0.0000e+00
       25  1    1    2    0    0 +5.4469116102e+01 +1.7309325726e+01 +2.4475951015e+01 1.3960862991e+02 1.2500000000e+02 0.0000e+00 0.0000e+00
</event>
<event>
 4      1 +2.1368000e-01 2.45619200e+02 7.54677100e-03 1.11610500e-01
      -11 -1    0    0    0    0 +0.0000000000e+00 +0.0000000000e+00 +1.2066929454e+02 1.2066929454e+02 0.0000000000e+00 0.0000e+00 1.0000e+00
       11 -1    0    0    0    0 -0.0000000000e+00 -0.0000000000e+00 -1.2498789502e+02 1.2498789502e+02 0.0000000000e+00 0.0000e+00 -1.0000e+00
       23  1    1    2    0    0 -2.0478335343e+01 -2.1427739308e+01 -5.1453150945e+01 1.0881722436e+02 9.1188000000e+01 0.0000e+00 -1.0000e+00
       25  1    1    2    0    0 +2.0478335343e+01 +2.1427739308e+01 +4.7134550457e+01 1.3683996520e+02 1.2500000000e+02 0.0000e+00 0.0000e+00
</event>
<event>
 4      1 +2.1368000e-01 2.48979200e+02 7.54677100e-03 1.11395200e-01
      -11 -1    0    0    0    0 +0.0000000000e+00 +0.0000000000e+00 +1.2399452927e+02 1.2399452927e+02 0.0000000000e+00 0.0000e+00 1.0000e+00
       11 -1    0    0    0    0 -0.0000000000e+00 -0.0000000000e+00 -1.2498661038e+02 1.2498661038e+02 0.0000000000e+00 0.0000e+00 -1.0000e+00
       23  1    1    2    0    0 -4.5406403068e+01 -6.7143201125e+00 +4.0012650170e+01 1.0964983836e+02 9.1188000000e+01 0.0000e+00 0.0000e+00
       25  1    1    2    0    0 +4.5406403068e+01 +6.7143201125e+00 -4.1004731282e+01 1.3933130130e+02 1.2500000000e+02 0.0000e+00 0.0000e+00
</event>
<event>
 4      1 +2.1368000e-01 2.49975000e+02 7.54677100e-03 1.11332100e-01
      -11 -1    0    0    0    0 +0.0000000000e+00 +0.0000000000e+00 +1.2498750000e+02 1.2498750000e+02 0.0000000000e+00 0.0000e+00 1.0000e+00
       11 -1    0    0    0    0 -0.0000000000e+00 -0.0000000000e+00 -1.2498750000e+02 1.2498750000e+02 0.0000000000e+00 0.0000e+00 -1.0000e+00
       23  1    1    2    0    0 -4.9960111022e+01 +3.7000264014e+01 -6.9979125849e-01 1.1036654059e+02 9.1188000000e+01 0.0000e+00 1.0000e+00
       25  1    1    2    0    0 +4.9960111022e+01 -3.7000264014e+01 +6.9979125849e-01 1.3960845941e+02 1.2500000000e+02 0.0000e+00 0.0000e+00
</event>
<event>
 4      1 +2.1368000e-01 2.49422400e+02 7.54677100e-03 1.11367000e-01
      -11 -1    0    0    0    0 +0.0000000000e+00 +0.0000000000e+00 +1.2498776168e+02 1.2498776168e+02 0.0000000000e+00 0.0000e+00 -1.0000e+00
       11 -1    0    0    0    0 -0.0000000000e+00 -0.0000000000e+00 -1.2443523359e+02 1.2443523359e+02 0.0000000000e+00 0.0000e+00 1.0000e+00
       23  1    1    2    0    0 -1.9412357350e+01 +3.3655035946e+01 -4.7589099204e+01 1.0995214763e+02 9.1188000000e+01 0.0000e+00 1.0000e+00
       25  1    1    2    0    0 +1.9412357350e+01 -3.3655035946e+01 +4.8141627295e+01 1.3947084764e+02 1.2500000000e+02 0.0000e+00 0.0000e+00
</event>
<event>
 4      1 +2.1368000e-01 2.49973600e+02 7.54677100e-03 1.11332100e-01
      -11 -1    0    0    0    0 +0.0000000000e+00 +0.0000000000e+00 +1.2498681771e+02 1.2498681771e+02 0.0000000000e+00 0.0000e+00 1.0000e+00
       11 -1    0    0    0    0 -0.0000000000e+00 -0.0000000000e+00 -1.2498681771e+02 1.2498681771e+02 0.0000000000e+00 0.0000e+00 -1.0000e+00
       23  1    1    2    0    0 -1.8306283288e+01 +5.4511500516e+01 -2.3637470707e+01 1.1036577849e+02 9.1188000000e+01 0.0000e+00 -1.0000e+00
       25  1    1    2    0    0 +1.8306283288e+01 -5.4511500516e+01 +2.3637470707e+01 1.3960785693e+02 1.2500000000e+02 0.0000e+00 0.0000e+00
</event>
<event>
 4      1 +2.1368000e-01 2.39445600e+02 7.54677100e-03 1.12016300e-01
      -11 -1    0    0    0    0 +0.0000000000e+00 +0.0000000000e+00 +1.2498870263e+02 1.2498870263e+02 0.0000000000e+00 0.0000e+00 1.0000e+00
       11 -1    0    0    0    0 -0.0000000000e+00 -0.0000000000e+00 -1.1467875680e+02 1.1467875680e+02 0.0000000000e+00 0.0000e+00 -1.0000e+00
       23  1    1    2    0    0 +1.3524931135e+01 +4.4172949165e+01 -1.7021869013e+01 1.0362995980e+02 9.1188000000e+01 0.0000e+00 0.0000e+00
       25  1    1    2    0    0 -1.3524931135e+01 -4.4172949165e+01 +2.7331814844e+01 1.3603749962e+02 1.2500000000e+02 0.0000e+00 0.0000e+00
</event>
<event>
 4      1 +2.1368000e-01 2.49974100e+02 7.54677100e-03 1.11332100e-01
      -11 -1    0    0    0    0 +0.0000000000e+00 +0.0000000000e+00 +1.2498702813e+02 1.2498702813e+02 0.0000000000e+00 0.0000e+00 -1.0000e+00
       11 -1    0    0    0    0 -0.0000000000e+00 -0.0000000000e+00 -1.2498702813e+02 1.2498702813e+02 0.0000000000e+00 0.0000e+00 1.0000e+00
       23  1    1    2    0    0 +1.4820347224e+01 +9.9916631522e+00 -5.9547708381e+01 1.1036601353e+02 9.1188000000e+01 0.0000e+00 1.0000e+00
       25  1    1    2    0    0 -1.4820347224e+01 -9.9916631522e+00 +5.9547708381e+01 1.3960804274e+02 1.2500000000e+02 0.0000e+00 0.0000e+00
</event>
<event>
 4      1 +2.1368000e-01 2.49975000e+02 7.54677100e-03 1.11332100e-01
      -11 -1    0    0    0    0 +0.0000000000e+00 +0.0000000000e+00 +1.2498750000e+02 1.2498750000e+02 0.0000000000e+00 0.0000e+00 1.0000e+00
       11 -1    0    0    0    0 -0.0000000000e+00 -0.0000000000e+00 -1.2498750000e+02 1.2498750000e+02 0.0000000000e+00 0.0000e+00 -1.0000e+00
       23  1    1    2    0    0 -5.1728355996e+01 +2.2062261026e+00 +3.4421384198e+01 1.1036654059e+02 9.1188000000e+01 0.0000e+00 0.0000e+00
       25  1    1    2    0    0 +5.1728355996e+01 -2.2062261026e+00 -3.4421384198e+01 1.3960845941e+02 1.2500000000e+02 0.0000e+00 0.0000e+00
</event>
<event>
 4      1 +2.1368000e-01 2.49975000e+02 7.54677100e-03 1.11332100e-01
      -11 -1    0    0    0    0 +0.0000000000e+00 +0.0000000000e+00 +1.2498837067e+02 1.2498837067e+02 0.0000000000e+00 0.0000e+00 -1.0000e+00
       11 -1    0    0    0    0 -0.0000000000e+00 -0.0000000000e+00 -1.2498662933e+02 1.2498662933e+02 0.0000000000e+00 0.0000e+00 1.0000e+00
       23  1    1    2    0    0 -3.2731635007e+01 -4.3904799630e+01 +2.9437660257e+01 1.1036674565e+02 9.1188000000e+01 0.0000e+00 0.0000e+00
       25  1    1    2    0    0 +3.2731635007e+01 +4.3904799630e+01 -2.9435918914e+01 1.3960825435e+02 1.2500000000e+02 0.0000e+00 0.0000e+00
</event>
<event>
 4      1 +2.1368000e-01 2.47766000e+02 7.54677100e-03 1.11472500e-01
      -11 -1    0    0    0    0 +0.0000000000e+00 +0.0000000000e+00 +1.2282779299e+02 1.2282779299e+02 0.0000000000e+00 0.0000e+00 1.0000e+00
       11 -1    0    0    0    0 -0.0000000000e+00 -0.0000000000e+00 -1.2494728416e+02 1.2494728416e+02 0.0000000000e+00 0.0000e+00 -1.0000e+00
       23  1    1    2    0    0 -4.3723512804e+00 +4.1742302821e+01 +4.1880828427e+01 1.0876944624e+02 9.1188000000e+01 0.0000e+00 1.0000e+00
       25  1    1    2    0    0 +4.3723512804e+00 -4.1742302821e+01 -4.4000319603e+01 1.3900563091e+02 1.2500000000e+02 0.0000e+00 0.0000e+00
</event>
<event>
 4      1 +2.1368000e-01 2.49439000e+02 7.54677100e-03 1.11366000e-01
      -11 -1    0    0    0    0 +0.0000000000e+00 +0.0000000000e+00 +1.2492122571e+02 1.2492122571e+02 0.0000000000e+00 0.0000e+00 1.0000e+00
       11 -1    0    0    0    0 -0.0000000000e+00 -0.0000000000e+00 -1.2451809707e+02 1.2451809707e+02 0.0000000000e+00 0.0000e+00 -1.0000e+00
       23  1    1    2    0    0 -6.2728279983e+00 +2.0550506211e+01 -5.7596304362e+01 1.0997389371e+02 9.1188000000e+01 0.0000e+00 -1.0000e+00
       25  1    1    2    0    0 +6.2728279983e+00 -2.0550506211e+01 +5.7999433004e+01 1.3946542907e+02 1.2500000000e+02 0.0000e+00 0.0000e+00
</event>
<event>
 4      1 +2.1368000e-01 2.49895400e+02 7.54677100e-03 1.11337100e-01
      -11 -1    0    0    0    0 +0.0000000000e+00 +0.0000000000e+00 +1.2490854964e+02 1.2490854964e+02 0.0000000000e+00 0.0000e+00 -1.0000e+00
       11 -1    0    0    0    0 -0.0000000000e+00 -0.0000000000e+00 -1.2498688513e+02 1.2498688513e+02 0.0000000000e+00 0.0000e+00 1.0000e+00
       23  1    1    2    0    0 -4.0068078735e+01 +3.0719947934e+01 +3.6111613068e+01 1.1031077045e+02 9.1188000000e+01 0.0000e+00 -1.0000e+00
       25  1    1    2    0    0 +4.0068078735e+01 -3.0719947934e+01 -3.6189948558e+01 1.3958466431e+02 1.2500000000e+02 0.0000e+00 0.0000e+00
</event>
<event>
 4      1 +2.1368000e-01 2.48942100e+02 7.54677100e-03 1.11397500e-01
      -11 -1    0    0    0    0 +0.0000000000e+00 +0.0000000000e+00 +1.2498887737e+02 1.2498887737e+02 0.0000000000e+00 0.0000e+00 1.0000e+00
       11 -1    0    0    0    0 -0.0000000000e+00 -0.0000000000e+00 -1.2395532383e+02 1.2395532383e+02 0.0000000000e+00 0.0000e+00 -1.0000e+00
       23  1    1    2    0    0 -4.3611434823e+01 -2.7821191337e+01 -3.2140246020e+01 1.0965501672e+02 9.1188000000e+01 0.0000e+00 1.0000e+00
       25  1    1    2    0    0 +4.3611434823e+01 +2.7821191337e+01 +3.3173799553e+01 1.3928918447e+02 1.2500000000e+02 0.0000e+00 0.0000e+00
</event>
<event>
 4      1 +2.1368000e-01 2.48558600e+02 7.54677100e-03 1.11421900e-01
      -11 -1    0    0    0    0 +0.0000000000e+00 +0.0000000000e+00 +1.2498688045e+02 1.2498688045e+02 0.0000000000e+00 0.0000e+00 1.0000e+00
       11 -1    0    0    0    0 -0.0000000000e+00 -0.0000000000e+00 -1.2357572429e+02 1.2357572429e+02 0.0000000000e+00 0.0000e+00 -1.0000e+00
       23  1    1    2    0    0 -1.1099327707e+00 +3.7328087441e+01 -4.7303786947e+01 1.0930470103e+02 9.1188000000e+01 0.0000e+00 -1.0000e+00
       25  1    1    2    0    0 +1.1099327707e+00 -3.7328087441e+01 +4.8714943109e+01 1.3925790371e+02 1.2500000000e+02 0.0000e+00 0.0000e+00
</event>
<event>
 4      1 +2.1368000e-01 2.49578500e+02 7.54677100e-03 1.11357100e-01
      -11 -1    0    0    0    0 +0.0000000000e+00 +0.0000000000e+00 +1.2459207210e+02 1.2459207210e+02 0.0000000000e+00 0.0000e+00 1.0000e+00
       11 -1    0    0    0    0 -0.0000000000e+00 -0.0000000000e+00 -1.2498673044e+02 1.2498673044e+02 0.0000000000e+00 0.0000e+00 -1.0000e+00
       23  1    1    2    0    0 +1.7772978160e+00 +3.8293655577e+01 -4.8621311801e+01 1.1022180433e+02 9.1188000000e+01 0.0000e+00 -1.0000e+00
       25  1    1    2    0    0 -1.7772978160e+00 -3.8293655577e+01 +4.8226653464e+01 1.3935699821e+02 1.2500000000e+02 0.0000e+00 0.0000e+00
</event>
<event>
 4      1 +2.1368000e-01 2.49400400e+02 7.54677100e-03 1.11368400e-01
      -11 -1    0    0    0    0 +0.0000000000e+00 +0.0000000000e+00 +1.2498805495e+02 1.2498805495e+02 0.0000000000e+00 0.0000e+00 1.0000e+00
       11 -1    0    0    0    0 -0.0000000000e+00 -0.0000000000e+00 -1.2441299784e+02 1.2441299784e+02 0.0000000000e+00 0.0000e+00 -1.0000e+00
       23  1    1    2    0    0 +2.6699350634e+01 -2.1783278915e+01 -5.0809152873e+01 1.0992810343e+02 9.1188000000e+01 0.0000e+00 -1.0000e+00
       25  1    1    2    0    0 -2.6699350634e+01 +2.1783278915e+01 +5.1384209984e+01 1.3947294935e+02 1.2500000000e+02 0.0000e+00 0.0000e+00
</event>
<event>
 4      1 +2.1368000e-01 2.48601400e+02 7.54677100e-03 1.11419200e-01
      -11 -1    0    0    0    0 +0.0000000000e+00 +0.0000000000e+00 +1.2361765937e+02 1.2361765937e+02 0.0000000000e+00 0.0000e+00 -1.0000e+00
       11 -1    0    0    0    0 -0.0000000000e+00 -0.0000000000e+00 -1.2498750406e+02 1.2498750406e+02 0.0000000000e+00 0.0000e+00 1.0000e+00
       23  1    1    2    0    0 -4.3093456981e+00 +5.7869233449e+01 -1.8749702963e+01 1.0970059866e+02 9.1188000000e+01 0.0000e+00 0.0000e+00
       25  1    1    2    0    0 +4.3093456981e+00 -5.7869233449e+01 +1.7379858275e+01 1.3890456477e+02 1.2500000000e+02 0.0000e+00 0.0000e+00
</event>
<event>
 4      1 +2.1368000e-01 2.49365400e+02 7.54677100e-03 1.11370700e-01
      -11 -1    0    0    0    0 +0.0000000000e+00 +0.0000000000e+00 +1.2437908038e+02 1.2437908038e+02 0.0000000000e+00 0.0000e+00 1.0000e+00
       11 -1    0    0    0    0 -0.0000000000e+00 -0.0000000000e+00 -1.2498707019e+02 1.2498707019e+02 0.0000000000e+00 0.0000e+00 -1.0000e+00
       23  1    1    2    0    0 +4.1293154231e+01 +2.4018187629e+01 +3.8570910167e+01 1.0993163502e+02 9.1188000000e+01 0.0000e+00 0.0000e+00
       25  1    1    2    0    0 -4.1293154231e+01 -2.4018187629e+01 -3.9178899973e+01 1.3943451555e+02 1.2500000000e+02 0.0000e+00 0.0000e+00
</event>
<event>
 4      1 +2.1368000e-01 2.49950400e+02 7.54677100e-03 1.11333600e-01
      -11 -1    0    0    0    0 +0.0000000000e+00 +0.0000000000e+00 +1.2498652480e+02 1.2498652480e+02 0.0000000000e+00 0.0000e+00 1.0000e+00
       11 -1    0    0    0    0 -0.0000000000e+00 -0.0000000000e+00 -1.2496388957e+02 1.2496388957e+02 0.0000000000e+00 0.0000e+00 -1.0000e+00
       23  1    1    2    0    0 +2.7631477289e+01 -2.6554103101e+01 +4.8937206864e+01 1.1035724031e+02 9.1188000000e+01 0.0000e+00 1.0000e+00
       25  1    1    2    0    0 -2.7631477289e+01 +2.6554103101e+01 -4.8914571632e+01 1.3959317407e+02 1.2500000000e+02 0.0000e+00 0.0000e+00
</event>
<event>
 4      1 +2.1368000e-01 2.49974800e+02 7.54677100e-03 1.11332100e-01
      -11 -1    0    0    0    0 +0.0000000000e+00 +0.0000000000e+00 +1.2498826635e+02 1.2498826635e+02 0.0000000000e+00 0.0000e+00 1.0000e+00
       11 -1    0    0    0    0 -0.0000000000e+00 -0.0000000000e+00 -1.2498652501e+02 1.2498652501e+02 0.0000000000e+00 0.0000e+00 -1.0000e+00
       23  1    1    2    0    0 -2.7550976136e+01 -1.3348836588e+01 -5.4112524307e+01 1.1036604711e+02 9.1188000000e+01 0.0000e+00 -1.0000e+00
       25  1    1    2    0    0 +2.7550976136e+01 +1.3348836588e+01 +5.4114265648e+01 1.3960874425e+02 1.2500000000e+02 0.0000e+00 0.0000e+00
</event>
<event>
 4      1 +2.1368000e-01 2.39693200e+02 7.54677100e-03 1.11999700e-01
      -11 -1    0    0    0    0 +0.0000000000e+00 +0.0000000000e+00 +1.2498823403e+02 1.2498823403e+02 0.0000000000e+00 0.0000e+00 1.0000e+00
       11 -1    0    0    0    0 -0.0000000000e+00 -0.0000000000e+00 -1.1491650928e+02 1.1491650928e+02 0.0000000000e+00 0.0000e+00 -1.0000e+00
       23  1    1    2    0    0 -4.0002426873e+01 -1.2946255397e+00 +3.6419025133e+01 1.0603521560e+02 9.1188000000e+01 0.0000e+00 0.0000e+00
       25  1    1    2    0    0 +4.0002426873e+01 +1.2946255397e+00 -2.6347300386e+01 1.3386952771e+02 1.2500000000e+02 0.0000e+00 0.0000e+00
</event>
<event>
 4      1 +2.1368000e-01 2.49917100e+02 7.54677100e-03 1.11335700e-01
      -11 -1    0    0    0    0 +0.0000000000e+00 +0.0000000000e+00 +1.2498815696e+02 1.2498815696e+02 0.0000000000e+00 0.0000e+00 1.0000e+00
       11 -1    0    0    0    0 -0.0000000000e+00 -0.0000000000e+00 -1.2492896501e+02 1.2492896501e+02 0.0000000000e+00 0.0000e+00 -1.0000e+00
       23  1    1    2    0    0 +2.1231864995e+01 +4.2437523551e+00 -5.8194015229e+01 1.1032042548e+02 9.1188000000e+01 0.0000e+00 -1.0000e+00
       25  1    1    2    0    0 -2.1231864995e+01 -4.2437523551e+00 +5.8253207180e+01 1.3959669649e+02 1.2500000000e+02 0.0000e+00 0.0000e+00
</event>
<event>
 4      1 +2.1368000e-01 2.48497200e+02 7.54677100e-03 1.11425800e-01
      -11 -1    0    0    0    0 +0.0000000000e+00 +0.0000000000e+00 +1.2498732596e+02 1.2498732596e+02 0.0000000000e+00 0.0000e+00 1.0000e+00
       11 -1    0    0    0    0 -0.0000000000e+00 -0.0000000000e+00 -1.2351419861e+02 1.2351419861e+02 0.0000000000e+00 0.0000e+00 -1.0000e+00
       23  1    1    2    0    0 +5.1443635681e+01 +1.4522867149e+01 +2.9399575291e+01 1.0971302427e+02 9.1188000000e+01 0.0000e+00 0.0000e+00
       25  1    1    2    0    0 -5.1443635681e+01 -1.4522867149e+01 -2.7926447937e+01 1.3878850030e+02 1.2500000000e+02 0.0000e+00 0.0000e+00
</event>
<event>
 4      1 +2.1368000e-01 2.49974000e+02 7.54677100e-03 1.11332100e-01
      -11 -1    0    0    0    0 +0.0000000000e+00 +0.0000000000e+00 +1.2498614901e+02 1.2498614901e+02 0.0000000000e+00 0.0000e+00 -1.0000e+00
       11 -1    0    0    0    0 -0.0000000000e+00 -0.0000000000e+00 -1.2498789035e+02 1.2498789035e+02 0.0000000000e+00 0.0000e+00 1.0000e+00
       23  1    1    2    0    0 -1.5711591522e+01 -4.3543235408e+01 -4.1504215120e+01 1.1036629320e+02 9.1188000000e+01 0.0000e+00 0.0000e+00
       25  1    1    2    0    0 +1.5711591522e+01 +4.3543235408e+01 +4.1502473784e+01 1.3960774616e+02 1.2500000000e+02 0.0000e+00 0.0000e+00
</event>
<event>
 4      1 +2.1368000e-01 2.48236000e+02 7.54677100e-03 1.11442500e-01
      -11 -1    0    0    0    0 +0.0000000000e+00 +0.0000000000e+00 +1.2440280300e+02 1.2440280300e+02 0.0000000000e+00 0.0000e+00 1.0000e+00
       11 -1    0    0    0    0 -0.0000000000e+00 -0.0000000000e+00 -1.2383388511e+02 1.2383388511e+02 0.0000000000e+00 0.0000e+00 -1.0000e+00
       23  1    1    2    0    0 -1.3373268544e+01 -4.1415426628e+01 +4.2177581582e+01 1.0949101153e+02 9.1188000000e+01 0.0000e+00 0.0000e+00
       25  1    1    2    0    0 +1.3373268544e+01 +4.1415426628e+01 -4.1608663688e+01 1.3874567658e+02 1.2500000000e+02 0.0000e+00 0.0000e+00
</event>
<event>
 4      1 +2.1368000e-01 2.49974900e+02 7.54677100e-03 1.11332100e-01
      -11 -1    0    0    0    0 +0.0000000000e+00 +0.0000000000e+00 +1.2498744244e+02 1.2498744244e+02 0.0000000000e+00 0.0000e+00 1.0000e+00
       11 -1    0    0    0    0 -0.0000000000e+00 -0.0000000000e+00 -1.2498744244e+02 1.2498744244e+02 0.0000000000e+00 0.0000e+00 -1.0000e+00
       23  1    1    2    0    0 +4.5929164254e+01 +4.0819087739e+01 -9.4774307547e+00 1.1036647630e+02 9.1188000000e+01 0.0000e+00 0.0000e+00
       25  1    1    2    0    0 -4.5929164254e+01 -4.0819087739e+01 +9.4774307547e+00 1.3960840858e+02 1.2500000000e+02 0.0000e+00 0.0000e+00
</event>
<event>
 4      1 +2.1368000e-01 2.49975000e+02 7.54677100e-03 1.11332100e-01
      -11 -1    0    0    0    0 +0.0000000000e+00 +0.0000000000e+00 +1.2498834828e+02 1.2498834828e+02 0.0000000000e+00 0.0000e+00 -1.0000e+00
       11 -1    0    0    0    0 -0.0000000000e+00 -0.0000000000e+00 -1.2498660694e+02 1.2498660694e+02 0.0000000000e+00 0.0000e+00 1.0000e+00
       23  1    1    2    0    0 +5.6627379540e+01 +2.0165321486e+01 -1.5880544488e+01 1.1036640495e+02 9.1188000000e+01 0.0000e+00 1.0000e+00
       25  1    1    2    0    0 -5.6627379540e+01 -2.0165321486e+01 +1.5882285830e+01 1.3960855027e+02 1.2500000000e+02 0.0000e+00 0.0000e+00
</event>
<event>
 4      1 +2.1368000e-01 2.48686600e+02 7.54677100e-03 1.11413800e-01
      -11 -1    0    0    0    0 +0.0000000000e+00 +0.0000000000e+00 +1.2370395543e+02 1.2370395543e+02 0.0000000000e+00 0.0000e+00 1.0000e+00
       11 -1    0    0    0    0 -0.0000000000e+00 -0.0000000000e+00 -1.2498591557e+02 1.2498591557e+02 0.0000000000e+00 0.0000e+00 -1.0000e+00
       23  1    1    2    0    0 -4.0153964061e+01 +3.9097199057e+01 +2.3229800419e+01 1.0952537046e+02 9.1188000000e+01 0.0000e+00 1.0000e+00
       25  1    1    2    0    0 +4.0153964061e+01 -3.9097199057e+01 -2.4511760549e+01 1.3916450054e+02 1.2500000000e+02 0.0000e+00 0.0000e+00
</event>
<event>
 4      1 +2.1368000e-01 2.32039500e+02 7.54677100e-03 1.12521200e-01
      -11 -1    0    0    0    0 +0.0000000000e+00 +0.0000000000e+00 +1.2498766930e+02 1.2498766930e+02 0.0000000000e+00 0.0000e+00 -1.0000e+00
       11 -1    0    0    0    0 -0.0000000000e+00 -0.0000000000e+00 -1.0769526221e+02 1.0769526221e+02 0.0000000000e+00 0.0000e+00 1.0000e+00
       23  1    1    2    0    0 -1.5187284976e+00 -1.0506868405e+01 +4.7906021988e+01 1.0355162532e+02 9.1188000000e+01 0.0000e+00 -1.0000e+00
       25  1    1    2    0    0 +1.5187284976e+00 +1.0506868405e+01 -3.0613614894e+01 1.2913130618e+02 1.2500000000e+02 0.0000e+00 0.0000e+00
</event>
<event>
 4      1 +2.1368000e-01 2.45269500e+02 7.54677100e-03 1.11633100e-01
      -11 -1    0    0    0    0 +0.0000000000e+00 +0.0000000000e+00 +1.2399365786e+02 1.2399365786e+02 0.0000000000e+00 0.0000e+00 1.0000e+00
       11 -1    0    0    0    0 -0.0000000000e+00 -0.0000000000e+00 -1.2129071503e+02 1.2129071503e+02 0.0000000000e+00 0.0000e+00 -1.0000e+00
       23  1    1    2    0    0 +4.0141667735e+01 -3.1232744419e+01 +2.7728826086e+01 1.0803229588e+02 9.1188000000e+01 0.0000e+00 1.0000e+00
       25  1    1    2    0    0 -4.0141667735e+01 +3.1232744419e+01 -2.5025883260e+01 1.3725207702e+02 1.2500000000e+02 0.0000e+00 0.0000e+00
</event>
<event>
 4      1 +2.1368000e-01 2.49967000e+02 7.54677100e-03 1.11332600e-01
      -11 -1    0    0    0    0 +0.0000000000e+00 +0.0000000000e+00 +1.2498002270e+02 1.2498002270e+02 0.0000000000e+00 0.0000e+00 -1.0000e+00
       11 -1    0    0    0    0 -0.0000000000e+00 -0.0000000000e+00 -1.2498698790e+02 1.2498698790e+02 0.0000000000e+00 0.0000e+00 1.0000e+00
       23  1    1    2    0    0 +6.0424021743e+01 +1.3841252764e+01 +4.6760648751e+00 1.1036194819e+02 9.1188000000e+01 0.0000e+00 0.0000e+00
       25  1    1    2    0    0 -6.0424021743e+01 -1.3841252764e+01 -4.6830300727e+00 1.3960506242e+02 1.2500000000e+02 0.0000e+00 0.0000e+00
</event>
<event>
 4      1 +2.1368000e-01 2.45441800e+02 7.54677100e-03 1.11622000e-01
      -11 -1    0    0    0    0 +0.0000000000e+00 +0.0000000000e+00 +1.2498720264e+02 1.2498720264e+02 0.0000000000e+00 0.0000e+00 1.0000e+00
       11 -1    0    0    0    0 -0.0000000000e+00 -0.0000000000e+00 -1.2049565136e+02 1.2049565136e+02 0.0000000000e+00 0.0000e+00 -1.0000e+00
       23  1    1    2    0    0 -5.7113740743e-01 -4.7483721558e+01 +3.4490263147e+01 1.0844288638e+02 9.1188000000e+01 0.0000e+00 0.0000e+00
       25  1    1    2    0    0 +5.7113740743e-01 +4.7483721558e+01 -2.9998711872e+01 1.3703996762e+02 1.2500000000e+02 0.0000e+00 0.0000e+00
</event>
<event>
 4      1 +2.1368000e-01 2.49900700e+02 7.54677100e-03 1.11336800e-01
      -11 -1    0    0    0    0 +0.0000000000e+00 +0.0000000000e+00 +1.2491378269e+02 1.2491378269e+02 0.0000000000e+00 0.0000e+00 1.0000e+00
       11 -1    0    0    0    0 -0.0000000000e+00 -0.0000000000e+00 -1.2498689734e+02 1.2498689734e+02 0.0000000000e+00 0.0000e+00 -1.0000e+00
       23  1    1    2    0    0 -7.8607646618e+00 +1.7272988930e+01 -5.9161058425e+01 1.1034233071e+02 9.1188000000e+01 0.0000e+00 -1.0000e+00
       25  1    1    2    0    0 +7.8607646618e+00 -1.7272988930e+01 +5.9087943767e+01 1.3955834932e+02 1.2500000000e+02 0.0000e+00 0.0000e+00
</event>
<event>
 4      1 +2.1368000e-01 2.49975000e+02 7.54677100e-03 1.11332100e-01
      -11 -1    0    0    0    0 +0.0000000000e+00 +0.0000000000e+00 +1.2498837067e+02 1.2498837067e+02 0.0000000000e+00 0.0000e+00 -1.0000e+00
       11 -1    0    0    0    0 -0.0000000000e+00 -0.0000000000e+00 -1.2498662933e+02 1.2498662933e+02 0.0000000000e+00 0.0000e+00 1.0000e+00
       23  1    1    2    0    0 +3.0821818348e+01 -2.0868269387e+01 -4.9799359541e+01 1.1036619368e+02 9.1188000000e+01 0.0000e+00 1.0000e+00
       25  1    1    2    0    0 -3.0821818348e+01 +2.0868269387e+01 +4.9801100884e+01 1.3960880632e+02 1.2500000000e+02 0.0000e+00 0.0000e+00
</event>
<event>
 4      1 +2.1368000e-01 2.49971500e+02 7.54677100e-03 1.11332300e-01
      -11 -1    0    0    0    0 +0.0000000000e+00 +0.0000000000e+00 +1.2498747481e+02 1.2498747481e+02 0.0000000000e+00 0.0000e+00 -1.0000e+00
       11 -1    0    0    0    0 -0.0000000000e+00 -0.0000000000e+00 -1.2498399215e+02 1.2498399215e+02 0.0000000000e+00 0.0000e+00 1.0000e+00
       23  1    1    2    0    0 +2.4483663359e+00 +7.3470364670e+00 -6.1684059992e+01 1.1036370800e+02 9.1188000000e+01 0.0000e+00 1.0000e+00
       25  1    1    2    0    0 -2.4483663359e+00 -7.3470364670e+00 +6.1687542653e+01 1.3960775896e+02 1.2500000000e+02 0.0000e+00 0.0000e+00
</event>
<event>
 4      1 +2.1368000e-01 2.49973300e+02 7.54677100e-03 1.11332200e-01
      -11 -1    0    0    0    0 +0.0000000000e+00 +0.0000000000e+00 +1.2498579953e+02 1.2498579953e+02 0.0000000000e+00 0.0000e+00 1.0000e+00
       11 -1    0    0    0    0 -0.0000000000e+00 -0.0000000000e+00 -1.2498754087e+02 1.2498754087e+02 0.0000000000e+00 0.0000e+00 -1.0000e+00
       23  1    1    2    0    0 -6.0177833615e+01 -1.2606563847e+01 -9.2214107084e+00 1.1036567795e+02 9.1188000000e+01 0.0000e+00 0.0000e+00
       25  1    1    2    0    0 +6.0177833615e+01 +1.2606563847e+01 +9.2196693770e+00 1.3960766245e+02 1.2500000000e+02 0.0000e+00 0.0000e+00
</event>
<event>
 4      1 +2.1368000e-01 2.48552400e+02 7.54677100e-03 1.11422300e-01
      -11 -1    0    0    0    0 +0.0000000000e+00 +0.0000000000e+00 +1.2463600453e+02 1.2463600453e+02 0.0000000000e+00 0.0000e+00 -1.0000e+00
       11 -1    0    0    0    0 -0.0000000000e+00 -0.0000000000e+00 -1.2391745677e+02 1.2391745677e+02 0.0000000000e+00 0.0000e+00 1.0000e+00
       23  1    1    2    0    0 +3.3103576793e+01 -4.8066836731e+01 +1.7181291879e+01 1.0962078144e+02 9.1188000000e+01 0.0000e+00 -1.0000e+00
       25  1    1    2    0    0 -3.3103576793e+01 +4.8066836731e+01 -1.6462744120e+01 1.3893267986e+02 1.2500000000e+02 0.0000e+00 0.0000e+00
</event>
<event>
 4      1 +2.1368000e-01 2.49974300e+02 7.54677100e-03 1.11332100e-01
      -11 -1    0    0    0    0 +0.0000000000e+00 +0.0000000000e+00 +1.2498717141e+02 1.2498717141e+02 0.0000000000e+00 0.0000e+00 -1.0000e+00
       11 -1    0    0    0    0 -0.0000000000e+00 -0.0000000000e+00 -1.2498717141e+02 1.2498717141e+02 0.0000000000e+00 0.0000e+00 1.0000e+00
       23  1    1    2    0    0 -3.0699696758e+01 +3.4905899315e+01 +4.1286168813e+01 1.1036617356e+02 9.1188000000e+01 0.0000e+00 -1.0000e+00
       25  1    1    2    0    0 +3.0699696758e+01 -3.4905899315e+01 -4.1286168813e+01 1.3960816926e+02 1.2500000000e+02 0.0000e+00 0.0000e+00
</event>
<event>
 4      1 +2.1368000e-01 2.32643100e+02 7.54677100e-03 1.12479300e-01
      -11 -1    0    0    0    0 +0.0000000000e+00 +0.0000000000e+00 +1.0825642470e+02 1.0825642470e+02 0.0000000000e+00 0.0000e+00 -1.0000e+00
       11 -1    0    0    0    0 -0.0000000000e+00 -0.0000000000e+00 -1.2498755237e+02 1.2498755237e+02 0.0000000000e+00 0.0000e+00 1.0000e+00
       23  1    1    2    0    0 -4.2256068492e+01 -2.5742944462e+00 -3.3284104680e+00 1.0059091399e+02 9.1188000000e+01 0.0000e+00 0.0000e+00
       25  1    1    2    0    0 +4.2256068492e+01 +2.5742944462e+00 -1.3402717205e+01 1.3265306308e+02 1.2500000000e+02 0.0000e+00 0.0000e+00
</event>
<event>
 4      1 +2.1368000e-01 2.49975000e+02 7.54677100e-03 1.11332100e-01
      -11 -1    0    0    0    0 +0.0000000000e+00 +0.0000000000e+00 +1.2498837067e+02 1.2498837067e+02 0.0000000000e+00 0.0000e+00 1.0000e+00
       11 -1    0    0    0    0 -0.0000000000e+00 -0.0000000000e+00 -1.2498662933e+02 1.2498662933e+02 0.0000000000e+00 0.0000e+00 -1.0000e+00
       23  1    1    2    0    0 -5.4663815192e+01 +2.7486297592e+01 +1.1041271143e+01 1.1036661750e+02 9.1188000000e+01 0.0000e+00 0.0000e+00
       25  1    1    2    0    0 +5.4663815192e+01 -2.7486297592e+01 -1.1039529800e+01 1.3960838250e+02 1.2500000000e+02 0.0000e+00 0.0000e+00
</event>
<event>
 4      1 +2.1368000e-01 2.49975000e+02 7.54677100e-03 1.11332100e-01
      -11 -1    0    0    0    0 +0.0000000000e+00 +0.0000000000e+00 +1.2498749977e+02 1.2498749977e+02 0.0000000000e+00 0.0000e+00 1.0000e+00
       11 -1    0    0    0    0 -0.0000000000e+00 -0.0000000000e+00 -1.2498749977e+02 1.2498749977e+02 0.0000000000e+00 0.0000e+00 -1.0000e+00
       23  1    1    2    0    0 -2.4507071038e+01 +4.4373725852e+01 +3.5998580586e+01 1.1036654033e+02 9.1188000000e+01 0.0000e+00 0.0000e+00
       25  1    1    2    0    0 +2.4507071038e+01 -4.4373725852e+01 -3.5998580586e+01 1.3960845920e+02 1.2500000000e+02 0.0000e+00 0.0000e+00
</event>
<event>
 4      1 +2.1368000e-01 2.49344100e+02 7.54677100e-03 1.11372000e-01
      -11 -1    0    0    0    0 +0.0000000000e+00 +0.0000000000e+00 +1.2498769934e+02 1.2498769934e+02 0.0000000000e+00 0.0000e+00 1.0000e+00
       11 -1    0    0    0    0 -0.0000000000e+00 -0.0000000000e+00 -1.2435718522e+02 1.2435718522e+02 0.0000000000e+00 0.0000e+00 -1.0000e+00
       23  1    1    2    0    0 -1.4783764486e+01 +1.0438297979e+01 +5.9102955197e+01 1.1016318992e+02 9.1188000000e+01 0.0000e+00 1.0000e+00
       25  1    1    2    0    0 +1.4783764486e+01 -1.0438297979e+01 -5.8472441080e+01 1.3918169464e+02 1.2500000000e+02 0.0000e+00 0.0000e+00
</event>
<event>
 4      1 +2.1368000e-01 2.36494800e+02 7.54677100e-03 1.12215000e-01
      -11 -1    0    0    0    0 +0.0000000000e+00 +0.0000000000e+00 +1.1187069192e+02 1.1187069192e+02 0.0000000000e+00 0.0000e+00 -1.0000e+00
       11 -1    0    0    0    0 -0.0000000000e+00 -0.0000000000e+00 -1.2498756597e+02 1.2498756597e+02 0.0000000000e+00 0.0000e+00 1.0000e+00
       23  1    1    2    0    0 -1.5362143901e+01 -2.9262064815e+01 +2.8393557091e+01 1.0106289789e+02 9.1188000000e+01 0.0000e+00 -1.0000e+00
       25  1    1    2    0    0 +1.5362143901e+01 +2.9262064815e+01 -4.1510431138e+01 1.3579535999e+02 1.2500000000e+02 0.0000e+00 0.0000e+00
</event>
<event>
 4      1 +2.1368000e-01 2.45869900e+02 7.54677100e-03 1.11594300e-01
      -11 -1    0    0    0    0 +0.0000000000e+00 +0.0000000000e+00 +1.2091704782e+02 1.2091704782e+02 0.0000000000e+00 0.0000e+00 1.0000e+00
       11 -1    0    0    0    0 -0.0000000000e+00 -0.0000000000e+00 -1.2498652388e+02 1.2498652388e+02 0.0000000000e+00 0.0000e+00 -1.0000e+00
       23  1    1    2    0    0 +7.0565632319e+00 +1.3398389196e+01 +5.4205879227e+01 1.0715801699e+02 9.1188000000e+01 0.0000e+00 1.0000e+00
       25  1    1    2    0    0 -7.0565632319e+00 -1.3398389196e+01 -5.8275355287e+01 1.3874555471e+02 1.2500000000e+02 0.0000e+00 0.0000e+00
</event>
<event>
 4      1 +2.1368000e-01 2.47959300e+02 7.54677100e-03 1.11460100e-01
      -11 -1    0    0    0    0 +0.0000000000e+00 +0.0000000000e+00 +1.2476374001e+02 1.2476374001e+02 0.0000000000e+00 0.0000e+00 1.0000e+00
       11 -1    0    0    0    0 -0.0000000000e+00 -0.0000000000e+00 -1.2320052272e+02 1.2320052272e+02 0.0000000000e+00 0.0000e+00 -1.0000e+00
       23  1    1    2    0    0 +5.4650065677e+01 +2.4887361663e+01 -2.7875847287e+00 1.0922010997e+02 9.1188000000e+01 0.0000e+00 0.0000e+00
       25  1    1    2    0    0 -5.4650065677e+01 -2.4887361663e+01 +4.3508020167e+00 1.3874415277e+02 1.2500000000e+02 0.0000e+00 0.0000e+00
</event>
<event>
 4      1 +2.1368000e-01 2.49974900e+02 7.54677100e-03 1.11332100e-01
      -11 -1    0    0    0    0 +0.0000000000e+00 +0.0000000000e+00 +1.2498833201e+02 1.2498833201e+02 0.0000000000e+00 0.0000e+00 -1.0000e+00
       11 -1    0    0    0    0 -0.0000000000e+00 -0.0000000000e+00 -1.2498659067e+02 1.2498659067e+02 0.0000000000e+00 0.0000e+00 1.0000e+00
       23  1    1    2    0    0 -2.2854759095e+01 +3.1592744695e+01 +4.8426700676e+01 1.1036683475e+02 9.1188000000e+01 0.0000e+00 -1.0000e+00
       25  1    1    2    0    0 +2.2854759095e+01 -3.1592744695e+01 -4.8424959334e+01 1.3960808794e+02 1.2500000000e+02 0.0000e+00 0.0000e+00
</event>
<event>
 4      1 +2.1368000e-01 2.49974500e+02 7.54677100e-03 1.11332100e-01
      -11 -1    0    0    0    0 +0.0000000000e+00 +0.0000000000e+00 +1.2498726974e+02 1.2498726974e+02 0.0000000000e+00 0.0000e+00 -1.0000e+00
       11 -1    0    0    0    0 -0.0000000000e+00 -0.0000000000e+00 -1.2498726974e+02 1.2498726974e+02 0.0000000000e+00 0.0000e+00 1.0000e+00
       23  1    1    2    0    0 -6.2129022223e+01 +1.7525364457e+00 +1.5421995457e+00 1.1036628339e+02 9.1188000000e+01 0.0000e+00 0.0000e+00
       25  1    1    2    0    0 +6.2129022223e+01 -1.7525364457e+00 -1.5421995457e+00 1.3960825608e+02 1.2500000000e+02 0.0000e+00 0.0000e+00
</event>
<event>
 4      1 +2.1368000e-01 2.49768400e+02 7.54677100e-03 1.11345100e-01
      -11 -1    0    0    0    0 +0.0000000000e+00 +0.0000000000e+00 +1.2478158527e+02 1.2478158527e+02 0.0000000000e+00 0.0000e+00 1.0000e+00
       11 -1    0    0    0    0 -0.0000000000e+00 -0.0000000000e+00 -1.2498689398e+02 1.2498689398e+02 0.0000000000e+00 0.0000e+00 -1.0000e+00
       23  1    1    2    0    0 +2.5534132996e+01 -5.5959400723e+01 -7.6150474556e+00 1.1025736605e+02 9.1188000000e+01 0.0000e+00 0.0000e+00
       25  1    1    2    0    0 -2.5534132996e+01 +5.5959400723e+01 +7.4097387505e+00 1.3951111320e+02 1.2500000000e+02 0.0000e+00 0.0000e+00
</event>
<event>
 4      1 +2.1368000e-01 2.49967500e+02 7.54677100e-03 1.11332500e-01
      -11 -1    0    0    0    0 +0.0000000000e+00 +0.0000000000e+00 +1.2497940154e+02 1.2497940154e+02 0.0000000000e+00 0.0000e+00 1.0000e+00
       11 -1    0    0    0    0 -0.0000000000e+00 -0.0000000000e+00 -1.2498810799e+02 1.2498810799e+02 0.0000000000e+00 0.0000e+00 -1.0000e+00
       23  1    1    2    0    0 +5.3594699894e+01 -2.4492351376e+01 +1.9803513213e+01 1.1036166731e+02 9.1188000000e+01 0.0000e+00 0.0000e+00
       25  1    1    2    0    0 -5.3594699894e+01 +2.4492351376e+01 -1.9812219667e+01 1.3960584222e+02 1.2500000000e+02 0.0000e+00 0.0000e+00
</event>
<event>
 4      1 +2.1368000e-01 2.49971300e+02 7.54677100e-03 1.11332300e-01
      -11 -1    0    0    0    0 +0.0000000000e+00 +0.0000000000e+00 +1.2498392442e+02 1.2498392442e+02 0.0000000000e+00 0.0000e+00 -1.0000e+00
       11 -1    0    0    0    0 -0.0000000000e+00 -0.0000000000e+00 -1.2498740707e+02 1.2498740707e+02 0.0000000000e+00 0.0000e+00 1.0000e+00
       23  1    1    2    0    0 +6.0784995792e+01 +5.5968009886e+00 +1.1785311005e+01 1.1036432754e+02 9.1188000000e+01 0.0000e+00 1.0000e+00
       25  1    1    2    0    0 -6.0784995792e+01 -5.5968009886e+00 -1.1788793664e+01 1.3960700395e+02 1.2500000000e+02 0.0000e+00 0.0000e+00
</event>
<event>
 4      1 +2.1368000e-01 2.49935800e+02 7.54677100e-03 1.11334500e-01
      -11 -1    0    0    0    0 +0.0000000000e+00 +0.0000000000e+00 +1.2498794018e+02 1.2498794018e+02 0.0000000000e+00 0.0000e+00 -1.0000e+00
       11 -1    0    0    0    0 -0.0000000000e+00 -0.0000000000e+00 -1.2494789557e+02 1.2494789557e+02 0.0000000000e+00 0.0000e+00 1.0000e+00
       23  1    1    2    0    0 -2.4546687598e+01 +8.3853621475e+00 -5.6443278788e+01 1.1033562088e+02 9.1188000000e+01 0.0000e+00 1.0000e+00
       25  1    1    2    0    0 +2.4546687598e+01 -8.3853621475e+00 +5.6483323401e+01 1.3960021487e+02 1.2500000000e+02 0.0000e+00 0.0000e+00
</event>
<event>
 4      1 +2.1368000e-01 2.49961600e+02 7.54677100e-03 1.11332900e-01
      -11 -1    0    0    0    0 +0.0000000000e+00 +0.0000000000e+00 +1.2498863387e+02 1.2498863387e+02 0.0000000000e+00 0.0000e+00 1.0000e+00
       11 -1    0    0    0    0 -0.0000000000e+00 -0.0000000000e+00 -1.2497296262e+02 1.2497296262e+02 0.0000000000e+00 0.0000e+00 -1.0000e+00
       23  1    1    2    0    0 -4.8421932647e+01 +3.8666114742e+01 -4.9040471893e+00 1.1035874688e+02 9.1188000000e+01 0.0000e+00 -1.0000e+00
       25  1    1    2    0    0 +4.8421932647e+01 -3.8666114742e+01 +4.9197184352e+00 1.3960284961e+02 1.2500000000e+02 0.0000e+00 0.0000e+00
</event>
<event>
 4      1 +2.1368000e-01 2.49974800e+02 7.54677100e-03 1.11332100e-01
      -11 -1    0    0    0    0 +0.0000000000e+00 +0.0000000000e+00 +1.2498829390e+02 1.2498829390e+02 0.0000000000e+00 0.0000e+00 -1.0000e+00
       11 -1    0    0    0    0 -0.0000000000e+00 -0.0000000000e+00 -1.2498655256e+02 1.2498655256e+02 0.0000000000e+00 0.0000e+00 1.0000e+00
       23  1    1    2    0    0 +4.1566039446e+01 +8.1168103570e+00 +4.5518729711e+01 1.1036677192e+02 9.1188000000e+01 0.0000e+00 0.0000e+00
       25  1    1    2    0    0 -4.1566039446e+01 -8.1168103570e+00 -4.5516988369e+01 1.3960807454e+02 1.2500000000e+02 0.0000e+00 0.0000e+00
</event>
<event>
 4      1 +2.1368000e-01 2.46903000e+02 7.54677100e-03 1.11527800e-01
      -11 -1    0    0    0    0 +0.0000000000e+00 +0.0000000000e+00 +1.2193532151e+02 1.2193532151e+02 0.0000000000e+00 0.0000e+00 -1.0000e+00
       11 -1    0    0    0    0 -0.0000000000e+00 -0.0000000000e+00 -1.2498649945e+02 1.2498649945e+02 0.0000000000e+00 0.0000e+00 1.0000e+00
       23  1    1    2    0    0 -5.0853753504e+01 +2.7653598503e+01 -1.3109725710e+01 1.0880230700e+02 9.1188000000e+01 0.0000e+00 1.0000e+00
       25  1    1    2    0    0 +5.0853753504e+01 -2.7653598503e+01 +1.0058547765e+01 1.3811951397e+02 1.2500000000e+02 0.0000e+00 0.0000e+00
</event>
<event>
 4      1 +2.1368000e-01 2.49966600e+02 7.54677100e-03 1.11332600e-01
      -11 -1    0    0    0    0 +0.0000000000e+00 +0.0000000000e+00 +1.2498153878e+02 1.2498153878e+02 0.0000000000e+00 0.0000e+00 -1.0000e+00
       11 -1    0    0    0    0 -0.0000000000e+00 -0.0000000000e+00 -1.2498502137e+02 1.2498502137e+02 0.0000000000e+00 0.0000e+00 1.0000e+00
       23  1    1    2    0    0 +2.6696067353e+01 +2.7289440603e+01 +4.9060544851e+01 1.1036114346e+02 9.1188000000e+01 0.0000e+00 -1.0000e+00
       25  1    1    2    0    0 -2.6696067353e+01 -2.7289440603e+01 -4.9064027444e+01 1.3960541669e+02 1.2500000000e+02 0.0000e+00 0.0000e+00
</event>
<event>
 4      1 +2.1368000e-01 2.49975000e+02 7.54677100e-03 1.11332100e-01
      -11 -1    0    0    0    0 +0.0000000000e+00 +0.0000000000e+00 +1.2498749033e+02 1.2498749033e+02 0.0000000000e+00 0.0000e+00 1.0000e+00
       11 -1    0    0    0    0 -0.0000000000e+00 -0.0000000000e+00 -1.2498749033e+02 1.2498749033e+02 0.0000000000e+00 0.0000e+00 -1.0000e+00
       23  1    1    2    0    0 -1.1895865231e+01 -4.7168946162e+00 -6.0842081235e+01 1.1036652979e+02 9.1188000000e+01 0.0000e+00 -1.0000e+00
       25  1    1    2    0    0 +1.1895865231e+01 +4.7168946162e+00 +6.0842081235e+01 1.3960845087e+02 1.2500000000e+02 0.0000e+00 0.0000e+00
</event>
<event>
 4      1 +2.1368000e-01 2.49974500e+02 7.54677100e-03 1.11332100e-01
      -11 -1    0    0    0    0 +0.0000000000e+00 +0.0000000000e+00 +1.2498811583e+02 1.2498811583e+02 0.0000000000e+00 0.0000e+00 1.0000e+00
       11 -1    0    0    0    0 -0.0000000000e+00 -0.0000000000e+00 -1.2498637449e+02 1.2498637449e+02 0.0000000000e+00 0.0000e+00 -1.0000e+00
       23  1    1    2    0    0 -5.6441104005e+01 +2.5894577934e+01 -3.0540173555e+00 1.1036623466e+02 9.1188000000e+01 0.0000e+00 0.0000e+00
       25  1    1    2    0    0 +5.6441104005e+01 -2.5894577934e+01 +3.0557586949e+00 1.3960825566e+02 1.2500000000e+02 0.0000e+00 0.0000e+00
</event>
<event>
 4      1 +2.1368000e-01 2.45792700e+02 7.54677100e-03 1.11599300e-01
      -11 -1    0    0    0    0 +0.0000000000e+00 +0.0000000000e+00 +1.2178762142e+02 1.2178762142e+02 0.0000000000e+00 0.0000e+00 1.0000e+00
       11 -1    0    0    0    0 -0.0000000000e+00 -0.0000000000e+00 -1.2401520364e+02 1.2401520364e+02 0.0000000000e+00 0.0000e+00 -1.0000e+00
       23  1    1    2    0    0 -3.0353997886e+01 +4.3422893865e+01 +2.2422515550e+01 1.0781898463e+02 9.1188000000e+01 0.0000e+00 0.0000e+00
       25  1    1    2    0    0 +3.0353997886e+01 -4.3422893865e+01 -2.4650097766e+01 1.3798384043e+02 1.2500000000e+02 0.0000e+00 0.0000e+00
</event>
<event>
 4      1 +2.1368000e-01 2.49975000e+02 7.54677100e-03 1.11332100e-01
      -11 -1    0    0    0    0 +0.0000000000e+00 +0.0000000000e+00 +1.2498749745e+02 1.2498749745e+02 0.0000000000e+00 0.0000e+00 -1.0000e+00
       11 -1    0    0    0    0 -0.0000000000e+00 -0.0000000000e+00 -1.2498749745e+02 1.2498749745e+02 0.0000000000e+00 0.0000e+00 1.0000e+00
       23  1    1    2    0    0 +6.0575272744e+00 +5.6405051067e+01 +2.5442049607e+01 1.1036653775e+02 9.1188000000e+01 0.0000e+00 -1.0000e+00
       25  1    1    2    0    0 -6.0575272744e+00 -5.6405051067e+01 -2.5442049607e+01 1.3960845716e+02 1.2500000000e+02 0.0000e+00 0.0000e+00
</event>
<event>
 4      1 +2.1368000e-01 2.49975000e+02 7.54677100e-03 1.11332100e-01
      -11 -1    0    0    0    0 +0.0000000000e+00 +0.0000000000e+00 +1.2498837067e+02 1.2498837067e+02 0.0000000000e+00 0.0000e+00 1.0000e+00
       11 -1    0    0    0    0 -0.0000000000e+00 -0.0000000000e+00 -1.2498662933e+02 1.2498662933e+02 0.0000000000e+00 0.0000e+00 -1.0000e+00
       23  1    1    2    0    0 +2.1791952625e+01 -3.9652516076e+01 -4.2640885787e+01 1.1036624355e+02 9.1188000000e+01 0.0000e+00 -1.0000e+00
       25  1    1    2    0    0 -2.1791952625e+01 +3.9652516076e+01 +4.2642627130e+01 1.3960875646e+02 1.2500000000e+02 0.0000e+00 0.0000e+00
</event>
<event>
 4      1 +2.1368000e-01 2.49975000e+02 7.54677100e-03 1.11332100e-01
      -11 -1    0    0    0    0 +0.0000000000e+00 +0.0000000000e+00 +1.2498749946e+02 1.2498749946e+02 0.0000000000e+00 0.0000e+00 1.0000e+00
       11 -1    0    0    0    0 -0.0000000000e+00 -0.0000000000e+00 -1.2498749946e+02 1.2498749946e+02 0.0000000000e+00 0.0000e+00 -1.0000e+00
       23  1    1    2    0    0 -5.1663668129e+01 +6.1776451085e+00 -3.4032688736e+01 1.1036653999e+02 9.1188000000e+01 0.0000e+00 0.0000e+00
       25  1    1    2    0    0 +5.1663668129e+01 -6.1776451085e+00 +3.4032688736e+01 1.3960845893e+02 1.2500000000e+02 0.0000e+00 0.0000e+00
</event>
<event>
 4      1 +2.1368000e-01 2.49280800e+02 7.54677100e-03 1.11376000e-01
      -11 -1    0    0    0    0 +0.0000000000e+00 +0.0000000000e+00 +1.2429706021e+02 1.2429706021e+02 0.0000000000e+00 0.0000e+00 -1.0000e+00
       11 -1    0    0    0    0 -0.0000000000e+00 -0.0000000000e+00 -1.2498471971e+02 1.2498471971e+02 0.0000000000e+00 0.0000e+00 1.0000e+00
       23  1    1    2    0    0 -1.2235929675e+01 +5.9881905314e+01 -6.9751179255e+00 1.0999756440e+02 9.1188000000e+01 0.0000e+00 1.0000e+00
       25  1    1    2    0    0 +1.2235929675e+01 -5.9881905314e+01 +6.2874584210e+00 1.3928421552e+02 1.2500000000e+02 0.0000e+00 0.0000e+00
</event>
<event>
 4      1 +2.1368000e-01 2.49975000e+02 7.54677100e-03 1.11332100e-01
      -11 -1    0    0    0    0 +0.0000000000e+00 +0.0000000000e+00 +1.2498836709e+02 1.2498836709e+02 0.0000000000e+00 0.0000e+00 1.0000e+00
       11 -1    0    0    0    0 -0.0000000000e+00 -0.0000000000e+00 -1.2498662575e+02 1.2498662575e+02 0.0000000000e+00 0.0000e+00 -1.0000e+00
       23  1    1    2    0    0 +5.0230256834e+01 -1.4187436836e+00 -3.6611107929e+01 1.1036628155e+02 9.1188000000e+01 0.0000e+00 -1.0000e+00
       25  1    1    2    0    0 -5.0230256834e+01 +1.4187436836e+00 +3.6612849272e+01 1.3960871129e+02 1.2500000000e+02 0.0000e+00 0.0000e+00
</event>
<event>
 4      1 +2.1368000e-01 2.47850700e+02 7.54677100e-03 1.11467100e-01
      -11 -1    0    0    0    0 +0.0000000000e+00 +0.0000000000e+00 +1.2498737159e+02 1.2498737159e+02 0.0000000000e+00 0.0000e+00 1.0000e+00
       11 -1    0    0    0    0 -0.0000000000e+00 -0.0000000000e+00 -1.2287233615e+02 1.2287233615e+02 0.0000000000e+00 0.0000e+00 -1.0000e+00
       23  1    1    2    0    0 -4.5307065236e+01 +3.1704634946e+01 +2.4318494469e+01 1.0938260627e+02 9.1188000000e+01 0.0000e+00 0.0000e+00
       25  1    1    2    0    0 +4.5307065236e+01 -3.1704634946e+01 -2.2203459034e+01 1.3847710147e+02 1.2500000000e+02 0.0000e+00 0.0000e+00
</event>
<event>
 4      1 +2.1368000e-01 2.49975000e+02 7.54677100e-03 1.11332100e-01
      -11 -1    0    0    0    0 +0.0000000000e+00 +0.0000000000e+00 +1.2498837063e+02 1.2498837063e+02 0.0000000000e+00 0.0000e+00 1.0000e+00
       11 -1    0    0    0    0 -0.0000000000e+00 -0.0000000000e+00 -1.2498662929e+02 1.2498662929e+02 0.0000000000e+00 0.0000e+00 -1.0000e+00
       23  1    1    2    0    0 +6.0324137794e+01 -4.2710130488e+00 -1.4431097811e+01 1.1036644001e+02 9.1188000000e+01 0.0000e+00 -1.0000e+00
       25  1    1    2    0    0 -6.0324137794e+01 +4.2710130488e+00 +1.4432839154e+01 1.3960855991e+02 1.2500000000e+02 0.0000e+00 0.0000e+00
</event>
<event>
 4      1 +2.1368000e-01 2.49975000e+02 7.54677100e-03 1.11332100e-01
      -11 -1    0    0    0    0 +0.0000000000e+00 +0.0000000000e+00 +1.2498836181e+02 1.2498836181e+02 0.0000000000e+00 0.0000e+00 -1.0000e+00
       11 -1    0    0    0    0 -0.0000000000e+00 -0.0000000000e+00 -1.2498662047e+02 1.2498662047e+02 0.0000000000e+00 0.0000e+00 1.0000e+00
       23  1    1    2    0    0 -2.6348471249e+00 +1.1034728749e+01 -6.1128701123e+01 1.1036610486e+02 9.1188000000e+01 0.0000e+00 1.0000e+00
       25  1    1    2    0    0 +2.6348471249e+00 -1.1034728749e+01 +6.1130442466e+01 1.3960887742e+02 1.2500000000e+02 0.0000e+00 0.0000e+00
</event>
<event>
 4      1 +2.1368000e-01 2.48282100e+02 7.54677100e-03 1.11439500e-01
      -11 -1    0    0    0    0 +0.0000000000e+00 +0.0000000000e+00 +1.2438340974e+02 1.2438340974e+02 0.0000000000e+00 0.0000e+00 -1.0000e+00
       11 -1    0    0    0    0 -0.0000000000e+00 -0.0000000000e+00 -1.2389913486e+02 1.2389913486e+02 0.0000000000e+00 0.0000e+00 1.0000e+00
       23  1    1    2    0    0 +4.7121669823e+01 -1.1447774042e+01 +3.6353022063e+01 1.0949108116e+02 9.1188000000e+01 0.0000e+00 -1.0000e+00
       25  1    1    2    0    0 -4.7121669823e+01 +1.1447774042e+01 -3.5868747178e+01 1.3879146343e+02 1.2500000000e+02 0.0000e+00 0.0000e+00
</event>
<event>
 4      1 +2.1368000e-01 2.49970800e+02 7.54677100e-03 1.11332300e-01
      -11 -1    0    0    0    0 +0.0000000000e+00 +0.0000000000e+00 +1.2498888996e+02 1.2498888996e+02 0.0000000000e+00 0.0000e+00 1.0000e+00
       11 -1    0    0    0    0 -0.0000000000e+00 -0.0000000000e+00 -1.2498192466e+02 1.2498192466e+02 0.0000000000e+00 0.0000e+00 -1.0000e+00
       23  1    1    2    0    0 +5.3962405285e+01 -2.4820730387e+01 -1.8354379046e+01 1.1036369156e+02 9.1188000000e+01 0.0000e+00 -1.0000e+00
       25  1    1    2    0    0 -5.3962405285e+01 +2.4820730387e+01 +1.8361344350e+01 1.3960712305e+02 1.2500000000e+02 0.0000e+00 0.0000e+00
</event>
<event>
 4      1 +2.1368000e-01 2.49974800e+02 7.54677100e-03 1.11332100e-01
      -11 -1    0    0    0    0 +0.0000000000e+00 +0.0000000000e+00 +1.2498739944e+02 1.2498739944e+02 0.0000000000e+00 0.0000e+00 1.0000e+00
       11 -1    0    0    0    0 -0.0000000000e+00 -0.0000000000e+00 -1.2498739944e+02 1.2498739944e+02 0.0000000000e+00 0.0000e+00 -1.0000e+00
       23  1    1    2    0    0 +5.9729562071e+00 -1.1078330414e+01 -6.0885889442e+01 1.1036642826e+02 9.1188000000e+01 0.0000e+00 -1.0000e+00
       25  1    1    2    0    0 -5.9729562071e+00 +1.1078330414e+01 +6.0885889442e+01 1.3960837061e+02 1.2500000000e+02 0.0000e+00 0.0000e+00
</event>
<event>
 4      1 +2.1368000e-01 2.49974700e+02 7.54677100e-03 1.11332100e-01
      -11 -1    0    0    0    0 +0.0000000000e+00 +0.0000000000e+00 +1.2498822938e+02 1.2498822938e+02 0.0000000000e+00 0.0000e+00 1.0000e+00
       11 -1    0    0    0    0 -0.0000000000e+00 -0.0000000000e+00 -1.2498648804e+02 1.2498648804e+02 0.0000000000e+00 0.0000e+00 -1.0000e+00
       23  1    1    2    0    0 +3.4497242965e+01 -3.9459171483e+01 +3.3443273435e+01 1.1036661573e+02 9.1188000000e+01 0.0000e+00 0.0000e+00
       25  1    1    2    0    0 -3.4497242965e+01 +3.9459171483e+01 -3.3441532094e+01 1.3960810168e+02 1.2500000000e+02 0.0000e+00 0.0000e+00
</event>
<event>
 4      1 +2.1368000e-01 2.49940800e+02 7.54677100e-03 1.11334200e-01
      -11 -1    0    0    0    0 +0.0000000000e+00 +0.0000000000e+00 +1.2495301197e+02 1.2495301197e+02 0.0000000000e+00 0.0000e+00 1.0000e+00
       11 -1    0    0    0    0 -0.0000000000e+00 -0.0000000000e+00 -1.2498783431e+02 1.2498783431e+02 0.0000000000e+00 0.0000e+00 -1.0000e+00
       23  1    1    2    0    0 +1.0366534855e+01 +4.7722166593e+01 +3.8409115307e+01 1.1034211214e+02 9.1188000000e+01 0.0000e+00 1.0000e+00
       25  1    1    2    0    0 -1.0366534855e+01 -4.7722166593e+01 -3.8443937649e+01 1.3959873413e+02 1.2500000000e+02 0.0000e+00 0.0000e+00
</event>
<event>
 4      1 +2.1368000e-01 2.36949500e+02 7.54677100e-03 1.12184200e-01
      -11 -1    0    0    0    0 +0.0000000000e+00 +0.0000000000e+00 +1.2498774047e+02 1.2498774047e+02 0.0000000000e+00 0.0000e+00 1.0000e+00
       11 -1    0    0    0    0 -0.0000000000e+00 -0.0000000000e+00 -1.1230112663e+02 1.1230112663e+02 0.0000000000e+00 0.0000e+00 -1.0000e+00
       23  1    1    2    0    0 -3.2958929619e+01 -1.3279690415e+00 +4.0438659061e+01 1.0506469928e+02 9.1188000000e+01 0.0000e+00 1.0000e+00
       25  1    1    2    0    0 +3.2958929619e+01 +1.3279690415e+00 -2.7752045220e+01 1.3222416783e+02 1.2500000000e+02 0.0000e+00 0.0000e+00
</event>
<event>
 4      1 +2.1368000e-01 2.48082900e+02 7.54677100e-03 1.11452200e-01
      -11 -1    0    0    0    0 +0.0000000000e+00 +0.0000000000e+00 +1.2310234288e+02 1.2310234288e+02 0.0000000000e+00 0.0000e+00 -1.0000e+00
       11 -1    0    0    0    0 -0.0000000000e+00 -0.0000000000e+00 -1.2498777036e+02 1.2498777036e+02 0.0000000000e+00 0.0000e+00 1.0000e+00
       23  1    1    2    0    0 +4.5422853560e+01 +2.9727443537e+01 +2.5366398557e+01 1.0911307000e+02 9.1188000000e+01 0.0000e+00 -1.0000e+00
       25  1    1    2    0    0 -4.5422853560e+01 -2.9727443537e+01 -2.7251826042e+01 1.3897704324e+02 1.2500000000e+02 0.0000e+00 0.0000e+00
</event>
<event>
 4      1 +2.1368000e-01 2.49975000e+02 7.54677100e-03 1.11332100e-01
      -11 -1    0    0    0    0 +0.0000000000e+00 +0.0000000000e+00 +1.2498837056e+02 1.2498837056e+02 0.0000000000e+00 0.0000e+00 1.0000e+00
       11 -1    0    0    0    0 -0.0000000000e+00 -0.0000000000e+00 -1.2498662921e+02 1.2498662921e+02 0.0000000000e+00 0.0000e+00 -1.0000e+00
       23  1    1    2    0    0 +6.1502429903e+01 -9.1077407387e+00 -1.4783825645e-01 1.1036653943e+02 9.1188000000e+01 0.0000e+00 0.0000e+00
       25  1    1    2    0    0 -6.1502429903e+01 +9.1077407387e+00 +1.4957959937e-01 1.3960846034e+02 1.2500000000e+02 0.0000e+00 0.0000e+00
</event>
<event>
 4      1 +2.1368000e-01 2.49975000e+02 7.54677100e-03 1.11332100e-01
      -11 -1    0    0    0    0 +0.0000000000e+00 +0.0000000000e+00 +1.2498837066e+02 1.2498837066e+02 0.0000000000e+00 0.0000e+00 -1.0000e+00
       11 -1    0    0    0    0 -0.0000000000e+00 -0.0000000000e+00 -1.2498662932e+02 1.2498662932e+02 0.0000000000e+00 0.0000e+00 1.0000e+00
       23  1    1    2    0    0 +6.0803132156e+01 -6.7573900091e+00 +1.1084032535e+01 1.1036661778e+02 9.1188000000e+01 0.0000e+00 1.0000e+00
       25  1    1    2    0    0 -6.0803132156e+01 +6.7573900091e+00 -1.1082291192e+01 1.3960838219e+02 1.2500000000e+02 0.0000e+00 0.0000e+00
</event>
<event>
 4      1 +2.1368000e-01 2.49973400e+02 7.54677100e-03 1.11332200e-01
      -11 -1    0    0    0    0 +0.0000000000e+00 +0.0000000000e+00 +1.2498842563e+02 1.2498842563e+02 0.0000000000e+00 0.0000e+00 -1.0000e+00
       11 -1    0    0    0    0 -0.0000000000e+00 -0.0000000000e+00 -1.2498494294e+02 1.2498494294e+02 0.0000000000e+00 0.0000e+00 1.0000e+00
       23  1    1    2    0    0 +2.2548721581e+01 +5.6302634490e+01 -1.3669209336e+01 1.1036543899e+02 9.1188000000e+01 0.0000e+00 0.0000e+00
       25  1    1    2    0    0 -2.2548721581e+01 -5.6302634490e+01 +1.3672692023e+01 1.3960792958e+02 1.2500000000e+02 0.0000e+00 0.0000e+00
</event>
<event>
 4      1 +2.1368000e-01 2.47383800e+02 7.54677100e-03 1.11496900e-01
      -11 -1    0    0    0    0 +0.0000000000e+00 +0.0000000000e+00 +1.2241127145e+02 1.2241127145e+02 0.0000000000e+00 0.0000e+00 -1.0000e+00
       11 -1    0    0    0    0 -0.0000000000e+00 -0.0000000000e+00 -1.2498588381e+02 1.2498588381e+02 0.0000000000e+00 0.0000e+00 1.0000e+00
       23  1    1    2    0    0 -3.5340059172e+01 -2.9608192439e+01 -3.8848513872e+01 1.0931616173e+02 9.1188000000e+01 0.0000e+00 1.0000e+00
       25  1    1    2    0    0 +3.5340059172e+01 +2.9608192439e+01 +3.6273901515e+01 1.3808099353e+02 1.2500000000e+02 0.0000e+00 0.0000e+00
</event>
<event>
 4      1 +2.1368000e-01 2.49974600e+02 7.54677100e-03 1.11332100e-01
      -11 -1    0    0    0    0 +0.0000000000e+00 +0.0000000000e+00 +1.2498819209e+02 1.2498819209e+02 0.0000000000e+00 0.0000e+00 1.0000e+00
       11 -1    0    0    0    0 -0.0000000000e+00 -0.0000000000e+00 -1.2498645075e+02 1.2498645075e+02 0.0000000000e+00 0.0000e+00 -1.0000e+00
       23  1    1    2    0    0 -8.6333499113e+00 +5.7780467120e+01 +2.1269543963e+01 1.1036648928e+02 9.1188000000e+01 0.0000e+00 0.0000e+00
       25  1    1    2    0    0 +8.6333499113e+00 -5.7780467120e+01 -2.1267802623e+01 1.3960815356e+02 1.2500000000e+02 0.0000e+00 0.0000e+00
</event>
<event>
 4      1 +2.1368000e-01 2.36872700e+02 7.54677100e-03 1.12189400e-01
      -11 -1    0    0    0    0 +0.0000000000e+00 +0.0000000000e+00 +1.2498631114e+02 1.2498631114e+02 0.0000000000e+00 0.0000e+00 -1.0000e+00
       11 -1    0    0    0    0 -0.0000000000e+00 -0.0000000000e+00 -1.1222960886e+02 1.1222960886e+02 0.0000000000e+00 0.0000e+00 1.0000e+00
       23  1    1    2    0    0 +3.0215420686e+01 +4.8324047303e+00 +4.2462589084e+01 1.0514107950e+02 9.1188000000e+01 0.0000e+00 0.0000e+00
       25  1    1    2    0    0 -3.0215420686e+01 -4.8324047303e+00 -2.9705886797e+01 1.3207484050e+02 1.2500000000e+02 0.0000e+00 0.0000e+00
</event>
<event>
 4      1 +2.1368000e-01 2.49975000e+02 7.54677100e-03 1.11332100e-01
      -11 -1    0    0    0    0 +0.0000000000e+00 +0.0000000000e+00 +1.2498750000e+02 1.2498750000e+02 0.0000000000e+00 0.0000e+00 1.0000e+00
       11 -1    0    0    0    0 -0.0000000000e+00 -0.0000000000e+00 -1.2498750000e+02 1.2498750000e+02 0.0000000000e+00 0.0000e+00 -1.0000e+00
       23  1    1    2    0    0 -3.7379809196e+01 -4.3308972839e+01 -2.4343472932e+01 1.1036654059e+02 9.1188000000e+01 0.0000e+00 0.0000e+00
       25  1    1    2    0    0 +3.7379809196e+01 +4.3308972839e+01 +2.4343472932e+01 1.3960845941e+02 1.2500000000e+02 0.0000e+00 0.0000e+00
</event>
<event>
 4      1 +2.1368000e-01 2.49973500e+02 7.54677100e-03 1.11332200e-01
      -11 -1    0    0    0    0 +0.0000000000e+00 +0.0000000000e+00 +1.2498763867e+02 1.2498763867e+02 0.0000000000e+00 0.0000e+00 1.0000e+00
       11 -1    0    0    0    0 -0.0000000000e+00 -0.0000000000e+00 -1.2498589734e+02 1.2498589734e+02 0.0000000000e+00 0.0000e+00 -1.0000e+00
       23  1    1    2    0    0 -4.3415326665e+01 +1.4652672077e+00 +4.4478896751e+01 1.1036603281e+02 9.1188000000e+01 0.0000e+00 1.0000e+00
       25  1    1    2    0    0 +4.3415326665e+01 -1.4652672077e+00 -4.4477155419e+01 1.3960750321e+02 1.2500000000e+02 0.0000e+00 0.0000e+00
</event>
<event>
 4      1 +2.1368000e-01 2.49244900e+02 7.54677100e-03 1.11378300e-01
      -11 -1    0    0    0    0 +0.0000000000e+00 +0.0000000000e+00 +1.2426617362e+02 1.2426617362e+02 0.0000000000e+00 0.0000e+00 1.0000e+00
       11 -1    0    0    0    0 -0.0000000000e+00 -0.0000000000e+00 -1.2497977825e+02 1.2497977825e+02 0.0000000000e+00 0.0000e+00 -1.0000e+00
       23  1    1    2    0    0 -3.2782137040e+01 -1.1962205177e+01 +5.0261043671e+01 1.0981432838e+02 9.1188000000e+01 0.0000e+00 1.0000e+00
       25  1    1    2    0    0 +3.2782137040e+01 +1.1962205177e+01 -5.0974648306e+01 1.3943162350e+02 1.2500000000e+02 0.0000e+00 0.0000e+00
</event>
<event>
 4      1 +2.1368000e-01 2.46702800e+02 7.54677100e-03 1.11540600e-01
      -11 -1    0    0    0    0 +0.0000000000e+00 +0.0000000000e+00 +1.2498786494e+02 1.2498786494e+02 0.0000000000e+00 0.0000e+00 -1.0000e+00
       11 -1    0    0    0    0 -0.0000000000e+00 -0.0000000000e+00 -1.2173633815e+02 1.2173633815e+02 0.0000000000e+00 0.0000e+00 1.0000e+00
       23  1    1    2    0    0 -5.3516780047e+01 -1.9188383825e+01 -1.3824687238e+01 1.0834488055e+02 9.1188000000e+01 0.0000e+00 0.0000e+00
       25  1    1    2    0    0 +5.3516780047e+01 +1.9188383825e+01 +1.7076214029e+01 1.3837932254e+02 1.2500000000e+02 0.0000e+00 0.0000e+00
</event>
<event>
 4      1 +2.1368000e-01 2.49975000e+02 7.54677100e-03 1.11332100e-01
      -11 -1    0    0    0    0 +0.0000000000e+00 +0.0000000000e+00 +1.2498749211e+02 1.2498749211e+02 0.0000000000e+00 0.0000e+00 1.0000e+00
       11 -1    0    0    0    0 -0.0000000000e+00 -0.0000000000e+00 -1.2498749211e+02 1.2498749211e+02 0.0000000000e+00 0.0000e+00 -1.0000e+00
       23  1    1    2    0    0 -8.1976274119e+00 -6.1403253800e+01 -5.2876574080e+00 1.1036653178e+02 9.1188000000e+01 0.0000e+00 -1.0000e+00
       25  1    1    2    0    0 +8.1976274119e+00 +6.1403253800e+01 +5.2876574080e+00 1.3960845244e+02 1.2500000000e+02 0.0000e+00 0.0000e+00
</event>
<event>
 4      1 +2.1368000e-01 2.49918500e+02 7.54677100e-03 1.11335600e-01
      -11 -1    0    0    0    0 +0.0000000000e+00 +0.0000000000e+00 +1.2498797554e+02 1.2498797554e+02 0.0000000000e+00 0.0000e+00 1.0000e+00
       11 -1    0    0    0    0 -0.0000000000e+00 -0.0000000000e+00 -1.2493052422e+02 1.2493052422e+02 0.0000000000e+00 0.0000e+00 -1.0000e+00
       23  1    1    2    0    0 +6.4107545068e+00 +1.4026852500e+01 +6.0197671365e+01 1.1034881670e+02 9.1188000000e+01 0.0000e+00 1.0000e+00
       25  1    1    2    0    0 -6.4107545068e+00 -1.4026852500e+01 -6.0140220037e+01 1.3956968306e+02 1.2500000000e+02 0.0000e+00 0.0000e+00
</event>
<event>
 4      1 +2.1368000e-01 2.44511600e+02 7.54677100e-03 1.11682300e-01
      -11 -1    0    0    0    0 +0.0000000000e+00 +0.0000000000e+00 +1.1958420627e+02 1.1958420627e+02 0.0000000000e+00 0.0000e+00 1.0000e+00
       11 -1    0    0    0    0 -0.0000000000e+00 -0.0000000000e+00 -1.2498706355e+02 1.2498706355e+02 0.0000000000e+00 0.0000e+00 -1.0000e+00
       23  1    1    2    0    0 +8.4755078050e+00 +2.9453417404e+01 -4.9926905668e+01 1.0838489416e+02 9.1188000000e+01 0.0000e+00 -1.0000e+00
       25  1    1    2    0    0 -8.4755078050e+00 -2.9453417404e+01 +4.4524048391e+01 1.3618637566e+02 1.2500000000e+02 0.0000e+00 0.0000e+00
</event>
<event>
 4      1 +2.1368000e-01 2.49869800e+02 7.54677100e-03 1.11338700e-01
      -11 -1    0    0    0    0 +0.0000000000e+00 +0.0000000000e+00 +1.2495318998e+02 1.2495318998e+02 0.0000000000e+00 0.0000e+00 1.0000e+00
       11 -1    0    0    0    0 -0.0000000000e+00 -0.0000000000e+00 -1.2491663691e+02 1.2491663691e+02 0.0000000000e+00 0.0000e+00 -1.0000e+00
       23  1    1    2    0    0 +9.7140108984e-01 +4.4107977701e+01 +4.3675062202e+01 1.1031418639e+02 9.1188000000e+01 0.0000e+00 0.0000e+00
       25  1    1    2    0    0 -9.7140108984e-01 -4.4107977701e+01 -4.3638509131e+01 1.3955564050e+02 1.2500000000e+02 0.0000e+00 0.0000e+00
</event>
<event>
 4      1 +2.1368000e-01 2.49922600e+02 7.54677100e-03 1.11335400e-01
      -11 -1    0    0    0    0 +0.0000000000e+00 +0.0000000000e+00 +1.2498220292e+02 1.2498220292e+02 0.0000000000e+00 0.0000e+00 -1.0000e+00
       11 -1    0    0    0    0 -0.0000000000e+00 -0.0000000000e+00 -1.2494041915e+02 1.2494041915e+02 0.0000000000e+00 0.0000e+00 1.0000e+00
       23  1    1    2    0    0 +1.1430599496e+01 +5.6008472947e+01 +2.4338348041e+01 1.1034135297e+02 9.1188000000e+01 0.0000e+00 0.0000e+00
       25  1    1    2    0    0 -1.1430599496e+01 -5.6008472947e+01 -2.4296564277e+01 1.3958126910e+02 1.2500000000e+02 0.0000e+00 0.0000e+00
</event>
<event>
 4      1 +2.1368000e-01 2.49975000e+02 7.54677100e-03 1.11332100e-01
      -11 -1    0    0    0    0 +0.0000000000e+00 +0.0000000000e+00 +1.2498837067e+02 1.2498837067e+02 0.0000000000e+00 0.0000e+00 1.0000e+00
       11 -1    0    0    0    0 -0.0000000000e+00 -0.0000000000e+00 -1.2498662933e+02 1.2498662933e+02 0.0000000000e+00 0.0000e+00 -1.0000e+00
       23  1    1    2    0    0 -5.7736989453e+01 +1.6579355237e+01 +1.6034700556e+01 1.1036665229e+02 9.1188000000e+01 0.0000e+00 1.0000e+00
       25  1    1    2    0    0 +5.7736989453e+01 -1.6579355237e+01 -1.6032959213e+01 1.3960834772e+02 1.2500000000e+02 0.0000e+00 0.0000e+00
</event>
<event>
 4      1 +2.1368000e-01 2.49248400e+02 7.54677100e-03 1.11378100e-01
      -11 -1    0    0    0    0 +0.0000000000e+00 +0.0000000000e+00 +1.2426269230e+02 1.2426269230e+02 0.0000000000e+00 0.0000e+00 1.0000e+00
       11 -1    0    0    0    0 -0.0000000000e+00 -0.0000000000e+00 -1.2498672458e+02 1.2498672458e+02 0.0000000000e+00 0.0000e+00 -1.0000e+00
       23  1    1    2    0    0 +2.6737463872e+01 -7.2964001288e+00 -5.5164455526e+01 1.1012037925e+02 9.1188000000e+01 0.0000e+00 -1.0000e+00
       25  1    1    2    0    0 -2.6737463872e+01 +7.2964001288e+00 +5.4440423239e+01 1.3912903763e+02 1.2500000000e+02 0.0000e+00 0.0000e+00
</event>
<event>
 4      1 +2.1368000e-01 2.49824500e+02 7.54677100e-03 1.11341600e-01
      -11 -1    0    0    0    0 +0.0000000000e+00 +0.0000000000e+00 +1.2483831830e+02 1.2483831830e+02 0.0000000000e+00 0.0000e+00 1.0000e+00
       11 -1    0    0    0    0 -0.0000000000e+00 -0.0000000000e+00 -1.2498624234e+02 1.2498624234e+02 0.0000000000e+00 0.0000e+00 -1.0000e+00
       23  1    1    2    0    0 -4.7274109523e+01 +3.0312106181e+01 -2.6396112842e+01 1.1029810211e+02 9.1188000000e+01 0.0000e+00 0.0000e+00
       25  1    1    2    0    0 +4.7274109523e+01 -3.0312106181e+01 +2.6248188802e+01 1.3952645852e+02 1.2500000000e+02 0.0000e+00 0.0000e+00
</event>
<event>
 4      1 +2.1368000e-01 2.37830300e+02 7.54677100e-03 1.12124700e-01
      -11 -1    0    0    0    0 +0.0000000000e+00 +0.0000000000e+00 +1.2488113216e+02 1.2488113216e+02 0.0000000000e+00 0.0000e+00 -1.0000e+00
       11 -1    0    0    0    0 -0.0000000000e+00 -0.0000000000e+00 -1.1323415286e+02 1.1323415286e+02 0.0000000000e+00 0.0000e+00 1.0000e+00
       23  1    1    2    0    0 -1.4943833994e+01 +3.5503037906e+01 +3.5489256867e+01 1.0515951014e+02 9.1188000000e+01 0.0000e+00 0.0000e+00
       25  1    1    2    0    0 +1.4943833994e+01 -3.5503037906e+01 -2.3842277562e+01 1.3295577488e+02 1.2500000000e+02 0.0000e+00 0.0000e+00
</event>
<event>
 4      1 +2.1368000e-01 2.40897800e+02 7.54677100e-03 1.11919600e-01
      -11 -1    0    0    0    0 +0.0000000000e+00 +0.0000000000e+00 +1.2458617801e+02 1.2458617801e+02 0.0000000000e+00 0.0000e+00 1.0000e+00
       11 -1    0    0    0    0 -0.0000000000e+00 -0.0000000000e+00 -1.1644897203e+02 1.1644897203e+02 0.0000000000e+00 0.0000e+00 -1.0000e+00
       23  1    1    2    0    0 -4.2580154398e+01 -2.4805495766e+01 +2.1995158606e+01 1.0595952300e+02 9.1188000000e+01 0.0000e+00 0.0000e+00
       25  1    1    2    0    0 +4.2580154398e+01 +2.4805495766e+01 -1.3857952634e+01 1.3507562704e+02 1.2500000000e+02 0.0000e+00 0.0000e+00
</event>
<event>
 4      1 +2.1368000e-01 2.44573200e+02 7.54677100e-03 1.11678300e-01
      -11 -1    0    0    0    0 +0.0000000000e+00 +0.0000000000e+00 +1.2407648174e+02 1.2407648174e+02 0.0000000000e+00 0.0000e+00 1.0000e+00
       11 -1    0    0    0    0 -0.0000000000e+00 -0.0000000000e+00 -1.2052253141e+02 1.2052253141e+02 0.0000000000e+00 0.0000e+00 -1.0000e+00
       23  1    1    2    0    0 -2.4473359509e+01 -4.5124430186e+01 -2.2360191364e+01 1.0700649058e+02 9.1188000000e+01 0.0000e+00 0.0000e+00
       25  1    1    2    0    0 +2.4473359509e+01 +4.5124430186e+01 +2.5914141697e+01 1.3759252256e+02 1.2500000000e+02 0.0000e+00 0.0000e+00
</event>
<event>
 4      1 +2.1368000e-01 2.49975000e+02 7.54677100e-03 1.11332100e-01
      -11 -1    0    0    0    0 +0.0000000000e+00 +0.0000000000e+00 +1.2498750000e+02 1.2498750000e+02 0.0000000000e+00 0.0000e+00 -1.0000e+00
       11 -1    0    0    0    0 -0.0000000000e+00 -0.0000000000e+00 -1.2498750000e+02 1.2498750000e+02 0.0000000000e+00 0.0000e+00 1.0000e+00
       23  1    1    2    0    0 +2.2684142294e+01 -5.0658746555e+01 -2.8011480211e+01 1.1036654059e+02 9.1188000000e+01 0.0000e+00 0.0000e+00
       25  1    1    2    0    0 -2.2684142294e+01 +5.0658746555e+01 +2.8011480211e+01 1.3960845941e+02 1.2500000000e+02 0.0000e+00 0.0000e+00
</event>
<event>
 4      1 +2.1368000e-01 2.49078400e+02 7.54677100e-03 1.11388900e-01
      -11 -1    0    0    0    0 +0.0000000000e+00 +0.0000000000e+00 +1.2498767447e+02 1.2498767447e+02 0.0000000000e+00 0.0000e+00 -1.0000e+00
       11 -1    0    0    0    0 -0.0000000000e+00 -0.0000000000e+00 -1.2409235847e+02 1.2409235847e+02 0.0000000000e+00 0.0000e+00 1.0000e+00
       23  1    1    2    0    0 +1.4603327158e+01 +1.8756359777e+01 -5.6086825590e+01 1.0966330993e+02 9.1188000000e+01 0.0000e+00 1.0000e+00
       25  1    1    2    0    0 -1.4603327158e+01 -1.8756359777e+01 +5.6982141584e+01 1.3941672301e+02 1.2500000000e+02 0.0000e+00 0.0000e+00
</event>
<event>
 4      1 +2.1368000e-01 2.49768500e+02 7.54677100e-03 1.11345100e-01
      -11 -1    0    0    0    0 +0.0000000000e+00 +0.0000000000e+00 +1.2495646900e+02 1.2495646900e+02 0.0000000000e+00 0.0000e+00 1.0000e+00
       11 -1    0    0    0    0 -0.0000000000e+00 -0.0000000000e+00 -1.2481205692e+02 1.2481205692e+02 0.0000000000e+00 0.0000e+00 -1.0000e+00
       23  1    1    2    0    0 +3.4033192585e+00 +6.1865526351e+01 +1.1353904698e+00 1.1025183168e+02 9.1188000000e+01 0.0000e+00 -1.0000e+00
       25  1    1    2    0    0 -3.4033192585e+00 -6.1865526351e+01 -9.9097838752e-01 1.3951669424e+02 1.2500000000e+02 0.0000e+00 0.0000e+00
</event>
<event>
 4      1 +2.1368000e-01 2.42291300e+02 7.54677100e-03 1.11827600e-01
      -11 -1    0    0    0    0 +0.0000000000e+00 +0.0000000000e+00 +1.1742140575e+02 1.1742140575e+02 0.0000000000e+00 0.0000e+00 1.0000e+00
       11 -1    0    0    0    0 -0.0000000000e+00 -0.0000000000e+00 -1.2498799665e+02 1.2498799665e+02 0.0000000000e+00 0.0000e+00 -1.0000e+00
       23  1    1    2    0    0 +1.7925038329e+01 -4.8499900255e+01 -1.9448911344e+01 1.0661640971e+02 9.1188000000e+01 0.0000e+00 -1.0000e+00
       25  1    1    2    0    0 -1.7925038329e+01 +4.8499900255e+01 +1.1882320449e+01 1.3579299269e+02 1.2500000000e+02 0.0000e+00 0.0000e+00
</event>
<event>
 4      1 +2.1368000e-01 2.48268100e+02 7.54677100e-03 1.11440400e-01
      -11 -1    0    0    0    0 +0.0000000000e+00 +0.0000000000e+00 +1.2498785314e+02 1.2498785314e+02 0.0000000000e+00 0.0000e+00 -1.0000e+00
       11 -1    0    0    0    0 -0.0000000000e+00 -0.0000000000e+00 -1.2328606751e+02 1.2328606751e+02 0.0000000000e+00 0.0000e+00 1.0000e+00
       23  1    1    2    0    0 +5.6522345536e+01 +1.0570735406e+01 +1.9441095353e+01 1.0954324956e+02 9.1188000000e+01 0.0000e+00 0.0000e+00
       25  1    1    2    0    0 -5.6522345536e+01 -1.0570735406e+01 -1.7739309723e+01 1.3873067109e+02 1.2500000000e+02 0.0000e+00 0.0000e+00
</event>
<event>
 4      1 +2.1368000e-01 2.49975000e+02 7.54677100e-03 1.11332100e-01
      -11 -1    0    0    0    0 +0.0000000000e+00 +0.0000000000e+00 +1.2498748696e+02 1.2498748696e+02 0.0000000000e+00 0.0000e+00 1.0000e+00
       11 -1    0    0    0    0 -0.0000000000e+00 -0.0000000000e+00 -1.2498748696e+02 1.2498748696e+02 0.0000000000e+00 0.0000e+00 -1.0000e+00
       23  1    1    2    0    0 +5.0550383709e+01 +3.3667092087e+01 +1.3293018462e+01 1.1036652602e+02 9.1188000000e+01 0.0000e+00 -1.0000e+00
       25  1    1    2    0    0 -5.0550383709e+01 -3.3667092087e+01 -1.3293018462e+01 1.3960844789e+02 1.2500000000e+02 0.0000e+00 0.0000e+00
</event>
<event>
 4      1 +2.1368000e-01 2.49966300e+02 7.54677100e-03 1.11332600e-01
      -11 -1    0    0    0    0 +0.0000000000e+00 +0.0000000000e+00 +1.2498752672e+02 1.2498752672e+02 0.0000000000e+00 0.0000e+00 1.0000e+00
       11 -1    0    0    0    0 -0.0000000000e+00 -0.0000000000e+00 -1.2497882031e+02 1.2497882031e+02 0.0000000000e+00 0.0000e+00 -1.0000e+00
       23  1    1    2    0    0 -4.4934198837e+01 -4.1354476367e+01 -1.1622861779e+01 1.1036130300e+02 9.1188000000e+01 0.0000e+00 0.0000e+00
       25  1    1    2    0    0 +4.4934198837e+01 +4.1354476367e+01 +1.1631568193e+01 1.3960504403e+02 1.2500000000e+02 0.0000e+00 0.0000e+00
</event>
<event>
 4      1 +2.1368000e-01 2.49960000e+02 7.54677100e-03 1.11333000e-01
      -11 -1    0    0    0    0 +0.0000000000e+00 +0.0000000000e+00 +1.2498783651e+02 1.2498783651e+02 0.0000000000e+00 0.0000e+00 1.0000e+00
       11 -1    0    0    0    0 -0.0000000000e+00 -0.0000000000e+00 -1.2497216536e+02 1.2497216536e+02 0.0000000000e+00 0.0000e+00 -1.0000e+00
       23  1    1    2    0    0 -3.5431907129e+01 -5.1071051835e+01 +3.2038789144e-02 1.1035816575e+02 9.1188000000e+01 0.0000e+00 0.0000e+00
       25  1    1    2    0    0 +3.5431907129e+01 +5.1071051835e+01 -1.6367643178e-02 1.3960183611e+02 1.2500000000e+02 0.0000e+00 0.0000e+00
</event>
<event>
 4      1 +2.1368000e-01 2.49975000e+02 7.54677100e-03 1.11332100e-01
      -11 -1    0    0    0    0 +0.0000000000e+00 +0.0000000000e+00 +1.2498837067e+02 1.2498837067e+02 0.0000000000e+00 0.0000e+00 -1.0000e+00
       11 -1    0    0    0    0 -0.0000000000e+00 -0.0000000000e+00 -1.2498662933e+02 1.2498662933e+02 0.0000000000e+00 0.0000e+00 1.0000e+00
       23  1    1    2    0    0 +4.5361746787e+01 +9.7992447874e+00 +4.1374778395e+01 1.1036682881e+02 9.1188000000e+01 0.0000e+00 -1.0000e+00
       25  1    1    2    0    0 -4.5361746787e+01 -9.7992447874e+00 -4.1373037052e+01 1.3960817120e+02 1.2500000000e+02 0.0000e+00 0.0000e+00
</event>
<event>
 4      1 +2.1368000e-01 2.39303700e+02 7.54677100e-03 1.12025800e-01
      -11 -1    0    0    0    0 +0.0000000000e+00 +0.0000000000e+00 +1.2498768172e+02 1.2498768172e+02 0.0000000000e+00 0.0000e+00 -1.0000e+00
       11 -1    0    0    0    0 -0.0000000000e+00 -0.0000000000e+00 -1.1454384126e+02 1.1454384126e+02 0.0000000000e+00 0.0000e+00 1.0000e+00
       23  1    1    2    0    0 -2.3963826107e+01 +4.4709105302e+01 +7.1146548286e+00 1.0458985953e+02 9.1188000000e+01 0.0000e+00 -1.0000e+00
       25  1    1    2    0    0 +2.3963826107e+01 -4.4709105302e+01 +3.3291856287e+00 1.3494166345e+02 1.2500000000e+02 0.0000e+00 0.0000e+00
</event>
<event>
 4      1 +2.1368000e-01 2.49972100e+02 7.54677100e-03 1.11332200e-01
      -11 -1    0    0    0    0 +0.0000000000e+00 +0.0000000000e+00 +1.2498694562e+02 1.2498694562e+02 0.0000000000e+00 0.0000e+00 -1.0000e+00
       11 -1    0    0    0    0 -0.0000000000e+00 -0.0000000000e+00 -1.2498520429e+02 1.2498520429e+02 0.0000000000e+00 0.0000e+00 1.0000e+00
       23  1    1    2    0    0 +5.3145858984e+01 -1.2827672147e+01 +2.9600415585e+01 1.1036515504e+02 9.1188000000e+01 0.0000e+00 -1.0000e+00
       25  1    1    2    0    0 -5.3145858984e+01 +1.2827672147e+01 -2.9598674262e+01 1.3960699487e+02 1.2500000000e+02 0.0000e+00 0.0000e+00
</event>
<event>
 4      1 +2.1368000e-01 2.48613300e+02 7.54677100e-03 1.11418400e-01
      -11 -1    0    0    0    0 +0.0000000000e+00 +0.0000000000e+00 +1.2362962791e+02 1.2362962791e+02 0.0000000000e+00 0.0000e+00 1.0000e+00
       11 -1    0    0    0    0 -0.0000000000e+00 -0.0000000000e+00 -1.2498740544e+02 1.2498740544e+02 0.0000000000e+00 0.0000e+00 -1.0000e+00
       23  1    1    2    0    0 +3.1190245639e+01 +4.6384850720e+01 -2.4552152045e+01 1.0973807595e+02 9.1188000000e+01 0.0000e+00 0.0000e+00
       25  1    1    2    0    0 -3.1190245639e+01 -4.6384850720e+01 +2.3194374510e+01 1.3887895740e+02 1.2500000000e+02 0.0000e+00 0.0000e+00
</event>
<event>
 4      1 +2.1368000e-01 2.49898300e+02 7.54677100e-03 1.11336900e-01
      -11 -1    0    0    0    0 +0.0000000000e+00 +0.0000000000e+00 +1.2496744065e+02 1.2496744065e+02 0.0000000000e+00 0.0000e+00 1.0000e+00
       11 -1    0    0    0    0 -0.0000000000e+00 -0.0000000000e+00 -1.2493088341e+02 1.2493088341e+02 0.0000000000e+00 0.0000e+00 -1.0000e+00
       23  1    1    2    0    0 +6.1279335585e+00 -5.0584856235e+01 -3.5475994195e+01 1.1031852409e+02 9.1188000000e+01 0.0000e+00 -1.0000e+00
       25  1    1    2    0    0 -6.1279335585e+00 +5.0584856235e+01 +3.5512551434e+01 1.3957979997e+02 1.2500000000e+02 0.0000e+00 0.0000e+00
</event>
<event>
 4      1 +2.1368000e-01 2.49973400e+02 7.54677100e-03 1.11332200e-01
      -11 -1    0    0    0    0 +0.0000000000e+00 +0.0000000000e+00 +1.2498580612e+02 1.2498580612e+02 0.0000000000e+00 0.0000e+00 -1.0000e+00
       11 -1    0    0    0    0 -0.0000000000e+00 -0.0000000000e+00 -1.2498754745e+02 1.2498754745e+02 0.0000000000e+00 0.0000e+00 1.0000e+00
       23  1    1    2    0    0 -5.8534177730e-01 +4.2973940249e+01 -4.4925336776e+01 1.1036593403e+02 9.1188000000e+01 0.0000e+00 1.0000e+00
       25  1    1    2    0    0 +5.8534177730e-01 -4.2973940249e+01 +4.4923595445e+01 1.3960741955e+02 1.2500000000e+02 0.0000e+00 0.0000e+00
</event>
<event>
 4      1 +2.1368000e-01 2.32874200e+02 7.54677100e-03 1.12463300e-01
      -11 -1    0    0    0    0 +0.0000000000e+00 +0.0000000000e+00 +1.2497967842e+02 1.2497967842e+02 0.0000000000e+00 0.0000e+00 1.0000e+00
       11 -1    0    0    0    0 -0.0000000000e+00 -0.0000000000e+00 -1.0847837667e+02 1.0847837667e+02 0.0000000000e+00 0.0000e+00 -1.0000e+00
       23  1    1    2    0    0 -1.9728287373e+01 +3.7636953573e+01 +1.2447369443e+01 1.0137028138e+02 9.1188000000e+01 0.0000e+00 0.0000e+00
       25  1    1    2    0    0 +1.9728287373e+01 -3.7636953573e+01 +4.0539323001e+00 1.3208777371e+02 1.2500000000e+02 0.0000e+00 0.0000e+00
</event>
<event>
 4      1 +2.1368000e-01 2.49962500e+02 7.54677100e-03 1.11332900e-01
      -11 -1    0    0    0    0 +0.0000000000e+00 +0.0000000000e+00 +1.2497603888e+02 1.2497603888e+02 0.0000000000e+00 0.0000e+00 1.0000e+00
       11 -1    0    0    0    0 -0.0000000000e+00 -0.0000000000e+00 -1.2498648649e+02 1.2498648649e+02 0.0000000000e+00 0.0000e+00 -1.0000e+00
       23  1    1    2    0    0 +4.4256499713e+01 -1.7993697450e+01 -3.9773610677e+01 1.1036123579e+02 9.1188000000e+01 0.0000e+00 -1.0000e+00
       25  1    1    2    0    0 -4.4256499713e+01 +1.7993697450e+01 +3.9763163068e+01 1.3960128958e+02 1.2500000000e+02 0.0000e+00 0.0000e+00
</event>
<event>
 4      1 +2.1368000e-01 2.49859000e+02 7.54677100e-03 1.11339400e-01
      -11 -1    0    0    0    0 +0.0000000000e+00 +0.0000000000e+00 +1.2498868408e+02 1.2498868408e+02 0.0000000000e+00 0.0000e+00 1.0000e+00
       11 -1    0    0    0    0 -0.0000000000e+00 -0.0000000000e+00 -1.2487032771e+02 1.2487032771e+02 0.0000000000e+00 0.0000e+00 -1.0000e+00
       23  1    1    2    0    0 -5.4447310191e-01 -5.2132117692e+01 -3.3610332447e+01 1.1028581023e+02 9.1188000000e+01 0.0000e+00 0.0000e+00
       25  1    1    2    0    0 +5.4447310191e-01 +5.2132117692e+01 +3.3728688822e+01 1.3957320157e+02 1.2500000000e+02 0.0000e+00 0.0000e+00
</event>
<event>
 4      1 +2.1368000e-01 2.49975000e+02 7.54677100e-03 1.11332100e-01
      -11 -1    0    0    0    0 +0.0000000000e+00 +0.0000000000e+00 +1.2498749994e+02 1.2498749994e+02 0.0000000000e+00 0.0000e+00 -1.0000e+00
       11 -1    0    0    0    0 -0.0000000000e+00 -0.0000000000e+00 -1.2498749994e+02 1.2498749994e+02 0.0000000000e+00 0.0000e+00 1.0000e+00
       23  1    1    2    0    0 +5.0942418770e+01 +2.0827766176e+01 +2.8923970166e+01 1.1036654053e+02 9.1188000000e+01 0.0000e+00 -1.0000e+00
       25  1    1    2    0    0 -5.0942418770e+01 -2.0827766176e+01 -2.8923970166e+01 1.3960845936e+02 1.2500000000e+02 0.0000e+00 0.0000e+00
</event>
<event>
 4      1 +2.1368000e-01 2.45909800e+02 7.54677100e-03 1.11591700e-01
      -11 -1    0    0    0    0 +0.0000000000e+00 +0.0000000000e+00 +1.2498764443e+02 1.2498764443e+02 0.0000000000e+00 0.0000e+00 1.0000e+00
       11 -1    0    0    0    0 -0.0000000000e+00 -0.0000000000e+00 -1.2095517708e+02 1.2095517708e+02 0.0000000000e+00 0.0000e+00 -1.0000e+00
       23  1    1    2    0    0 -2.1882459525e+01 +9.0138901552e+00 -5.1230682527e+01 1.0723770991e+02 9.1188000000e+01 0.0000e+00 -1.0000e+00
       25  1    1    2    0    0 +2.1882459525e+01 -9.0138901552e+00 +5.5263149873e+01 1.3870511160e+02 1.2500000000e+02 0.0000e+00 0.0000e+00
</event>
<event>
 4      1 +2.1368000e-01 2.49974700e+02 7.54677100e-03 1.11332100e-01
      -11 -1    0    0    0    0 +0.0000000000e+00 +0.0000000000e+00 +1.2498819668e+02 1.2498819668e+02 0.0000000000e+00 0.0000e+00 1.0000e+00
       11 -1    0    0    0    0 -0.0000000000e+00 -0.0000000000e+00 -1.2498645533e+02 1.2498645533e+02 0.0000000000e+00 0.0000e+00 -1.0000e+00
       23  1    1    2    0    0 -6.0716222784e+01 +1.0129793264e+01 -8.7403190783e+00 1.1036628535e+02 9.1188000000e+01 0.0000e+00 0.0000e+00
       25  1    1    2    0    0 +6.0716222784e+01 -1.0129793264e+01 +8.7420604188e+00 1.3960836666e+02 1.2500000000e+02 0.0000e+00 0.0000e+00
</event>
<event>
 4      1 +2.1368000e-01 2.49975000e+02 7.54677100e-03 1.11332100e-01
      -11 -1    0    0    0    0 +0.0000000000e+00 +0.0000000000e+00 +1.2498835515e+02 1.2498835515e+02 0.0000000000e+00 0.0000e+00 -1.0000e+00
       11 -1    0    0    0    0 -0.0000000000e+00 -0.0000000000e+00 -1.2498661381e+02 1.2498661381e+02 0.0000000000e+00 0.0000e+00 1.0000e+00
       23  1    1    2    0    0 -2.1540487919e+01 +4.5462178008e+01 -3.6532994500e+01 1.1036626876e+02 9.1188000000e+01 0.0000e+00 1.0000e+00
       25  1    1    2    0    0 +2.1540487919e+01 -4.5462178008e+01 +3.6534735843e+01 1.3960870020e+02 1.2500000000e+02 0.0000e+00 0.0000e+00
</event>
<event>
 4      1 +2.1368000e-01 2.49960400e+02 7.54677100e-03 1.11333000e-01
      -11 -1    0    0    0    0 +0.0000000000e+00 +0.0000000000e+00 +1.2497324706e+02 1.2497324706e+02 0.0000000000e+00 0.0000e+00 1.0000e+00
       11 -1    0    0    0    0 -0.0000000000e+00 -0.0000000000e+00 -1.2498717708e+02 1.2498717708e+02 0.0000000000e+00 0.0000e+00 -1.0000e+00
       23  1    1    2    0    0 -4.5002312892e+00 -5.2905787720e+01 +3.2311811145e+01 1.1035659898e+02 9.1188000000e+01 0.0000e+00 1.0000e+00
       25  1    1    2    0    0 +4.5002312892e+00 +5.2905787720e+01 -3.2325741173e+01 1.3960382516e+02 1.2500000000e+02 0.0000e+00 0.0000e+00
</event>
<event>
 4      1 +2.1368000e-01 2.49781300e+02 7.54677100e-03 1.11344300e-01
      -11 -1    0    0    0    0 +0.0000000000e+00 +0.0000000000e+00 +1.2498550671e+02 1.2498550671e+02 0.0000000000e+00 0.0000e+00 -1.0000e+00
       11 -1    0    0    0    0 -0.0000000000e+00 -0.0000000000e+00 -1.2479584605e+02 1.2479584605e+02 0.0000000000e+00 0.0000e+00 1.0000e+00
       23  1    1    2    0    0 -4.0358537760e+01 -4.0801154948e+01 +2.3495363390e+01 1.1027615001e+02 9.1188000000e+01 0.0000e+00 0.0000e+00
       25  1    1    2    0    0 +4.0358537760e+01 +4.0801154948e+01 -2.3305702728e+01 1.3950520275e+02 1.2500000000e+02 0.0000e+00 0.0000e+00
</event>
<event>
 4      1 +2.1368000e-01 2.49975000e+02 7.54677100e-03 1.11332100e-01
      -11 -1    0    0    0    0 +0.0000000000e+00 +0.0000000000e+00 +1.2498837026e+02 1.2498837026e+02 0.0000000000e+00 0.0000e+00 -1.0000e+00
       11 -1    0    0    0    0 -0.0000000000e+00 -0.0000000000e+00 -1.2498662892e+02 1.2498662892e+02 0.0000000000e+00 0.0000e+00 1.0000e+00
       23  1    1    2    0    0 +1.5841019588e+01 -7.8352838496e+00 -5.9607890465e+01 1.1036612489e+02 9.1188000000e+01 0.0000e+00 1.0000e+00
       25  1    1    2    0    0 -1.5841019588e+01 +7.8352838496e+00 +5.9609631808e+01 1.3960887428e+02 1.2500000000e+02 0.0000e+00 0.0000e+00
</event>
<event>
 4      1 +2.1368000e-01 2.49608300e+02 7.54677100e-03 1.11355300e-01
      -11 -1    0    0    0    0 +0.0000000000e+00 +0.0000000000e+00 +1.2498858490e+02 1.2498858490e+02 0.0000000000e+00 0.0000e+00 1.0000e+00
       11 -1    0    0    0    0 -0.0000000000e+00 -0.0000000000e+00 -1.2461996138e+02 1.2461996138e+02 0.0000000000e+00 0.0000e+00 -1.0000e+00
       23  1    1    2    0    0 -8.6511012546e+00 -5.1807034517e+01 -3.2418594596e+01 1.1011370032e+02 9.1188000000e+01 0.0000e+00 0.0000e+00
       25  1    1    2    0    0 +8.6511012546e+00 +5.1807034517e+01 +3.2787218113e+01 1.3949484596e+02 1.2500000000e+02 0.0000e+00 0.0000e+00
</event>
<event>
 4      1 +2.1368000e-01 2.49972300e+02 7.54677100e-03 1.11332200e-01
      -11 -1    0    0    0    0 +0.0000000000e+00 +0.0000000000e+00 +1.2498527224e+02 1.2498527224e+02 0.0000000000e+00 0.0000e+00 -1.0000e+00
       11 -1    0    0    0    0 -0.0000000000e+00 -0.0000000000e+00 -1.2498701356e+02 1.2498701356e+02 0.0000000000e+00 0.0000e+00 1.0000e+00
       23  1    1    2    0    0 +3.1985047715e+01 -4.8528388168e+01 -2.2072008142e+01 1.1036517849e+02 9.1188000000e+01 0.0000e+00 0.0000e+00
       25  1    1    2    0    0 -3.1985047715e+01 +4.8528388168e+01 +2.2070266818e+01 1.3960710732e+02 1.2500000000e+02 0.0000e+00 0.0000e+00
</event>
<event>
 4      1 +2.1368000e-01 2.49778300e+02 7.54677100e-03 1.11344500e-01
      -11 -1    0    0    0    0 +0.0000000000e+00 +0.0000000000e+00 +1.2498748713e+02 1.2498748713e+02 0.0000000000e+00 0.0000e+00 1.0000e+00
       11 -1    0    0    0    0 -0.0000000000e+00 -0.0000000000e+00 -1.2479087017e+02 1.2479087017e+02 0.0000000000e+00 0.0000e+00 -1.0000e+00
       23  1    1    2    0    0 -4.7384022391e+01 +3.9937238757e+01 +1.1126079288e+00 1.1025750704e+02 9.1188000000e+01 0.0000e+00 0.0000e+00
       25  1    1    2    0    0 +4.7384022391e+01 -3.9937238757e+01 -9.1599096938e-01 1.3952085026e+02 1.2500000000e+02 0.0000e+00 0.0000e+00
</event>
<event>
 4      1 +2.1368000e-01 2.49857400e+02 7.54677100e-03 1.11339500e-01
      -11 -1    0    0    0    0 +0.0000000000e+00 +0.0000000000e+00 +1.2487039921e+02 1.2487039921e+02 0.0000000000e+00 0.0000e+00 1.0000e+00
       11 -1    0    0    0    0 -0.0000000000e+00 -0.0000000000e+00 -1.2498701431e+02 1.2498701431e+02 0.0000000000e+00 0.0000e+00 -1.0000e+00
       23  1    1    2    0    0 -3.8215860038e+01 -3.8129831633e+01 -3.0656882534e+01 1.1031514769e+02 9.1188000000e+01 0.0000e+00 -1.0000e+00
       25  1    1    2    0    0 +3.8215860038e+01 +3.8129831633e+01 +3.0540267440e+01 1.3954226583e+02 1.2500000000e+02 0.0000e+00 0.0000e+00
</event>
<event>
 4      1 +2.1368000e-01 2.38511700e+02 7.54677100e-03 1.12078800e-01
      -11 -1    0    0    0    0 +0.0000000000e+00 +0.0000000000e+00 +1.1378720797e+02 1.1378720797e+02 0.0000000000e+00 0.0000e+00 1.0000e+00
       11 -1    0    0    0    0 -0.0000000000e+00 -0.0000000000e+00 -1.2498731849e+02 1.2498731849e+02 0.0000000000e+00 0.0000e+00 -1.0000e+00
       23  1    1    2    0    0 -3.0324398848e+01 -2.0864594103e+01 +2.8798032517e+01 1.0246696284e+02 9.1188000000e+01 0.0000e+00 1.0000e+00
       25  1    1    2    0    0 +3.0324398848e+01 +2.0864594103e+01 -3.9998143037e+01 1.3630756362e+02 1.2500000000e+02 0.0000e+00 0.0000e+00
</event>
<event>
 4      1 +2.1368000e-01 2.42317100e+02 7.54677100e-03 1.11825900e-01
      -11 -1    0    0    0    0 +0.0000000000e+00 +0.0000000000e+00 +1.1744621523e+02 1.1744621523e+02 0.0000000000e+00 0.0000e+00 1.0000e+00
       11 -1    0    0    0    0 -0.0000000000e+00 -0.0000000000e+00 -1.2498821460e+02 1.2498821460e+02 0.0000000000e+00 0.0000e+00 -1.0000e+00
       23  1    1    2    0    0 -3.0665570749e+01 -5.4470090661e+00 -4.7670712671e+01 1.0750718733e+02 9.1188000000e+01 0.0000e+00 -1.0000e+00
       25  1    1    2    0    0 +3.0665570749e+01 +5.4470090661e+00 +4.0128713308e+01 1.3492724250e+02 1.2500000000e+02 0.0000e+00 0.0000e+00
</event>
<event>
 4      1 +2.1368000e-01 2.49937400e+02 7.54677100e-03 1.11334400e-01
      -11 -1    0    0    0    0 +0.0000000000e+00 +0.0000000000e+00 +1.2498696971e+02 1.2498696971e+02 0.0000000000e+00 0.0000e+00 1.0000e+00
       11 -1    0    0    0    0 -0.0000000000e+00 -0.0000000000e+00 -1.2495040702e+02 1.2495040702e+02 0.0000000000e+00 0.0000e+00 -1.0000e+00
       23  1    1    2    0    0 +5.1312327846e+01 +3.3586487217e+01 +1.0009979123e+01 1.1034698971e+02 9.1188000000e+01 0.0000e+00 0.0000e+00
       25  1    1    2    0    0 -5.1312327846e+01 -3.3586487217e+01 -9.9734164253e+00 1.3959038702e+02 1.2500000000e+02 0.0000e+00 0.0000e+00
</event>
<event>
 4      1 +2.1368000e-01 2.49970800e+02 7.54677100e-03 1.11332300e-01
      -11 -1    0    0    0    0 +0.0000000000e+00 +0.0000000000e+00 +1.2498798932e+02 1.2498798932e+02 0.0000000000e+00 0.0000e+00 -1.0000e+00
       11 -1    0    0    0    0 -0.0000000000e+00 -0.0000000000e+00 -1.2498276534e+02 1.2498276534e+02 0.0000000000e+00 0.0000e+00 1.0000e+00
       23  1    1    2    0    0 +2.6104417489e+01 -4.3921955373e+01 +3.5420095838e+01 1.1036490977e+02 9.1188000000e+01 0.0000e+00 -1.0000e+00
       25  1    1    2    0    0 -2.6104417489e+01 +4.3921955373e+01 -3.5414871861e+01 1.3960584488e+02 1.2500000000e+02 0.0000e+00 0.0000e+00
</event>
<event>
 4      1 +2.1368000e-01 2.49709200e+02 7.54677100e-03 1.11348900e-01
      -11 -1    0    0    0    0 +0.0000000000e+00 +0.0000000000e+00 +1.2472248748e+02 1.2472248748e+02 0.0000000000e+00 0.0000e+00 1.0000e+00
       11 -1    0    0    0    0 -0.0000000000e+00 -0.0000000000e+00 -1.2498689220e+02 1.2498689220e+02 0.0000000000e+00 0.0000e+00 -1.0000e+00
       23  1    1    2    0    0 +9.8332697421e+00 +5.6866977437e+01 -2.2527246525e+01 1.1024189084e+02 9.1188000000e+01 0.0000e+00 -1.0000e+00
       25  1    1    2    0    0 -9.8332697421e+00 -5.6866977437e+01 +2.2262841809e+01 1.3946748884e+02 1.2500000000e+02 0.0000e+00 0.0000e+00
</event>
<event>
 4      1 +2.1368000e-01 2.47523300e+02 7.54677100e-03 1.11488000e-01
      -11 -1    0    0    0    0 +0.0000000000e+00 +0.0000000000e+00 +1.2498757752e+02 1.2498757752e+02 0.0000000000e+00 0.0000e+00 1.0000e+00
       11 -1    0    0    0    0 -0.0000000000e+00 -0.0000000000e+00 -1.2254772731e+02 1.2254772731e+02 0.0000000000e+00 0.0000e+00 -1.0000e+00
       23  1    1    2    0    0 -4.1996497201e+01 +3.7814117546e+01 -1.8193962981e+01 1.0881123515e+02 9.1188000000e+01 0.0000e+00 -1.0000e+00
       25  1    1    2    0    0 +4.1996497201e+01 -3.7814117546e+01 +2.0633813191e+01 1.3872406968e+02 1.2500000000e+02 0.0000e+00 0.0000e+00
</event>
<event>
 4      1 +2.1368000e-01 2.45876700e+02 7.54677100e-03 1.11593900e-01
      -11 -1    0    0    0    0 +0.0000000000e+00 +0.0000000000e+00 +1.2319211505e+02 1.2319211505e+02 0.0000000000e+00 0.0000e+00 -1.0000e+00
       11 -1    0    0    0    0 -0.0000000000e+00 -0.0000000000e+00 -1.2268512694e+02 1.2268512694e+02 0.0000000000e+00 0.0000e+00 1.0000e+00
       23  1    1    2    0    0 -6.4592653915e+00 +5.7462950669e+01 +4.8010592437e+00 1.0808336747e+02 9.1188000000e+01 0.0000e+00 1.0000e+00
       25  1    1    2    0    0 +6.4592653915e+00 -5.7462950669e+01 -4.2940711374e+00 1.3779387452e+02 1.2500000000e+02 0.0000e+00 0.0000e+00
</event>
<event>
 4      1 +2.1368000e-01 2.49134300e+02 7.54677100e-03 1.11385300e-01
      -11 -1    0    0    0    0 +0.0000000000e+00 +0.0000000000e+00 +1.2414960044e+02 1.2414960044e+02 0.0000000000e+00 0.0000e+00 -1.0000e+00
       11 -1    0    0    0    0 -0.0000000000e+00 -0.0000000000e+00 -1.2498610969e+02 1.2498610969e+02 0.0000000000e+00 0.0000e+00 1.0000e+00
       23  1    1    2    0    0 +8.5787101210e+00 -6.0407907362e+01 -6.6426267167e+00 1.0991853971e+02 9.1188000000e+01 0.0000e+00 0.0000e+00
       25  1    1    2    0    0 -8.5787101210e+00 +6.0407907362e+01 +5.8061174673e+00 1.3921717042e+02 1.2500000000e+02 0.0000e+00 0.0000e+00
</event>
<event>
 4      1 +2.1368000e-01 2.36558100e+02 7.54677100e-03 1.12210700e-01
      -11 -1    0    0    0    0 +0.0000000000e+00 +0.0000000000e+00 +1.2386959395e+02 1.2386959395e+02 0.0000000000e+00 0.0000e+00 -1.0000e+00
       11 -1    0    0    0    0 -0.0000000000e+00 -0.0000000000e+00 -1.1294084477e+02 1.1294084477e+02 0.0000000000e+00 0.0000e+00 1.0000e+00
       23  1    1    2    0    0 +3.6291147632e+01 +2.2657811898e+01 -1.5961966123e+01 1.0198264334e+02 9.1188000000e+01 0.0000e+00 0.0000e+00
       25  1    1    2    0    0 -3.6291147632e+01 -2.2657811898e+01 +2.6890715303e+01 1.3482779538e+02 1.2500000000e+02 0.0000e+00 0.0000e+00
</event>
<event>
 4      1 +2.1368000e-01 2.49222700e+02 7.54677100e-03 1.11379700e-01
      -11 -1    0    0    0    0 +0.0000000000e+00 +0.0000000000e+00 +1.2423778149e+02 1.2423778149e+02 0.0000000000e+00 0.0000e+00 1.0000e+00
       11 -1    0    0    0    0 -0.0000000000e+00 -0.0000000000e+00 -1.2498604499e+02 1.2498604499e+02 0.0000000000e+00 0.0000e+00 -1.0000e+00
       23  1    1    2    0    0 -9.3394048421e+00 +5.9607906377e+01 +1.1185212798e+01 1.0991218001e+02 9.1188000000e+01 0.0000e+00 1.0000e+00
       25  1    1    2    0    0 +9.3394048421e+00 -5.9607906377e+01 -1.1933476291e+01 1.3931164647e+02 1.2500000000e+02 0.0000e+00 0.0000e+00
</event>
<event>
 4      1 +2.1368000e-01 2.49411600e+02 7.54677100e-03 1.11367700e-01
      -11 -1    0    0    0    0 +0.0000000000e+00 +0.0000000000e+00 +1.2498843598e+02 1.2498843598e+02 0.0000000000e+00 0.0000e+00 -1.0000e+00
       11 -1    0    0    0    0 -0.0000000000e+00 -0.0000000000e+00 -1.2442377367e+02 1.2442377367e+02 0.0000000000e+00 0.0000e+00 1.0000e+00
       23  1    1    2    0    0 -3.6466361739e+01 -2.7779066464e+01 +4.1415684888e+01 1.1014527848e+02 9.1188000000e+01 0.0000e+00 -1.0000e+00
       25  1    1    2    0    0 +3.6466361739e+01 +2.7779066464e+01 -4.0851022581e+01 1.3926693117e+02 1.2500000000e+02 0.0000e+00 0.0000e+00
</event>
<event>
 4      1 +2.1368000e-01 2.49972200e+02 7.54677100e-03 1.11332200e-01
      -11 -1    0    0    0    0 +0.0000000000e+00 +0.0000000000e+00 +1.2498784439e+02 1.2498784439e+02 0.0000000000e+00 0.0000e+00 1.0000e+00
       11 -1    0    0    0    0 -0.0000000000e+00 -0.0000000000e+00 -1.2498436172e+02 1.2498436172e+02 0.0000000000e+00 0.0000e+00 -1.0000e+00
       23  1    1    2    0    0 -5.4837376350e+01 +1.9787673717e+01 -2.1596787257e+01 1.1036467931e+02 9.1188000000e+01 0.0000e+00 0.0000e+00
       25  1    1    2    0    0 +5.4837376350e+01 -1.9787673717e+01 +2.1600269928e+01 1.3960752679e+02 1.2500000000e+02 0.0000e+00 0.0000e+00
</event>
<event>
 4      1 +2.1368000e-01 2.49466000e+02 7.54677100e-03 1.11364300e-01
      -11 -1    0    0    0    0 +0.0000000000e+00 +0.0000000000e+00 +1.2447954587e+02 1.2447954587e+02 0.0000000000e+00 0.0000e+00 1.0000e+00
       11 -1    0    0    0    0 -0.0000000000e+00 -0.0000000000e+00 -1.2498698373e+02 1.2498698373e+02 0.0000000000e+00 0.0000e+00 -1.0000e+00
       23  1    1    2    0    0 -1.4307419354e+00 +6.0144149253e+01 -1.3769323495e+01 1.1010999648e+02 9.1188000000e+01 0.0000e+00 0.0000e+00
       25  1    1    2    0    0 +1.4307419354e+00 -6.0144149253e+01 +1.3261885638e+01 1.3935653312e+02 1.2500000000e+02 0.0000e+00 0.0000e+00
</event>
<event>
 4      1 +2.1368000e-01 2.49974200e+02 7.54677100e-03 1.11332100e-01
      -11 -1    0    0    0    0 +0.0000000000e+00 +0.0000000000e+00 +1.2498622223e+02 1.2498622223e+02 0.0000000000e+00 0.0000e+00 1.0000e+00
       11 -1    0    0    0    0 -0.0000000000e+00 -0.0000000000e+00 -1.2498796357e+02 1.2498796357e+02 0.0000000000e+00 0.0000e+00 -1.0000e+00
       23  1    1    2    0    0 +2.1579740845e+01 +5.5174231990e+01 +1.8855012134e+01 1.1036595452e+02 9.1188000000e+01 0.0000e+00 0.0000e+00
       25  1    1    2    0    0 -2.1579740845e+01 -5.5174231990e+01 -1.8856753471e+01 1.3960823128e+02 1.2500000000e+02 0.0000e+00 0.0000e+00
</event>
<event>
 4      1 +2.1368000e-01 2.49973500e+02 7.54677100e-03 1.11332200e-01
      -11 -1    0    0    0    0 +0.0000000000e+00 +0.0000000000e+00 +1.2498764317e+02 1.2498764317e+02 0.0000000000e+00 0.0000e+00 -1.0000e+00
       11 -1    0    0    0    0 -0.0000000000e+00 -0.0000000000e+00 -1.2498590184e+02 1.2498590184e+02 0.0000000000e+00 0.0000e+00 1.0000e+00
       23  1    1    2    0    0 -2.6934465600e+01 +2.1018535658e+01 -5.1942453001e+01 1.1036536615e+02 9.1188000000e+01 0.0000e+00 1.0000e+00
       25  1    1    2    0    0 +2.6934465600e+01 -2.1018535658e+01 +5.1944194333e+01 1.3960817886e+02 1.2500000000e+02 0.0000e+00 0.0000e+00
</event>
<event>
 4      1 +2.1368000e-01 2.49869300e+02 7.54677100e-03 1.11338700e-01
      -11 -1    0    0    0    0 +0.0000000000e+00 +0.0000000000e+00 +1.2498774674e+02 1.2498774674e+02 0.0000000000e+00 0.0000e+00 1.0000e+00
       11 -1    0    0    0    0 -0.0000000000e+00 -0.0000000000e+00 -1.2488156973e+02 1.2488156973e+02 0.0000000000e+00 0.0000e+00 -1.0000e+00
       23  1    1    2    0    0 +2.0186191663e+01 +3.5360677055e+01 +4.6893796929e+01 1.1032741885e+02 9.1188000000e+01 0.0000e+00 0.0000e+00
       25  1    1    2    0    0 -2.0186191663e+01 -3.5360677055e+01 -4.6787619919e+01 1.3954189763e+02 1.2500000000e+02 0.0000e+00 0.0000e+00
</event>
<event>
 4      1 +2.1368000e-01 2.45424500e+02 7.54677100e-03 1.11623100e-01
      -11 -1    0    0    0    0 +0.0000000000e+00 +0.0000000000e+00 +1.2086707291e+02 1.2086707291e+02 0.0000000000e+00 0.0000e+00 1.0000e+00
       11 -1    0    0    0    0 -0.0000000000e+00 -0.0000000000e+00 -1.2458556003e+02 1.2458556003e+02 0.0000000000e+00 0.0000e+00 -1.0000e+00
       23  1    1    2    0    0 +8.8432267205e+00 -5.2084480365e+01 +2.1149342410e+01 1.0748740290e+02 9.1188000000e+01 0.0000e+00 0.0000e+00
       25  1    1    2    0    0 -8.8432267205e+00 +5.2084480365e+01 -2.4867829525e+01 1.3796523004e+02 1.2500000000e+02 0.0000e+00 0.0000e+00
</event>
<event>
 4      1 +2.1368000e-01 2.49974700e+02 7.54677100e-03 1.11332100e-01
      -11 -1    0    0    0    0 +0.0000000000e+00 +0.0000000000e+00 +1.2498823592e+02 1.2498823592e+02 0.0000000000e+00 0.0000e+00 -1.0000e+00
       11 -1    0    0    0    0 -0.0000000000e+00 -0.0000000000e+00 -1.2498649458e+02 1.2498649458e+02 0.0000000000e+00 0.0000e+00 1.0000e+00
       23  1    1    2    0    0 -4.5494079486e+01 +4.2376525434e+01 +8.7595714818e-02 1.1036639069e+02 9.1188000000e+01 0.0000e+00 0.0000e+00
       25  1    1    2    0    0 +4.5494079486e+01 -4.2376525434e+01 -8.5854373776e-02 1.3960833982e+02 1.2500000000e+02 0.0000e+00 0.0000e+00
</event>
<event>
 4      1 +2.1368000e-01 2.27903000e+02 7.54677100e-03 1.12812400e-01
      -11 -1    0    0    0    0 +0.0000000000e+00 +0.0000000000e+00 +1.2498664300e+02 1.2498664300e+02 0.0000000000e+00 0.0000e+00 1.0000e+00
       11 -1    0    0    0    0 -0.0000000000e+00 -0.0000000000e+00 -1.0389067196e+02 1.0389067196e+02 0.0000000000e+00 0.0000e+00 -1.0000e+00
       23  1    1    2    0    0 -2.1796306779e+01 +2.5750945917e+01 -2.5537790406e+00 9.7262342848e+01 9.1188000000e+01 0.0000e+00 0.0000e+00
       25  1    1    2    0    0 +2.1796306779e+01 -2.5750945917e+01 +2.3649750082e+01 1.3161497211e+02 1.2500000000e+02 0.0000e+00 0.0000e+00
</event>
<event>
 4      1 +2.1368000e-01 2.47026800e+02 7.54677100e-03 1.11519800e-01
      -11 -1    0    0    0    0 +0.0000000000e+00 +0.0000000000e+00 +1.2205765461e+02 1.2205765461e+02 0.0000000000e+00 0.0000e+00 1.0000e+00
       11 -1    0    0    0    0 -0.0000000000e+00 -0.0000000000e+00 -1.2498646701e+02 1.2498646701e+02 0.0000000000e+00 0.0000e+00 -1.0000e+00
       23  1    1    2    0    0 +1.6619786970e+00 -3.9965849367e+01 +4.2352407580e+01 1.0820817465e+02 9.1188000000e+01 0.0000e+00 1.0000e+00
       25  1    1    2    0    0 -1.6619786970e+00 +3.9965849367e+01 -4.5281219983e+01 1.3883594697e+02 1.2500000000e+02 0.0000e+00 0.0000e+00
</event>
<event>
 4      1 +2.1368000e-01 2.49975000e+02 7.54677100e-03 1.11332100e-01
      -11 -1    0    0    0    0 +0.0000000000e+00 +0.0000000000e+00 +1.2498837067e+02 1.2498837067e+02 0.0000000000e+00 0.0000e+00 1.0000e+00
       11 -1    0    0    0    0 -0.0000000000e+00 -0.0000000000e+00 -1.2498662933e+02 1.2498662933e+02 0.0000000000e+00 0.0000e+00 -1.0000e+00
       23  1    1    2    0    0 +4.6800290245e+01 -3.2120604888e+01 +2.5368494633e+01 1.1036671731e+02 9.1188000000e+01 0.0000e+00 1.0000e+00
       25  1    1    2    0    0 -4.6800290245e+01 +3.2120604888e+01 -2.5366753290e+01 1.3960828270e+02 1.2500000000e+02 0.0000e+00 0.0000e+00
</event>
<event>
 4      1 +2.1368000e-01 2.48910900e+02 7.54677100e-03 1.11399500e-01
      -11 -1    0    0    0    0 +0.0000000000e+00 +0.0000000000e+00 +1.2498105354e+02 1.2498105354e+02 0.0000000000e+00 0.0000e+00 -1.0000e+00
       11 -1    0    0    0    0 -0.0000000000e+00 -0.0000000000e+00 -1.2393202383e+02 1.2393202383e+02 0.0000000000e+00 0.0000e+00 1.0000e+00
       23  1    1    2    0    0 -3.4324757131e+01 +4.6532709987e+01 +2.0240354353e+01 1.0985629404e+02 9.1188000000e+01 0.0000e+00 0.0000e+00
       25  1    1    2    0    0 +3.4324757131e+01 -4.6532709987e+01 -1.9191324637e+01 1.3905678334e+02 1.2500000000e+02 0.0000e+00 0.0000e+00
</event>
<event>
 4      1 +2.1368000e-01 2.49833000e+02 7.54677100e-03 1.11341000e-01
      -11 -1    0    0    0    0 +0.0000000000e+00 +0.0000000000e+00 +1.2498701152e+02 1.2498701152e+02 0.0000000000e+00 0.0000e+00 1.0000e+00
       11 -1    0    0    0    0 -0.0000000000e+00 -0.0000000000e+00 -1.2484604283e+02 1.2484604283e+02 0.0000000000e+00 0.0000e+00 -1.0000e+00
       23  1    1    2    0    0 -5.2029333503e+01 -3.3446634545e+01 -4.6594995474e+00 1.1028459179e+02 9.1188000000e+01 0.0000e+00 1.0000e+00
       25  1    1    2    0    0 +5.2029333503e+01 +3.3446634545e+01 +4.8004682308e+00 1.3954846256e+02 1.2500000000e+02 0.0000e+00 0.0000e+00
</event>
<event>
 4      1 +2.1368000e-01 2.49975000e+02 7.54677100e-03 1.11332100e-01
      -11 -1    0    0    0    0 +0.0000000000e+00 +0.0000000000e+00 +1.2498837067e+02 1.2498837067e+02 0.0000000000e+00 0.0000e+00 1.0000e+00
       11 -1    0    0    0    0 -0.0000000000e+00 -0.0000000000e+00 -1.2498662933e+02 1.2498662933e+02 0.0000000000e+00 0.0000e+00 -1.0000e+00
       23  1    1    2    0    0 +3.5688389152e+01 -4.6406567636e+01 +2.0936176571e+01 1.1036668643e+02 9.1188000000e+01 0.0000e+00 1.0000e+00
       25  1    1    2    0    0 -3.5688389152e+01 +4.6406567636e+01 -2.0934435228e+01 1.3960831357e+02 1.2500000000e+02 0.0000e+00 0.0000e+00
</event>
<event>
 4      1 +2.1368000e-01 2.49974800e+02 7.54677100e-03 1.11332100e-01
      -11 -1    0    0    0    0 +0.0000000000e+00 +0.0000000000e+00 +1.2498738632e+02 1.2498738632e+02 0.0000000000e+00 0.0000e+00 -1.0000e+00
       11 -1    0    0    0    0 -0.0000000000e+00 -0.0000000000e+00 -1.2498738632e+02 1.2498738632e+02 0.0000000000e+00 0.0000e+00 1.0000e+00
       23  1    1    2    0    0 -1.8395420254e+01 -2.5089717241e+01 -5.3829439083e+01 1.1036641361e+02 9.1188000000e+01 0.0000e+00 0.0000e+00
       25  1    1    2    0    0 +1.8395420254e+01 +2.5089717241e+01 +5.3829439083e+01 1.3960835902e+02 1.2500000000e+02 0.0000e+00 0.0000e+00
</event>
<event>
 4      1 +2.1368000e-01 2.49866600e+02 7.54677100e-03 1.11338900e-01
      -11 -1    0    0    0    0 +0.0000000000e+00 +0.0000000000e+00 +1.2498816344e+02 1.2498816344e+02 0.0000000000e+00 0.0000e+00 -1.0000e+00
       11 -1    0    0    0    0 -0.0000000000e+00 -0.0000000000e+00 -1.2487850562e+02 1.2487850562e+02 0.0000000000e+00 0.0000e+00 1.0000e+00
       23  1    1    2    0    0 +5.6916667084e+01 -2.3280290138e+01 +8.4560495104e+00 1.1030972314e+02 9.1188000000e+01 0.0000e+00 -1.0000e+00
       25  1    1    2    0    0 -5.6916667084e+01 +2.3280290138e+01 -8.3463916850e+00 1.3955694592e+02 1.2500000000e+02 0.0000e+00 0.0000e+00
</event>
<event>
 4      1 +2.1368000e-01 2.49553600e+02 7.54677100e-03 1.11358700e-01
      -11 -1    0    0    0    0 +0.0000000000e+00 +0.0000000000e+00 +1.2498731948e+02 1.2498731948e+02 0.0000000000e+00 0.0000e+00 1.0000e+00
       11 -1    0    0    0    0 -0.0000000000e+00 -0.0000000000e+00 -1.2456662138e+02 1.2456662138e+02 0.0000000000e+00 0.0000e+00 -1.0000e+00
       23  1    1    2    0    0 -3.3777090885e+01 -2.1468647056e+01 -4.6844427681e+01 1.1005201690e+02 9.1188000000e+01 0.0000e+00 -1.0000e+00
       25  1    1    2    0    0 +3.3777090885e+01 +2.1468647056e+01 +4.7265125782e+01 1.3950192397e+02 1.2500000000e+02 0.0000e+00 0.0000e+00
</event>
<event>
 4      1 +2.1368000e-01 2.49950600e+02 7.54677100e-03 1.11333600e-01
      -11 -1    0    0    0    0 +0.0000000000e+00 +0.0000000000e+00 +1.2498750485e+02 1.2498750485e+02 0.0000000000e+00 0.0000e+00 -1.0000e+00
       11 -1    0    0    0    0 -0.0000000000e+00 -0.0000000000e+00 -1.2496312826e+02 1.2496312826e+02 0.0000000000e+00 0.0000e+00 1.0000e+00
       23  1    1    2    0    0 +2.0887919998e+01 -3.0784409431e+01 -4.9774105177e+01 1.1034807636e+02 9.1188000000e+01 0.0000e+00 1.0000e+00
       25  1    1    2    0    0 -2.0887919998e+01 +3.0784409431e+01 +4.9798481771e+01 1.3960255676e+02 1.2500000000e+02 0.0000e+00 0.0000e+00
</event>
<event>
 4      1 +2.1368000e-01 2.49975000e+02 7.54677100e-03 1.11332100e-01
      -11 -1    0    0    0    0 +0.0000000000e+00 +0.0000000000e+00 +1.2498836640e+02 1.2498836640e+02 0.0000000000e+00 0.0000e+00 1.0000e+00
       11 -1    0    0    0    0 -0.0000000000e+00 -0.0000000000e+00 -1.2498662505e+02 1.2498662505e+02 0.0000000000e+00 0.0000e+00 -1.0000e+00
       23  1    1    2    0    0 -3.0731948039e+01 +3.1302812445e+01 +4.4059844918e+01 1.1036684274e+02 9.1188000000e+01 0.0000e+00 1.0000e+00
       25  1    1    2    0    0 +3.0731948039e+01 -3.1302812445e+01 -4.4058103575e+01 1.3960814872e+02 1.2500000000e+02 0.0000e+00 0.0000e+00
</event>
<event>
 4      1 +2.1368000e-01 2.49975000e+02 7.54677100e-03 1.11332100e-01
      -11 -1    0    0    0    0 +0.0000000000e+00 +0.0000000000e+00 +1.2498750000e+02 1.2498750000e+02 0.0000000000e+00 0.0000e+00 1.0000e+00
       11 -1    0    0    0    0 -0.0000000000e+00 -0.0000000000e+00 -1.2498750000e+02 1.2498750000e+02 0.0000000000e+00 0.0000e+00 -1.0000e+00
       23  1    1    2    0    0 +5.8791819525e+01 +1.9754774303e+01 +4.3350648664e+00 1.1036654059e+02 9.1188000000e+01 0.0000e+00 -1.0000e+00
       25  1    1    2    0    0 -5.8791819525e+01 -1.9754774303e+01 -4.3350648664e+00 1.3960845941e+02 1.2500000000e+02 0.0000e+00 0.0000e+00
</event>
<event>
 4      1 +2.1368000e-01 2.46588300e+02 7.54677100e-03 1.11548000e-01
      -11 -1    0    0    0    0 +0.0000000000e+00 +0.0000000000e+00 +1.2162393547e+02 1.2162393547e+02 0.0000000000e+00 0.0000e+00 -1.0000e+00
       11 -1    0    0    0    0 -0.0000000000e+00 -0.0000000000e+00 -1.2498730005e+02 1.2498730005e+02 0.0000000000e+00 0.0000e+00 1.0000e+00
       23  1    1    2    0    0 -1.0929729115e+00 +1.4010306263e+01 -5.8524487884e+01 1.0926046997e+02 9.1188000000e+01 0.0000e+00 1.0000e+00
       25  1    1    2    0    0 +1.0929729115e+00 -1.4010306263e+01 +5.5161123306e+01 1.3735076554e+02 1.2500000000e+02 0.0000e+00 0.0000e+00
</event>
<event>
 4      1 +2.1368000e-01 2.49974100e+02 7.54677100e-03 1.11332100e-01
      -11 -1    0    0    0    0 +0.0000000000e+00 +0.0000000000e+00 +1.2498616764e+02 1.2498616764e+02 0.0000000000e+00 0.0000e+00 1.0000e+00
       11 -1    0    0    0    0 -0.0000000000e+00 -0.0000000000e+00 -1.2498790898e+02 1.2498790898e+02 0.0000000000e+00 0.0000e+00 -1.0000e+00
       23  1    1    2    0    0 -3.2718159152e+00 +6.1448612837e+01 +8.8745513285e+00 1.1036596307e+02 9.1188000000e+01 0.0000e+00 0.0000e+00
       25  1    1    2    0    0 +3.2718159152e+00 -6.1448612837e+01 -8.8762926650e+00 1.3960811356e+02 1.2500000000e+02 0.0000e+00 0.0000e+00
</event>
<event>
 4      1 +2.1368000e-01 2.49012200e+02 7.54677100e-03 1.11393100e-01
      -11 -1    0    0    0    0 +0.0000000000e+00 +0.0000000000e+00 +1.2402654417e+02 1.2402654417e+02 0.0000000000e+00 0.0000e+00 1.0000e+00
       11 -1    0    0    0    0 -0.0000000000e+00 -0.0000000000e+00 -1.2498753977e+02 1.2498753977e+02 0.0000000000e+00 0.0000e+00 -1.0000e+00
       23  1    1    2    0    0 +4.6215531768e+00 +5.2118838422e+01 -3.2194258483e+01 1.0995205180e+02 9.1188000000e+01 0.0000e+00 1.0000e+00
       25  1    1    2    0    0 -4.6215531768e+00 -5.2118838422e+01 +3.1233262875e+01 1.3906203214e+02 1.2500000000e+02 0.0000e+00 0.0000e+00
</event>
<event>
 4      1 +2.1368000e-01 2.49973900e+02 7.54677100e-03 1.11332100e-01
      -11 -1    0    0    0    0 +0.0000000000e+00 +0.0000000000e+00 +1.2498784255e+02 1.2498784255e+02 0.0000000000e+00 0.0000e+00 1.0000e+00
       11 -1    0    0    0    0 -0.0000000000e+00 -0.0000000000e+00 -1.2498610121e+02 1.2498610121e+02 0.0000000000e+00 0.0000e+00 -1.0000e+00
       23  1    1    2    0    0 +3.8637406026e+01 +9.6162931283e+00 +4.7750842013e+01 1.1036628332e+02 9.1188000000e+01 0.0000e+00 1.0000e+00
       25  1    1    2    0    0 -3.8637406026e+01 -9.6162931283e+00 -4.7749100678e+01 1.3960766044e+02 1.2500000000e+02 0.0000e+00 0.0000e+00
</event>
<event>
 4      1 +2.1368000e-01 2.45620100e+02 7.54677100e-03 1.11610400e-01
      -11 -1    0    0    0    0 +0.0000000000e+00 +0.0000000000e+00 +1.2372025104e+02 1.2372025104e+02 0.0000000000e+00 0.0000e+00 1.0000e+00
       11 -1    0    0    0    0 -0.0000000000e+00 -0.0000000000e+00 -1.2190657252e+02 1.2190657252e+02 0.0000000000e+00 0.0000e+00 -1.0000e+00
       23  1    1    2    0    0 +4.5265392986e+00 +1.2928653708e+01 +5.6887407978e+01 1.0834698046e+02 9.1188000000e+01 0.0000e+00 1.0000e+00
       25  1    1    2    0    0 -4.5265392986e+00 -1.2928653708e+01 -5.5073729462e+01 1.3727984310e+02 1.2500000000e+02 0.0000e+00 0.0000e+00
</event>
<event>
 4      1 +2.1368000e-01 2.49783800e+02 7.54677100e-03 1.11344200e-01
      -11 -1    0    0    0    0 +0.0000000000e+00 +0.0000000000e+00 +1.2479708628e+02 1.2479708628e+02 0.0000000000e+00 0.0000e+00 -1.0000e+00
       11 -1    0    0    0    0 -0.0000000000e+00 -0.0000000000e+00 -1.2498674882e+02 1.2498674882e+02 0.0000000000e+00 0.0000e+00 1.0000e+00
       23  1    1    2    0    0 -1.6406312509e+01 -1.1637277614e+01 +5.8545324533e+01 1.1021524254e+02 9.1188000000e+01 0.0000e+00 -1.0000e+00
       25  1    1    2    0    0 +1.6406312509e+01 +1.1637277614e+01 -5.8734987081e+01 1.3956859256e+02 1.2500000000e+02 0.0000e+00 0.0000e+00
</event>
<event>
 4      1 +2.1368000e-01 2.49975000e+02 7.54677100e-03 1.11332100e-01
      -11 -1    0    0    0    0 +0.0000000000e+00 +0.0000000000e+00 +1.2498836910e+02 1.2498836910e+02 0.0000000000e+00 0.0000e+00 1.0000e+00
       11 -1    0    0    0    0 -0.0000000000e+00 -0.0000000000e+00 -1.2498662776e+02 1.2498662776e+02 0.0000000000e+00 0.0000e+00 -1.0000e+00
       23  1    1    2    0    0 -2.7126389936e+01 -5.5880564373e+01 +2.6546423970e+00 1.1036655733e+02 9.1188000000e+01 0.0000e+00 0.0000e+00
       25  1    1    2    0    0 +2.7126389936e+01 +5.5880564373e+01 -2.6529010541e+00 1.3960843954e+02 1.2500000000e+02 0.0000e+00 0.0000e+00
</event>
<event>
 4      1 +2.1368000e-01 2.48363400e+02 7.54677100e-03 1.11434300e-01
      -11 -1    0    0    0    0 +0.0000000000e+00 +0.0000000000e+00 +1.2338237979e+02 1.2338237979e+02 0.0000000000e+00 0.0000e+00 1.0000e+00
       11 -1    0    0    0    0 -0.0000000000e+00 -0.0000000000e+00 -1.2498619761e+02 1.2498619761e+02 0.0000000000e+00 0.0000e+00 -1.0000e+00
       23  1    1    2    0    0 -4.1270661308e+01 -1.8019838755e+01 +3.9785227962e+01 1.0920667462e+02 9.1188000000e+01 0.0000e+00 1.0000e+00
       25  1    1    2    0    0 +4.1270661308e+01 +1.8019838755e+01 -4.1389045784e+01 1.3916190278e+02 1.2500000000e+02 0.0000e+00 0.0000e+00
</event>
<event>
 4      1 +2.1368000e-01 2.49910400e+02 7.54677100e-03 1.11336100e-01
      -11 -1    0    0    0    0 +0.0000000000e+00 +0.0000000000e+00 +1.2492298701e+02 1.2492298701e+02 0.0000000000e+00 0.0000e+00 1.0000e+00
       11 -1    0    0    0    0 -0.0000000000e+00 -0.0000000000e+00 -1.2498740049e+02 1.2498740049e+02 0.0000000000e+00 0.0000e+00 -1.0000e+00
       23  1    1    2    0    0 -1.3829360166e+01 +1.6667545052e+01 -5.8239250021e+01 1.1034545685e+02 9.1188000000e+01 0.0000e+00 -1.0000e+00
       25  1    1    2    0    0 +1.3829360166e+01 -1.6667545052e+01 +5.8174836538e+01 1.3956493065e+02 1.2500000000e+02 0.0000e+00 0.0000e+00
</event>
<event>
 4      1 +2.1368000e-01 2.49202500e+02 7.54677100e-03 1.11381000e-01
      -11 -1    0    0    0    0 +0.0000000000e+00 +0.0000000000e+00 +1.2440782295e+02 1.2440782295e+02 0.0000000000e+00 0.0000e+00 1.0000e+00
       11 -1    0    0    0    0 -0.0000000000e+00 -0.0000000000e+00 -1.2479494551e+02 1.2479494551e+02 0.0000000000e+00 0.0000e+00 -1.0000e+00
       23  1    1    2    0    0 +4.6506123513e+01 +2.1642865004e+00 -4.0207535198e+01 1.0999727674e+02 9.1188000000e+01 0.0000e+00 0.0000e+00
       25  1    1    2    0    0 -4.6506123513e+01 -2.1642865004e+00 +3.9820412641e+01 1.3920549171e+02 1.2500000000e+02 0.0000e+00 0.0000e+00
</event>
<event>
 4      1 +2.1368000e-01 2.48841100e+02 7.54677100e-03 1.11403900e-01
      -11 -1    0    0    0    0 +0.0000000000e+00 +0.0000000000e+00 +1.2496343657e+02 1.2496343657e+02 0.0000000000e+00 0.0000e+00 1.0000e+00
       11 -1    0    0    0    0 -0.0000000000e+00 -0.0000000000e+00 -1.2388002374e+02 1.2388002374e+02 0.0000000000e+00 0.0000e+00 -1.0000e+00
       23  1    1    2    0    0 +4.2620366574e+01 -2.6201254994e+01 +3.5450529737e+01 1.0988627218e+02 9.1188000000e+01 0.0000e+00 0.0000e+00
       25  1    1    2    0    0 -4.2620366574e+01 +2.6201254994e+01 -3.4367116902e+01 1.3895718813e+02 1.2500000000e+02 0.0000e+00 0.0000e+00
</event>
<event>
 4      1 +2.1368000e-01 2.49975000e+02 7.54677100e-03 1.11332100e-01
      -11 -1    0    0    0    0 +0.0000000000e+00 +0.0000000000e+00 +1.2498836792e+02 1.2498836792e+02 0.0000000000e+00 0.0000e+00 -1.0000e+00
       11 -1    0    0    0    0 -0.0000000000e+00 -0.0000000000e+00 -1.2498662658e+02 1.2498662658e+02 0.0000000000e+00 0.0000e+00 1.0000e+00
       23  1    1    2    0    0 +1.7298956537e+01 -5.2395104209e+01 +2.8654222657e+01 1.1036673712e+02 9.1188000000e+01 0.0000e+00 0.0000e+00
       25  1    1    2    0    0 -1.7298956537e+01 +5.2395104209e+01 -2.8652481314e+01 1.3960825738e+02 1.2500000000e+02 0.0000e+00 0.0000e+00
</event>
<event>
 4      1 +2.1368000e-01 2.49864300e+02 7.54677100e-03 1.11339100e-01
      -11 -1    0    0    0    0 +0.0000000000e+00 +0.0000000000e+00 +1.2498786789e+02 1.2498786789e+02 0.0000000000e+00 0.0000e+00 -1.0000e+00
       11 -1    0    0    0    0 -0.0000000000e+00 -0.0000000000e+00 -1.2487647128e+02 1.2487647128e+02 0.0000000000e+00 0.0000e+00 1.0000e+00
       23  1    1    2    0    0 -5.2368939545e+01 -1.0123770044e+01 -3.1682254835e+01 1.1029058511e+02 9.1188000000e+01 0.0000e+00 0.0000e+00
       25  1    1    2    0    0 +5.2368939545e+01 +1.0123770044e+01 +3.1793651446e+01 1.3957375406e+02 1.2500000000e+02 0.0000e+00 0.0000e+00
</event>
<event>
 4      1 +2.1368000e-01 2.49967600e+02 7.54677100e-03 1.11332500e-01
      -11 -1    0    0    0    0 +0.0000000000e+00 +0.0000000000e+00 +1.2498813602e+02 1.2498813602e+02 0.0000000000e+00 0.0000e+00 1.0000e+00
       11 -1    0    0    0    0 -0.0000000000e+00 -0.0000000000e+00 -1.2497942956e+02 1.2497942956e+02 0.0000000000e+00 0.0000e+00 -1.0000e+00
       23  1    1    2    0    0 +6.2082586180e+01 +1.8418356801e+00 -2.6353935546e+00 1.1036229659e+02 9.1188000000e+01 0.0000e+00 0.0000e+00
       25  1    1    2    0    0 -6.2082586180e+01 -1.8418356801e+00 +2.6441000103e+00 1.3960526899e+02 1.2500000000e+02 0.0000e+00 0.0000e+00
</event>
<event>
 4      1 +2.1368000e-01 2.49924700e+02 7.54677100e-03 1.11335200e-01
      -11 -1    0    0    0    0 +0.0000000000e+00 +0.0000000000e+00 +1.2498762013e+02 1.2498762013e+02 0.0000000000e+00 0.0000e+00 -1.0000e+00
       11 -1    0    0    0    0 -0.0000000000e+00 -0.0000000000e+00 -1.2493713099e+02 1.2493713099e+02 0.0000000000e+00 0.0000e+00 1.0000e+00
       23  1    1    2    0    0 +5.9627212463e+01 +1.5221599653e+01 +8.5208707275e+00 1.1034019279e+02 9.1188000000e+01 0.0000e+00 0.0000e+00
       25  1    1    2    0    0 -5.9627212463e+01 -1.5221599653e+01 -8.4703815822e+00 1.3958455834e+02 1.2500000000e+02 0.0000e+00 0.0000e+00
</event>
<event>
 4      1 +2.1368000e-01 2.49975000e+02 7.54677100e-03 1.11332100e-01
      -11 -1    0    0    0    0 +0.0000000000e+00 +0.0000000000e+00 +1.2498749536e+02 1.2498749536e+02 0.0000000000e+00 0.0000e+00 -1.0000e+00
       11 -1    0    0    0    0 -0.0000000000e+00 -0.0000000000e+00 -1.2498749536e+02 1.2498749536e+02 0.0000000000e+00 0.0000e+00 1.0000e+00
       23  1    1    2    0    0 +4.6719689082e+01 -3.5172313224e+01 -2.1111604146e+01 1.1036653541e+02 9.1188000000e+01 0.0000e+00 0.0000e+00
       25  1    1    2    0    0 -4.6719689082e+01 +3.5172313224e+01 +2.1111604146e+01 1.3960845531e+02 1.2500000000e+02 0.0000e+00 0.0000e+00
</event>
<event>
 4      1 +2.1368000e-01 2.42567600e+02 7.54677100e-03 1.11809400e-01
      -11 -1    0    0    0    0 +0.0000000000e+00 +0.0000000000e+00 +1.2498772623e+02 1.2498772623e+02 0.0000000000e+00 0.0000e+00 -1.0000e+00
       11 -1    0    0    0    0 -0.0000000000e+00 -0.0000000000e+00 -1.1768967857e+02 1.1768967857e+02 0.0000000000e+00 0.0000e+00 1.0000e+00
       23  1    1    2    0    0 -2.9497271269e+01 +1.5187681702e+01 -4.0020064518e+01 1.0496481123e+02 9.1188000000e+01 0.0000e+00 0.0000e+00
       25  1    1    2    0    0 +2.9497271269e+01 -1.5187681702e+01 +4.7318112182e+01 1.3771259357e+02 1.2500000000e+02 0.0000e+00 0.0000e+00
</event>
<event>
 4      1 +2.1368000e-01 2.49975000e+02 7.54677100e-03 1.11332100e-01
      -11 -1    0    0    0    0 +0.0000000000e+00 +0.0000000000e+00 +1.2498836716e+02 1.2498836716e+02 0.0000000000e+00 0.0000e+00 1.0000e+00
       11 -1    0    0    0    0 -0.0000000000e+00 -0.0000000000e+00 -1.2498662582e+02 1.2498662582e+02 0.0000000000e+00 0.0000e+00 -1.0000e+00
       23  1    1    2    0    0 +3.9792282405e+01 -4.7089335343e+01 +8.0437676251e+00 1.1036659270e+02 9.1188000000e+01 0.0000e+00 0.0000e+00
       25  1    1    2    0    0 -3.9792282405e+01 +4.7089335343e+01 -8.0420262822e+00 1.3960840028e+02 1.2500000000e+02 0.0000e+00 0.0000e+00
</event>
<event>
 4      1 +2.1368000e-01 2.46421500e+02 7.54677100e-03 1.11558700e-01
      -11 -1    0    0    0    0 +0.0000000000e+00 +0.0000000000e+00 +1.2148242848e+02 1.2148242848e+02 0.0000000000e+00 0.0000e+00 -1.0000e+00
       11 -1    0    0    0    0 -0.0000000000e+00 -0.0000000000e+00 -1.2496367909e+02 1.2496367909e+02 0.0000000000e+00 0.0000e+00 1.0000e+00
       23  1    1    2    0    0 +3.9052941820e+01 +3.5757803810e+01 -2.6573459772e+01 1.0874351892e+02 9.1188000000e+01 0.0000e+00 -1.0000e+00
       25  1    1    2    0    0 -3.9052941820e+01 -3.5757803810e+01 +2.3092209163e+01 1.3770258865e+02 1.2500000000e+02 0.0000e+00 0.0000e+00
</event>
<event>
 4      1 +2.1368000e-01 2.49975000e+02 7.54677100e-03 1.11332100e-01
      -11 -1    0    0    0    0 +0.0000000000e+00 +0.0000000000e+00 +1.2498750000e+02 1.2498750000e+02 0.0000000000e+00 0.0000e+00 1.0000e+00
       11 -1    0    0    0    0 -0.0000000000e+00 -0.0000000000e+00 -1.2498750000e+02 1.2498750000e+02 0.0000000000e+00 0.0000e+00 -1.0000e+00
       23  1    1    2    0    0 +3.1310005680e+01 -1.9045031515e+01 +5.0224418933e+01 1.1036654059e+02 9.1188000000e+01 0.0000e+00 1.0000e+00
       25  1    1    2    0    0 -3.1310005680e+01 +1.9045031515e+01 -5.0224418933e+01 1.3960845941e+02 1.2500000000e+02 0.0000e+00 0.0000e+00
</event>
<event>
 4      1 +2.1368000e-01 2.35655200e+02 7.54677100e-03 1.12272100e-01
      -11 -1    0    0    0    0 +0.0000000000e+00 +0.0000000000e+00 +1.1107881825e+02 1.1107881825e+02 0.0000000000e+00 0.0000e+00 -1.0000e+00
       11 -1    0    0    0    0 -0.0000000000e+00 -0.0000000000e+00 -1.2498644772e+02 1.2498644772e+02 0.0000000000e+00 0.0000e+00 1.0000e+00
       23  1    1    2    0    0 -3.4202940559e+01 -2.5755572630e+01 +1.1897193212e+01 1.0143956435e+02 9.1188000000e+01 0.0000e+00 0.0000e+00
       25  1    1    2    0    0 +3.4202940559e+01 +2.5755572630e+01 -2.5804822684e+01 1.3462570163e+02 1.2500000000e+02 0.0000e+00 0.0000e+00
</event>
<event>
 4      1 +2.1368000e-01 2.49145100e+02 7.54677100e-03 1.11384600e-01
      -11 -1    0    0    0    0 +0.0000000000e+00 +0.0000000000e+00 +1.2416189743e+02 1.2416189743e+02 0.0000000000e+00 0.0000e+00 1.0000e+00
       11 -1    0    0    0    0 -0.0000000000e+00 -0.0000000000e+00 -1.2498455244e+02 1.2498455244e+02 0.0000000000e+00 0.0000e+00 -1.0000e+00
       23  1    1    2    0    0 +1.6399599104e+01 +4.4551902153e+01 -3.9216333699e+01 1.1003177273e+02 9.1188000000e+01 0.0000e+00 0.0000e+00
       25  1    1    2    0    0 -1.6399599104e+01 -4.4551902153e+01 +3.8393678690e+01 1.3911467715e+02 1.2500000000e+02 0.0000e+00 0.0000e+00
</event>
<event>
 4      1 +2.1368000e-01 2.49975000e+02 7.54677100e-03 1.11332100e-01
      -11 -1    0    0    0    0 +0.0000000000e+00 +0.0000000000e+00 +1.2498749878e+02 1.2498749878e+02 0.0000000000e+00 0.0000e+00 1.0000e+00
       11 -1    0    0    0    0 -0.0000000000e+00 -0.0000000000e+00 -1.2498749878e+02 1.2498749878e+02 0.0000000000e+00 0.0000e+00 -1.0000e+00
       23  1    1    2    0    0 -4.1380143519e+01 -1.0306695077e+01 +4.5243534313e+01 1.1036653923e+02 9.1188000000e+01 0.0000e+00 1.0000e+00
       25  1    1    2    0    0 +4.1380143519e+01 +1.0306695077e+01 -4.5243534313e+01 1.3960845833e+02 1.2500000000e+02 0.0000e+00 0.0000e+00
</event>
<event>
 4      1 +2.1368000e-01 2.49843100e+02 7.54677100e-03 1.11340400e-01
      -11 -1    0    0    0    0 +0.0000000000e+00 +0.0000000000e+00 +1.2498682472e+02 1.2498682472e+02 0.0000000000e+00 0.0000e+00 1.0000e+00
       11 -1    0    0    0    0 -0.0000000000e+00 -0.0000000000e+00 -1.2485629291e+02 1.2485629291e+02 0.0000000000e+00 0.0000e+00 -1.0000e+00
       23  1    1    2    0    0 +4.2649725197e+01 +3.0731979934e+01 -3.2894020695e+01 1.1027566183e+02 9.1188000000e+01 0.0000e+00 -1.0000e+00
       25  1    1    2    0    0 -4.2649725197e+01 -3.0731979934e+01 +3.3024552512e+01 1.3956745580e+02 1.2500000000e+02 0.0000e+00 0.0000e+00
</event>
<event>
 4      1 +2.1368000e-01 2.49975000e+02 7.54677100e-03 1.11332100e-01
      -11 -1    0    0    0    0 +0.0000000000e+00 +0.0000000000e+00 +1.2498750000e+02 1.2498750000e+02 0.0000000000e+00 0.0000e+00 -1.0000e+00
       11 -1    0    0    0    0 -0.0000000000e+00 -0.0000000000e+00 -1.2498750000e+02 1.2498750000e+02 0.0000000000e+00 0.0000e+00 1.0000e+00
       23  1    1    2    0    0 -1.7285826178e+01 -2.6820576659e+01 +5.3360836006e+01 1.1036654059e+02 9.1188000000e+01 0.0000e+00 0.0000e+00
       25  1    1    2    0    0 +1.7285826178e+01 +2.6820576659e+01 -5.3360836006e+01 1.3960845941e+02 1.2500000000e+02 0.0000e+00 0.0000e+00
</event>
<event>
 4      1 +2.1368000e-01 2.49975000e+02 7.54677100e-03 1.11332100e-01
      -11 -1    0    0    0    0 +0.0000000000e+00 +0.0000000000e+00 +1.2498837030e+02 1.2498837030e+02 0.0000000000e+00 0.0000e+00 -1.0000e+00
       11 -1    0    0    0    0 -0.0000000000e+00 -0.0000000000e+00 -1.2498662895e+02 1.2498662895e+02 0.0000000000e+00 0.0000e+00 1.0000e+00
       23  1    1    2    0    0 -4.5591814809e+01 +3.0510568025e+01 -2.9256939678e+01 1.1036633636e+02 9.1188000000e+01 0.0000e+00 0.0000e+00
       25  1    1    2    0    0 +4.5591814809e+01 -3.0510568025e+01 +2.9258681021e+01 1.3960866289e+02 1.2500000000e+02 0.0000e+00 0.0000e+00
</event>
<event>
 4      1 +2.1368000e-01 2.49923000e+02 7.54677100e-03 1.11335300e-01
      -11 -1    0    0    0    0 +0.0000000000e+00 +0.0000000000e+00 +1.2498849537e+02 1.2498849537e+02 0.0000000000e+00 0.0000e+00 1.0000e+00
       11 -1    0    0    0    0 -0.0000000000e+00 -0.0000000000e+00 -1.2493452496e+02 1.2493452496e+02 0.0000000000e+00 0.0000e+00 -1.0000e+00
       23  1    1    2    0    0 -3.3994422496e+01 -4.9992350143e+01 +1.4315719759e+01 1.1034059548e+02 9.1188000000e+01 0.0000e+00 0.0000e+00
       25  1    1    2    0    0 +3.3994422496e+01 +4.9992350143e+01 -1.4261749354e+01 1.3958242485e+02 1.2500000000e+02 0.0000e+00 0.0000e+00
</event>
<event>
 4      1 +2.1368000e-01 2.49903400e+02 7.54677100e-03 1.11336600e-01
      -11 -1    0    0    0    0 +0.0000000000e+00 +0.0000000000e+00 +1.2498738406e+02 1.2498738406e+02 0.0000000000e+00 0.0000e+00 -1.0000e+00
       11 -1    0    0    0    0 -0.0000000000e+00 -0.0000000000e+00 -1.2491600896e+02 1.2491600896e+02 0.0000000000e+00 0.0000e+00 1.0000e+00
       23  1    1    2    0    0 +1.7329442865e+01 -5.9384976017e+01 -5.4283016597e+00 1.1032498706e+02 9.1188000000e+01 0.0000e+00 0.0000e+00
       25  1    1    2    0    0 -1.7329442865e+01 +5.9384976017e+01 +5.4996767650e+00 1.3957840596e+02 1.2500000000e+02 0.0000e+00 0.0000e+00
</event>
<event>
 4      1 +2.1368000e-01 2.28467900e+02 7.54677100e-03 1.12772300e-01
      -11 -1    0    0    0    0 +0.0000000000e+00 +0.0000000000e+00 +1.0450125151e+02 1.0450125151e+02 0.0000000000e+00 0.0000e+00 1.0000e+00
       11 -1    0    0    0    0 -0.0000000000e+00 -0.0000000000e+00 -1.2487310682e+02 1.2487310682e+02 0.0000000000e+00 0.0000e+00 -1.0000e+00
       23  1    1    2    0    0 +2.4772489559e+00 +2.3226799461e+00 -4.5285878668e+01 1.0187047539e+02 9.1188000000e+01 0.0000e+00 -1.0000e+00
       25  1    1    2    0    0 -2.4772489559e+00 -2.3226799461e+00 +2.4914023363e+01 1.2750388294e+02 1.2500000000e+02 0.0000e+00 0.0000e+00
</event>
<event>
 4      1 +2.1368000e-01 2.49390100e+02 7.54677100e-03 1.11369100e-01
      -11 -1    0    0    0    0 +0.0000000000e+00 +0.0000000000e+00 +1.2498812086e+02 1.2498812086e+02 0.0000000000e+00 0.0000e+00 1.0000e+00
       11 -1    0    0    0    0 -0.0000000000e+00 -0.0000000000e+00 -1.2440265979e+02 1.2440265979e+02 0.0000000000e+00 0.0000e+00 -1.0000e+00
       23  1    1    2    0    0 -4.8674618532e+01 +3.2750332161e+01 +1.9012114403e+01 1.1008412503e+02 9.1188000000e+01 0.0000e+00 -1.0000e+00
       25  1    1    2    0    0 +4.8674618532e+01 -3.2750332161e+01 -1.8426653332e+01 1.3930665562e+02 1.2500000000e+02 0.0000e+00 0.0000e+00
</event>
<event>
 4      1 +2.1368000e-01 2.49713300e+02 7.54677100e-03 1.11348600e-01
      -11 -1    0    0    0    0 +0.0000000000e+00 +0.0000000000e+00 +1.2475666997e+02 1.2475666997e+02 0.0000000000e+00 0.0000e+00 1.0000e+00
       11 -1    0    0    0    0 -0.0000000000e+00 -0.0000000000e+00 -1.2495671482e+02 1.2495671482e+02 0.0000000000e+00 0.0000e+00 -1.0000e+00
       23  1    1    2    0    0 -7.6519616606e-01 +3.1365052391e+01 -5.3463652127e+01 1.1026316465e+02 9.1188000000e+01 0.0000e+00 -1.0000e+00
       25  1    1    2    0    0 +7.6519616606e-01 -3.1365052391e+01 +5.3263607271e+01 1.3945022014e+02 1.2500000000e+02 0.0000e+00 0.0000e+00
</event>
<event>
 4      1 +2.1368000e-01 2.49974700e+02 7.54677100e-03 1.11332100e-01
      -11 -1    0    0    0    0 +0.0000000000e+00 +0.0000000000e+00 +1.2498822373e+02 1.2498822373e+02 0.0000000000e+00 0.0000e+00 1.0000e+00
       11 -1    0    0    0    0 -0.0000000000e+00 -0.0000000000e+00 -1.2498648239e+02 1.2498648239e+02 0.0000000000e+00 0.0000e+00 -1.0000e+00
       23  1    1    2    0    0 -2.4424979613e+01 +1.2204318909e+01 -5.5855839386e+01 1.1036598736e+02 9.1188000000e+01 0.0000e+00 -1.0000e+00
       25  1    1    2    0    0 +2.4424979613e+01 -1.2204318909e+01 +5.5857580726e+01 1.3960871876e+02 1.2500000000e+02 0.0000e+00 0.0000e+00
</event>
<event>
 4      1 +2.1368000e-01 2.49975000e+02 7.54677100e-03 1.11332100e-01
      -11 -1    0    0    0    0 +0.0000000000e+00 +0.0000000000e+00 +1.2498836984e+02 1.2498836984e+02 0.0000000000e+00 0.0000e+00 1.0000e+00
       11 -1    0    0    0    0 -0.0000000000e+00 -0.0000000000e+00 -1.2498662850e+02 1.2498662850e+02 0.0000000000e+00 0.0000e+00 -1.0000e+00
       23  1    1    2    0    0 -5.0502482752e+01 +1.7812122986e+01 +3.1587937790e+01 1.1036675970e+02 9.1188000000e+01 0.0000e+00 1.0000e+00
       25  1    1    2    0    0 +5.0502482752e+01 -1.7812122986e+01 -3.1586196448e+01 1.3960823864e+02 1.2500000000e+02 0.0000e+00 0.0000e+00
</event>
<event>
 4      1 +2.1368000e-01 2.49975000e+02 7.54677100e-03 1.11332100e-01
      -11 -1    0    0    0    0 +0.0000000000e+00 +0.0000000000e+00 +1.2498749983e+02 1.2498749983e+02 0.0000000000e+00 0.0000e+00 -1.0000e+00
       11 -1    0    0    0    0 -0.0000000000e+00 -0.0000000000e+00 -1.2498749983e+02 1.2498749983e+02 0.0000000000e+00 0.0000e+00 1.0000e+00
       23  1    1    2    0    0 -2.0219276265e+01 +5.8705056965e+01 -3.2278555550e+00 1.1036654041e+02 9.1188000000e+01 0.0000e+00 0.0000e+00
       25  1    1    2    0    0 +2.0219276265e+01 -5.8705056965e+01 +3.2278555550e+00 1.3960845926e+02 1.2500000000e+02 0.0000e+00 0.0000e+00
</event>
<event>
 4      1 +2.1368000e-01 2.39936400e+02 7.54677100e-03 1.11983500e-01
      -11 -1    0    0    0    0 +0.0000000000e+00 +0.0000000000e+00 +1.1515078845e+02 1.1515078845e+02 0.0000000000e+00 0.0000e+00 1.0000e+00
       11 -1    0    0    0    0 -0.0000000000e+00 -0.0000000000e+00 -1.2498716474e+02 1.2498716474e+02 0.0000000000e+00 0.0000e+00 -1.0000e+00
       23  1    1    2    0    0 +4.4554704415e+01 +1.5133365912e+01 -2.5290823886e+01 1.0568357283e+02 9.1188000000e+01 0.0000e+00 0.0000e+00
       25  1    1    2    0    0 -4.4554704415e+01 -1.5133365912e+01 +1.5454447595e+01 1.3445438037e+02 1.2500000000e+02 0.0000e+00 0.0000e+00
</event>
<event>
 4      1 +2.1368000e-01 2.49975000e+02 7.54677100e-03 1.11332100e-01
      -11 -1    0    0    0    0 +0.0000000000e+00 +0.0000000000e+00 +1.2498750000e+02 1.2498750000e+02 0.0000000000e+00 0.0000e+00 1.0000e+00
       11 -1    0    0    0    0 -0.0000000000e+00 -0.0000000000e+00 -1.2498750000e+02 1.2498750000e+02 0.0000000000e+00 0.0000e+00 -1.0000e+00
       23  1    1    2    0    0 +5.3903768618e+01 +3.0982344435e+01 +5.2602668726e-04 1.1036654059e+02 9.1188000000e+01 0.0000e+00 0.0000e+00
       25  1    1    2    0    0 -5.3903768618e+01 -3.0982344435e+01 -5.2602668726e-04 1.3960845941e+02 1.2500000000e+02 0.0000e+00 0.0000e+00
</event>
<event>
 4      1 +2.1368000e-01 2.49974700e+02 7.54677100e-03 1.11332100e-01
      -11 -1    0    0    0    0 +0.0000000000e+00 +0.0000000000e+00 +1.2498821970e+02 1.2498821970e+02 0.0000000000e+00 0.0000e+00 1.0000e+00
       11 -1    0    0    0    0 -0.0000000000e+00 -0.0000000000e+00 -1.2498647836e+02 1.2498647836e+02 0.0000000000e+00 0.0000e+00 -1.0000e+00
       23  1    1    2    0    0 -3.3204141848e+01 +4.4811927512e+01 -2.7473961992e+01 1.1036618057e+02 9.1188000000e+01 0.0000e+00 0.0000e+00
       25  1    1    2    0    0 +3.3204141848e+01 -4.4811927512e+01 +2.7475703333e+01 1.3960851749e+02 1.2500000000e+02 0.0000e+00 0.0000e+00
</event>
<event>
 4      1 +2.1368000e-01 2.39808000e+02 7.54677100e-03 1.11992100e-01
      -11 -1    0    0    0    0 +0.0000000000e+00 +0.0000000000e+00 +1.1511158157e+02 1.1511158157e+02 0.0000000000e+00 0.0000e+00 -1.0000e+00
       11 -1    0    0    0    0 -0.0000000000e+00 -0.0000000000e+00 -1.2489590730e+02 1.2489590730e+02 0.0000000000e+00 0.0000e+00 1.0000e+00
       23  1    1    2    0    0 -2.1117643028e+01 +1.7975388321e+01 +3.9009767311e+01 1.0298583748e+02 9.1188000000e+01 0.0000e+00 -1.0000e+00
       25  1    1    2    0    0 +2.1117643028e+01 -1.7975388321e+01 -4.8794093043e+01 1.3702165138e+02 1.2500000000e+02 0.0000e+00 0.0000e+00
</event>
<event>
 4      1 +2.1368000e-01 2.45293900e+02 7.54677100e-03 1.11631600e-01
      -11 -1    0    0    0    0 +0.0000000000e+00 +0.0000000000e+00 +1.2498762412e+02 1.2498762412e+02 0.0000000000e+00 0.0000e+00 1.0000e+00
       11 -1    0    0    0    0 -0.0000000000e+00 -0.0000000000e+00 -1.2035009900e+02 1.2035009900e+02 0.0000000000e+00 0.0000e+00 -1.0000e+00
       23  1    1    2    0    0 +6.3231666905e+00 +3.0068576397e+01 +5.0523092257e+01 1.0868273055e+02 9.1188000000e+01 0.0000e+00 1.0000e+00
       25  1    1    2    0    0 -6.3231666905e+00 -3.0068576397e+01 -4.5885567145e+01 1.3665499258e+02 1.2500000000e+02 0.0000e+00 0.0000e+00
</event>
<event>
 4      1 +2.1368000e-01 2.49968900e+02 7.54677100e-03 1.11332400e-01
      -11 -1    0    0    0    0 +0.0000000000e+00 +0.0000000000e+00 +1.2498795208e+02 1.2498795208e+02 0.0000000000e+00 0.0000e+00 1.0000e+00
       11 -1    0    0    0    0 -0.0000000000e+00 -0.0000000000e+00 -1.2498098683e+02 1.2498098683e+02 0.0000000000e+00 0.0000e+00 -1.0000e+00
       23  1    1    2    0    0 -2.7922223634e+01 -5.0594310984e+01 +2.2923368986e+01 1.1036379418e+02 9.1188000000e+01 0.0000e+00 0.0000e+00
       25  1    1    2    0    0 +2.7922223634e+01 +5.0594310984e+01 -2.2916403735e+01 1.3960514474e+02 1.2500000000e+02 0.0000e+00 0.0000e+00
</event>
<event>
 4      1 +2.1368000e-01 2.49973900e+02 7.54677100e-03 1.11332100e-01
      -11 -1    0    0    0    0 +0.0000000000e+00 +0.0000000000e+00 +1.2498695560e+02 1.2498695560e+02 0.0000000000e+00 0.0000e+00 -1.0000e+00
       11 -1    0    0    0    0 -0.0000000000e+00 -0.0000000000e+00 -1.2498695560e+02 1.2498695560e+02 0.0000000000e+00 0.0000e+00 1.0000e+00
       23  1    1    2    0    0 -4.0343757360e+01 +4.3325109173e+01 +1.8992205520e+01 1.1036593250e+02 9.1188000000e+01 0.0000e+00 1.0000e+00
       25  1    1    2    0    0 +4.0343757360e+01 -4.3325109173e+01 -1.8992205520e+01 1.3960797869e+02 1.2500000000e+02 0.0000e+00 0.0000e+00
</event>
<event>
 4      1 +2.1368000e-01 2.47375200e+02 7.54677100e-03 1.11497500e-01
      -11 -1    0    0    0    0 +0.0000000000e+00 +0.0000000000e+00 +1.2242070366e+02 1.2242070366e+02 0.0000000000e+00 0.0000e+00 1.0000e+00
       11 -1    0    0    0    0 -0.0000000000e+00 -0.0000000000e+00 -1.2496765261e+02 1.2496765261e+02 0.0000000000e+00 0.0000e+00 -1.0000e+00
       23  1    1    2    0    0 -3.3738025533e+00 +1.7687480083e+00 -6.0557498901e+01 1.0953069447e+02 9.1188000000e+01 0.0000e+00 -1.0000e+00
       25  1    1    2    0    0 +3.3738025533e+00 -1.7687480083e+00 +5.8010549956e+01 1.3785766181e+02 1.2500000000e+02 0.0000e+00 0.0000e+00
</event>
<event>
 4      1 +2.1368000e-01 2.49970500e+02 7.54677100e-03 1.11332300e-01
      -11 -1    0    0    0    0 +0.0000000000e+00 +0.0000000000e+00 +1.2498436188e+02 1.2498436188e+02 0.0000000000e+00 0.0000e+00 1.0000e+00
       11 -1    0    0    0    0 -0.0000000000e+00 -0.0000000000e+00 -1.2498610320e+02 1.2498610320e+02 0.0000000000e+00 0.0000e+00 -1.0000e+00
       23  1    1    2    0    0 -4.6813556480e+01 -1.7756339355e+01 +3.6852538144e+01 1.1036375116e+02 9.1188000000e+01 0.0000e+00 0.0000e+00
       25  1    1    2    0    0 +4.6813556480e+01 +1.7756339355e+01 -3.6854279468e+01 1.3960671392e+02 1.2500000000e+02 0.0000e+00 0.0000e+00
</event>
<event>
 4      1 +2.1368000e-01 2.49975000e+02 7.54677100e-03 1.11332100e-01
      -11 -1    0    0    0    0 +0.0000000000e+00 +0.0000000000e+00 +1.2498836018e+02 1.2498836018e+02 0.0000000000e+00 0.0000e+00 1.0000e+00
       11 -1    0    0    0    0 -0.0000000000e+00 -0.0000000000e+00 -1.2498661884e+02 1.2498661884e+02 0.0000000000e+00 0.0000e+00 -1.0000e+00
       23  1    1    2    0    0 +6.1745305174e+01 -9.5910774643e-01 -7.2184245741e+00 1.1036647859e+02 9.1188000000e+01 0.0000e+00 1.0000e+00
       25  1    1    2    0    0 -6.1745305174e+01 +9.5910774643e-01 +7.2201659169e+00 1.3960850044e+02 1.2500000000e+02 0.0000e+00 0.0000e+00
</event>
<event>
 4      1 +2.1368000e-01 2.49954500e+02 7.54677100e-03 1.11333400e-01
      -11 -1    0    0    0    0 +0.0000000000e+00 +0.0000000000e+00 +1.2496765760e+02 1.2496765760e+02 0.0000000000e+00 0.0000e+00 -1.0000e+00
       11 -1    0    0    0    0 -0.0000000000e+00 -0.0000000000e+00 -1.2498681079e+02 1.2498681079e+02 0.0000000000e+00 0.0000e+00 1.0000e+00
       23  1    1    2    0    0 +5.0252122086e+01 +1.3663735759e+01 +3.3918191738e+01 1.1035247403e+02 9.1188000000e+01 0.0000e+00 -1.0000e+00
       25  1    1    2    0    0 -5.0252122086e+01 -1.3663735759e+01 -3.3937344937e+01 1.3960199436e+02 1.2500000000e+02 0.0000e+00 0.0000e+00
</event>
<event>
 4      1 +2.1368000e-01 2.48061200e+02 7.54677100e-03 1.11453600e-01
      -11 -1    0    0    0    0 +0.0000000000e+00 +0.0000000000e+00 +1.2498640877e+02 1.2498640877e+02 0.0000000000e+00 0.0000e+00 1.0000e+00
       11 -1    0    0    0    0 -0.0000000000e+00 -0.0000000000e+00 -1.2308212388e+02 1.2308212388e+02 0.0000000000e+00 0.0000e+00 -1.0000e+00
       23  1    1    2    0    0 -5.8095015054e+01 +1.5818858724e+01 +3.1377055937e+00 1.0931771863e+02 9.1188000000e+01 0.0000e+00 0.0000e+00
       25  1    1    2    0    0 +5.8095015054e+01 -1.5818858724e+01 -1.2334206945e+00 1.3875081402e+02 1.2500000000e+02 0.0000e+00 0.0000e+00
</event>
<event>
 4      1 +2.1368000e-01 2.43427200e+02 7.54677100e-03 1.11753100e-01
      -11 -1    0    0    0    0 +0.0000000000e+00 +0.0000000000e+00 +1.2498771562e+02 1.2498771562e+02 0.0000000000e+00 0.0000e+00 1.0000e+00
       11 -1    0    0    0    0 -0.0000000000e+00 -0.0000000000e+00 -1.1852526044e+02 1.1852526044e+02 0.0000000000e+00 0.0000e+00 -1.0000e+00
       23  1    1    2    0    0 -9.8028693604e+00 -5.3736515539e+01 -6.4331304311e+00 1.0649106001e+02 9.1188000000e+01 0.0000e+00 0.0000e+00
       25  1    1    2    0    0 +9.8028693604e+00 +5.3736515539e+01 +1.2895585615e+01 1.3702191605e+02 1.2500000000e+02 0.0000e+00 0.0000e+00
</event>
<event>
 4      1 +2.1368000e-01 2.36354700e+02 7.54677100e-03 1.12224500e-01
      -11 -1    0    0    0    0 +0.0000000000e+00 +0.0000000000e+00 +1.1174842958e+02 1.1174842958e+02 0.0000000000e+00 0.0000e+00 -1.0000e+00
       11 -1    0    0    0    0 -0.0000000000e+00 -0.0000000000e+00 -1.2497607696e+02 1.2497607696e+02 0.0000000000e+00 0.0000e+00 1.0000e+00
       23  1    1    2    0    0 -3.1635321132e+01 +2.8339181126e+01 +1.5043954249e+01 1.0171270635e+02 9.1188000000e+01 0.0000e+00 -1.0000e+00
       25  1    1    2    0    0 +3.1635321132e+01 -2.8339181126e+01 -2.8271601633e+01 1.3501180018e+02 1.2500000000e+02 0.0000e+00 0.0000e+00
</event>
<event>
 4      1 +2.1368000e-01 2.49972400e+02 7.54677100e-03 1.11332200e-01
      -11 -1    0    0    0    0 +0.0000000000e+00 +0.0000000000e+00 +1.2498532340e+02 1.2498532340e+02 0.0000000000e+00 0.0000e+00 1.0000e+00
       11 -1    0    0    0    0 -0.0000000000e+00 -0.0000000000e+00 -1.2498706472e+02 1.2498706472e+02 0.0000000000e+00 0.0000e+00 -1.0000e+00
       23  1    1    2    0    0 -1.9348951772e+01 -5.3575354569e+01 -2.4910594226e+01 1.1036525540e+02 9.1188000000e+01 0.0000e+00 0.0000e+00
       25  1    1    2    0    0 +1.9348951772e+01 +5.3575354569e+01 +2.4908852901e+01 1.3960713271e+02 1.2500000000e+02 0.0000e+00 0.0000e+00
</event>
<event>
 4      1 +2.1368000e-01 2.43111500e+02 7.54677100e-03 1.11773700e-01
      -11 -1    0    0    0    0 +0.0000000000e+00 +0.0000000000e+00 +1.2498824920e+02 1.2498824920e+02 0.0000000000e+00 0.0000e+00 1.0000e+00
       11 -1    0    0    0    0 -0.0000000000e+00 -0.0000000000e+00 -1.1821748080e+02 1.1821748080e+02 0.0000000000e+00 0.0000e+00 -1.0000e+00
       23  1    1    2    0    0 +2.9256058512e+01 -3.7798137100e+01 -2.4376445547e+01 1.0580207261e+02 9.1188000000e+01 0.0000e+00 0.0000e+00
       25  1    1    2    0    0 -2.9256058512e+01 +3.7798137100e+01 +3.1147213948e+01 1.3740365739e+02 1.2500000000e+02 0.0000e+00 0.0000e+00
</event>
<event>
 4      1 +2.1368000e-01 2.49973100e+02 7.54677100e-03 1.11332200e-01
      -11 -1    0    0    0    0 +0.0000000000e+00 +0.0000000000e+00 +1.2498653774e+02 1.2498653774e+02 0.0000000000e+00 0.0000e+00 1.0000e+00
       11 -1    0    0    0    0 -0.0000000000e+00 -0.0000000000e+00 -1.2498653774e+02 1.2498653774e+02 0.0000000000e+00 0.0000e+00 -1.0000e+00
       23  1    1    2    0    0 +3.0384329709e+01 +3.5520855171e+01 -4.0992024163e+01 1.1036546576e+02 9.1188000000e+01 0.0000e+00 1.0000e+00
       25  1    1    2    0    0 -3.0384329709e+01 -3.5520855171e+01 +4.0992024163e+01 1.3960760971e+02 1.2500000000e+02 0.0000e+00 0.0000e+00
</event>
<event>
 4      1 +2.1368000e-01 2.49974900e+02 7.54677100e-03 1.11332100e-01
      -11 -1    0    0    0    0 +0.0000000000e+00 +0.0000000000e+00 +1.2498834387e+02 1.2498834387e+02 0.0000000000e+00 0.0000e+00 1.0000e+00
       11 -1    0    0    0    0 -0.0000000000e+00 -0.0000000000e+00 -1.2498660253e+02 1.2498660253e+02 0.0000000000e+00 0.0000e+00 -1.0000e+00
       23  1    1    2    0    0 +4.3201067513e+01 +2.8932284239e+01 -3.4088907406e+01 1.1036627319e+02 9.1188000000e+01 0.0000e+00 0.0000e+00
       25  1    1    2    0    0 -4.3201067513e+01 -2.8932284239e+01 +3.4090648748e+01 1.3960867322e+02 1.2500000000e+02 0.0000e+00 0.0000e+00
</event>
<event>
 4      1 +2.1368000e-01 2.49975000e+02 7.54677100e-03 1.11332100e-01
      -11 -1    0    0    0    0 +0.0000000000e+00 +0.0000000000e+00 +1.2498749228e+02 1.2498749228e+02 0.0000000000e+00 0.0000e+00 -1.0000e+00
       11 -1    0    0    0    0 -0.0000000000e+00 -0.0000000000e+00 -1.2498749228e+02 1.2498749228e+02 0.0000000000e+00 0.0000e+00 1.0000e+00
       23  1    1    2    0    0 -5.0795341702e+01 -3.3429718526e+01 +1.2954042405e+01 1.1036653197e+02 9.1188000000e+01 0.0000e+00 0.0000e+00
       25  1    1    2    0    0 +5.0795341702e+01 +3.3429718526e+01 -1.2954042405e+01 1.3960845259e+02 1.2500000000e+02 0.0000e+00 0.0000e+00
</event>
<event>
 4      1 +2.1368000e-01 2.47579800e+02 7.54677100e-03 1.11484400e-01
      -11 -1    0    0    0    0 +0.0000000000e+00 +0.0000000000e+00 +1.2498826707e+02 1.2498826707e+02 0.0000000000e+00 0.0000e+00 -1.0000e+00
       11 -1    0    0    0    0 -0.0000000000e+00 -0.0000000000e+00 -1.2260307050e+02 1.2260307050e+02 0.0000000000e+00 0.0000e+00 1.0000e+00
       23  1    1    2    0    0 -5.2987627214e+01 +2.6781749873e+01 +7.8915656482e+00 1.0909848265e+02 9.1188000000e+01 0.0000e+00 0.0000e+00
       25  1    1    2    0    0 +5.2987627214e+01 -2.6781749873e+01 -5.5063690763e+00 1.3849285492e+02 1.2500000000e+02 0.0000e+00 0.0000e+00
</event>
<event>
 4      1 +2.1368000e-01 2.48543700e+02 7.54677100e-03 1.11422900e-01
      -11 -1    0    0    0    0 +0.0000000000e+00 +0.0000000000e+00 +1.2498808634e+02 1.2498808634e+02 0.0000000000e+00 0.0000e+00 1.0000e+00
       11 -1    0    0    0    0 -0.0000000000e+00 -0.0000000000e+00 -1.2355970053e+02 1.2355970053e+02 0.0000000000e+00 0.0000e+00 -1.0000e+00
       23  1    1    2    0    0 -1.2661623764e+01 -3.5634193620e+01 -4.6905238790e+01 1.0929531207e+02 9.1188000000e+01 0.0000e+00 -1.0000e+00
       25  1    1    2    0    0 +1.2661623764e+01 +3.5634193620e+01 +4.8333624594e+01 1.3925247480e+02 1.2500000000e+02 0.0000e+00 0.0000e+00
</event>
<event>
 4      1 +2.1368000e-01 2.49975000e+02 7.54677100e-03 1.11332100e-01
      -11 -1    0    0    0    0 +0.0000000000e+00 +0.0000000000e+00 +1.2498837066e+02 1.2498837066e+02 0.0000000000e+00 0.0000e+00 1.0000e+00
       11 -1    0    0    0    0 -0.0000000000e+00 -0.0000000000e+00 -1.2498662932e+02 1.2498662932e+02 0.0000000000e+00 0.0000e+00 -1.0000e+00
       23  1    1    2    0    0 +1.2398379653e+01 +5.8181716044e+01 -1.8073799916e+01 1.1036641467e+02 9.1188000000e+01 0.0000e+00 0.0000e+00
       25  1    1    2    0    0 -1.2398379653e+01 -5.8181716044e+01 +1.8075541259e+01 1.3960858531e+02 1.2500000000e+02 0.0000e+00 0.0000e+00
</event>
<event>
 4      1 +2.1368000e-01 2.49710700e+02 7.54677100e-03 1.11348800e-01
      -11 -1    0    0    0    0 +0.0000000000e+00 +0.0000000000e+00 +1.2498850773e+02 1.2498850773e+02 0.0000000000e+00 0.0000e+00 -1.0000e+00
       11 -1    0    0    0    0 -0.0000000000e+00 -0.0000000000e+00 -1.2472236377e+02 1.2472236377e+02 0.0000000000e+00 0.0000e+00 1.0000e+00
       23  1    1    2    0    0 +4.0198233972e+00 -4.2083813387e+01 +4.5347524492e+01 1.1026720116e+02 9.1188000000e+01 0.0000e+00 -1.0000e+00
       25  1    1    2    0    0 -4.0198233972e+00 +4.2083813387e+01 -4.5081380536e+01 1.3944367035e+02 1.2500000000e+02 0.0000e+00 0.0000e+00
</event>
<event>
 4      1 +2.1368000e-01 2.31609400e+02 7.54677100e-03 1.12551200e-01
      -11 -1    0    0    0    0 +0.0000000000e+00 +0.0000000000e+00 +1.0819849395e+02 1.0819849395e+02 0.0000000000e+00 0.0000e+00 1.0000e+00
       11 -1    0    0    0    0 -0.0000000000e+00 -0.0000000000e+00 -1.2394560927e+02 1.2394560927e+02 0.0000000000e+00 0.0000e+00 -1.0000e+00
       23  1    1    2    0    0 -3.5096646395e+01 -2.0677729237e+01 -1.2315950708e+01 1.0062940455e+02 9.1188000000e+01 0.0000e+00 -1.0000e+00
       25  1    1    2    0    0 +3.5096646395e+01 +2.0677729237e+01 -3.4311646182e+00 1.3151469867e+02 1.2500000000e+02 0.0000e+00 0.0000e+00
</event>
<event>
 4      1 +2.1368000e-01 2.49055100e+02 7.54677100e-03 1.11390300e-01
      -11 -1    0    0    0    0 +0.0000000000e+00 +0.0000000000e+00 +1.2498813931e+02 1.2498813931e+02 0.0000000000e+00 0.0000e+00 -1.0000e+00
       11 -1    0    0    0    0 -0.0000000000e+00 -0.0000000000e+00 -1.2406862411e+02 1.2406862411e+02 0.0000000000e+00 0.0000e+00 1.0000e+00
       23  1    1    2    0    0 +5.4082315657e+01 -2.7745097728e+01 +7.9982624410e+00 1.0988134901e+02 9.1188000000e+01 0.0000e+00 0.0000e+00
       25  1    1    2    0    0 -5.4082315657e+01 +2.7745097728e+01 -7.0787472439e+00 1.3917541441e+02 1.2500000000e+02 0.0000e+00 0.0000e+00
</event>
<event>
 4      1 +2.1368000e-01 2.43365900e+02 7.54677100e-03 1.11757100e-01
      -11 -1    0    0    0    0 +0.0000000000e+00 +0.0000000000e+00 +1.2498842277e+02 1.2498842277e+02 0.0000000000e+00 0.0000e+00 1.0000e+00
       11 -1    0    0    0    0 -0.0000000000e+00 -0.0000000000e+00 -1.1846487001e+02 1.1846487001e+02 0.0000000000e+00 0.0000e+00 -1.0000e+00
       23  1    1    2    0    0 +1.6239601905e+01 +4.1024204433e+01 +3.6269449199e+01 1.0759848655e+02 9.1188000000e+01 0.0000e+00 0.0000e+00
       25  1    1    2    0    0 -1.6239601905e+01 -4.1024204433e+01 -2.9745896439e+01 1.3585480622e+02 1.2500000000e+02 0.0000e+00 0.0000e+00
</event>
<event>
 4      1 +2.1368000e-01 2.49974900e+02 7.54677100e-03 1.11332100e-01
      -11 -1    0    0    0    0 +0.0000000000e+00 +0.0000000000e+00 +1.2498832083e+02 1.2498832083e+02 0.0000000000e+00 0.0000e+00 1.0000e+00
       11 -1    0    0    0    0 -0.0000000000e+00 -0.0000000000e+00 -1.2498657949e+02 1.2498657949e+02 0.0000000000e+00 0.0000e+00 -1.0000e+00
       23  1    1    2    0    0 -2.9511907270e+01 -2.7707078044e+01 -4.7189005537e+01 1.1036615619e+02 9.1188000000e+01 0.0000e+00 -1.0000e+00
       25  1    1    2    0    0 +2.9511907270e+01 +2.7707078044e+01 +4.7190746880e+01 1.3960874412e+02 1.2500000000e+02 0.0000e+00 0.0000e+00
</event>
<event>
 4      1 +2.1368000e-01 2.49922300e+02 7.54677100e-03 1.11335400e-01
      -11 -1    0    0    0    0 +0.0000000000e+00 +0.0000000000e+00 +1.2493590041e+02 1.2493590041e+02 0.0000000000e+00 0.0000e+00 1.0000e+00
       11 -1    0    0    0    0 -0.0000000000e+00 -0.0000000000e+00 -1.2498638871e+02 1.2498638871e+02 0.0000000000e+00 0.0000e+00 -1.0000e+00
       23  1    1    2    0    0 +2.2591593379e+01 -5.5328922588e+01 +1.6929236084e+01 1.1033367638e+02 9.1188000000e+01 0.0000e+00 0.0000e+00
       25  1    1    2    0    0 -2.2591593379e+01 +5.5328922588e+01 -1.6979724380e+01 1.3958861274e+02 1.2500000000e+02 0.0000e+00 0.0000e+00
</event>
<event>
 4      1 +2.1368000e-01 2.49969700e+02 7.54677100e-03 1.11332400e-01
      -11 -1    0    0    0    0 +0.0000000000e+00 +0.0000000000e+00 +1.2498312058e+02 1.2498312058e+02 0.0000000000e+00 0.0000e+00 1.0000e+00
       11 -1    0    0    0    0 -0.0000000000e+00 -0.0000000000e+00 -1.2498660322e+02 1.2498660322e+02 0.0000000000e+00 0.0000e+00 -1.0000e+00
       23  1    1    2    0    0 +3.9346114933e+01 +1.7983772658e+00 -4.8100608148e+01 1.1036426401e+02 9.1188000000e+01 0.0000e+00 -1.0000e+00
       25  1    1    2    0    0 -3.9346114933e+01 -1.7983772658e+00 +4.8097125512e+01 1.3960545979e+02 1.2500000000e+02 0.0000e+00 0.0000e+00
</event>
<event>
 4      1 +2.1368000e-01 2.49974900e+02 7.54677100e-03 1.11332100e-01
      -11 -1    0    0    0    0 +0.0000000000e+00 +0.0000000000e+00 +1.2498829602e+02 1.2498829602e+02 0.0000000000e+00 0.0000e+00 1.0000e+00
       11 -1    0    0    0    0 -0.0000000000e+00 -0.0000000000e+00 -1.2498655467e+02 1.2498655467e+02 0.0000000000e+00 0.0000e+00 -1.0000e+00
       23  1    1    2    0    0 -4.7152650456e+01 +3.8305272397e+01 +1.3223370409e+01 1.1036654931e+02 9.1188000000e+01 0.0000e+00 0.0000e+00
       25  1    1    2    0    0 +4.7152650456e+01 -3.8305272397e+01 -1.3221629067e+01 1.3960830138e+02 1.2500000000e+02 0.0000e+00 0.0000e+00
</event>
<event>
 4      1 +2.1368000e-01 2.49975000e+02 7.54677100e-03 1.11332100e-01
      -11 -1    0    0    0    0 +0.0000000000e+00 +0.0000000000e+00 +1.2498837067e+02 1.2498837067e+02 0.0000000000e+00 0.0000e+00 1.0000e+00
       11 -1    0    0    0    0 -0.0000000000e+00 -0.0000000000e+00 -1.2498662933e+02 1.2498662933e+02 0.0000000000e+00 0.0000e+00 -1.0000e+00
       23  1    1    2    0    0 +4.4694572818e+01 -3.9556238713e+01 -1.7412475499e+01 1.1036641929e+02 9.1188000000e+01 0.0000e+00 0.0000e+00
       25  1    1    2    0    0 -4.4694572818e+01 +3.9556238713e+01 +1.7414216841e+01 1.3960858071e+02 1.2500000000e+02 0.0000e+00 0.0000e+00
</event>
<event>
 4      1 +2.1368000e-01 2.45514600e+02 7.54677100e-03 1.11617300e-01
      -11 -1    0    0    0    0 +0.0000000000e+00 +0.0000000000e+00 +1.2079279185e+02 1.2079279185e+02 0.0000000000e+00 0.0000e+00 1.0000e+00
       11 -1    0    0    0    0 -0.0000000000e+00 -0.0000000000e+00 -1.2475377200e+02 1.2475377200e+02 0.0000000000e+00 0.0000e+00 -1.0000e+00
       23  1    1    2    0    0 +4.6578393506e+01 -1.4466112619e+01 -3.2436755662e+01 1.0837993180e+02 9.1188000000e+01 0.0000e+00 -1.0000e+00
       25  1    1    2    0    0 -4.6578393506e+01 +1.4466112619e+01 +2.8475775514e+01 1.3716663205e+02 1.2500000000e+02 0.0000e+00 0.0000e+00
</event>
<event>
 4      1 +2.1368000e-01 2.49974800e+02 7.54677100e-03 1.11332100e-01
      -11 -1    0    0    0    0 +0.0000000000e+00 +0.0000000000e+00 +1.2498828756e+02 1.2498828756e+02 0.0000000000e+00 0.0000e+00 -1.0000e+00
       11 -1    0    0    0    0 -0.0000000000e+00 -0.0000000000e+00 -1.2498654621e+02 1.2498654621e+02 0.0000000000e+00 0.0000e+00 1.0000e+00
       23  1    1    2    0    0 +4.4625756356e+01 +4.0408344524e+01 -1.5530136096e+01 1.1036633956e+02 9.1188000000e+01 0.0000e+00 0.0000e+00
       25  1    1    2    0    0 -4.4625756356e+01 -4.0408344524e+01 +1.5531877438e+01 1.3960849421e+02 1.2500000000e+02 0.0000e+00 0.0000e+00
</event>
<event>
 4      1 +2.1368000e-01 2.49975000e+02 7.54677100e-03 1.11332100e-01
      -11 -1    0    0    0    0 +0.0000000000e+00 +0.0000000000e+00 +1.2498749958e+02 1.2498749958e+02 0.0000000000e+00 0.0000e+00 1.0000e+00
       11 -1    0    0    0    0 -0.0000000000e+00 -0.0000000000e+00 -1.2498749958e+02 1.2498749958e+02 0.0000000000e+00 0.0000e+00 -1.0000e+00
       23  1    1    2    0    0 +5.1573321005e+01 -2.9017162153e+01 +1.9071410400e+01 1.1036654012e+02 9.1188000000e+01 0.0000e+00 0.0000e+00
       25  1    1    2    0    0 -5.1573321005e+01 +2.9017162153e+01 -1.9071410400e+01 1.3960845903e+02 1.2500000000e+02 0.0000e+00 0.0000e+00
</event>
<event>
 4      1 +2.1368000e-01 2.49308700e+02 7.54677100e-03 1.11374300e-01
      -11 -1    0    0    0    0 +0.0000000000e+00 +0.0000000000e+00 +1.2438716841e+02 1.2438716841e+02 0.0000000000e+00 0.0000e+00 -1.0000e+00
       11 -1    0    0    0    0 -0.0000000000e+00 -0.0000000000e+00 -1.2492206988e+02 1.2492206988e+02 0.0000000000e+00 0.0000e+00 1.0000e+00
       23  1    1    2    0    0 -3.3819721228e+01 -4.1482683544e+01 +3.0077551396e+01 1.0992950932e+02 9.1188000000e+01 0.0000e+00 -1.0000e+00
       25  1    1    2    0    0 +3.3819721228e+01 +4.1482683544e+01 -3.0612452865e+01 1.3937972897e+02 1.2500000000e+02 0.0000e+00 0.0000e+00
</event>
<event>
 4      1 +2.1368000e-01 2.47831200e+02 7.54677100e-03 1.11468300e-01
      -11 -1    0    0    0    0 +0.0000000000e+00 +0.0000000000e+00 +1.2331366657e+02 1.2331366657e+02 0.0000000000e+00 0.0000e+00 -1.0000e+00
       11 -1    0    0    0    0 -0.0000000000e+00 -0.0000000000e+00 -1.2452042377e+02 1.2452042377e+02 0.0000000000e+00 0.0000e+00 1.0000e+00
       23  1    1    2    0    0 -5.3884522230e+01 +2.4096199360e+01 +1.0343424537e+01 1.0911648058e+02 9.1188000000e+01 0.0000e+00 0.0000e+00
       25  1    1    2    0    0 +5.3884522230e+01 -2.4096199360e+01 -1.1550181732e+01 1.3871760976e+02 1.2500000000e+02 0.0000e+00 0.0000e+00
</event>
<event>
 4      1 +2.1368000e-01 2.49816100e+02 7.54677100e-03 1.11342100e-01
      -11 -1    0    0    0    0 +0.0000000000e+00 +0.0000000000e+00 +1.2498813404e+02 1.2498813404e+02 0.0000000000e+00 0.0000e+00 1.0000e+00
       11 -1    0    0    0    0 -0.0000000000e+00 -0.0000000000e+00 -1.2482803117e+02 1.2482803117e+02 0.0000000000e+00 0.0000e+00 -1.0000e+00
       23  1    1    2    0    0 +3.3400807336e+01 -1.7440815922e+01 -4.9185253328e+01 1.1024625381e+02 9.1188000000e+01 0.0000e+00 -1.0000e+00
       25  1    1    2    0    0 -3.3400807336e+01 +1.7440815922e+01 +4.9345356198e+01 1.3956991140e+02 1.2500000000e+02 0.0000e+00 0.0000e+00
</event>
<event>
 4      1 +2.1368000e-01 2.44107100e+02 7.54677100e-03 1.11708700e-01
      -11 -1    0    0    0    0 +0.0000000000e+00 +0.0000000000e+00 +1.1918865629e+02 1.1918865629e+02 0.0000000000e+00 0.0000e+00 1.0000e+00
       11 -1    0    0    0    0 -0.0000000000e+00 -0.0000000000e+00 -1.2498726693e+02 1.2498726693e+02 0.0000000000e+00 0.0000e+00 -1.0000e+00
       23  1    1    2    0    0 -3.7459282937e+01 +2.8992439111e+00 -4.4262828056e+01 1.0810204801e+02 9.1188000000e+01 0.0000e+00 1.0000e+00
       25  1    1    2    0    0 +3.7459282937e+01 -2.8992439111e+00 +3.8464217412e+01 1.3607387521e+02 1.2500000000e+02 0.0000e+00 0.0000e+00
</event>
<event>
 4      1 +2.1368000e-01 2.49975000e+02 7.54677100e-03 1.11332100e-01
      -11 -1    0    0    0    0 +0.0000000000e+00 +0.0000000000e+00 +1.2498837067e+02 1.2498837067e+02 0.0000000000e+00 0.0000e+00 -1.0000e+00
       11 -1    0    0    0    0 -0.0000000000e+00 -0.0000000000e+00 -1.2498662933e+02 1.2498662933e+02 0.0000000000e+00 0.0000e+00 1.0000e+00
       23  1    1    2    0    0 -2.2318164602e+01 +3.0726748282e+01 -4.9226138528e+01 1.1036619768e+02 9.1188000000e+01 0.0000e+00 1.0000e+00
       25  1    1    2    0    0 +2.2318164602e+01 -3.0726748282e+01 +4.9227879871e+01 1.3960880233e+02 1.2500000000e+02 0.0000e+00 0.0000e+00
</event>
<event>
 4      1 +2.1368000e-01 2.49657100e+02 7.54677100e-03 1.11352200e-01
      -11 -1    0    0    0    0 +0.0000000000e+00 +0.0000000000e+00 +1.2467040471e+02 1.2467040471e+02 0.0000000000e+00 0.0000e+00 1.0000e+00
       11 -1    0    0    0    0 -0.0000000000e+00 -0.0000000000e+00 -1.2498692637e+02 1.2498692637e+02 0.0000000000e+00 0.0000e+00 -1.0000e+00
       23  1    1    2    0    0 -1.4366419936e+01 +5.7619808212e+01 -1.7458082117e+01 1.1021103527e+02 9.1188000000e+01 0.0000e+00 0.0000e+00
       25  1    1    2    0    0 +1.4366419936e+01 -5.7619808212e+01 +1.7141560454e+01 1.3944629581e+02 1.2500000000e+02 0.0000e+00 0.0000e+00
</event>
<event>
 4      1 +2.1368000e-01 2.49975000e+02 7.54677100e-03 1.11332100e-01
      -11 -1    0    0    0    0 +0.0000000000e+00 +0.0000000000e+00 +1.2498750000e+02 1.2498750000e+02 0.0000000000e+00 0.0000e+00 -1.0000e+00
       11 -1    0    0    0    0 -0.0000000000e+00 -0.0000000000e+00 -1.2498750000e+02 1.2498750000e+02 0.0000000000e+00 0.0000e+00 1.0000e+00
       23  1    1    2    0    0 -2.3993235696e+01 +3.3127300155e+00 -5.7261439014e+01 1.1036654059e+02 9.1188000000e+01 0.0000e+00 1.0000e+00
       25  1    1    2    0    0 +2.3993235696e+01 -3.3127300155e+00 +5.7261439014e+01 1.3960845940e+02 1.2500000000e+02 0.0000e+00 0.0000e+00
</event>
<event>
 4      1 +2.1368000e-01 2.49972700e+02 7.54677100e-03 1.11332200e-01
      -11 -1    0    0    0    0 +0.0000000000e+00 +0.0000000000e+00 +1.2498633011e+02 1.2498633011e+02 0.0000000000e+00 0.0000e+00 1.0000e+00
       11 -1    0    0    0    0 -0.0000000000e+00 -0.0000000000e+00 -1.2498633011e+02 1.2498633011e+02 0.0000000000e+00 0.0000e+00 -1.0000e+00
       23  1    1    2    0    0 -3.8967180107e+01 +1.4584493297e+01 -4.6196157070e+01 1.1036523385e+02 9.1188000000e+01 0.0000e+00 -1.0000e+00
       25  1    1    2    0    0 +3.8967180107e+01 -1.4584493297e+01 +4.6196157070e+01 1.3960742637e+02 1.2500000000e+02 0.0000e+00 0.0000e+00
</event>
<event>
 4      1 +2.1368000e-01 2.49952800e+02 7.54677100e-03 1.11333500e-01
      -11 -1    0    0    0    0 +0.0000000000e+00 +0.0000000000e+00 +1.2498072821e+02 1.2498072821e+02 0.0000000000e+00 0.0000e+00 -1.0000e+00
       11 -1    0    0    0    0 -0.0000000000e+00 -0.0000000000e+00 -1.2497202227e+02 1.2497202227e+02 0.0000000000e+00 0.0000e+00 1.0000e+00
       23  1    1    2    0    0 -6.0161511633e+01 +1.5065467651e+01 +4.0539539013e+00 1.1035425540e+02 9.1188000000e+01 0.0000e+00 0.0000e+00
       25  1    1    2    0    0 +6.0161511633e+01 -1.5065467651e+01 -4.0452479616e+00 1.3959849508e+02 1.2500000000e+02 0.0000e+00 0.0000e+00
</event>
<event>
 4      1 +2.1368000e-01 2.49973800e+02 7.54677100e-03 1.11332100e-01
      -11 -1    0    0    0    0 +0.0000000000e+00 +0.0000000000e+00 +1.2498688392e+02 1.2498688392e+02 0.0000000000e+00 0.0000e+00 1.0000e+00
       11 -1    0    0    0    0 -0.0000000000e+00 -0.0000000000e+00 -1.2498688392e+02 1.2498688392e+02 0.0000000000e+00 0.0000e+00 -1.0000e+00
       23  1    1    2    0    0 +3.4699012313e+01 +5.1087117243e+01 +7.1732166970e+00 1.1036585244e+02 9.1188000000e+01 0.0000e+00 0.0000e+00
       25  1    1    2    0    0 -3.4699012313e+01 -5.1087117243e+01 -7.1732166970e+00 1.3960791540e+02 1.2500000000e+02 0.0000e+00 0.0000e+00
</event>
<event>
 4      1 +2.1368000e-01 2.33905100e+02 7.54677100e-03 1.12392100e-01
      -11 -1    0    0    0    0 +0.0000000000e+00 +0.0000000000e+00 +1.2498882586e+02 1.2498882586e+02 0.0000000000e+00 0.0000e+00 1.0000e+00
       11 -1    0    0    0    0 -0.0000000000e+00 -0.0000000000e+00 -1.0943294456e+02 1.0943294456e+02 0.0000000000e+00 0.0000e+00 -1.0000e+00
       23  1    1    2    0    0 -3.1254381871e+01 -3.1058474872e+01 +3.4975338455e+00 1.0133582454e+02 9.1188000000e+01 0.0000e+00 -1.0000e+00
       25  1    1    2    0    0 +3.1254381871e+01 +3.1058474872e+01 +1.2058347451e+01 1.3308594588e+02 1.2500000000e+02 0.0000e+00 0.0000e+00
</event>
<event>
 4      1 +2.1368000e-01 2.27526100e+02 7.54677100e-03 1.12839300e-01
      -11 -1    0    0    0    0 +0.0000000000e+00 +0.0000000000e+00 +1.2464320344e+02 1.2464320344e+02 0.0000000000e+00 0.0000e+00 -1.0000e+00
       11 -1    0    0    0    0 -0.0000000000e+00 -0.0000000000e+00 -1.0383261785e+02 1.0383261785e+02 0.0000000000e+00 0.0000e+00 1.0000e+00
       23  1    1    2    0    0 -1.9288617083e+01 +2.8997853597e+01 +1.3078248526e+01 9.8484608903e+01 9.1188000000e+01 0.0000e+00 0.0000e+00
       25  1    1    2    0    0 +1.9288617083e+01 -2.8997853597e+01 +7.7323370614e+00 1.2999121239e+02 1.2500000000e+02 0.0000e+00 0.0000e+00
</event>
<event>
 4      1 +2.1368000e-01 2.49110300e+02 7.54677100e-03 1.11386800e-01
      -11 -1    0    0    0    0 +0.0000000000e+00 +0.0000000000e+00 +1.2498801502e+02 1.2498801502e+02 0.0000000000e+00 0.0000e+00 1.0000e+00
       11 -1    0    0    0    0 -0.0000000000e+00 -0.0000000000e+00 -1.2412382666e+02 1.2412382666e+02 0.0000000000e+00 0.0000e+00 -1.0000e+00
       23  1    1    2    0    0 +2.8202936359e+01 +3.1504856851e+01 -4.4016845793e+01 1.0973010381e+02 9.1188000000e+01 0.0000e+00 0.0000e+00
       25  1    1    2    0    0 -2.8202936359e+01 -3.1504856851e+01 +4.4881034162e+01 1.3938173787e+02 1.2500000000e+02 0.0000e+00 0.0000e+00
</event>
<event>
 4      1 +2.1368000e-01 2.49974600e+02 7.54677100e-03 1.11332100e-01
      -11 -1    0    0    0    0 +0.0000000000e+00 +0.0000000000e+00 +1.2498642859e+02 1.2498642859e+02 0.0000000000e+00 0.0000e+00 1.0000e+00
       11 -1    0    0    0    0 -0.0000000000e+00 -0.0000000000e+00 -1.2498816993e+02 1.2498816993e+02 0.0000000000e+00 0.0000e+00 -1.0000e+00
       23  1    1    2    0    0 -1.2013569171e+01 +4.4954006120e+01 +4.1233730495e+01 1.1036602913e+02 9.1188000000e+01 0.0000e+00 1.0000e+00
       25  1    1    2    0    0 +1.2013569171e+01 -4.4954006120e+01 -4.1235471835e+01 1.3960856939e+02 1.2500000000e+02 0.0000e+00 0.0000e+00
</event>
<event>
 4      1 +2.1368000e-01 2.49958200e+02 7.54677100e-03 1.11333100e-01
      -11 -1    0    0    0    0 +0.0000000000e+00 +0.0000000000e+00 +1.2497214175e+02 1.2497214175e+02 0.0000000000e+00 0.0000e+00 1.0000e+00
       11 -1    0    0    0    0 -0.0000000000e+00 -0.0000000000e+00 -1.2498607156e+02 1.2498607156e+02 0.0000000000e+00 0.0000e+00 -1.0000e+00
       23  1    1    2    0    0 +1.4295575170e+01 +1.9152262784e+01 +5.7372242406e+01 1.1035396768e+02 9.1188000000e+01 0.0000e+00 1.0000e+00
       25  1    1    2    0    0 -1.4295575170e+01 -1.9152262784e+01 -5.7386172214e+01 1.3960424564e+02 1.2500000000e+02 0.0000e+00 0.0000e+00
</event>
<event>
 4      1 +2.1368000e-01 2.48919300e+02 7.54677100e-03 1.11399000e-01
      -11 -1    0    0    0    0 +0.0000000000e+00 +0.0000000000e+00 +1.2498790503e+02 1.2498790503e+02 0.0000000000e+00 0.0000e+00 1.0000e+00
       11 -1    0    0    0    0 -0.0000000000e+00 -0.0000000000e+00 -1.2393363766e+02 1.2393363766e+02 0.0000000000e+00 0.0000e+00 -1.0000e+00
       23  1    1    2    0    0 +4.9434569704e+01 +7.0831981223e+00 -3.4773435533e+01 1.0962842487e+02 9.1188000000e+01 0.0000e+00 -1.0000e+00
       25  1    1    2    0    0 -4.9434569704e+01 -7.0831981223e+00 +3.5827702902e+01 1.3929311782e+02 1.2500000000e+02 0.0000e+00 0.0000e+00
</event>
<event>
 4      1 +2.1368000e-01 2.49934500e+02 7.54677100e-03 1.11334600e-01
      -11 -1    0    0    0    0 +0.0000000000e+00 +0.0000000000e+00 +1.2498553669e+02 1.2498553669e+02 0.0000000000e+00 0.0000e+00 1.0000e+00
       11 -1    0    0    0    0 -0.0000000000e+00 -0.0000000000e+00 -1.2494897441e+02 1.2494897441e+02 0.0000000000e+00 0.0000e+00 -1.0000e+00
       23  1    1    2    0    0 -2.9860134848e+01 +1.6797255068e+01 +5.1850062346e+01 1.1035150991e+02 9.1188000000e+01 0.0000e+00 1.0000e+00
       25  1    1    2    0    0 +2.9860134848e+01 -1.6797255068e+01 -5.1813500068e+01 1.3958300119e+02 1.2500000000e+02 0.0000e+00 0.0000e+00
</event>
<event>
 4      1 +2.1368000e-01 2.49950600e+02 7.54677100e-03 1.11333600e-01
      -11 -1    0    0    0    0 +0.0000000000e+00 +0.0000000000e+00 +1.2498838194e+02 1.2498838194e+02 0.0000000000e+00 0.0000e+00 1.0000e+00
       11 -1    0    0    0    0 -0.0000000000e+00 -0.0000000000e+00 -1.2496226434e+02 1.2496226434e+02 0.0000000000e+00 0.0000e+00 -1.0000e+00
       23  1    1    2    0    0 -1.7849902014e+00 -4.5219635744e+01 +4.2608690906e+01 1.1035739002e+02 9.1188000000e+01 0.0000e+00 1.0000e+00
       25  1    1    2    0    0 +1.7849902014e+00 +4.5219635744e+01 -4.2582573307e+01 1.3959325627e+02 1.2500000000e+02 0.0000e+00 0.0000e+00
</event>
<event>
 4      1 +2.1368000e-01 2.47416800e+02 7.54677100e-03 1.11494800e-01
      -11 -1    0    0    0    0 +0.0000000000e+00 +0.0000000000e+00 +1.2244212803e+02 1.2244212803e+02 0.0000000000e+00 0.0000e+00 1.0000e+00
       11 -1    0    0    0    0 -0.0000000000e+00 -0.0000000000e+00 -1.2498778125e+02 1.2498778125e+02 0.0000000000e+00 0.0000e+00 -1.0000e+00
       23  1    1    2    0    0 -2.3882611753e+01 -2.1639237455e+01 +4.9013886253e+01 1.0842623359e+02 9.1188000000e+01 0.0000e+00 1.0000e+00
       25  1    1    2    0    0 +2.3882611753e+01 +2.1639237455e+01 -5.1559539471e+01 1.3900367568e+02 1.2500000000e+02 0.0000e+00 0.0000e+00
</event>
<event>
 4      1 +2.1368000e-01 2.49975000e+02 7.54677100e-03 1.11332100e-01
      -11 -1    0    0    0    0 +0.0000000000e+00 +0.0000000000e+00 +1.2498749998e+02 1.2498749998e+02 0.0000000000e+00 0.0000e+00 1.0000e+00
       11 -1    0    0    0    0 -0.0000000000e+00 -0.0000000000e+00 -1.2498749998e+02 1.2498749998e+02 0.0000000000e+00 0.0000e+00 -1.0000e+00
       23  1    1    2    0    0 -5.9349135290e+00 +3.6290334719e+01 -5.0132926707e+01 1.1036654057e+02 9.1188000000e+01 0.0000e+00 -1.0000e+00
       25  1    1    2    0    0 +5.9349135290e+00 -3.6290334719e+01 +5.0132926707e+01 1.3960845939e+02 1.2500000000e+02 0.0000e+00 0.0000e+00
</event>
<event>
 4      1 +2.1368000e-01 2.48919700e+02 7.54677100e-03 1.11398900e-01
      -11 -1    0    0    0    0 +0.0000000000e+00 +0.0000000000e+00 +1.2393642800e+02 1.2393642800e+02 0.0000000000e+00 0.0000e+00 1.0000e+00
       11 -1    0    0    0    0 -0.0000000000e+00 -0.0000000000e+00 -1.2498549500e+02 1.2498549500e+02 0.0000000000e+00 0.0000e+00 -1.0000e+00
       23  1    1    2    0    0 -4.8723253087e+00 +2.8466288339e+01 +5.3404790349e+01 1.0955086536e+02 9.1188000000e+01 0.0000e+00 0.0000e+00
       25  1    1    2    0    0 +4.8723253087e+00 -2.8466288339e+01 -5.4453857344e+01 1.3937105763e+02 1.2500000000e+02 0.0000e+00 0.0000e+00
</event>
<event>
 4      1 +2.1368000e-01 2.49975000e+02 7.54677100e-03 1.11332100e-01
      -11 -1    0    0    0    0 +0.0000000000e+00 +0.0000000000e+00 +1.2498750000e+02 1.2498750000e+02 0.0000000000e+00 0.0000e+00 -1.0000e+00
       11 -1    0    0    0    0 -0.0000000000e+00 -0.0000000000e+00 -1.2498750000e+02 1.2498750000e+02 0.0000000000e+00 0.0000e+00 1.0000e+00
       23  1    1    2    0    0 +2.3749141500e+01 +5.6130739337e+01 -1.2281706631e+01 1.1036654059e+02 9.1188000000e+01 0.0000e+00 1.0000e+00
       25  1    1    2    0    0 -2.3749141500e+01 -5.6130739337e+01 +1.2281706631e+01 1.3960845941e+02 1.2500000000e+02 0.0000e+00 0.0000e+00
</event>
<event>
 4      1 +2.1368000e-01 2.49975000e+02 7.54677100e-03 1.11332100e-01
      -11 -1    0    0    0    0 +0.0000000000e+00 +0.0000000000e+00 +1.2498750000e+02 1.2498750000e+02 0.0000000000e+00 0.0000e+00 1.0000e+00
       11 -1    0    0    0    0 -0.0000000000e+00 -0.0000000000e+00 -1.2498750000e+02 1.2498750000e+02 0.0000000000e+00 0.0000e+00 -1.0000e+00
       23  1    1    2    0    0 +5.3013355337e+01 -3.2419839643e+01 -2.0149667293e+00 1.1036654059e+02 9.1188000000e+01 0.0000e+00 1.0000e+00
       25  1    1    2    0    0 -5.3013355337e+01 +3.2419839643e+01 +2.0149667293e+00 1.3960845941e+02 1.2500000000e+02 0.0000e+00 0.0000e+00
</event>
<event>
 4      1 +2.1368000e-01 2.49975000e+02 7.54677100e-03 1.11332100e-01
      -11 -1    0    0    0    0 +0.0000000000e+00 +0.0000000000e+00 +1.2498748191e+02 1.2498748191e+02 0.0000000000e+00 0.0000e+00 -1.0000e+00
       11 -1    0    0    0    0 -0.0000000000e+00 -0.0000000000e+00 -1.2498748191e+02 1.2498748191e+02 0.0000000000e+00 0.0000e+00 1.0000e+00
       23  1    1    2    0    0 -3.4303263627e+00 -2.9873837288e+01 -5.4417866403e+01 1.1036652038e+02 9.1188000000e+01 0.0000e+00 1.0000e+00
       25  1    1    2    0    0 +3.4303263627e+00 +2.9873837288e+01 +5.4417866403e+01 1.3960844343e+02 1.2500000000e+02 0.0000e+00 0.0000e+00
</event>
<event>
 4      1 +2.1368000e-01 2.49974500e+02 7.54677100e-03 1.11332100e-01
      -11 -1    0    0    0    0 +0.0000000000e+00 +0.0000000000e+00 +1.2498812315e+02 1.2498812315e+02 0.0000000000e+00 0.0000e+00 1.0000e+00
       11 -1    0    0    0    0 -0.0000000000e+00 -0.0000000000e+00 -1.2498638181e+02 1.2498638181e+02 0.0000000000e+00 0.0000e+00 -1.0000e+00
       23  1    1    2    0    0 -3.7069906634e+01 -2.6248368191e+01 -4.2452807003e+01 1.1036596838e+02 9.1188000000e+01 0.0000e+00 -1.0000e+00
       25  1    1    2    0    0 +3.7069906634e+01 +2.6248368191e+01 +4.2454548343e+01 1.3960853658e+02 1.2500000000e+02 0.0000e+00 0.0000e+00
</event>
<event>
 4      1 +2.1368000e-01 2.49948100e+02 7.54677100e-03 1.11333800e-01
      -11 -1    0    0    0    0 +0.0000000000e+00 +0.0000000000e+00 +1.2496009754e+02 1.2496009754e+02 0.0000000000e+00 0.0000e+00 -1.0000e+00
       11 -1    0    0    0    0 -0.0000000000e+00 -0.0000000000e+00 -1.2498795621e+02 1.2498795621e+02 0.0000000000e+00 0.0000e+00 1.0000e+00
       23  1    1    2    0    0 -1.7046473071e+01 -5.5550957372e+01 +2.2026506589e+01 1.1034903464e+02 9.1188000000e+01 0.0000e+00 -1.0000e+00
       25  1    1    2    0    0 +1.7046473071e+01 +5.5550957372e+01 -2.2054365266e+01 1.3959901911e+02 1.2500000000e+02 0.0000e+00 0.0000e+00
</event>
<event>
 4      1 +2.1368000e-01 2.49975000e+02 7.54677100e-03 1.11332100e-01
      -11 -1    0    0    0    0 +0.0000000000e+00 +0.0000000000e+00 +1.2498749998e+02 1.2498749998e+02 0.0000000000e+00 0.0000e+00 1.0000e+00
       11 -1    0    0    0    0 -0.0000000000e+00 -0.0000000000e+00 -1.2498749998e+02 1.2498749998e+02 0.0000000000e+00 0.0000e+00 -1.0000e+00
       23  1    1    2    0    0 -5.6189264828e+01 +2.2091470753e+01 +1.4841003077e+01 1.1036654057e+02 9.1188000000e+01 0.0000e+00 0.0000e+00
       25  1    1    2    0    0 +5.6189264828e+01 -2.2091470753e+01 -1.4841003077e+01 1.3960845939e+02 1.2500000000e+02 0.0000e+00 0.0000e+00
</event>
<event>
 4      1 +2.1368000e-01 2.49975000e+02 7.54677100e-03 1.11332100e-01
      -11 -1    0    0    0    0 +0.0000000000e+00 +0.0000000000e+00 +1.2498749993e+02 1.2498749993e+02 0.0000000000e+00 0.0000e+00 1.0000e+00
       11 -1    0    0    0    0 -0.0000000000e+00 -0.0000000000e+00 -1.2498749993e+02 1.2498749993e+02 0.0000000000e+00 0.0000e+00 -1.0000e+00
       23  1    1    2    0    0 -3.3342080150e+01 -2.0219917436e+00 -5.2437955352e+01 1.1036654051e+02 9.1188000000e+01 0.0000e+00 0.0000e+00
       25  1    1    2    0    0 +3.3342080150e+01 +2.0219917436e+00 +5.2437955352e+01 1.3960845935e+02 1.2500000000e+02 0.0000e+00 0.0000e+00
</event>
<event>
 4      1 +2.1368000e-01 2.49972400e+02 7.54677100e-03 1.11332200e-01
      -11 -1    0    0    0    0 +0.0000000000e+00 +0.0000000000e+00 +1.2498618869e+02 1.2498618869e+02 0.0000000000e+00 0.0000e+00 1.0000e+00
       11 -1    0    0    0    0 -0.0000000000e+00 -0.0000000000e+00 -1.2498618869e+02 1.2498618869e+02 0.0000000000e+00 0.0000e+00 -1.0000e+00
       23  1    1    2    0    0 +5.3228581221e+01 +2.1975842989e-01 -3.2122709680e+01 1.1036507588e+02 9.1188000000e+01 0.0000e+00 -1.0000e+00
       25  1    1    2    0    0 -5.3228581221e+01 -2.1975842989e-01 +3.2122709680e+01 1.3960730149e+02 1.2500000000e+02 0.0000e+00 0.0000e+00
</event>
<event>
 4      1 +2.1368000e-01 2.49847400e+02 7.54677100e-03 1.11340100e-01
      -11 -1    0    0    0    0 +0.0000000000e+00 +0.0000000000e+00 +1.2486103622e+02 1.2486103622e+02 0.0000000000e+00 0.0000e+00 1.0000e+00
       11 -1    0    0    0    0 -0.0000000000e+00 -0.0000000000e+00 -1.2498634978e+02 1.2498634978e+02 0.0000000000e+00 0.0000e+00 -1.0000e+00
       23  1    1    2    0    0 -2.0199000774e+01 +4.0271556280e+01 -4.2716695643e+01 1.1031665925e+02 9.1188000000e+01 0.0000e+00 0.0000e+00
       25  1    1    2    0    0 +2.0199000774e+01 -4.0271556280e+01 +4.2591382086e+01 1.3953072674e+02 1.2500000000e+02 0.0000e+00 0.0000e+00
</event>
<event>
 4      1 +2.1368000e-01 2.49975000e+02 7.54677100e-03 1.11332100e-01
      -11 -1    0    0    0    0 +0.0000000000e+00 +0.0000000000e+00 +1.2498837067e+02 1.2498837067e+02 0.0000000000e+00 0.0000e+00 1.0000e+00
       11 -1    0    0    0    0 -0.0000000000e+00 -0.0000000000e+00 -1.2498662933e+02 1.2498662933e+02 0.0000000000e+00 0.0000e+00 -1.0000e+00
       23  1    1    2    0    0 +5.4933029381e+01 +2.7440029964e+01 -9.7423814321e+00 1.1036647272e+02 9.1188000000e+01 0.0000e+00 0.0000e+00
       25  1    1    2    0    0 -5.4933029381e+01 -2.7440029964e+01 +9.7441227751e+00 1.3960852728e+02 1.2500000000e+02 0.0000e+00 0.0000e+00
</event>
<event>
 4      1 +2.1368000e-01 2.49975000e+02 7.54677100e-03 1.11332100e-01
      -11 -1    0    0    0    0 +0.0000000000e+00 +0.0000000000e+00 +1.2498749803e+02 1.2498749803e+02 0.0000000000e+00 0.0000e+00 1.0000e+00
       11 -1    0    0    0    0 -0.0000000000e+00 -0.0000000000e+00 -1.2498749803e+02 1.2498749803e+02 0.0000000000e+00 0.0000e+00 -1.0000e+00
       23  1    1    2    0    0 -3.2859992956e+01 +4.2366501713e+01 -3.1477322761e+01 1.1036653839e+02 9.1188000000e+01 0.0000e+00 -1.0000e+00
       25  1    1    2    0    0 +3.2859992956e+01 -4.2366501713e+01 +3.1477322761e+01 1.3960845767e+02 1.2500000000e+02 0.0000e+00 0.0000e+00
</event>
<event>
 4      1 +2.1368000e-01 2.49970800e+02 7.54677100e-03 1.11332300e-01
      -11 -1    0    0    0    0 +0.0000000000e+00 +0.0000000000e+00 +1.2498801641e+02 1.2498801641e+02 0.0000000000e+00 0.0000e+00 -1.0000e+00
       11 -1    0    0    0    0 -0.0000000000e+00 -0.0000000000e+00 -1.2498279247e+02 1.2498279247e+02 0.0000000000e+00 0.0000e+00 1.0000e+00
       23  1    1    2    0    0 -1.5095301552e+01 +4.5874501182e+01 +3.9151601181e+01 1.1036501804e+02 9.1188000000e+01 0.0000e+00 -1.0000e+00
       25  1    1    2    0    0 +1.5095301552e+01 -4.5874501182e+01 -3.9146377240e+01 1.3960579085e+02 1.2500000000e+02 0.0000e+00 0.0000e+00
</event>
<event>
 4      1 +2.1368000e-01 2.49747400e+02 7.54677100e-03 1.11346500e-01
      -11 -1    0    0    0    0 +0.0000000000e+00 +0.0000000000e+00 +1.2475980633e+02 1.2475980633e+02 0.0000000000e+00 0.0000e+00 -1.0000e+00
       11 -1    0    0    0    0 -0.0000000000e+00 -0.0000000000e+00 -1.2498771625e+02 1.2498771625e+02 0.0000000000e+00 0.0000e+00 1.0000e+00
       23  1    1    2    0    0 -2.6467324412e+01 -2.0342936677e+00 -5.6072243347e+01 1.1029055005e+02 9.1188000000e+01 0.0000e+00 1.0000e+00
       25  1    1    2    0    0 +2.6467324412e+01 +2.0342936677e+00 +5.5844333422e+01 1.3945697253e+02 1.2500000000e+02 0.0000e+00 0.0000e+00
</event>
<event>
 4      1 +2.1368000e-01 2.49788400e+02 7.54677100e-03 1.11343900e-01
      -11 -1    0    0    0    0 +0.0000000000e+00 +0.0000000000e+00 +1.2498733817e+02 1.2498733817e+02 0.0000000000e+00 0.0000e+00 1.0000e+00
       11 -1    0    0    0    0 -0.0000000000e+00 -0.0000000000e+00 -1.2480115220e+02 1.2480115220e+02 0.0000000000e+00 0.0000e+00 -1.0000e+00
       23  1    1    2    0    0 +3.4154462497e+01 +1.9658037108e+01 -4.7767218775e+01 1.1022669488e+02 9.1188000000e+01 0.0000e+00 -1.0000e+00
       25  1    1    2    0    0 -3.4154462497e+01 -1.9658037108e+01 +4.7953404746e+01 1.3956179548e+02 1.2500000000e+02 0.0000e+00 0.0000e+00
</event>
<event>
 4      1 +2.1368000e-01 2.49975000e+02 7.54677100e-03 1.11332100e-01
      -11 -1    0    0    0    0 +0.0000000000e+00 +0.0000000000e+00 +1.2498837067e+02 1.2498837067e+02 0.0000000000e+00 0.0000e+00 1.0000e+00
       11 -1    0    0    0    0 -0.0000000000e+00 -0.0000000000e+00 -1.2498662933e+02 1.2498662933e+02 0.0000000000e+00 0.0000e+00 -1.0000e+00
       23  1    1    2    0    0 +1.1826397637e+01 -5.8722940025e+01 -1.6650794806e+01 1.1036642460e+02 9.1188000000e+01 0.0000e+00 -1.0000e+00
       25  1    1    2    0    0 -1.1826397637e+01 +5.8722940025e+01 +1.6652536149e+01 1.3960857540e+02 1.2500000000e+02 0.0000e+00 0.0000e+00
</event>
<event>
 4      1 +2.1368000e-01 2.49974900e+02 7.54677100e-03 1.11332100e-01
      -11 -1    0    0    0    0 +0.0000000000e+00 +0.0000000000e+00 +1.2498744600e+02 1.2498744600e+02 0.0000000000e+00 0.0000e+00 -1.0000e+00
       11 -1    0    0    0    0 -0.0000000000e+00 -0.0000000000e+00 -1.2498744600e+02 1.2498744600e+02 0.0000000000e+00 0.0000e+00 1.0000e+00
       23  1    1    2    0    0 -1.6364784768e+01 -5.7572031321e+01 +1.6827467257e+01 1.1036648028e+02 9.1188000000e+01 0.0000e+00 0.0000e+00
       25  1    1    2    0    0 +1.6364784768e+01 +5.7572031321e+01 -1.6827467257e+01 1.3960841173e+02 1.2500000000e+02 0.0000e+00 0.0000e+00
</event>
<event>
 4      1 +2.1368000e-01 2.49975000e+02 7.54677100e-03 1.11332100e-01
      -11 -1    0    0    0    0 +0.0000000000e+00 +0.0000000000e+00 +1.2498837067e+02 1.2498837067e+02 0.0000000000e+00 0.0000e+00 1.0000e+00
       11 -1    0    0    0    0 -0.0000000000e+00 -0.0000000000e+00 -1.2498662933e+02 1.2498662933e+02 0.0000000000e+00 0.0000e+00 -1.0000e+00
       23  1    1    2    0    0 +3.7290563766e+01 +2.9324683731e+01 +4.0187815446e+01 1.1036682054e+02 9.1188000000e+01 0.0000e+00 1.0000e+00
       25  1    1    2    0    0 -3.7290563766e+01 -2.9324683731e+01 -4.0186074103e+01 1.3960817947e+02 1.2500000000e+02 0.0000e+00 0.0000e+00
</event>
<event>
 4      1 +2.1368000e-01 2.49975000e+02 7.54677100e-03 1.11332100e-01
      -11 -1    0    0    0    0 +0.0000000000e+00 +0.0000000000e+00 +1.2498837023e+02 1.2498837023e+02 0.0000000000e+00 0.0000e+00 1.0000e+00
       11 -1    0    0    0    0 -0.0000000000e+00 -0.0000000000e+00 -1.2498662888e+02 1.2498662888e+02 0.0000000000e+00 0.0000e+00 -1.0000e+00
       23  1    1    2    0    0 -3.9307304807e+01 +1.0155054664e+01 -4.7087791165e+01 1.1036621207e+02 9.1188000000e+01 0.0000e+00 -1.0000e+00
       25  1    1    2    0    0 +3.9307304807e+01 -1.0155054664e+01 +4.7089532508e+01 1.3960878704e+02 1.2500000000e+02 0.0000e+00 0.0000e+00
</event>
<event>
 4      1 +2.1368000e-01 2.48416600e+02 7.54677100e-03 1.11431000e-01
      -11 -1    0    0    0    0 +0.0000000000e+00 +0.0000000000e+00 +1.2343462160e+02 1.2343462160e+02 0.0000000000e+00 0.0000e+00 -1.0000e+00
       11 -1    0    0    0    0 -0.0000000000e+00 -0.0000000000e+00 -1.2498687742e+02 1.2498687742e+02 0.0000000000e+00 0.0000e+00 1.0000e+00
       23  1    1    2    0    0 +1.1505589210e+00 -5.7367496664e+01 -2.0221507414e+01 1.0961986209e+02 9.1188000000e+01 0.0000e+00 0.0000e+00
       25  1    1    2    0    0 -1.1505589210e+00 +5.7367496664e+01 +1.8669251591e+01 1.3880163693e+02 1.2500000000e+02 0.0000e+00 0.0000e+00
</event>
<event>
 4      1 +2.1368000e-01 2.49975000e+02 7.54677100e-03 1.11332100e-01
      -11 -1    0    0    0    0 +0.0000000000e+00 +0.0000000000e+00 +1.2498836862e+02 1.2498836862e+02 0.0000000000e+00 0.0000e+00 1.0000e+00
       11 -1    0    0    0    0 -0.0000000000e+00 -0.0000000000e+00 -1.2498662727e+02 1.2498662727e+02 0.0000000000e+00 0.0000e+00 -1.0000e+00
       23  1    1    2    0    0 -2.2682713685e+01 +5.5700272149e+01 -1.5762974802e+01 1.1036642848e+02 9.1188000000e+01 0.0000e+00 -1.0000e+00
       25  1    1    2    0    0 +2.2682713685e+01 -5.5700272149e+01 +1.5764716144e+01 1.3960856740e+02 1.2500000000e+02 0.0000e+00 0.0000e+00
</event>
<event>
 4      1 +2.1368000e-01 2.49968000e+02 7.54677100e-03 1.11332500e-01
      -11 -1    0    0    0    0 +0.0000000000e+00 +0.0000000000e+00 +1.2498052089e+02 1.2498052089e+02 0.0000000000e+00 0.0000e+00 1.0000e+00
       11 -1    0    0    0    0 -0.0000000000e+00 -0.0000000000e+00 -1.2498748611e+02 1.2498748611e+02 0.0000000000e+00 0.0000e+00 -1.0000e+00
       23  1    1    2    0    0 +2.0633486419e+01 -4.5045834676e+01 +3.7544120172e+01 1.1036158882e+02 9.1188000000e+01 0.0000e+00 -1.0000e+00
       25  1    1    2    0    0 -2.0633486419e+01 +4.5045834676e+01 -3.7551085397e+01 1.3960641818e+02 1.2500000000e+02 0.0000e+00 0.0000e+00
</event>
<event>
 4      1 +2.1368000e-01 2.49970600e+02 7.54677100e-03 1.11332300e-01
      -11 -1    0    0    0    0 +0.0000000000e+00 +0.0000000000e+00 +1.2498356569e+02 1.2498356569e+02 0.0000000000e+00 0.0000e+00 1.0000e+00
       11 -1    0    0    0    0 -0.0000000000e+00 -0.0000000000e+00 -1.2498704834e+02 1.2498704834e+02 0.0000000000e+00 0.0000e+00 -1.0000e+00
       23  1    1    2    0    0 +4.0793226202e+01 -3.6368610485e+01 -2.9636282736e+01 1.1036450394e+02 9.1188000000e+01 0.0000e+00 0.0000e+00
       25  1    1    2    0    0 -4.0793226202e+01 +3.6368610485e+01 +2.9632800087e+01 1.3960611009e+02 1.2500000000e+02 0.0000e+00 0.0000e+00
</event>
<event>
 4      1 +2.1368000e-01 2.48711500e+02 7.54677100e-03 1.11412200e-01
      -11 -1    0    0    0    0 +0.0000000000e+00 +0.0000000000e+00 +1.2498798377e+02 1.2498798377e+02 0.0000000000e+00 0.0000e+00 -1.0000e+00
       11 -1    0    0    0    0 -0.0000000000e+00 -0.0000000000e+00 -1.2372668642e+02 1.2372668642e+02 0.0000000000e+00 0.0000e+00 1.0000e+00
       23  1    1    2    0    0 +5.4434703315e+01 -4.7317472827e+00 -2.6363491363e+01 1.0952539148e+02 9.1188000000e+01 0.0000e+00 1.0000e+00
       25  1    1    2    0    0 -5.4434703315e+01 +4.7317472827e+00 +2.7624788714e+01 1.3918927871e+02 1.2500000000e+02 0.0000e+00 0.0000e+00
</event>
<event>
 4      1 +2.1368000e-01 2.47299400e+02 7.54677100e-03 1.11502400e-01
      -11 -1    0    0    0    0 +0.0000000000e+00 +0.0000000000e+00 +1.2242664187e+02 1.2242664187e+02 0.0000000000e+00 0.0000e+00 1.0000e+00
       11 -1    0    0    0    0 -0.0000000000e+00 -0.0000000000e+00 -1.2488495975e+02 1.2488495975e+02 0.0000000000e+00 0.0000e+00 -1.0000e+00
       23  1    1    2    0    0 +5.5557587147e+01 -1.3018431100e+01 -1.7858614024e+01 1.0904268190e+02 9.1188000000e+01 0.0000e+00 0.0000e+00
       25  1    1    2    0    0 -5.5557587147e+01 +1.3018431100e+01 +1.5400296151e+01 1.3826891972e+02 1.2500000000e+02 0.0000e+00 0.0000e+00
</event>
<event>
 4      1 +2.1368000e-01 2.49890100e+02 7.54677100e-03 1.11337400e-01
      -11 -1    0    0    0    0 +0.0000000000e+00 +0.0000000000e+00 +1.2495638377e+02 1.2495638377e+02 0.0000000000e+00 0.0000e+00 1.0000e+00
       11 -1    0    0    0    0 -0.0000000000e+00 -0.0000000000e+00 -1.2493375384e+02 1.2493375384e+02 0.0000000000e+00 0.0000e+00 -1.0000e+00
       23  1    1    2    0    0 +5.9383572101e+01 -1.2595473491e+01 -1.3028702233e+01 1.1031796324e+02 9.1188000000e+01 0.0000e+00 0.0000e+00
       25  1    1    2    0    0 -5.9383572101e+01 +1.2595473491e+01 +1.3051332164e+01 1.3957217437e+02 1.2500000000e+02 0.0000e+00 0.0000e+00
</event>
<event>
 4      1 +2.1368000e-01 2.46301900e+02 7.54677100e-03 1.11566400e-01
      -11 -1    0    0    0    0 +0.0000000000e+00 +0.0000000000e+00 +1.2415877414e+02 1.2415877414e+02 0.0000000000e+00 0.0000e+00 1.0000e+00
       11 -1    0    0    0    0 -0.0000000000e+00 -0.0000000000e+00 -1.2215132887e+02 1.2215132887e+02 0.0000000000e+00 0.0000e+00 -1.0000e+00
       23  1    1    2    0    0 +1.0369858055e+01 +2.6341328459e+01 +5.2019886279e+01 1.0873232938e+02 9.1188000000e+01 0.0000e+00 1.0000e+00
       25  1    1    2    0    0 -1.0369858055e+01 -2.6341328459e+01 -5.0012441009e+01 1.3757777363e+02 1.2500000000e+02 0.0000e+00 0.0000e+00
</event>
<event>
 4      1 +2.1368000e-01 2.35483400e+02 7.54677100e-03 1.12283900e-01
      -11 -1    0    0    0    0 +0.0000000000e+00 +0.0000000000e+00 +1.2408567649e+02 1.2408567649e+02 0.0000000000e+00 0.0000e+00 1.0000e+00
       11 -1    0    0    0    0 -0.0000000000e+00 -0.0000000000e+00 -1.1172205554e+02 1.1172205554e+02 0.0000000000e+00 0.0000e+00 -1.0000e+00
       23  1    1    2    0    0 -3.7571227008e+01 +4.8990965384e+00 -2.1094385651e+01 1.0097436653e+02 9.1188000000e+01 0.0000e+00 -1.0000e+00
       25  1    1    2    0    0 +3.7571227008e+01 -4.8990965384e+00 +3.3458006609e+01 1.3483336550e+02 1.2500000000e+02 0.0000e+00 0.0000e+00
</event>
<event>
 4      1 +2.1368000e-01 2.49975000e+02 7.54677100e-03 1.11332100e-01
      -11 -1    0    0    0    0 +0.0000000000e+00 +0.0000000000e+00 +1.2498837066e+02 1.2498837066e+02 0.0000000000e+00 0.0000e+00 1.0000e+00
       11 -1    0    0    0    0 -0.0000000000e+00 -0.0000000000e+00 -1.2498662932e+02 1.2498662932e+02 0.0000000000e+00 0.0000e+00 -1.0000e+00
       23  1    1    2    0    0 +4.6445974948e+01 -1.7555289508e+01 +3.7418747870e+01 1.1036680123e+02 9.1188000000e+01 0.0000e+00 1.0000e+00
       25  1    1    2    0    0 -4.6445974948e+01 +1.7555289508e+01 -3.7417006527e+01 1.3960819874e+02 1.2500000000e+02 0.0000e+00 0.0000e+00
</event>
<event>
 4      1 +2.1368000e-01 2.46402800e+02 7.54677100e-03 1.11559900e-01
      -11 -1    0    0    0    0 +0.0000000000e+00 +0.0000000000e+00 +1.2498727671e+02 1.2498727671e+02 0.0000000000e+00 0.0000e+00 -1.0000e+00
       11 -1    0    0    0    0 -0.0000000000e+00 -0.0000000000e+00 -1.2144107578e+02 1.2144107578e+02 0.0000000000e+00 0.0000e+00 1.0000e+00
       23  1    1    2    0    0 -1.6936905593e+01 +5.4746125243e+01 +1.3580949743e+01 1.0855270858e+02 9.1188000000e+01 0.0000e+00 -1.0000e+00
       25  1    1    2    0    0 +1.6936905593e+01 -5.4746125243e+01 -1.0034748806e+01 1.3787564391e+02 1.2500000000e+02 0.0000e+00 0.0000e+00
</event>
<event>
 4      1 +2.1368000e-01 2.49971100e+02 7.54677100e-03 1.11332300e-01
      -11 -1    0    0    0    0 +0.0000000000e+00 +0.0000000000e+00 +1.2498468811e+02 1.2498468811e+02 0.0000000000e+00 0.0000e+00 -1.0000e+00
       11 -1    0    0    0    0 -0.0000000000e+00 -0.0000000000e+00 -1.2498642942e+02 1.2498642942e+02 0.0000000000e+00 0.0000e+00 1.0000e+00
       23  1    1    2    0    0 -4.3537505027e+01 -2.1568599105e+01 -3.8786391281e+01 1.1036464245e+02 9.1188000000e+01 0.0000e+00 0.0000e+00
       25  1    1    2    0    0 +4.3537505027e+01 +2.1568599105e+01 +3.8784649965e+01 1.3960647508e+02 1.2500000000e+02 0.0000e+00 0.0000e+00
</event>
<event>
 4      1 +2.1368000e-01 2.24913800e+02 7.54677100e-03 1.13027200e-01
      -11 -1    0    0    0    0 +0.0000000000e+00 +0.0000000000e+00 +1.0118211567e+02 1.0118211567e+02 0.0000000000e+00 0.0000e+00 -1.0000e+00
       11 -1    0    0    0    0 -0.0000000000e+00 -0.0000000000e+00 -1.2498801334e+02 1.2498801334e+02 0.0000000000e+00 0.0000e+00 1.0000e+00
       23  1    1    2    0    0 -2.5634880839e+01 -9.2455178700e+00 +3.9620756500e+00 9.5255320606e+01 9.1188000000e+01 0.0000e+00 -1.0000e+00
       25  1    1    2    0    0 +2.5634880839e+01 +9.2455178700e+00 -2.7767973318e+01 1.3091480840e+02 1.2500000000e+02 0.0000e+00 0.0000e+00
</event>
<event>
 4      1 +2.1368000e-01 2.49975000e+02 7.54677100e-03 1.11332100e-01
      -11 -1    0    0    0    0 +0.0000000000e+00 +0.0000000000e+00 +1.2498750000e+02 1.2498750000e+02 0.0000000000e+00 0.0000e+00 -1.0000e+00
       11 -1    0    0    0    0 -0.0000000000e+00 -0.0000000000e+00 -1.2498750000e+02 1.2498750000e+02 0.0000000000e+00 0.0000e+00 1.0000e+00
       23  1    1    2    0    0 +5.2072032093e+00 +5.1546530605e+01 -3.4370949297e+01 1.1036654059e+02 9.1188000000e+01 0.0000e+00 1.0000e+00
       25  1    1    2    0    0 -5.2072032093e+00 -5.1546530605e+01 +3.4370949297e+01 1.3960845941e+02 1.2500000000e+02 0.0000e+00 0.0000e+00
</event>
<event>
 4      1 +2.1368000e-01 2.47900300e+02 7.54677100e-03 1.11463900e-01
      -11 -1    0    0    0    0 +0.0000000000e+00 +0.0000000000e+00 +1.2405984830e+02 1.2405984830e+02 0.0000000000e+00 0.0000e+00 1.0000e+00
       11 -1    0    0    0    0 -0.0000000000e+00 -0.0000000000e+00 -1.2384053162e+02 1.2384053162e+02 0.0000000000e+00 0.0000e+00 -1.0000e+00
       23  1    1    2    0    0 +4.7711734429e+01 +1.8638102421e+01 +3.1514600590e+01 1.0923465502e+02 9.1188000000e+01 0.0000e+00 1.0000e+00
       25  1    1    2    0    0 -4.7711734429e+01 -1.8638102421e+01 -3.1295283909e+01 1.3866572489e+02 1.2500000000e+02 0.0000e+00 0.0000e+00
</event>
<event>
 4      1 +2.1368000e-01 2.48879300e+02 7.54677100e-03 1.11401500e-01
      -11 -1    0    0    0    0 +0.0000000000e+00 +0.0000000000e+00 +1.2389471243e+02 1.2389471243e+02 0.0000000000e+00 0.0000e+00 1.0000e+00
       11 -1    0    0    0    0 -0.0000000000e+00 -0.0000000000e+00 -1.2498695263e+02 1.2498695263e+02 0.0000000000e+00 0.0000e+00 -1.0000e+00
       23  1    1    2    0    0 +5.2628102141e+01 -2.9369788513e+01 -1.0404176250e+01 1.0979890637e+02 9.1188000000e+01 0.0000e+00 -1.0000e+00
       25  1    1    2    0    0 -5.2628102141e+01 +2.9369788513e+01 +9.3119360552e+00 1.3908275869e+02 1.2500000000e+02 0.0000e+00 0.0000e+00
</event>
<event>
 4      1 +2.1368000e-01 2.49974400e+02 7.54677100e-03 1.11332100e-01
      -11 -1    0    0    0    0 +0.0000000000e+00 +0.0000000000e+00 +1.2498722219e+02 1.2498722219e+02 0.0000000000e+00 0.0000e+00 1.0000e+00
       11 -1    0    0    0    0 -0.0000000000e+00 -0.0000000000e+00 -1.2498722219e+02 1.2498722219e+02 0.0000000000e+00 0.0000e+00 -1.0000e+00
       23  1    1    2    0    0 +3.6932172542e+01 -4.3743717398e+01 +2.4247788805e+01 1.1036623028e+02 9.1188000000e+01 0.0000e+00 1.0000e+00
       25  1    1    2    0    0 -3.6932172542e+01 +4.3743717398e+01 -2.4247788805e+01 1.3960821409e+02 1.2500000000e+02 0.0000e+00 0.0000e+00
</event>
<event>
 4      1 +2.1368000e-01 2.34573000e+02 7.54677100e-03 1.12346200e-01
      -11 -1    0    0    0    0 +0.0000000000e+00 +0.0000000000e+00 +1.1472988748e+02 1.1472988748e+02 0.0000000000e+00 0.0000e+00 1.0000e+00
       11 -1    0    0    0    0 -0.0000000000e+00 -0.0000000000e+00 -1.1990005710e+02 1.1990005710e+02 0.0000000000e+00 0.0000e+00 -1.0000e+00
       23  1    1    2    0    0 +1.7302429576e+01 -7.1232320616e+00 -4.3222907438e+01 1.0263325765e+02 9.1188000000e+01 0.0000e+00 -1.0000e+00
       25  1    1    2    0    0 -1.7302429576e+01 +7.1232320616e+00 +3.8052737822e+01 1.3199668693e+02 1.2500000000e+02 0.0000e+00 0.0000e+00
</event>
<event>
 4      1 +2.1368000e-01 2.49944800e+02 7.54677100e-03 1.11334000e-01
      -11 -1    0    0    0    0 +0.0000000000e+00 +0.0000000000e+00 +1.2495844842e+02 1.2495844842e+02 0.0000000000e+00 0.0000e+00 -1.0000e+00
       11 -1    0    0    0    0 -0.0000000000e+00 -0.0000000000e+00 -1.2498630654e+02 1.2498630654e+02 0.0000000000e+00 0.0000e+00 1.0000e+00
       23  1    1    2    0    0 -5.4999293890e+01 -2.8396365128e+01 +5.5119728125e+00 1.1034903293e+02 9.1188000000e+01 0.0000e+00 0.0000e+00
       25  1    1    2    0    0 +5.4999293890e+01 +2.8396365128e+01 -5.5398309282e+00 1.3959572202e+02 1.2500000000e+02 0.0000e+00 0.0000e+00
</event>
<event>
 4      1 +2.1368000e-01 2.46844600e+02 7.54677100e-03 1.11531500e-01
      -11 -1    0    0    0    0 +0.0000000000e+00 +0.0000000000e+00 +1.2498745116e+02 1.2498745116e+02 0.0000000000e+00 0.0000e+00 -1.0000e+00
       11 -1    0    0    0    0 -0.0000000000e+00 -0.0000000000e+00 -1.2187677924e+02 1.2187677924e+02 0.0000000000e+00 0.0000e+00 1.0000e+00
       23  1    1    2    0    0 -3.8493475358e+01 -3.3336637038e+01 -2.8451264514e+01 1.0824880974e+02 9.1188000000e+01 0.0000e+00 1.0000e+00
       25  1    1    2    0    0 +3.8493475358e+01 +3.3336637038e+01 +3.1561936434e+01 1.3861542066e+02 1.2500000000e+02 0.0000e+00 0.0000e+00
</event>
<event>
 4      1 +2.1368000e-01 2.22370100e+02 7.54677100e-03 1.13212800e-01
      -11 -1    0    0    0    0 +0.0000000000e+00 +0.0000000000e+00 +1.2498870125e+02 1.2498870125e+02 0.0000000000e+00 0.0000e+00 -1.0000e+00
       11 -1    0    0    0    0 -0.0000000000e+00 -0.0000000000e+00 -9.8905853821e+01 9.8905853821e+01 0.0000000000e+00 0.0000e+00 1.0000e+00
       23  1    1    2    0    0 -1.9382594785e+01 +4.4331727105e+00 +2.7559330096e+01 9.7314469737e+01 9.1188000000e+01 0.0000e+00 0.0000e+00
       25  1    1    2    0    0 +1.9382594785e+01 -4.4331727105e+00 -1.4764826715e+00 1.2658008533e+02 1.2500000000e+02 0.0000e+00 0.0000e+00
</event>
<event>
 4      1 +2.1368000e-01 2.47772100e+02 7.54677100e-03 1.11472100e-01
      -11 -1    0    0    0    0 +0.0000000000e+00 +0.0000000000e+00 +1.2279487094e+02 1.2279487094e+02 0.0000000000e+00 0.0000e+00 1.0000e+00
       11 -1    0    0    0    0 -0.0000000000e+00 -0.0000000000e+00 -1.2498689677e+02 1.2498689677e+02 0.0000000000e+00 0.0000e+00 -1.0000e+00
       23  1    1    2    0    0 +5.8249553325e+01 +1.0886340143e+01 +8.1831766228e+00 1.0905841823e+02 9.1188000000e+01 0.0000e+00 -1.0000e+00
       25  1    1    2    0    0 -5.8249553325e+01 -1.0886340143e+01 -1.0375202459e+01 1.3872334948e+02 1.2500000000e+02 0.0000e+00 0.0000e+00
</event>
<event>
 4      1 +2.1368000e-01 2.46547400e+02 7.54677100e-03 1.11550600e-01
      -11 -1    0    0    0    0 +0.0000000000e+00 +0.0000000000e+00 +1.2498658255e+02 1.2498658255e+02 0.0000000000e+00 0.0000e+00 -1.0000e+00
       11 -1    0    0    0    0 -0.0000000000e+00 -0.0000000000e+00 -1.2158426688e+02 1.2158426688e+02 0.0000000000e+00 0.0000e+00 1.0000e+00
       23  1    1    2    0    0 -3.3616817909e+01 +3.5932470957e+01 -3.0518977546e+01 1.0801801817e+02 9.1188000000e+01 0.0000e+00 0.0000e+00
       25  1    1    2    0    0 +3.3616817909e+01 -3.5932470957e+01 +3.3921293224e+01 1.3855283126e+02 1.2500000000e+02 0.0000e+00 0.0000e+00
</event>
<event>
 4      1 +2.1368000e-01 2.49974900e+02 7.54677100e-03 1.11332100e-01
      -11 -1    0    0    0    0 +0.0000000000e+00 +0.0000000000e+00 +1.2498747436e+02 1.2498747436e+02 0.0000000000e+00 0.0000e+00 1.0000e+00
       11 -1    0    0    0    0 -0.0000000000e+00 -0.0000000000e+00 -1.2498747436e+02 1.2498747436e+02 0.0000000000e+00 0.0000e+00 -1.0000e+00
       23  1    1    2    0    0 -1.2081381596e+01 -2.8415588902e+01 +5.3963970785e+01 1.1036651195e+02 9.1188000000e+01 0.0000e+00 1.0000e+00
       25  1    1    2    0    0 +1.2081381596e+01 +2.8415588902e+01 -5.3963970785e+01 1.3960843677e+02 1.2500000000e+02 0.0000e+00 0.0000e+00
</event>
<event>
 4      1 +2.1368000e-01 2.49975000e+02 7.54677100e-03 1.11332100e-01
      -11 -1    0    0    0    0 +0.0000000000e+00 +0.0000000000e+00 +1.2498836538e+02 1.2498836538e+02 0.0000000000e+00 0.0000e+00 -1.0000e+00
       11 -1    0    0    0    0 -0.0000000000e+00 -0.0000000000e+00 -1.2498662404e+02 1.2498662404e+02 0.0000000000e+00 0.0000e+00 1.0000e+00
       23  1    1    2    0    0 +6.0573030107e+01 +1.1154395952e+01 +8.4865279294e+00 1.1036659379e+02 9.1188000000e+01 0.0000e+00 0.0000e+00
       25  1    1    2    0    0 -6.0573030107e+01 -1.1154395952e+01 -8.4847865865e+00 1.3960839562e+02 1.2500000000e+02 0.0000e+00 0.0000e+00
</event>
<event>
 4      1 +2.1368000e-01 2.49975000e+02 7.54677100e-03 1.11332100e-01
      -11 -1    0    0    0    0 +0.0000000000e+00 +0.0000000000e+00 +1.2498837067e+02 1.2498837067e+02 0.0000000000e+00 0.0000e+00 1.0000e+00
       11 -1    0    0    0    0 -0.0000000000e+00 -0.0000000000e+00 -1.2498662933e+02 1.2498662933e+02 0.0000000000e+00 0.0000e+00 -1.0000e+00
       23  1    1    2    0    0 +5.6629705811e+01 +3.9254987064e+00 -2.5360398697e+01 1.1036636393e+02 9.1188000000e+01 0.0000e+00 -1.0000e+00
       25  1    1    2    0    0 -5.6629705811e+01 -3.9254987064e+00 +2.5362140040e+01 1.3960863608e+02 1.2500000000e+02 0.0000e+00 0.0000e+00
</event>
<event>
 4      1 +2.1368000e-01 2.49974900e+02 7.54677100e-03 1.11332100e-01
      -11 -1    0    0    0    0 +0.0000000000e+00 +0.0000000000e+00 +1.2498831501e+02 1.2498831501e+02 0.0000000000e+00 0.0000e+00 -1.0000e+00
       11 -1    0    0    0    0 -0.0000000000e+00 -0.0000000000e+00 -1.2498657367e+02 1.2498657367e+02 0.0000000000e+00 0.0000e+00 1.0000e+00
       23  1    1    2    0    0 -4.5221983618e+01 -1.4284343302e+01 -4.0204180485e+01 1.1036619835e+02 9.1188000000e+01 0.0000e+00 0.0000e+00
       25  1    1    2    0    0 +4.5221983618e+01 +1.4284343302e+01 +4.0205921827e+01 1.3960869033e+02 1.2500000000e+02 0.0000e+00 0.0000e+00
</event>
<event>
 4      1 +2.1368000e-01 2.49863800e+02 7.54677100e-03 1.11339100e-01
      -11 -1    0    0    0    0 +0.0000000000e+00 +0.0000000000e+00 +1.2498759752e+02 1.2498759752e+02 0.0000000000e+00 0.0000e+00 1.0000e+00
       11 -1    0    0    0    0 -0.0000000000e+00 -0.0000000000e+00 -1.2487620115e+02 1.2487620115e+02 0.0000000000e+00 0.0000e+00 -1.0000e+00
       23  1    1    2    0    0 +1.6418731714e+01 -5.0038193710e+01 +3.2888454373e+01 1.1031907068e+02 9.1188000000e+01 0.0000e+00 1.0000e+00
       25  1    1    2    0    0 -1.6418731714e+01 +5.0038193710e+01 -3.2777058003e+01 1.3954472800e+02 1.2500000000e+02 0.0000e+00 0.0000e+00
</event>
<event>
 4      1 +2.1368000e-01 2.49416400e+02 7.54677100e-03 1.11367400e-01
      -11 -1    0    0    0    0 +0.0000000000e+00 +0.0000000000e+00 +1.2445306750e+02 1.2445306750e+02 0.0000000000e+00 0.0000e+00 1.0000e+00
       11 -1    0    0    0    0 -0.0000000000e+00 -0.0000000000e+00 -1.2496387584e+02 1.2496387584e+02 0.0000000000e+00 0.0000e+00 -1.0000e+00
       23  1    1    2    0    0 +2.4695332726e+01 -5.5994615004e+01 +6.9500429489e+00 1.1004004184e+02 9.1188000000e+01 0.0000e+00 1.0000e+00
       25  1    1    2    0    0 -2.4695332726e+01 +5.5994615004e+01 -7.4608512952e+00 1.3937690149e+02 1.2500000000e+02 0.0000e+00 0.0000e+00
</event>
<event>
 4      1 +2.1368000e-01 2.49831000e+02 7.54677100e-03 1.11341200e-01
      -11 -1    0    0    0    0 +0.0000000000e+00 +0.0000000000e+00 +1.2497730550e+02 1.2497730550e+02 0.0000000000e+00 0.0000e+00 1.0000e+00
       11 -1    0    0    0    0 -0.0000000000e+00 -0.0000000000e+00 -1.2485374135e+02 1.2485374135e+02 0.0000000000e+00 0.0000e+00 -1.0000e+00
       23  1    1    2    0    0 -2.9659312865e+01 -4.7899560013e+01 +2.6010950525e+01 1.1029897361e+02 9.1188000000e+01 0.0000e+00 0.0000e+00
       25  1    1    2    0    0 +2.9659312865e+01 +4.7899560013e+01 -2.5887386376e+01 1.3953207324e+02 1.2500000000e+02 0.0000e+00 0.0000e+00
</event>
<event>
 4      1 +2.1368000e-01 2.33732600e+02 7.54677100e-03 1.12404000e-01
      -11 -1    0    0    0    0 +0.0000000000e+00 +0.0000000000e+00 +1.0929523014e+02 1.0929523014e+02 0.0000000000e+00 0.0000e+00 -1.0000e+00
       11 -1    0    0    0    0 -0.0000000000e+00 -0.0000000000e+00 -1.2496186758e+02 1.2496186758e+02 0.0000000000e+00 0.0000e+00 1.0000e+00
       23  1    1    2    0    0 -8.2734261574e+00 -6.2879513430e+00 +3.6020559988e+01 9.8593711758e+01 9.1188000000e+01 0.0000e+00 -1.0000e+00
       25  1    1    2    0    0 +8.2734261574e+00 +6.2879513430e+00 -5.1687197422e+01 1.3566338596e+02 1.2500000000e+02 0.0000e+00 0.0000e+00
</event>
<event>
 4      1 +2.1368000e-01 2.44983700e+02 7.54677100e-03 1.11651700e-01
      -11 -1    0    0    0    0 +0.0000000000e+00 +0.0000000000e+00 +1.2498788760e+02 1.2498788760e+02 0.0000000000e+00 0.0000e+00 1.0000e+00
       11 -1    0    0    0    0 -0.0000000000e+00 -0.0000000000e+00 -1.2004561103e+02 1.2004561103e+02 0.0000000000e+00 0.0000e+00 -1.0000e+00
       23  1    1    2    0    0 -2.7063067342e+01 +4.6532118784e+01 +2.1122533028e+01 1.0797712924e+02 9.1188000000e+01 0.0000e+00 1.0000e+00
       25  1    1    2    0    0 +2.7063067342e+01 -4.6532118784e+01 -1.6180256460e+01 1.3705636939e+02 1.2500000000e+02 0.0000e+00 0.0000e+00
</event>
<event>
 4      1 +2.1368000e-01 2.48187400e+02 7.54677100e-03 1.11445600e-01
      -11 -1    0    0    0    0 +0.0000000000e+00 +0.0000000000e+00 +1.2320653236e+02 1.2320653236e+02 0.0000000000e+00 0.0000e+00 1.0000e+00
       11 -1    0    0    0    0 -0.0000000000e+00 -0.0000000000e+00 -1.2498729837e+02 1.2498729837e+02 0.0000000000e+00 0.0000e+00 -1.0000e+00
       23  1    1    2    0    0 +4.5869513928e+01 +3.7073304047e+01 -1.3729036475e+01 1.0946314433e+02 9.1188000000e+01 0.0000e+00 -1.0000e+00
       25  1    1    2    0    0 -4.5869513928e+01 -3.7073304047e+01 +1.1948270462e+01 1.3873068640e+02 1.2500000000e+02 0.0000e+00 0.0000e+00
</event>
<event>
 4      1 +2.1368000e-01 2.49970600e+02 7.54677100e-03 1.11332300e-01
      -11 -1    0    0    0    0 +0.0000000000e+00 +0.0000000000e+00 +1.2498790062e+02 1.2498790062e+02 0.0000000000e+00 0.0000e+00 1.0000e+00
       11 -1    0    0    0    0 -0.0000000000e+00 -0.0000000000e+00 -1.2498267668e+02 1.2498267668e+02 0.0000000000e+00 0.0000e+00 -1.0000e+00
       23  1    1    2    0    0 -5.7626387960e+01 +2.2974126778e+01 +4.0477518550e+00 1.1036415509e+02 9.1188000000e+01 0.0000e+00 1.0000e+00
       25  1    1    2    0    0 +5.7626387960e+01 -2.2974126778e+01 -4.0425279187e+00 1.3960642221e+02 1.2500000000e+02 0.0000e+00 0.0000e+00
</event>
<event>
 4      1 +2.1368000e-01 2.46053100e+02 7.54677100e-03 1.11582500e-01
      -11 -1    0    0    0    0 +0.0000000000e+00 +0.0000000000e+00 +1.2176300727e+02 1.2176300727e+02 0.0000000000e+00 0.0000e+00 1.0000e+00
       11 -1    0    0    0    0 -0.0000000000e+00 -0.0000000000e+00 -1.2430320035e+02 1.2430320035e+02 0.0000000000e+00 0.0000e+00 -1.0000e+00
       23  1    1    2    0    0 +6.7742993823e+00 -5.6790676130e+01 -1.1839972455e+01 1.0828900369e+02 9.1188000000e+01 0.0000e+00 0.0000e+00
       25  1    1    2    0    0 -6.7742993823e+00 +5.6790676130e+01 +9.2997793676e+00 1.3777720393e+02 1.2500000000e+02 0.0000e+00 0.0000e+00
</event>
<event>
 4      1 +2.1368000e-01 2.47616200e+02 7.54677100e-03 1.11482100e-01
      -11 -1    0    0    0    0 +0.0000000000e+00 +0.0000000000e+00 +1.2435175800e+02 1.2435175800e+02 0.0000000000e+00 0.0000e+00 -1.0000e+00
       11 -1    0    0    0    0 -0.0000000000e+00 -0.0000000000e+00 -1.2326677852e+02 1.2326677852e+02 0.0000000000e+00 0.0000e+00 1.0000e+00
       23  1    1    2    0    0 -5.0204397514e+01 +3.2249857974e+01 -3.4775742362e+00 1.0903155385e+02 9.1188000000e+01 0.0000e+00 0.0000e+00
       25  1    1    2    0    0 +5.0204397514e+01 -3.2249857974e+01 +4.5625537175e+00 1.3858698267e+02 1.2500000000e+02 0.0000e+00 0.0000e+00
</event>
<event>
 4      1 +2.1368000e-01 2.49969900e+02 7.54677100e-03 1.11332400e-01
      -11 -1    0    0    0    0 +0.0000000000e+00 +0.0000000000e+00 +1.2498320050e+02 1.2498320050e+02 0.0000000000e+00 0.0000e+00 1.0000e+00
       11 -1    0    0    0    0 -0.0000000000e+00 -0.0000000000e+00 -1.2498668314e+02 1.2498668314e+02 0.0000000000e+00 0.0000e+00 -1.0000e+00
       23  1    1    2    0    0 +1.8146599786e+01 -5.6025154721e+01 -1.9920728544e+01 1.1036396067e+02 9.1188000000e+01 0.0000e+00 0.0000e+00
       25  1    1    2    0    0 -1.8146599786e+01 +5.6025154721e+01 +1.9917245905e+01 1.3960592298e+02 1.2500000000e+02 0.0000e+00 0.0000e+00
</event>
<event>
 4      1 +2.1368000e-01 2.49975000e+02 7.54677100e-03 1.11332100e-01
      -11 -1    0    0    0    0 +0.0000000000e+00 +0.0000000000e+00 +1.2498749928e+02 1.2498749928e+02 0.0000000000e+00 0.0000e+00 1.0000e+00
       11 -1    0    0    0    0 -0.0000000000e+00 -0.0000000000e+00 -1.2498749928e+02 1.2498749928e+02 0.0000000000e+00 0.0000e+00 -1.0000e+00
       23  1    1    2    0    0 +2.1316502891e+01 +5.8750618251e+00 +5.8108623404e+01 1.1036653979e+02 9.1188000000e+01 0.0000e+00 1.0000e+00
       25  1    1    2    0    0 -2.1316502891e+01 -5.8750618251e+00 -5.8108623404e+01 1.3960845877e+02 1.2500000000e+02 0.0000e+00 0.0000e+00
</event>
<event>
 4      1 +2.1368000e-01 2.41421900e+02 7.54677100e-03 1.11884900e-01
      -11 -1    0    0    0    0 +0.0000000000e+00 +0.0000000000e+00 +1.1658137323e+02 1.1658137323e+02 0.0000000000e+00 0.0000e+00 -1.0000e+00
       11 -1    0    0    0    0 -0.0000000000e+00 -0.0000000000e+00 -1.2498681608e+02 1.2498681608e+02 0.0000000000e+00 0.0000e+00 1.0000e+00
       23  1    1    2    0    0 -3.2036294757e+01 -3.4589389399e+01 -2.8337006127e+01 1.0649407167e+02 9.1188000000e+01 0.0000e+00 1.0000e+00
       25  1    1    2    0    0 +3.2036294757e+01 +3.4589389399e+01 +1.9931563283e+01 1.3507411764e+02 1.2500000000e+02 0.0000e+00 0.0000e+00
</event>
<event>
 4      1 +2.1368000e-01 2.48301200e+02 7.54677100e-03 1.11438300e-01
      -11 -1    0    0    0    0 +0.0000000000e+00 +0.0000000000e+00 +1.2331968100e+02 1.2331968100e+02 0.0000000000e+00 0.0000e+00 1.0000e+00
       11 -1    0    0    0    0 -0.0000000000e+00 -0.0000000000e+00 -1.2498709814e+02 1.2498709814e+02 0.0000000000e+00 0.0000e+00 -1.0000e+00
       23  1    1    2    0    0 -4.9740649712e+01 +2.2156792287e+01 -2.7095502573e+01 1.0961055279e+02 9.1188000000e+01 0.0000e+00 0.0000e+00
       25  1    1    2    0    0 +4.9740649712e+01 -2.2156792287e+01 +2.5428085432e+01 1.3869622636e+02 1.2500000000e+02 0.0000e+00 0.0000e+00
</event>
<event>
 4      1 +2.1368000e-01 2.49852900e+02 7.54677100e-03 1.11339800e-01
      -11 -1    0    0    0    0 +0.0000000000e+00 +0.0000000000e+00 +1.2486641498e+02 1.2486641498e+02 0.0000000000e+00 0.0000e+00 -1.0000e+00
       11 -1    0    0    0    0 -0.0000000000e+00 -0.0000000000e+00 -1.2498650897e+02 1.2498650897e+02 0.0000000000e+00 0.0000e+00 1.0000e+00
       23  1    1    2    0    0 +5.2076057901e+01 +3.3638358736e+01 -2.7021837088e+00 1.1029962886e+02 9.1188000000e+01 0.0000e+00 -1.0000e+00
       25  1    1    2    0    0 -5.2076057901e+01 -3.3638358736e+01 +2.5820897243e+00 1.3955329510e+02 1.2500000000e+02 0.0000e+00 0.0000e+00
</event>
<event>
 4      1 +2.1368000e-01 2.49975000e+02 7.54677100e-03 1.11332100e-01
      -11 -1    0    0    0    0 +0.0000000000e+00 +0.0000000000e+00 +1.2498836276e+02 1.2498836276e+02 0.0000000000e+00 0.0000e+00 1.0000e+00
       11 -1    0    0    0    0 -0.0000000000e+00 -0.0000000000e+00 -1.2498662141e+02 1.2498662141e+02 0.0000000000e+00 0.0000e+00 -1.0000e+00
       23  1    1    2    0    0 -3.9441947739e+01 -3.2797660865e+00 -4.7948119374e+01 1.1036619774e+02 9.1188000000e+01 0.0000e+00 -1.0000e+00
       25  1    1    2    0    0 +3.9441947739e+01 +3.2797660865e+00 +4.7949860717e+01 1.3960878643e+02 1.2500000000e+02 0.0000e+00 0.0000e+00
</event>
<event>
 4      1 +2.1368000e-01 2.49975000e+02 7.54677100e-03 1.11332100e-01
      -11 -1    0    0    0    0 +0.0000000000e+00 +0.0000000000e+00 +1.2498749965e+02 1.2498749965e+02 0.0000000000e+00 0.0000e+00 -1.0000e+00
       11 -1    0    0    0    0 -0.0000000000e+00 -0.0000000000e+00 -1.2498749965e+02 1.2498749965e+02 0.0000000000e+00 0.0000e+00 1.0000e+00
       23  1    1    2    0    0 -4.2467141571e+01 +3.7615673102e+01 +2.5438649233e+01 1.1036654020e+02 9.1188000000e+01 0.0000e+00 -1.0000e+00
       25  1    1    2    0    0 +4.2467141571e+01 -3.7615673102e+01 -2.5438649233e+01 1.3960845910e+02 1.2500000000e+02 0.0000e+00 0.0000e+00
</event>
<event>
 4      1 +2.1368000e-01 2.49897900e+02 7.54677100e-03 1.11336900e-01
      -11 -1    0    0    0    0 +0.0000000000e+00 +0.0000000000e+00 +1.2491067386e+02 1.2491067386e+02 0.0000000000e+00 0.0000e+00 1.0000e+00
       11 -1    0    0    0    0 -0.0000000000e+00 -0.0000000000e+00 -1.2498726986e+02 1.2498726986e+02 0.0000000000e+00 0.0000e+00 -1.0000e+00
       23  1    1    2    0    0 -5.5222829781e+01 -1.7368768086e+01 +2.2433667373e+01 1.1031661620e+02 9.1188000000e+01 0.0000e+00 -1.0000e+00
       25  1    1    2    0    0 +5.5222829781e+01 +1.7368768086e+01 -2.2510263377e+01 1.3958132752e+02 1.2500000000e+02 0.0000e+00 0.0000e+00
</event>
<event>
 4      1 +2.1368000e-01 2.49318900e+02 7.54677100e-03 1.11373600e-01
      -11 -1    0    0    0    0 +0.0000000000e+00 +0.0000000000e+00 +1.2433855801e+02 1.2433855801e+02 0.0000000000e+00 0.0000e+00 1.0000e+00
       11 -1    0    0    0    0 -0.0000000000e+00 -0.0000000000e+00 -1.2498117044e+02 1.2498117044e+02 0.0000000000e+00 0.0000e+00 -1.0000e+00
       23  1    1    2    0    0 +1.0167073446e+01 -5.9763113664e+01 +1.0192807475e+01 1.0997337771e+02 9.1188000000e+01 0.0000e+00 0.0000e+00
       25  1    1    2    0    0 -1.0167073446e+01 +5.9763113664e+01 -1.0835419904e+01 1.3934635073e+02 1.2500000000e+02 0.0000e+00 0.0000e+00
</event>
<event>
 4      1 +2.1368000e-01 2.49974800e+02 7.54677100e-03 1.11332100e-01
      -11 -1    0    0    0    0 +0.0000000000e+00 +0.0000000000e+00 +1.2498741050e+02 1.2498741050e+02 0.0000000000e+00 0.0000e+00 1.0000e+00
       11 -1    0    0    0    0 -0.0000000000e+00 -0.0000000000e+00 -1.2498741050e+02 1.2498741050e+02 0.0000000000e+00 0.0000e+00 -1.0000e+00
       23  1    1    2    0    0 -3.1152934939e+01 -3.3179141091e+00 -5.3702755628e+01 1.1036644062e+02 9.1188000000e+01 0.0000e+00 -1.0000e+00
       25  1    1    2    0    0 +3.1152934939e+01 +3.3179141091e+00 +5.3702755628e+01 1.3960838038e+02 1.2500000000e+02 0.0000e+00 0.0000e+00
</event>
<event>
 4      1 +2.1368000e-01 2.49974300e+02 7.54677100e-03 1.11332100e-01
      -11 -1    0    0    0    0 +0.0000000000e+00 +0.0000000000e+00 +1.2498802593e+02 1.2498802593e+02 0.0000000000e+00 0.0000e+00 -1.0000e+00
       11 -1    0    0    0    0 -0.0000000000e+00 -0.0000000000e+00 -1.2498628459e+02 1.2498628459e+02 0.0000000000e+00 0.0000e+00 1.0000e+00
       23  1    1    2    0    0 +1.6062088399e+01 +2.9145923603e+01 -5.2515527654e+01 1.1036578970e+02 9.1188000000e+01 0.0000e+00 1.0000e+00
       25  1    1    2    0    0 -1.6062088399e+01 -2.9145923603e+01 +5.2517268992e+01 1.3960852083e+02 1.2500000000e+02 0.0000e+00 0.0000e+00
</event>
<event>
 4      1 +2.1368000e-01 2.49973700e+02 7.54677100e-03 1.11332100e-01
      -11 -1    0    0    0    0 +0.0000000000e+00 +0.0000000000e+00 +1.2498598228e+02 1.2498598228e+02 0.0000000000e+00 0.0000e+00 1.0000e+00
       11 -1    0    0    0    0 -0.0000000000e+00 -0.0000000000e+00 -1.2498772361e+02 1.2498772361e+02 0.0000000000e+00 0.0000e+00 -1.0000e+00
       23  1    1    2    0    0 +5.5922479492e+01 -2.1141311767e+01 +1.7060404312e+01 1.1036569900e+02 9.1188000000e+01 0.0000e+00 0.0000e+00
       25  1    1    2    0    0 -5.5922479492e+01 +2.1141311767e+01 -1.7062145646e+01 1.3960800690e+02 1.2500000000e+02 0.0000e+00 0.0000e+00
</event>
<event>
 4      1 +2.1368000e-01 2.49499700e+02 7.54677100e-03 1.11362100e-01
      -11 -1    0    0    0    0 +0.0000000000e+00 +0.0000000000e+00 +1.2498733003e+02 1.2498733003e+02 0.0000000000e+00 0.0000e+00 1.0000e+00
       11 -1    0    0    0    0 -0.0000000000e+00 -0.0000000000e+00 -1.2451284310e+02 1.2451284310e+02 0.0000000000e+00 0.0000e+00 -1.0000e+00
       23  1    1    2    0    0 -5.2152491557e+01 -2.2493939826e+01 +2.4316068951e+01 1.1014709373e+02 9.1188000000e+01 0.0000e+00 1.0000e+00
       25  1    1    2    0    0 +5.2152491557e+01 +2.2493939826e+01 -2.3841582025e+01 1.3935307940e+02 1.2500000000e+02 0.0000e+00 0.0000e+00
</event>
<event>
 4      1 +2.1368000e-01 2.49964000e+02 7.54677100e-03 1.11332800e-01
      -11 -1    0    0    0    0 +0.0000000000e+00 +0.0000000000e+00 +1.2498807238e+02 1.2498807238e+02 0.0000000000e+00 0.0000e+00 -1.0000e+00
       11 -1    0    0    0    0 -0.0000000000e+00 -0.0000000000e+00 -1.2497588343e+02 1.2497588343e+02 0.0000000000e+00 0.0000e+00 1.0000e+00
       23  1    1    2    0    0 -3.4389555928e+01 +4.2377576245e+01 -2.9754657407e+01 1.1035892128e+02 9.1188000000e+01 0.0000e+00 0.0000e+00
       25  1    1    2    0    0 +3.4389555928e+01 -4.2377576245e+01 +2.9766846354e+01 1.3960503453e+02 1.2500000000e+02 0.0000e+00 0.0000e+00
</event>
<event>
 4      1 +2.1368000e-01 2.21329200e+02 7.54677100e-03 1.13289600e-01
      -11 -1    0    0    0    0 +0.0000000000e+00 +0.0000000000e+00 +1.2418865978e+02 1.2418865978e+02 0.0000000000e+00 0.0000e+00 -1.0000e+00
       11 -1    0    0    0    0 -0.0000000000e+00 -0.0000000000e+00 -9.8613332166e+01 9.8613332166e+01 0.0000000000e+00 0.0000e+00 1.0000e+00
       23  1    1    2    0    0 -4.8902502125e+00 -5.8129045244e+00 -1.1438192300e+01 9.2215985562e+01 9.1188000000e+01 0.0000e+00 1.0000e+00
       25  1    1    2    0    0 +4.8902502125e+00 +5.8129045244e+00 +3.7013519911e+01 1.3058600638e+02 1.2500000000e+02 0.0000e+00 0.0000e+00
</event>
<event>
 4      1 +2.1368000e-01 2.49974400e+02 7.54677100e-03 1.11332100e-01
      -11 -1    0    0    0    0 +0.0000000000e+00 +0.0000000000e+00 +1.2498891987e+02 1.2498891987e+02 0.0000000000e+00 0.0000e+00 -1.0000e+00
       11 -1    0    0    0    0 -0.0000000000e+00 -0.0000000000e+00 -1.2498543719e+02 1.2498543719e+02 0.0000000000e+00 0.0000e+00 1.0000e+00
       23  1    1    2    0    0 +1.4525412730e+01 +5.4119614218e+01 -2.6933985713e+01 1.1036580625e+02 9.1188000000e+01 0.0000e+00 0.0000e+00
       25  1    1    2    0    0 -1.4525412730e+01 -5.4119614218e+01 +2.6937468390e+01 1.3960855082e+02 1.2500000000e+02 0.0000e+00 0.0000e+00
</event>
<event>
 4      1 +2.1368000e-01 2.49844800e+02 7.54677100e-03 1.11340300e-01
      -11 -1    0    0    0    0 +0.0000000000e+00 +0.0000000000e+00 +1.2485800901e+02 1.2485800901e+02 0.0000000000e+00 0.0000e+00 -1.0000e+00
       11 -1    0    0    0    0 -0.0000000000e+00 -0.0000000000e+00 -1.2498680217e+02 1.2498680217e+02 0.0000000000e+00 0.0000e+00 1.0000e+00
       23  1    1    2    0    0 +5.5610102610e+01 -1.6559665768e+01 +2.1915104641e+01 1.1028249724e+02 9.1188000000e+01 0.0000e+00 -1.0000e+00
       25  1    1    2    0    0 -5.5610102610e+01 +1.6559665768e+01 -2.2043897803e+01 1.3956231394e+02 1.2500000000e+02 0.0000e+00 0.0000e+00
</event>
<event>
 4      1 +2.1368000e-01 2.45346200e+02 7.54677100e-03 1.11628200e-01
      -11 -1    0    0    0    0 +0.0000000000e+00 +0.0000000000e+00 +1.2040175940e+02 1.2040175940e+02 0.0000000000e+00 0.0000e+00 -1.0000e+00
       11 -1    0    0    0    0 -0.0000000000e+00 -0.0000000000e+00 -1.2498730485e+02 1.2498730485e+02 0.0000000000e+00 0.0000e+00 1.0000e+00
       23  1    1    2    0    0 -2.3612897973e+01 +1.0706556635e+01 +4.9261368347e+01 1.0683694614e+02 9.1188000000e+01 0.0000e+00 0.0000e+00
       25  1    1    2    0    0 +2.3612897973e+01 -1.0706556635e+01 -5.3846913799e+01 1.3855211810e+02 1.2500000000e+02 0.0000e+00 0.0000e+00
</event>
<event>
 4      1 +2.1368000e-01 2.49861900e+02 7.54677100e-03 1.11339200e-01
      -11 -1    0    0    0    0 +0.0000000000e+00 +0.0000000000e+00 +1.2487528697e+02 1.2487528697e+02 0.0000000000e+00 0.0000e+00 -1.0000e+00
       11 -1    0    0    0    0 -0.0000000000e+00 -0.0000000000e+00 -1.2498668330e+02 1.2498668330e+02 0.0000000000e+00 0.0000e+00 1.0000e+00
       23  1    1    2    0    0 -2.9511204420e+01 +5.3312295303e+00 +5.4285486366e+01 1.1027918466e+02 9.1188000000e+01 0.0000e+00 0.0000e+00
       25  1    1    2    0    0 +2.9511204420e+01 -5.3312295303e+00 -5.4396882697e+01 1.3958278562e+02 1.2500000000e+02 0.0000e+00 0.0000e+00
</event>
<event>
 4      1 +2.1368000e-01 2.49975000e+02 7.54677100e-03 1.11332100e-01
      -11 -1    0    0    0    0 +0.0000000000e+00 +0.0000000000e+00 +1.2498750000e+02 1.2498750000e+02 0.0000000000e+00 0.0000e+00 -1.0000e+00
       11 -1    0    0    0    0 -0.0000000000e+00 -0.0000000000e+00 -1.2498750000e+02 1.2498750000e+02 0.0000000000e+00 0.0000e+00 1.0000e+00
       23  1    1    2    0    0 +5.4025719809e+01 -3.0077757363e+01 -6.4862970521e+00 1.1036654059e+02 9.1188000000e+01 0.0000e+00 -1.0000e+00
       25  1    1    2    0    0 -5.4025719809e+01 +3.0077757363e+01 +6.4862970521e+00 1.3960845941e+02 1.2500000000e+02 0.0000e+00 0.0000e+00
</event>
<event>
 4      1 +2.1368000e-01 2.49965900e+02 7.54677100e-03 1.11332600e-01
      -11 -1    0    0    0    0 +0.0000000000e+00 +0.0000000000e+00 +1.2497944525e+02 1.2497944525e+02 0.0000000000e+00 0.0000e+00 1.0000e+00
       11 -1    0    0    0    0 -0.0000000000e+00 -0.0000000000e+00 -1.2498641041e+02 1.2498641041e+02 0.0000000000e+00 0.0000e+00 -1.0000e+00
       23  1    1    2    0    0 +2.8383929167e+01 +5.4808281245e+01 +7.3995954438e+00 1.1036122727e+02 9.1188000000e+01 0.0000e+00 1.0000e+00
       25  1    1    2    0    0 -2.8383929167e+01 -5.4808281245e+01 -7.4065606092e+00 1.3960462839e+02 1.2500000000e+02 0.0000e+00 0.0000e+00
</event>
<event>
 4      1 +2.1368000e-01 2.49612100e+02 7.54677100e-03 1.11355000e-01
      -11 -1    0    0    0    0 +0.0000000000e+00 +0.0000000000e+00 +1.2462623148e+02 1.2462623148e+02 0.0000000000e+00 0.0000e+00 1.0000e+00
       11 -1    0    0    0    0 -0.0000000000e+00 -0.0000000000e+00 -1.2498616660e+02 1.2498616660e+02 0.0000000000e+00 0.0000e+00 -1.0000e+00
       23  1    1    2    0    0 +3.8535675319e+01 +3.2325998085e+01 +3.5769657786e+01 1.1011216185e+02 9.1188000000e+01 0.0000e+00 1.0000e+00
       25  1    1    2    0    0 -3.8535675319e+01 -3.2325998085e+01 -3.6129592907e+01 1.3950023623e+02 1.2500000000e+02 0.0000e+00 0.0000e+00
</event>
<event>
 4      1 +2.1368000e-01 2.49920100e+02 7.54677100e-03 1.11335500e-01
      -11 -1    0    0    0    0 +0.0000000000e+00 +0.0000000000e+00 +1.2497921269e+02 1.2497921269e+02 0.0000000000e+00 0.0000e+00 1.0000e+00
       11 -1    0    0    0    0 -0.0000000000e+00 -0.0000000000e+00 -1.2494091129e+02 1.2494091129e+02 0.0000000000e+00 0.0000e+00 -1.0000e+00
       23  1    1    2    0    0 +1.4363089343e+01 +2.6215046101e+00 -6.0361785970e+01 1.1032663854e+02 9.1188000000e+01 0.0000e+00 -1.0000e+00
       25  1    1    2    0    0 -1.4363089343e+01 -2.6215046101e+00 +6.0400087371e+01 1.3959348544e+02 1.2500000000e+02 0.0000e+00 0.0000e+00
</event>
<event>
 4      1 +2.1368000e-01 2.49975000e+02 7.54677100e-03 1.11332100e-01
      -11 -1    0    0    0    0 +0.0000000000e+00 +0.0000000000e+00 +1.2498837067e+02 1.2498837067e+02 0.0000000000e+00 0.0000e+00 1.0000e+00
       11 -1    0    0    0    0 -0.0000000000e+00 -0.0000000000e+00 -1.2498662933e+02 1.2498662933e+02 0.0000000000e+00 0.0000e+00 -1.0000e+00
       23  1    1    2    0    0 -1.6150240395e+01 +2.2417225120e+01 +5.5697803665e+01 1.1036692858e+02 9.1188000000e+01 0.0000e+00 0.0000e+00
       25  1    1    2    0    0 +1.6150240395e+01 -2.2417225120e+01 -5.5696062322e+01 1.3960807142e+02 1.2500000000e+02 0.0000e+00 0.0000e+00
</event>
<event>
 4      1 +2.1368000e-01 2.49972200e+02 7.54677100e-03 1.11332200e-01
      -11 -1    0    0    0    0 +0.0000000000e+00 +0.0000000000e+00 +1.2498521567e+02 1.2498521567e+02 0.0000000000e+00 0.0000e+00 1.0000e+00
       11 -1    0    0    0    0 -0.0000000000e+00 -0.0000000000e+00 -1.2498695700e+02 1.2498695700e+02 0.0000000000e+00 0.0000e+00 -1.0000e+00
       23  1    1    2    0    0 +6.1960823090e+01 -5.0320208945e+00 -8.4253027843e-01 1.1036496742e+02 9.1188000000e+01 0.0000e+00 0.0000e+00
       25  1    1    2    0    0 -6.1960823090e+01 +5.0320208945e+00 +8.4078895521e-01 1.3960720525e+02 1.2500000000e+02 0.0000e+00 0.0000e+00
</event>
<event>
 4      1 +2.1368000e-01 2.42000500e+02 7.54677100e-03 1.11846700e-01
      -11 -1    0    0    0    0 +0.0000000000e+00 +0.0000000000e+00 +1.2490489897e+02 1.2490489897e+02 0.0000000000e+00 0.0000e+00 -1.0000e+00
       11 -1    0    0    0    0 -0.0000000000e+00 -0.0000000000e+00 -1.1721766559e+02 1.1721766559e+02 0.0000000000e+00 0.0000e+00 1.0000e+00
       23  1    1    2    0    0 -4.8086479770e+01 +1.0750425665e+01 -1.8352997657e+01 1.0526141295e+02 9.1188000000e+01 0.0000e+00 1.0000e+00
       25  1    1    2    0    0 +4.8086479770e+01 -1.0750425665e+01 +2.6040231038e+01 1.3686115161e+02 1.2500000000e+02 0.0000e+00 0.0000e+00
</event>
<event>
 4      1 +2.1368000e-01 2.47410200e+02 7.54677100e-03 1.11495300e-01
      -11 -1    0    0    0    0 +0.0000000000e+00 +0.0000000000e+00 +1.2243544095e+02 1.2243544095e+02 0.0000000000e+00 0.0000e+00 1.0000e+00
       11 -1    0    0    0    0 -0.0000000000e+00 -0.0000000000e+00 -1.2498792074e+02 1.2498792074e+02 0.0000000000e+00 0.0000e+00 -1.0000e+00
       23  1    1    2    0    0 +3.8402308265e+01 -1.0354034419e+01 -4.5500849216e+01 1.0939616964e+02 9.1188000000e+01 0.0000e+00 -1.0000e+00
       25  1    1    2    0    0 -3.8402308265e+01 +1.0354034419e+01 +4.2948369426e+01 1.3802719205e+02 1.2500000000e+02 0.0000e+00 0.0000e+00
</event>
<event>
 4      1 +2.1368000e-01 2.45233000e+02 7.54677100e-03 1.11635500e-01
      -11 -1    0    0    0    0 +0.0000000000e+00 +0.0000000000e+00 +1.2498792271e+02 1.2498792271e+02 0.0000000000e+00 0.0000e+00 -1.0000e+00
       11 -1    0    0    0    0 -0.0000000000e+00 -0.0000000000e+00 -1.2029005985e+02 1.2029005985e+02 0.0000000000e+00 0.0000e+00 1.0000e+00
       23  1    1    2    0    0 -5.1923729293e+01 -1.3681055461e+01 +2.2155760060e+01 1.0811740836e+02 9.1188000000e+01 0.0000e+00 0.0000e+00
       25  1    1    2    0    0 +5.1923729293e+01 +1.3681055461e+01 -1.7457897197e+01 1.3716057421e+02 1.2500000000e+02 0.0000e+00 0.0000e+00
</event>
<event>
 4      1 +2.1368000e-01 2.48800600e+02 7.54677100e-03 1.11406500e-01
      -11 -1    0    0    0    0 +0.0000000000e+00 +0.0000000000e+00 +1.2411206129e+02 1.2411206129e+02 0.0000000000e+00 0.0000e+00 1.0000e+00
       11 -1    0    0    0    0 -0.0000000000e+00 -0.0000000000e+00 -1.2468920577e+02 1.2468920577e+02 0.0000000000e+00 0.0000e+00 -1.0000e+00
       23  1    1    2    0    0 +5.6712919439e+01 -1.3847160309e+01 +1.7437497266e+01 1.0966957981e+02 9.1188000000e+01 0.0000e+00 0.0000e+00
       25  1    1    2    0    0 -5.6712919439e+01 +1.3847160309e+01 -1.8014641749e+01 1.3913168725e+02 1.2500000000e+02 0.0000e+00 0.0000e+00
</event>
<event>
 4      1 +2.1368000e-01 2.37845300e+02 7.54677100e-03 1.12123700e-01
      -11 -1    0    0    0    0 +0.0000000000e+00 +0.0000000000e+00 +1.2498286830e+02 1.2498286830e+02 0.0000000000e+00 0.0000e+00 1.0000e+00
       11 -1    0    0    0    0 -0.0000000000e+00 -0.0000000000e+00 -1.1315626871e+02 1.1315626871e+02 0.0000000000e+00 0.0000e+00 -1.0000e+00
       23  1    1    2    0    0 +9.5206618902e+00 +7.4822874859e+00 -4.2469764298e+01 1.0131909915e+02 9.1188000000e+01 0.0000e+00 -1.0000e+00
       25  1    1    2    0    0 -9.5206618902e+00 -7.4822874859e+00 +5.4296363894e+01 1.3682003786e+02 1.2500000000e+02 0.0000e+00 0.0000e+00
</event>
<event>
 4      1 +2.1368000e-01 2.32276100e+02 7.54677100e-03 1.12504800e-01
      -11 -1    0    0    0    0 +0.0000000000e+00 +0.0000000000e+00 +1.2498740469e+02 1.2498740469e+02 0.0000000000e+00 0.0000e+00 1.0000e+00
       11 -1    0    0    0    0 -0.0000000000e+00 -0.0000000000e+00 -1.0791520446e+02 1.0791520446e+02 0.0000000000e+00 0.0000e+00 -1.0000e+00
       23  1    1    2    0    0 +9.9383740880e-01 +1.3713252795e+01 -3.2432260668e+01 9.7755531255e+01 9.1188000000e+01 0.0000e+00 -1.0000e+00
       25  1    1    2    0    0 -9.9383740880e-01 -1.3713252795e+01 +4.9504460899e+01 1.3514707790e+02 1.2500000000e+02 0.0000e+00 0.0000e+00
</event>
<event>
 4      1 +2.1368000e-01 2.25866400e+02 7.54677100e-03 1.12958300e-01
      -11 -1    0    0    0    0 +0.0000000000e+00 +0.0000000000e+00 +1.2498784564e+02 1.2498784564e+02 0.0000000000e+00 0.0000e+00 -1.0000e+00
       11 -1    0    0    0    0 -0.0000000000e+00 -0.0000000000e+00 -1.0204121791e+02 1.0204121791e+02 0.0000000000e+00 0.0000e+00 1.0000e+00
       23  1    1    2    0    0 +5.4117311502e+00 +6.6258208473e+00 -2.1515141099e+01 9.4081565551e+01 9.1188000000e+01 0.0000e+00 1.0000e+00
       25  1    1    2    0    0 -5.4117311502e+00 -6.6258208473e+00 +4.4461768836e+01 1.3294749800e+02 1.2500000000e+02 0.0000e+00 0.0000e+00
</event>
<event>
 4      1 +2.1368000e-01 2.49975000e+02 7.54677100e-03 1.11332100e-01
      -11 -1    0    0    0    0 +0.0000000000e+00 +0.0000000000e+00 +1.2498750000e+02 1.2498750000e+02 0.0000000000e+00 0.0000e+00 1.0000e+00
       11 -1    0    0    0    0 -0.0000000000e+00 -0.0000000000e+00 -1.2498750000e+02 1.2498750000e+02 0.0000000000e+00 0.0000e+00 -1.0000e+00
       23  1    1    2    0    0 +3.4765429902e+01 -7.3963289462e+00 +5.1011578487e+01 1.1036654059e+02 9.1188000000e+01 0.0000e+00 0.0000e+00
       25  1    1    2    0    0 -3.4765429902e+01 +7.3963289462e+00 -5.1011578487e+01 1.3960845941e+02 1.2500000000e+02 0.0000e+00 0.0000e+00
</event>
<event>
 4      1 +2.1368000e-01 2.43704800e+02 7.54677100e-03 1.11734900e-01
      -11 -1    0    0    0    0 +0.0000000000e+00 +0.0000000000e+00 +1.2498827310e+02 1.2498827310e+02 0.0000000000e+00 0.0000e+00 -1.0000e+00
       11 -1    0    0    0    0 -0.0000000000e+00 -0.0000000000e+00 -1.1879517959e+02 1.1879517959e+02 0.0000000000e+00 0.0000e+00 1.0000e+00
       23  1    1    2    0    0 +4.5495502737e+01 +2.8685873427e+01 -1.1783130376e+01 1.0652142324e+02 9.1188000000e+01 0.0000e+00 -1.0000e+00
       25  1    1    2    0    0 -4.5495502737e+01 -2.8685873427e+01 +1.7976223889e+01 1.3726202945e+02 1.2500000000e+02 0.0000e+00 0.0000e+00
</event>
<event>
 4      1 +2.1368000e-01 2.49975000e+02 7.54677100e-03 1.11332100e-01
      -11 -1    0    0    0    0 +0.0000000000e+00 +0.0000000000e+00 +1.2498750000e+02 1.2498750000e+02 0.0000000000e+00 0.0000e+00 -1.0000e+00
       11 -1    0    0    0    0 -0.0000000000e+00 -0.0000000000e+00 -1.2498750000e+02 1.2498750000e+02 0.0000000000e+00 0.0000e+00 1.0000e+00
       23  1    1    2    0    0 -5.4505471255e+00 -5.2350894693e+01 -3.3093765261e+01 1.1036654059e+02 9.1188000000e+01 0.0000e+00 0.0000e+00
       25  1    1    2    0    0 +5.4505471255e+00 +5.2350894693e+01 +3.3093765261e+01 1.3960845941e+02 1.2500000000e+02 0.0000e+00 0.0000e+00
</event>
<event>
 4      1 +2.1368000e-01 2.47169000e+02 7.54677100e-03 1.11510700e-01
      -11 -1    0    0    0    0 +0.0000000000e+00 +0.0000000000e+00 +1.2219684396e+02 1.2219684396e+02 0.0000000000e+00 0.0000e+00 1.0000e+00
       11 -1    0    0    0    0 -0.0000000000e+00 -0.0000000000e+00 -1.2498789770e+02 1.2498789770e+02 0.0000000000e+00 0.0000e+00 -1.0000e+00
       23  1    1    2    0    0 -3.1616887465e+01 -9.9487951084e+00 +4.7999058648e+01 1.0824863543e+02 9.1188000000e+01 0.0000e+00 1.0000e+00
       25  1    1    2    0    0 +3.1616887465e+01 +9.9487951084e+00 -5.0790112390e+01 1.3893610623e+02 1.2500000000e+02 0.0000e+00 0.0000e+00
</event>
<event>
 4      1 +2.1368000e-01 2.49953600e+02 7.54677100e-03 1.11333400e-01
      -11 -1    0    0    0    0 +0.0000000000e+00 +0.0000000000e+00 +1.2498813177e+02 1.2498813177e+02 0.0000000000e+00 0.0000e+00 -1.0000e+00
       11 -1    0    0    0    0 -0.0000000000e+00 -0.0000000000e+00 -1.2496549625e+02 1.2496549625e+02 0.0000000000e+00 0.0000e+00 1.0000e+00
       23  1    1    2    0    0 +4.2065586651e+01 -4.5523979125e+01 +4.5861271648e+00 1.1035501874e+02 9.1188000000e+01 0.0000e+00 0.0000e+00
       25  1    1    2    0    0 -4.2065586651e+01 +4.5523979125e+01 -4.5634916422e+00 1.3959860928e+02 1.2500000000e+02 0.0000e+00 0.0000e+00
</event>
<event>
 4      1 +2.1368000e-01 2.45522000e+02 7.54677100e-03 1.11616800e-01
      -11 -1    0    0    0    0 +0.0000000000e+00 +0.0000000000e+00 +1.2498802105e+02 1.2498802105e+02 0.0000000000e+00 0.0000e+00 -1.0000e+00
       11 -1    0    0    0    0 -0.0000000000e+00 -0.0000000000e+00 -1.2057367097e+02 1.2057367097e+02 0.0000000000e+00 0.0000e+00 1.0000e+00
       23  1    1    2    0    0 -5.4135600507e+01 -1.3376008961e+01 +1.6507428587e+01 1.0815418346e+02 9.1188000000e+01 0.0000e+00 1.0000e+00
       25  1    1    2    0    0 +5.4135600507e+01 +1.3376008961e+01 -1.2093078507e+01 1.3740750855e+02 1.2500000000e+02 0.0000e+00 0.0000e+00
</event>
<event>
 4      1 +2.1368000e-01 2.49736700e+02 7.54677100e-03 1.11347100e-01
      -11 -1    0    0    0    0 +0.0000000000e+00 +0.0000000000e+00 +1.2498842524e+02 1.2498842524e+02 0.0000000000e+00 0.0000e+00 1.0000e+00
       11 -1    0    0    0    0 -0.0000000000e+00 -0.0000000000e+00 -1.2474834892e+02 1.2474834892e+02 0.0000000000e+00 0.0000e+00 -1.0000e+00
       23  1    1    2    0    0 +2.7818517332e+01 +5.5252094531e+01 -2.9747525663e+00 1.1023050555e+02 9.1188000000e+01 0.0000e+00 0.0000e+00
       25  1    1    2    0    0 -2.7818517332e+01 -5.5252094531e+01 +3.2148288784e+00 1.3950626861e+02 1.2500000000e+02 0.0000e+00 0.0000e+00
</event>
<event>
 4      1 +2.1368000e-01 2.49975000e+02 7.54677100e-03 1.11332100e-01
      -11 -1    0    0    0    0 +0.0000000000e+00 +0.0000000000e+00 +1.2498837033e+02 1.2498837033e+02 0.0000000000e+00 0.0000e+00 1.0000e+00
       11 -1    0    0    0    0 -0.0000000000e+00 -0.0000000000e+00 -1.2498662898e+02 1.2498662898e+02 0.0000000000e+00 0.0000e+00 -1.0000e+00
       23  1    1    2    0    0 -1.1473002279e+01 -6.1012318106e+01 -3.3740068247e+00 1.1036651670e+02 9.1188000000e+01 0.0000e+00 0.0000e+00
       25  1    1    2    0    0 +1.1473002279e+01 +6.1012318106e+01 +3.3757481676e+00 1.3960848261e+02 1.2500000000e+02 0.0000e+00 0.0000e+00
</event>
<event>
 4      1 +2.1368000e-01 2.49870600e+02 7.54677100e-03 1.11338700e-01
      -11 -1    0    0    0    0 +0.0000000000e+00 +0.0000000000e+00 +1.2498753302e+02 1.2498753302e+02 0.0000000000e+00 0.0000e+00 1.0000e+00
       11 -1    0    0    0    0 -0.0000000000e+00 -0.0000000000e+00 -1.2488309534e+02 1.2488309534e+02 0.0000000000e+00 0.0000e+00 -1.0000e+00
       23  1    1    2    0    0 +3.5368514827e+01 -3.2571206595e+01 +3.9299644867e+01 1.1032465169e+02 9.1188000000e+01 0.0000e+00 0.0000e+00
       25  1    1    2    0    0 -3.5368514827e+01 +3.2571206595e+01 -3.9195207188e+01 1.3954597668e+02 1.2500000000e+02 0.0000e+00 0.0000e+00
</event>
<event>
 4      1 +2.1368000e-01 2.49968500e+02 7.54677100e-03 1.11332500e-01
      -11 -1    0    0    0    0 +0.0000000000e+00 +0.0000000000e+00 +1.2498161401e+02 1.2498161401e+02 0.0000000000e+00 0.0000e+00 1.0000e+00
       11 -1    0    0    0    0 -0.0000000000e+00 -0.0000000000e+00 -1.2498683790e+02 1.2498683790e+02 0.0000000000e+00 0.0000e+00 -1.0000e+00
       23  1    1    2    0    0 +4.6501176771e+01 -3.8763499784e+01 -1.4135471479e+01 1.1036317889e+02 9.1188000000e+01 0.0000e+00 0.0000e+00
       25  1    1    2    0    0 -4.6501176771e+01 +3.8763499784e+01 +1.4130247588e+01 1.3960527301e+02 1.2500000000e+02 0.0000e+00 0.0000e+00
</event>
<event>
 4      1 +2.1368000e-01 2.34721300e+02 7.54677100e-03 1.12336000e-01
      -11 -1    0    0    0    0 +0.0000000000e+00 +0.0000000000e+00 +1.2039270785e+02 1.2039270785e+02 0.0000000000e+00 0.0000e+00 -1.0000e+00
       11 -1    0    0    0    0 -0.0000000000e+00 -0.0000000000e+00 -1.1440499764e+02 1.1440499764e+02 0.0000000000e+00 0.0000e+00 1.0000e+00
       23  1    1    2    0    0 +3.6388808100e+01 -1.2294623493e+00 -2.4248721472e+01 1.0113806786e+02 9.1188000000e+01 0.0000e+00 0.0000e+00
       25  1    1    2    0    0 -3.6388808100e+01 +1.2294623493e+00 +3.0236431676e+01 1.3365963764e+02 1.2500000000e+02 0.0000e+00 0.0000e+00
</event>
<event>
 4      1 +2.1368000e-01 2.49975000e+02 7.54677100e-03 1.11332100e-01
      -11 -1    0    0    0    0 +0.0000000000e+00 +0.0000000000e+00 +1.2498750000e+02 1.2498750000e+02 0.0000000000e+00 0.0000e+00 -1.0000e+00
       11 -1    0    0    0    0 -0.0000000000e+00 -0.0000000000e+00 -1.2498750000e+02 1.2498750000e+02 0.0000000000e+00 0.0000e+00 1.0000e+00
       23  1    1    2    0    0 +1.4529729824e+00 +5.8733310034e+01 -2.0342298302e+01 1.1036654059e+02 9.1188000000e+01 0.0000e+00 0.0000e+00
       25  1    1    2    0    0 -1.4529729824e+00 -5.8733310034e+01 +2.0342298302e+01 1.3960845941e+02 1.2500000000e+02 0.0000e+00 0.0000e+00
</event>
<event>
 4      1 +2.1368000e-01 2.49875700e+02 7.54677100e-03 1.11338300e-01
      -11 -1    0    0    0    0 +0.0000000000e+00 +0.0000000000e+00 +1.2498748393e+02 1.2498748393e+02 0.0000000000e+00 0.0000e+00 1.0000e+00
       11 -1    0    0    0    0 -0.0000000000e+00 -0.0000000000e+00 -1.2488826679e+02 1.2488826679e+02 0.0000000000e+00 0.0000e+00 -1.0000e+00
       23  1    1    2    0    0 -4.6863528966e+01 -3.1497024208e+01 +2.5832056442e+01 1.1032134592e+02 9.1188000000e+01 0.0000e+00 0.0000e+00
       25  1    1    2    0    0 +4.6863528966e+01 +3.1497024208e+01 -2.5732839304e+01 1.3955440480e+02 1.2500000000e+02 0.0000e+00 0.0000e+00
</event>
<event>
 4      1 +2.1368000e-01 2.46811800e+02 7.54677100e-03 1.11533600e-01
      -11 -1    0    0    0    0 +0.0000000000e+00 +0.0000000000e+00 +1.2498735035e+02 1.2498735035e+02 0.0000000000e+00 0.0000e+00 -1.0000e+00
       11 -1    0    0    0    0 -0.0000000000e+00 -0.0000000000e+00 -1.2184444185e+02 1.2184444185e+02 0.0000000000e+00 0.0000e+00 1.0000e+00
       23  1    1    2    0    0 -3.8053520773e+01 +4.3456917999e+01 +1.3283480275e+01 1.0875787952e+02 9.1188000000e+01 0.0000e+00 0.0000e+00
       25  1    1    2    0    0 +3.8053520773e+01 -4.3456917999e+01 -1.0140571773e+01 1.3807391267e+02 1.2500000000e+02 0.0000e+00 0.0000e+00
</event>
<event>
 4      1 +2.1368000e-01 2.49737300e+02 7.54677100e-03 1.11347100e-01
      -11 -1    0    0    0    0 +0.0000000000e+00 +0.0000000000e+00 +1.2480692087e+02 1.2480692087e+02 0.0000000000e+00 0.0000e+00 1.0000e+00
       11 -1    0    0    0    0 -0.0000000000e+00 -0.0000000000e+00 -1.2493043954e+02 1.2493043954e+02 0.0000000000e+00 0.0000e+00 -1.0000e+00
       23  1    1    2    0    0 +5.5132907447e+01 +2.1328059435e+01 +1.8430982076e+01 1.1022466170e+02 9.1188000000e+01 0.0000e+00 0.0000e+00
       25  1    1    2    0    0 -5.5132907447e+01 -2.1328059435e+01 -1.8554500749e+01 1.3951269871e+02 1.2500000000e+02 0.0000e+00 0.0000e+00
</event>
<event>
 4      1 +2.1368000e-01 2.49681900e+02 7.54677100e-03 1.11350600e-01
      -11 -1    0    0    0    0 +0.0000000000e+00 +0.0000000000e+00 +1.2498802520e+02 1.2498802520e+02 0.0000000000e+00 0.0000e+00 1.0000e+00
       11 -1    0    0    0    0 -0.0000000000e+00 -0.0000000000e+00 -1.2469408306e+02 1.2469408306e+02 0.0000000000e+00 0.0000e+00 -1.0000e+00
       23  1    1    2    0    0 +5.7478949488e+01 -2.2433466695e+01 -4.5953093765e+00 1.1019736056e+02 9.1188000000e+01 0.0000e+00 -1.0000e+00
       25  1    1    2    0    0 -5.7478949488e+01 +2.2433466695e+01 +4.8892515184e+00 1.3948474771e+02 1.2500000000e+02 0.0000e+00 0.0000e+00
</event>
<event>
 4      1 +2.1368000e-01 2.48450600e+02 7.54677100e-03 1.11428800e-01
      -11 -1    0    0    0    0 +0.0000000000e+00 +0.0000000000e+00 +1.2346781358e+02 1.2346781358e+02 0.0000000000e+00 0.0000e+00 -1.0000e+00
       11 -1    0    0    0    0 -0.0000000000e+00 -0.0000000000e+00 -1.2498739614e+02 1.2498739614e+02 0.0000000000e+00 0.0000e+00 1.0000e+00
       23  1    1    2    0    0 -2.1337518912e+01 +4.9950345807e+00 +5.5881736339e+01 1.0917078311e+02 9.1188000000e+01 0.0000e+00 -1.0000e+00
       25  1    1    2    0    0 +2.1337518912e+01 -4.9950345807e+00 -5.7401318898e+01 1.3928442661e+02 1.2500000000e+02 0.0000e+00 0.0000e+00
</event>
<event>
 4      1 +2.1368000e-01 2.49953800e+02 7.54677100e-03 1.11333400e-01
      -11 -1    0    0    0    0 +0.0000000000e+00 +0.0000000000e+00 +1.2496647299e+02 1.2496647299e+02 0.0000000000e+00 0.0000e+00 1.0000e+00
       11 -1    0    0    0    0 -0.0000000000e+00 -0.0000000000e+00 -1.2498736748e+02 1.2498736748e+02 0.0000000000e+00 0.0000e+00 -1.0000e+00
       23  1    1    2    0    0 -1.1720419873e+01 +4.2018229034e+01 -4.4281266447e+01 1.1035842385e+02 9.1188000000e+01 0.0000e+00 -1.0000e+00
       25  1    1    2    0    0 +1.1720419873e+01 -4.2018229034e+01 +4.4260371956e+01 1.3959541661e+02 1.2500000000e+02 0.0000e+00 0.0000e+00
</event>
<event>
 4      1 +2.1368000e-01 2.49975000e+02 7.54677100e-03 1.11332100e-01
      -11 -1    0    0    0    0 +0.0000000000e+00 +0.0000000000e+00 +1.2498750000e+02 1.2498750000e+02 0.0000000000e+00 0.0000e+00 1.0000e+00
       11 -1    0    0    0    0 -0.0000000000e+00 -0.0000000000e+00 -1.2498750000e+02 1.2498750000e+02 0.0000000000e+00 0.0000e+00 -1.0000e+00
       23  1    1    2    0    0 -5.2202354728e+00 -3.3097540964e+01 +5.2371975922e+01 1.1036654059e+02 9.1188000000e+01 0.0000e+00 1.0000e+00
       25  1    1    2    0    0 +5.2202354728e+00 +3.3097540964e+01 -5.2371975922e+01 1.3960845941e+02 1.2500000000e+02 0.0000e+00 0.0000e+00
</event>
<event>
 4      1 +2.1368000e-01 2.49974800e+02 7.54677100e-03 1.11332100e-01
      -11 -1    0    0    0    0 +0.0000000000e+00 +0.0000000000e+00 +1.2498829310e+02 1.2498829310e+02 0.0000000000e+00 0.0000e+00 1.0000e+00
       11 -1    0    0    0    0 -0.0000000000e+00 -0.0000000000e+00 -1.2498655176e+02 1.2498655176e+02 0.0000000000e+00 0.0000e+00 -1.0000e+00
       23  1    1    2    0    0 -3.5264293332e+01 +4.7704675418e+01 +1.8607121824e+01 1.1036658356e+02 9.1188000000e+01 0.0000e+00 0.0000e+00
       25  1    1    2    0    0 +3.5264293332e+01 -4.7704675418e+01 -1.8605380482e+01 1.3960826130e+02 1.2500000000e+02 0.0000e+00 0.0000e+00
</event>
<event>
 4      1 +2.1368000e-01 2.37190300e+02 7.54677100e-03 1.12167900e-01
      -11 -1    0    0    0    0 +0.0000000000e+00 +0.0000000000e+00 +1.2477753321e+02 1.2477753321e+02 0.0000000000e+00 0.0000e+00 1.0000e+00
       11 -1    0    0    0    0 -0.0000000000e+00 -0.0000000000e+00 -1.1271913075e+02 1.1271913075e+02 0.0000000000e+00 0.0000e+00 -1.0000e+00
       23  1    1    2    0    0 -3.8091459795e+01 +2.9322046792e+01 +9.8763042775e+00 1.0355449999e+02 9.1188000000e+01 0.0000e+00 -1.0000e+00
       25  1    1    2    0    0 +3.8091459795e+01 -2.9322046792e+01 +2.1820981880e+00 1.3394216397e+02 1.2500000000e+02 0.0000e+00 0.0000e+00
</event>
<event>
 4      1 +2.1368000e-01 2.49773100e+02 7.54677100e-03 1.11344800e-01
      -11 -1    0    0    0    0 +0.0000000000e+00 +0.0000000000e+00 +1.2478565738e+02 1.2478565738e+02 0.0000000000e+00 0.0000e+00 1.0000e+00
       11 -1    0    0    0    0 -0.0000000000e+00 -0.0000000000e+00 -1.2498749146e+02 1.2498749146e+02 0.0000000000e+00 0.0000e+00 -1.0000e+00
       23  1    1    2    0    0 +5.8849401969e+01 -1.2254582788e+01 +1.4984463587e+01 1.1024160922e+02 9.1188000000e+01 0.0000e+00 1.0000e+00
       25  1    1    2    0    0 -5.8849401969e+01 +1.2254582788e+01 -1.5186297663e+01 1.3953153962e+02 1.2500000000e+02 0.0000e+00 0.0000e+00
</event>
<event>
 4      1 +2.1368000e-01 2.46079400e+02 7.54677100e-03 1.11580800e-01
      -11 -1    0    0    0    0 +0.0000000000e+00 +0.0000000000e+00 +1.2498241312e+02 1.2498241312e+02 0.0000000000e+00 0.0000e+00 -1.0000e+00
       11 -1    0    0    0    0 -0.0000000000e+00 -0.0000000000e+00 -1.2112714807e+02 1.2112714807e+02 0.0000000000e+00 0.0000e+00 1.0000e+00
       23  1    1    2    0    0 -1.9044211766e+01 +1.1034977069e+00 -5.3314827231e+01 1.0733881803e+02 9.1188000000e+01 0.0000e+00 1.0000e+00
       25  1    1    2    0    0 +1.9044211766e+01 -1.1034977069e+00 +5.7170092280e+01 1.3877074317e+02 1.2500000000e+02 0.0000e+00 0.0000e+00
</event>
<event>
 4      1 +2.1368000e-01 2.49025800e+02 7.54677100e-03 1.11392200e-01
      -11 -1    0    0    0    0 +0.0000000000e+00 +0.0000000000e+00 +1.2404021506e+02 1.2404021506e+02 0.0000000000e+00 0.0000e+00 1.0000e+00
       11 -1    0    0    0    0 -0.0000000000e+00 -0.0000000000e+00 -1.2498738488e+02 1.2498738488e+02 0.0000000000e+00 0.0000e+00 -1.0000e+00
       23  1    1    2    0    0 +1.0074967098e+01 -1.2086586684e+01 -5.9588715734e+01 1.1006205943e+02 9.1188000000e+01 0.0000e+00 -1.0000e+00
       25  1    1    2    0    0 -1.0074967098e+01 +1.2086586684e+01 +5.8641545911e+01 1.3896554050e+02 1.2500000000e+02 0.0000e+00 0.0000e+00
</event>
<event>
 4      1 +2.1368000e-01 2.47050500e+02 7.54677100e-03 1.11518300e-01
      -11 -1    0    0    0    0 +0.0000000000e+00 +0.0000000000e+00 +1.2498280749e+02 1.2498280749e+02 0.0000000000e+00 0.0000e+00 1.0000e+00
       11 -1    0    0    0    0 -0.0000000000e+00 -0.0000000000e+00 -1.2208467539e+02 1.2208467539e+02 0.0000000000e+00 0.0000e+00 -1.0000e+00
       23  1    1    2    0    0 -4.5813813411e+01 +1.5011844762e+01 +3.5672105105e+01 1.0914216146e+02 9.1188000000e+01 0.0000e+00 0.0000e+00
       25  1    1    2    0    0 +4.5813813411e+01 -1.5011844762e+01 -3.2773973001e+01 1.3792532142e+02 1.2500000000e+02 0.0000e+00 0.0000e+00
</event>
<event>
 4      1 +2.1368000e-01 2.49937800e+02 7.54677100e-03 1.11334400e-01
      -11 -1    0    0    0    0 +0.0000000000e+00 +0.0000000000e+00 +1.2498803032e+02 1.2498803032e+02 0.0000000000e+00 0.0000e+00 1.0000e+00
       11 -1    0    0    0    0 -0.0000000000e+00 -0.0000000000e+00 -1.2494972648e+02 1.2494972648e+02 0.0000000000e+00 0.0000e+00 -1.0000e+00
       23  1    1    2    0    0 +2.1079064028e+01 -5.7615330364e+01 -9.8358791560e+00 1.1034423001e+02 9.1188000000e+01 0.0000e+00 -1.0000e+00
       25  1    1    2    0    0 -2.1079064028e+01 +5.7615330364e+01 +9.8741829926e+00 1.3959352679e+02 1.2500000000e+02 0.0000e+00 0.0000e+00
</event>
<event>
 4      1 +2.1368000e-01 2.49975000e+02 7.54677100e-03 1.11332100e-01
      -11 -1    0    0    0    0 +0.0000000000e+00 +0.0000000000e+00 +1.2498835378e+02 1.2498835378e+02 0.0000000000e+00 0.0000e+00 1.0000e+00
       11 -1    0    0    0    0 -0.0000000000e+00 -0.0000000000e+00 -1.2498661244e+02 1.2498661244e+02 0.0000000000e+00 0.0000e+00 -1.0000e+00
       23  1    1    2    0    0 +3.5306804176e+01 +2.6652712047e+01 +4.3688070087e+01 1.1036682605e+02 9.1188000000e+01 0.0000e+00 1.0000e+00
       25  1    1    2    0    0 -3.5306804176e+01 -2.6652712047e+01 -4.3686328744e+01 1.3960814016e+02 1.2500000000e+02 0.0000e+00 0.0000e+00
</event>
<event>
 4      1 +2.1368000e-01 2.49975000e+02 7.54677100e-03 1.11332100e-01
      -11 -1    0    0    0    0 +0.0000000000e+00 +0.0000000000e+00 +1.2498836870e+02 1.2498836870e+02 0.0000000000e+00 0.0000e+00 1.0000e+00
       11 -1    0    0    0    0 -0.0000000000e+00 -0.0000000000e+00 -1.2498662736e+02 1.2498662736e+02 0.0000000000e+00 0.0000e+00 -1.0000e+00
       23  1    1    2    0    0 +1.6884005665e+01 -5.7600778291e+01 +1.6205772542e+01 1.1036665128e+02 9.1188000000e+01 0.0000e+00 1.0000e+00
       25  1    1    2    0    0 -1.6884005665e+01 +5.7600778291e+01 -1.6204031199e+01 1.3960834479e+02 1.2500000000e+02 0.0000e+00 0.0000e+00
</event>
<event>
 4      1 +2.1368000e-01 2.28789800e+02 7.54677100e-03 1.12749400e-01
      -11 -1    0    0    0    0 +0.0000000000e+00 +0.0000000000e+00 +1.0470825961e+02 1.0470825961e+02 0.0000000000e+00 0.0000e+00 1.0000e+00
       11 -1    0    0    0    0 -0.0000000000e+00 -0.0000000000e+00 -1.2497766471e+02 1.2497766471e+02 0.0000000000e+00 0.0000e+00 -1.0000e+00
       23  1    1    2    0    0 +3.4555644830e+01 +1.0250060464e+01 -1.7244238545e+01 9.9557879829e+01 9.1188000000e+01 0.0000e+00 0.0000e+00
       25  1    1    2    0    0 -3.4555644830e+01 -1.0250060464e+01 -3.0251665556e+00 1.3012804449e+02 1.2500000000e+02 0.0000e+00 0.0000e+00
</event>
<event>
 4      1 +2.1368000e-01 2.49975000e+02 7.54677100e-03 1.11332100e-01
      -11 -1    0    0    0    0 +0.0000000000e+00 +0.0000000000e+00 +1.2498749830e+02 1.2498749830e+02 0.0000000000e+00 0.0000e+00 1.0000e+00
       11 -1    0    0    0    0 -0.0000000000e+00 -0.0000000000e+00 -1.2498749830e+02 1.2498749830e+02 0.0000000000e+00 0.0000e+00 -1.0000e+00
       23  1    1    2    0    0 -1.3412626776e+01 -6.0619496002e+01 -3.3014644262e+00 1.1036653870e+02 9.1188000000e+01 0.0000e+00 -1.0000e+00
       25  1    1    2    0    0 +1.3412626776e+01 +6.0619496002e+01 +3.3014644262e+00 1.3960845791e+02 1.2500000000e+02 0.0000e+00 0.0000e+00
</event>
<event>
 4      1 +2.1368000e-01 2.49474300e+02 7.54677100e-03 1.11363700e-01
      -11 -1    0    0    0    0 +0.0000000000e+00 +0.0000000000e+00 +1.2477887173e+02 1.2477887173e+02 0.0000000000e+00 0.0000e+00 1.0000e+00
       11 -1    0    0    0    0 -0.0000000000e+00 -0.0000000000e+00 -1.2469545410e+02 1.2469545410e+02 0.0000000000e+00 0.0000e+00 -1.0000e+00
       23  1    1    2    0    0 +5.8199539684e+01 -6.1408101620e+00 +1.9503907002e+01 1.1009336811e+02 9.1188000000e+01 0.0000e+00 1.0000e+00
       25  1    1    2    0    0 -5.8199539684e+01 +6.1408101620e+00 -1.9420489371e+01 1.3938095772e+02 1.2500000000e+02 0.0000e+00 0.0000e+00
</event>
<event>
 4      1 +2.1368000e-01 2.49899600e+02 7.54677100e-03 1.11336800e-01
      -11 -1    0    0    0    0 +0.0000000000e+00 +0.0000000000e+00 +1.2491236172e+02 1.2491236172e+02 0.0000000000e+00 0.0000e+00 1.0000e+00
       11 -1    0    0    0    0 -0.0000000000e+00 -0.0000000000e+00 -1.2498721739e+02 1.2498721739e+02 0.0000000000e+00 0.0000e+00 -1.0000e+00
       23  1    1    2    0    0 -5.7871109316e+01 -1.5367089913e+01 -1.6495478174e+01 1.1032934737e+02 9.1188000000e+01 0.0000e+00 0.0000e+00
       25  1    1    2    0    0 +5.7871109316e+01 +1.5367089913e+01 +1.6420622499e+01 1.3957023174e+02 1.2500000000e+02 0.0000e+00 0.0000e+00
</event>
<event>
 4      1 +2.1368000e-01 2.49965500e+02 7.54677100e-03 1.11332700e-01
      -11 -1    0    0    0    0 +0.0000000000e+00 +0.0000000000e+00 +1.2497841410e+02 1.2497841410e+02 0.0000000000e+00 0.0000e+00 -1.0000e+00
       11 -1    0    0    0    0 -0.0000000000e+00 -0.0000000000e+00 -1.2498712049e+02 1.2498712049e+02 0.0000000000e+00 0.0000e+00 1.0000e+00
       23  1    1    2    0    0 +4.6125857649e+01 +1.5013313630e+00 -4.1651248843e+01 1.1036270481e+02 9.1188000000e+01 0.0000e+00 1.0000e+00
       25  1    1    2    0    0 -4.6125857649e+01 -1.5013313630e+00 +4.1642542458e+01 1.3960282978e+02 1.2500000000e+02 0.0000e+00 0.0000e+00
</event>
<event>
 4      1 +2.1368000e-01 2.31260300e+02 7.54677100e-03 1.12575600e-01
      -11 -1    0    0    0    0 +0.0000000000e+00 +0.0000000000e+00 +1.2498830540e+02 1.2498830540e+02 0.0000000000e+00 0.0000e+00 -1.0000e+00
       11 -1    0    0    0    0 -0.0000000000e+00 -0.0000000000e+00 -1.0697265522e+02 1.0697265522e+02 0.0000000000e+00 0.0000e+00 1.0000e+00
       23  1    1    2    0    0 +3.4418112760e+01 +1.3716828406e+01 -8.9236850190e+00 9.8831378447e+01 9.1188000000e+01 0.0000e+00 -1.0000e+00
       25  1    1    2    0    0 -3.4418112760e+01 -1.3716828406e+01 +2.6939335200e+01 1.3312958217e+02 1.2500000000e+02 0.0000e+00 0.0000e+00
</event>
<event>
 4      1 +2.1368000e-01 2.48186600e+02 7.54677100e-03 1.11445600e-01
      -11 -1    0    0    0    0 +0.0000000000e+00 +0.0000000000e+00 +1.2498773949e+02 1.2498773949e+02 0.0000000000e+00 0.0000e+00 -1.0000e+00
       11 -1    0    0    0    0 -0.0000000000e+00 -0.0000000000e+00 -1.2320525062e+02 1.2320525062e+02 0.0000000000e+00 0.0000e+00 1.0000e+00
       23  1    1    2    0    0 +5.8976462195e+01 +1.1960078993e+01 +5.7472519847e+00 1.0940543328e+02 9.1188000000e+01 0.0000e+00 0.0000e+00
       25  1    1    2    0    0 -5.8976462195e+01 -1.1960078993e+01 -3.9647631106e+00 1.3878755682e+02 1.2500000000e+02 0.0000e+00 0.0000e+00
</event>
<event>
 4      1 +2.1368000e-01 2.47806000e+02 7.54677100e-03 1.11469900e-01
      -11 -1    0    0    0    0 +0.0000000000e+00 +0.0000000000e+00 +1.2285360374e+02 1.2285360374e+02 0.0000000000e+00 0.0000e+00 1.0000e+00
       11 -1    0    0    0    0 -0.0000000000e+00 -0.0000000000e+00 -1.2496133750e+02 1.2496133750e+02 0.0000000000e+00 0.0000e+00 -1.0000e+00
       23  1    1    2    0    0 +2.6812296729e+01 +4.6157092422e+01 +2.6458327835e+01 1.0892507008e+02 9.1188000000e+01 0.0000e+00 0.0000e+00
       25  1    1    2    0    0 -2.6812296729e+01 -4.6157092422e+01 -2.8566061596e+01 1.3888987116e+02 1.2500000000e+02 0.0000e+00 0.0000e+00
</event>
<event>
 4      1 +2.1368000e-01 2.46504900e+02 7.54677100e-03 1.11553400e-01
      -11 -1    0    0    0    0 +0.0000000000e+00 +0.0000000000e+00 +1.2463213679e+02 1.2463213679e+02 0.0000000000e+00 0.0000e+00 1.0000e+00
       11 -1    0    0    0    0 -0.0000000000e+00 -0.0000000000e+00 -1.2188808159e+02 1.2188808159e+02 0.0000000000e+00 0.0000e+00 -1.0000e+00
       23  1    1    2    0    0 +9.3678299430e+00 +5.5890629088e+01 +1.6352588853e+01 1.0860099983e+02 9.1188000000e+01 0.0000e+00 0.0000e+00
       25  1    1    2    0    0 -9.3678299430e+00 -5.5890629088e+01 -1.3608533650e+01 1.3791921855e+02 1.2500000000e+02 0.0000e+00 0.0000e+00
</event>
<event>
 4      1 +2.1368000e-01 2.49975000e+02 7.54677100e-03 1.11332100e-01
      -11 -1    0    0    0    0 +0.0000000000e+00 +0.0000000000e+00 +1.2498836965e+02 1.2498836965e+02 0.0000000000e+00 0.0000e+00 1.0000e+00
       11 -1    0    0    0    0 -0.0000000000e+00 -0.0000000000e+00 -1.2498662831e+02 1.2498662831e+02 0.0000000000e+00 0.0000e+00 -1.0000e+00
       23  1    1    2    0    0 +9.0026065634e+00 +6.0931019341e+01 -8.4777713669e+00 1.1036648039e+02 9.1188000000e+01 0.0000e+00 0.0000e+00
       25  1    1    2    0    0 -9.0026065634e+00 -6.0931019341e+01 +8.4795127098e+00 1.3960851757e+02 1.2500000000e+02 0.0000e+00 0.0000e+00
</event>
<event>
 4      1 +2.1368000e-01 2.49971400e+02 7.54677100e-03 1.11332300e-01
      -11 -1    0    0    0    0 +0.0000000000e+00 +0.0000000000e+00 +1.2498394471e+02 1.2498394471e+02 0.0000000000e+00 0.0000e+00 1.0000e+00
       11 -1    0    0    0    0 -0.0000000000e+00 -0.0000000000e+00 -1.2498742737e+02 1.2498742737e+02 0.0000000000e+00 0.0000e+00 -1.0000e+00
       23  1    1    2    0    0 +4.2673989536e+01 -3.1310751005e+01 -3.2615065301e+01 1.1036496881e+02 9.1188000000e+01 0.0000e+00 0.0000e+00
       25  1    1    2    0    0 -4.2673989536e+01 +3.1310751005e+01 +3.2611582642e+01 1.3960640327e+02 1.2500000000e+02 0.0000e+00 0.0000e+00
</event>
<event>
 4      1 +2.1368000e-01 2.43344300e+02 7.54677100e-03 1.11758500e-01
      -11 -1    0    0    0    0 +0.0000000000e+00 +0.0000000000e+00 +1.2494516386e+02 1.2494516386e+02 0.0000000000e+00 0.0000e+00 1.0000e+00
       11 -1    0    0    0    0 -0.0000000000e+00 -0.0000000000e+00 -1.1848490881e+02 1.1848490881e+02 0.0000000000e+00 0.0000e+00 -1.0000e+00
       23  1    1    2    0    0 -4.4589619103e+00 +5.5117576579e+01 +4.1517225095e+00 1.0672543152e+02 9.1188000000e+01 0.0000e+00 1.0000e+00
       25  1    1    2    0    0 +4.4589619103e+00 -5.5117576579e+01 +2.3085325474e+00 1.3670464115e+02 1.2500000000e+02 0.0000e+00 0.0000e+00
</event>
<event>
 4      1 +2.1368000e-01 2.46052600e+02 7.54677100e-03 1.11582500e-01
      -11 -1    0    0    0    0 +0.0000000000e+00 +0.0000000000e+00 +1.2109624965e+02 1.2109624965e+02 0.0000000000e+00 0.0000e+00 1.0000e+00
       11 -1    0    0    0    0 -0.0000000000e+00 -0.0000000000e+00 -1.2498707119e+02 1.2498707119e+02 0.0000000000e+00 0.0000e+00 -1.0000e+00
       23  1    1    2    0    0 +1.3650145963e+01 -1.9436681321e+01 +5.1417405473e+01 1.0734575909e+02 9.1188000000e+01 0.0000e+00 1.0000e+00
       25  1    1    2    0    0 -1.3650145963e+01 +1.9436681321e+01 -5.5308227006e+01 1.3873756175e+02 1.2500000000e+02 0.0000e+00 0.0000e+00
</event>
<event>
 4      1 +2.1368000e-01 2.49975000e+02 7.54677100e-03 1.11332100e-01
      -11 -1    0    0    0    0 +0.0000000000e+00 +0.0000000000e+00 +1.2498750000e+02 1.2498750000e+02 0.0000000000e+00 0.0000e+00 1.0000e+00
       11 -1    0    0    0    0 -0.0000000000e+00 -0.0000000000e+00 -1.2498750000e+02 1.2498750000e+02 0.0000000000e+00 0.0000e+00 -1.0000e+00
       23  1    1    2    0    0 +3.5933093720e+01 -1.1100250349e+01 +4.9508778577e+01 1.1036654059e+02 9.1188000000e+01 0.0000e+00 0.0000e+00
       25  1    1    2    0    0 -3.5933093720e+01 +1.1100250349e+01 -4.9508778577e+01 1.3960845941e+02 1.2500000000e+02 0.0000e+00 0.0000e+00
</event>
<event>
 4      1 +2.1368000e-01 2.49975000e+02 7.54677100e-03 1.11332100e-01
      -11 -1    0    0    0    0 +0.0000000000e+00 +0.0000000000e+00 +1.2498750000e+02 1.2498750000e+02 0.0000000000e+00 0.0000e+00 1.0000e+00
       11 -1    0    0    0    0 -0.0000000000e+00 -0.0000000000e+00 -1.2498750000e+02 1.2498750000e+02 0.0000000000e+00 0.0000e+00 -1.0000e+00
       23  1    1    2    0    0 -7.6075528851e+00 -4.6212053943e+01 -4.0891235580e+01 1.1036654059e+02 9.1188000000e+01 0.0000e+00 -1.0000e+00
       25  1    1    2    0    0 +7.6075528851e+00 +4.6212053943e+01 +4.0891235580e+01 1.3960845941e+02 1.2500000000e+02 0.0000e+00 0.0000e+00
</event>
<event>
 4      1 +2.1368000e-01 2.48910600e+02 7.54677100e-03 1.11399500e-01
      -11 -1    0    0    0    0 +0.0000000000e+00 +0.0000000000e+00 +1.2392497781e+02 1.2392497781e+02 0.0000000000e+00 0.0000e+00 -1.0000e+00
       11 -1    0    0    0    0 -0.0000000000e+00 -0.0000000000e+00 -1.2498788548e+02 1.2498788548e+02 0.0000000000e+00 0.0000e+00 1.0000e+00
       23  1    1    2    0    0 -2.1756200745e+01 -3.4776203818e-01 +5.6638219482e+01 1.0952895717e+02 9.1188000000e+01 0.0000e+00 -1.0000e+00
       25  1    1    2    0    0 +2.1756200745e+01 +3.4776203818e-01 -5.7701127156e+01 1.3938390612e+02 1.2500000000e+02 0.0000e+00 0.0000e+00
</event>
<event>
 4      1 +2.1368000e-01 2.47459200e+02 7.54677100e-03 1.11492100e-01
      -11 -1    0    0    0    0 +0.0000000000e+00 +0.0000000000e+00 +1.2498831041e+02 1.2498831041e+02 0.0000000000e+00 0.0000e+00 1.0000e+00
       11 -1    0    0    0    0 -0.0000000000e+00 -0.0000000000e+00 -1.2248359683e+02 1.2248359683e+02 0.0000000000e+00 0.0000e+00 -1.0000e+00
       23  1    1    2    0    0 +4.5802023484e+01 -3.4356519068e+01 -1.5596421359e+01 1.0879657835e+02 9.1188000000e+01 0.0000e+00 -1.0000e+00
       25  1    1    2    0    0 -4.5802023484e+01 +3.4356519068e+01 +1.8101134936e+01 1.3867532889e+02 1.2500000000e+02 0.0000e+00 0.0000e+00
</event>
<event>
 4      1 +2.1368000e-01 2.49974900e+02 7.54677100e-03 1.11332100e-01
      -11 -1    0    0    0    0 +0.0000000000e+00 +0.0000000000e+00 +1.2498746760e+02 1.2498746760e+02 0.0000000000e+00 0.0000e+00 1.0000e+00
       11 -1    0    0    0    0 -0.0000000000e+00 -0.0000000000e+00 -1.2498746760e+02 1.2498746760e+02 0.0000000000e+00 0.0000e+00 -1.0000e+00
       23  1    1    2    0    0 -5.8708758851e+01 -2.0403135010e+01 +1.5835607999e+00 1.1036650440e+02 9.1188000000e+01 0.0000e+00 0.0000e+00
       25  1    1    2    0    0 +5.8708758851e+01 +2.0403135010e+01 -1.5835607999e+00 1.3960843079e+02 1.2500000000e+02 0.0000e+00 0.0000e+00
</event>
<event>
 4      1 +2.1368000e-01 2.49974300e+02 7.54677100e-03 1.11332100e-01
      -11 -1    0    0    0    0 +0.0000000000e+00 +0.0000000000e+00 +1.2498716304e+02 1.2498716304e+02 0.0000000000e+00 0.0000e+00 -1.0000e+00
       11 -1    0    0    0    0 -0.0000000000e+00 -0.0000000000e+00 -1.2498716304e+02 1.2498716304e+02 0.0000000000e+00 0.0000e+00 1.0000e+00
       23  1    1    2    0    0 +1.4922997087e+01 +3.3575543329e+01 -5.0154021842e+01 1.1036616421e+02 9.1188000000e+01 0.0000e+00 0.0000e+00
       25  1    1    2    0    0 -1.4922997087e+01 -3.3575543329e+01 +5.0154021842e+01 1.3960816186e+02 1.2500000000e+02 0.0000e+00 0.0000e+00
</event>
<event>
 4      1 +2.1368000e-01 2.49969800e+02 7.54677100e-03 1.11332400e-01
      -11 -1    0    0    0    0 +0.0000000000e+00 +0.0000000000e+00 +1.2498227132e+02 1.2498227132e+02 0.0000000000e+00 0.0000e+00 1.0000e+00
       11 -1    0    0    0    0 -0.0000000000e+00 -0.0000000000e+00 -1.2498749524e+02 1.2498749524e+02 0.0000000000e+00 0.0000e+00 -1.0000e+00
       23  1    1    2    0    0 +6.0929196562e+01 -1.2349274141e+01 +6.9873370766e-02 1.1036361625e+02 9.1188000000e+01 0.0000e+00 0.0000e+00
       25  1    1    2    0    0 -6.0929196562e+01 +1.2349274141e+01 -7.5097290153e-02 1.3960615031e+02 1.2500000000e+02 0.0000e+00 0.0000e+00
</event>
<event>
 4      1 +2.1368000e-01 2.49974800e+02 7.54677100e-03 1.11332100e-01
      -11 -1    0    0    0    0 +0.0000000000e+00 +0.0000000000e+00 +1.2498829186e+02 1.2498829186e+02 0.0000000000e+00 0.0000e+00 -1.0000e+00
       11 -1    0    0    0    0 -0.0000000000e+00 -0.0000000000e+00 -1.2498655052e+02 1.2498655052e+02 0.0000000000e+00 0.0000e+00 1.0000e+00
       23  1    1    2    0    0 +1.2280668114e+01 +1.3786402830e+00 -6.0931874720e+01 1.1036602810e+02 9.1188000000e+01 0.0000e+00 1.0000e+00
       25  1    1    2    0    0 -1.2280668114e+01 -1.3786402830e+00 +6.0933616062e+01 1.3960881428e+02 1.2500000000e+02 0.0000e+00 0.0000e+00
</event>
<event>
 4      1 +2.1368000e-01 2.49947900e+02 7.54677100e-03 1.11333800e-01
      -11 -1    0    0    0    0 +0.0000000000e+00 +0.0000000000e+00 +1.2498786434e+02 1.2498786434e+02 0.0000000000e+00 0.0000e+00 1.0000e+00
       11 -1    0    0    0    0 -0.0000000000e+00 -0.0000000000e+00 -1.2496000588e+02 1.2496000588e+02 0.0000000000e+00 0.0000e+00 -1.0000e+00
       23  1    1    2    0    0 +2.4679885491e+01 -5.1412718619e+01 -2.4682094250e+01 1.1034863617e+02 9.1188000000e+01 0.0000e+00 0.0000e+00
       25  1    1    2    0    0 -2.4679885491e+01 +5.1412718619e+01 +2.4709952713e+01 1.3959923405e+02 1.2500000000e+02 0.0000e+00 0.0000e+00
</event>
<event>
 4      1 +2.1368000e-01 2.47978500e+02 7.54677100e-03 1.11458900e-01
      -11 -1    0    0    0    0 +0.0000000000e+00 +0.0000000000e+00 +1.2447300722e+02 1.2447300722e+02 0.0000000000e+00 0.0000e+00 -1.0000e+00
       11 -1    0    0    0    0 -0.0000000000e+00 -0.0000000000e+00 -1.2350737038e+02 1.2350737038e+02 0.0000000000e+00 0.0000e+00 1.0000e+00
       23  1    1    2    0    0 +6.7291959932e+00 +2.8845771358e+01 -5.1949355124e+01 1.0904745502e+02 9.1188000000e+01 0.0000e+00 1.0000e+00
       25  1    1    2    0    0 -6.7291959932e+00 -2.8845771358e+01 +5.2914991965e+01 1.3893292259e+02 1.2500000000e+02 0.0000e+00 0.0000e+00
</event>
<event>
 4      1 +2.1368000e-01 2.49874700e+02 7.54677100e-03 1.11338400e-01
      -11 -1    0    0    0    0 +0.0000000000e+00 +0.0000000000e+00 +1.2498784396e+02 1.2498784396e+02 0.0000000000e+00 0.0000e+00 1.0000e+00
       11 -1    0    0    0    0 -0.0000000000e+00 -0.0000000000e+00 -1.2488688588e+02 1.2488688588e+02 0.0000000000e+00 0.0000e+00 -1.0000e+00
       23  1    1    2    0    0 -9.9592913793e+00 +6.0443277264e+01 -9.9845775571e+00 1.1030648387e+02 9.1188000000e+01 0.0000e+00 0.0000e+00
       25  1    1    2    0    0 +9.9592913793e+00 -6.0443277264e+01 +1.0085535637e+01 1.3956824596e+02 1.2500000000e+02 0.0000e+00 0.0000e+00
</event>
<event>
 4      1 +2.1368000e-01 2.49975000e+02 7.54677100e-03 1.11332100e-01
      -11 -1    0    0    0    0 +0.0000000000e+00 +0.0000000000e+00 +1.2498836864e+02 1.2498836864e+02 0.0000000000e+00 0.0000e+00 1.0000e+00
       11 -1    0    0    0    0 -0.0000000000e+00 -0.0000000000e+00 -1.2498662730e+02 1.2498662730e+02 0.0000000000e+00 0.0000e+00 -1.0000e+00
       23  1    1    2    0    0 +2.0249906500e+01 +1.9032493595e+00 -5.8751595940e+01 1.1036612905e+02 9.1188000000e+01 0.0000e+00 -1.0000e+00
       25  1    1    2    0    0 -2.0249906500e+01 -1.9032493595e+00 +5.8753337283e+01 1.3960886689e+02 1.2500000000e+02 0.0000e+00 0.0000e+00
</event>
<event>
 4      1 +2.1368000e-01 2.49966200e+02 7.54677100e-03 1.11332600e-01
      -11 -1    0    0    0    0 +0.0000000000e+00 +0.0000000000e+00 +1.2497876461e+02 1.2497876461e+02 0.0000000000e+00 0.0000e+00 1.0000e+00
       11 -1    0    0    0    0 -0.0000000000e+00 -0.0000000000e+00 -1.2498747102e+02 1.2498747102e+02 0.0000000000e+00 0.0000e+00 -1.0000e+00
       23  1    1    2    0    0 -1.7010145502e+01 +1.5888373075e+01 -5.7646328675e+01 1.1036365345e+02 9.1188000000e+01 0.0000e+00 -1.0000e+00
       25  1    1    2    0    0 +1.7010145502e+01 -1.5888373075e+01 +5.7637622265e+01 1.3960258217e+02 1.2500000000e+02 0.0000e+00 0.0000e+00
</event>
<event>
 4      1 +2.1368000e-01 2.49965500e+02 7.54677100e-03 1.11332700e-01
      -11 -1    0    0    0    0 +0.0000000000e+00 +0.0000000000e+00 +1.2497837477e+02 1.2497837477e+02 0.0000000000e+00 0.0000e+00 1.0000e+00
       11 -1    0    0    0    0 -0.0000000000e+00 -0.0000000000e+00 -1.2498708115e+02 1.2498708115e+02 0.0000000000e+00 0.0000e+00 -1.0000e+00
       23  1    1    2    0    0 +3.2819135281e+01 +4.5933874080e+01 +2.6021700241e+01 1.1036030381e+02 9.1188000000e+01 0.0000e+00 0.0000e+00
       25  1    1    2    0    0 -3.2819135281e+01 -4.5933874080e+01 -2.6030406623e+01 1.3960515212e+02 1.2500000000e+02 0.0000e+00 0.0000e+00
</event>
<event>
 4      1 +2.1368000e-01 2.27445700e+02 7.54677100e-03 1.12845100e-01
      -11 -1    0    0    0    0 +0.0000000000e+00 +0.0000000000e+00 +1.1906323517e+02 1.1906323517e+02 0.0000000000e+00 0.0000e+00 1.0000e+00
       11 -1    0    0    0    0 -0.0000000000e+00 -0.0000000000e+00 -1.0862201038e+02 1.0862201038e+02 0.0000000000e+00 0.0000e+00 -1.0000e+00
       23  1    1    2    0    0 +1.4482350531e+01 -1.1852264411e+01 -2.5056912752e+01 9.6401840590e+01 9.1188000000e+01 0.0000e+00 0.0000e+00
       25  1    1    2    0    0 -1.4482350531e+01 +1.1852264411e+01 +3.5498137548e+01 1.3128340496e+02 1.2500000000e+02 0.0000e+00 0.0000e+00
</event>
<event>
 4      1 +2.1368000e-01 2.49408400e+02 7.54677100e-03 1.11367900e-01
      -11 -1    0    0    0    0 +0.0000000000e+00 +0.0000000000e+00 +1.2498773237e+02 1.2498773237e+02 0.0000000000e+00 0.0000e+00 -1.0000e+00
       11 -1    0    0    0    0 -0.0000000000e+00 -0.0000000000e+00 -1.2442133583e+02 1.2442133583e+02 0.0000000000e+00 0.0000e+00 1.0000e+00
       23  1    1    2    0    0 +3.5492318686e+01 +3.8681040640e+01 -3.1996592585e+01 1.0997709249e+02 9.1188000000e+01 0.0000e+00 0.0000e+00
       25  1    1    2    0    0 -3.5492318686e+01 -3.8681040640e+01 +3.2562989126e+01 1.3943197571e+02 1.2500000000e+02 0.0000e+00 0.0000e+00
</event>
<event>
 4      1 +2.1368000e-01 2.48917400e+02 7.54677100e-03 1.11399100e-01
      -11 -1    0    0    0    0 +0.0000000000e+00 +0.0000000000e+00 +1.2498781378e+02 1.2498781378e+02 0.0000000000e+00 0.0000e+00 -1.0000e+00
       11 -1    0    0    0    0 -0.0000000000e+00 -0.0000000000e+00 -1.2393182052e+02 1.2393182052e+02 0.0000000000e+00 0.0000e+00 1.0000e+00
       23  1    1    2    0    0 +5.0399201951e+01 -1.9429080687e+01 -2.8132904045e+01 1.0965527971e+02 9.1188000000e+01 0.0000e+00 1.0000e+00
       25  1    1    2    0    0 -5.0399201951e+01 +1.9429080687e+01 +2.9188897310e+01 1.3926435459e+02 1.2500000000e+02 0.0000e+00 0.0000e+00
</event>
<event>
 4      1 +2.1368000e-01 2.24122700e+02 7.54677100e-03 1.13084600e-01
      -11 -1    0    0    0    0 +0.0000000000e+00 +0.0000000000e+00 +1.0047222864e+02 1.0047222864e+02 0.0000000000e+00 0.0000e+00 -1.0000e+00
       11 -1    0    0    0    0 -0.0000000000e+00 -0.0000000000e+00 -1.2498724634e+02 1.2498724634e+02 0.0000000000e+00 0.0000e+00 1.0000e+00
       23  1    1    2    0    0 +6.5900921269e+00 -1.9402965776e+01 -3.1422249754e+01 9.8602806850e+01 9.1188000000e+01 0.0000e+00 1.0000e+00
       25  1    1    2    0    0 -6.5900921269e+00 +1.9402965776e+01 +6.9072320530e+00 1.2685666813e+02 1.2500000000e+02 0.0000e+00 0.0000e+00
</event>
<event>
 4      1 +2.1368000e-01 2.43223800e+02 7.54677100e-03 1.11766400e-01
      -11 -1    0    0    0    0 +0.0000000000e+00 +0.0000000000e+00 +1.2453503344e+02 1.2453503344e+02 0.0000000000e+00 0.0000e+00 1.0000e+00
       11 -1    0    0    0    0 -0.0000000000e+00 -0.0000000000e+00 -1.1875740354e+02 1.1875740354e+02 0.0000000000e+00 0.0000e+00 -1.0000e+00
       23  1    1    2    0    0 -2.9095150997e+01 -2.8424040055e+01 -3.4770509008e+01 1.0572934080e+02 9.1188000000e+01 0.0000e+00 -1.0000e+00
       25  1    1    2    0    0 +2.9095150997e+01 +2.8424040055e+01 +4.0548138907e+01 1.3756309619e+02 1.2500000000e+02 0.0000e+00 0.0000e+00
</event>
<event>
 4      1 +2.1368000e-01 2.49975000e+02 7.54677100e-03 1.11332100e-01
      -11 -1    0    0    0    0 +0.0000000000e+00 +0.0000000000e+00 +1.2498750000e+02 1.2498750000e+02 0.0000000000e+00 0.0000e+00 1.0000e+00
       11 -1    0    0    0    0 -0.0000000000e+00 -0.0000000000e+00 -1.2498750000e+02 1.2498750000e+02 0.0000000000e+00 0.0000e+00 -1.0000e+00
       23  1    1    2    0    0 -5.0740279566e+01 -2.8807210949e+01 -2.1473019471e+01 1.1036654059e+02 9.1188000000e+01 0.0000e+00 -1.0000e+00
       25  1    1    2    0    0 +5.0740279566e+01 +2.8807210949e+01 +2.1473019471e+01 1.3960845941e+02 1.2500000000e+02 0.0000e+00 0.0000e+00
</event>
<event>
 4      1 +2.1368000e-01 2.49975000e+02 7.54677100e-03 1.11332100e-01
      -11 -1    0    0    0    0 +0.0000000000e+00 +0.0000000000e+00 +1.2498750000e+02 1.2498750000e+02 0.0000000000e+00 0.0000e+00 -1.0000e+00
       11 -1    0    0    0    0 -0.0000000000e+00 -0.0000000000e+00 -1.2498750000e+02 1.2498750000e+02 0.0000000000e+00 0.0000e+00 1.0000e+00
       23  1    1    2    0    0 -4.2736991507e+01 -4.3403574665e+01 -1.2457977423e+01 1.1036654059e+02 9.1188000000e+01 0.0000e+00 -1.0000e+00
       25  1    1    2    0    0 +4.2736991507e+01 +4.3403574665e+01 +1.2457977423e+01 1.3960845941e+02 1.2500000000e+02 0.0000e+00 0.0000e+00
</event>
<event>
 4      1 +2.1368000e-01 2.49748300e+02 7.54677100e-03 1.11346400e-01
      -11 -1    0    0    0    0 +0.0000000000e+00 +0.0000000000e+00 +1.2498552229e+02 1.2498552229e+02 0.0000000000e+00 0.0000e+00 1.0000e+00
       11 -1    0    0    0    0 -0.0000000000e+00 -0.0000000000e+00 -1.2476283248e+02 1.2476283248e+02 0.0000000000e+00 0.0000e+00 -1.0000e+00
       23  1    1    2    0    0 +5.1415885272e+01 -2.3846549798e+01 -2.4908347016e+01 1.1021764056e+02 9.1188000000e+01 0.0000e+00 0.0000e+00
       25  1    1    2    0    0 -5.1415885272e+01 +2.3846549798e+01 +2.5131036820e+01 1.3953071421e+02 1.2500000000e+02 0.0000e+00 0.0000e+00
</event>
<event>
 4      1 +2.1368000e-01 2.48543700e+02 7.54677100e-03 1.11422900e-01
      -11 -1    0    0    0    0 +0.0000000000e+00 +0.0000000000e+00 +1.2356143098e+02 1.2356143098e+02 0.0000000000e+00 0.0000e+00 -1.0000e+00
       11 -1    0    0    0    0 -0.0000000000e+00 -0.0000000000e+00 -1.2498635402e+02 1.2498635402e+02 0.0000000000e+00 0.0000e+00 1.0000e+00
       23  1    1    2    0    0 +1.6768315457e+01 -5.3057986891e+01 +2.3729633188e+01 1.0942885000e+02 9.1188000000e+01 0.0000e+00 0.0000e+00
       25  1    1    2    0    0 -1.6768315457e+01 +5.3057986891e+01 -2.5154556228e+01 1.3911893500e+02 1.2500000000e+02 0.0000e+00 0.0000e+00
</event>
<event>
 4      1 +2.1368000e-01 2.49975000e+02 7.54677100e-03 1.11332100e-01
      -11 -1    0    0    0    0 +0.0000000000e+00 +0.0000000000e+00 +1.2498837046e+02 1.2498837046e+02 0.0000000000e+00 0.0000e+00 1.0000e+00
       11 -1    0    0    0    0 -0.0000000000e+00 -0.0000000000e+00 -1.2498662911e+02 1.2498662911e+02 0.0000000000e+00 0.0000e+00 -1.0000e+00
       23  1    1    2    0    0 +4.4218356108e+01 +4.2669028725e+01 +9.4671754901e+00 1.1036660629e+02 9.1188000000e+01 0.0000e+00 -1.0000e+00
       25  1    1    2    0    0 -4.4218356108e+01 -4.2669028725e+01 -9.4654341472e+00 1.3960839327e+02 1.2500000000e+02 0.0000e+00 0.0000e+00
</event>
<event>
 4      1 +2.1368000e-01 2.49975000e+02 7.54677100e-03 1.11332100e-01
      -11 -1    0    0    0    0 +0.0000000000e+00 +0.0000000000e+00 +1.2498837067e+02 1.2498837067e+02 0.0000000000e+00 0.0000e+00 -1.0000e+00
       11 -1    0    0    0    0 -0.0000000000e+00 -0.0000000000e+00 -1.2498662933e+02 1.2498662933e+02 0.0000000000e+00 0.0000e+00 1.0000e+00
       23  1    1    2    0    0 -1.3616401974e+01 -5.2337811392e+00 -6.0436993138e+01 1.1036611958e+02 9.1188000000e+01 0.0000e+00 1.0000e+00
       25  1    1    2    0    0 +1.3616401974e+01 +5.2337811392e+00 +6.0438734481e+01 1.3960888042e+02 1.2500000000e+02 0.0000e+00 0.0000e+00
</event>
<event>
 4      1 +2.1368000e-01 2.46807900e+02 7.54677100e-03 1.11533900e-01
      -11 -1    0    0    0    0 +0.0000000000e+00 +0.0000000000e+00 +1.2498887862e+02 1.2498887862e+02 0.0000000000e+00 0.0000e+00 -1.0000e+00
       11 -1    0    0    0    0 -0.0000000000e+00 -0.0000000000e+00 -1.2183914099e+02 1.2183914099e+02 0.0000000000e+00 0.0000e+00 1.0000e+00
       23  1    1    2    0    0 -5.7568107116e+01 +1.2676012911e+01 -3.2821377420e-01 1.0858235275e+02 9.1188000000e+01 0.0000e+00 0.0000e+00
       25  1    1    2    0    0 +5.7568107116e+01 -1.2676012911e+01 +3.4779513959e+00 1.3824566686e+02 1.2500000000e+02 0.0000e+00 0.0000e+00
</event>
<event>
 4      1 +2.1368000e-01 2.48985600e+02 7.54677100e-03 1.11394800e-01
      -11 -1    0    0    0    0 +0.0000000000e+00 +0.0000000000e+00 +1.2494111828e+02 1.2494111828e+02 0.0000000000e+00 0.0000e+00 1.0000e+00
       11 -1    0    0    0    0 -0.0000000000e+00 -0.0000000000e+00 -1.2404613577e+02 1.2404613577e+02 0.0000000000e+00 0.0000e+00 -1.0000e+00
       23  1    1    2    0    0 -5.4894370165e+01 -3.5875926668e+00 +2.7182009969e+01 1.0991076247e+02 9.1188000000e+01 0.0000e+00 0.0000e+00
       25  1    1    2    0    0 +5.4894370165e+01 +3.5875926668e+00 -2.6287027467e+01 1.3907649158e+02 1.2500000000e+02 0.0000e+00 0.0000e+00
</event>
<event>
 4      1 +2.1368000e-01 2.30615000e+02 7.54677100e-03 1.12620800e-01
      -11 -1    0    0    0    0 +0.0000000000e+00 +0.0000000000e+00 +1.0637599237e+02 1.0637599237e+02 0.0000000000e+00 0.0000e+00 1.0000e+00
       11 -1    0    0    0    0 -0.0000000000e+00 -0.0000000000e+00 -1.2498889934e+02 1.2498889934e+02 0.0000000000e+00 0.0000e+00 -1.0000e+00
       23  1    1    2    0    0 -1.7287557154e+01 +3.5432353281e+01 -3.2629495664e+00 9.9399242830e+01 9.1188000000e+01 0.0000e+00 0.0000e+00
       25  1    1    2    0    0 +1.7287557154e+01 -3.5432353281e+01 -1.5349957399e+01 1.3196564888e+02 1.2500000000e+02 0.0000e+00 0.0000e+00
</event>
<event>
 4      1 +2.1368000e-01 2.49973500e+02 7.54677100e-03 1.11332200e-01
      -11 -1    0    0    0    0 +0.0000000000e+00 +0.0000000000e+00 +1.2498761558e+02 1.2498761558e+02 0.0000000000e+00 0.0000e+00 1.0000e+00
       11 -1    0    0    0    0 -0.0000000000e+00 -0.0000000000e+00 -1.2498587424e+02 1.2498587424e+02 0.0000000000e+00 0.0000e+00 -1.0000e+00
       23  1    1    2    0    0 -5.1497124970e+01 +2.4478517921e+01 +2.4783505702e+01 1.1036586981e+02 9.1188000000e+01 0.0000e+00 0.0000e+00
       25  1    1    2    0    0 +5.1497124970e+01 -2.4478517921e+01 -2.4781764370e+01 1.3960762001e+02 1.2500000000e+02 0.0000e+00 0.0000e+00
</event>
<event>
 4      1 +2.1368000e-01 2.49954000e+02 7.54677100e-03 1.11333400e-01
      -11 -1    0    0    0    0 +0.0000000000e+00 +0.0000000000e+00 +1.2498136895e+02 1.2498136895e+02 0.0000000000e+00 0.0000e+00 1.0000e+00
       11 -1    0    0    0    0 -0.0000000000e+00 -0.0000000000e+00 -1.2497266296e+02 1.2497266296e+02 0.0000000000e+00 0.0000e+00 -1.0000e+00
       23  1    1    2    0    0 +4.4309321172e+01 -4.1652689913e+01 +1.2836404943e+01 1.1035527697e+02 9.1188000000e+01 0.0000e+00 0.0000e+00
       25  1    1    2    0    0 -4.4309321172e+01 +4.1652689913e+01 -1.2827698959e+01 1.3959875494e+02 1.2500000000e+02 0.0000e+00 0.0000e+00
</event>
<event>
 4      1 +2.1368000e-01 2.34378600e+02 7.54677100e-03 1.12359500e-01
      -11 -1    0    0    0    0 +0.0000000000e+00 +0.0000000000e+00 +1.2498618623e+02 1.2498618623e+02 0.0000000000e+00 0.0000e+00 1.0000e+00
       11 -1    0    0    0    0 -0.0000000000e+00 -0.0000000000e+00 -1.0987884506e+02 1.0987884506e+02 0.0000000000e+00 0.0000e+00 -1.0000e+00
       23  1    1    2    0    0 +4.1623490717e+01 +1.5332382288e+01 +1.2789181702e+01 1.0220768777e+02 9.1188000000e+01 0.0000e+00 0.0000e+00
       25  1    1    2    0    0 -4.1623490717e+01 -1.5332382288e+01 +2.3181594668e+00 1.3265734352e+02 1.2500000000e+02 0.0000e+00 0.0000e+00
</event>
<event>
 4      1 +2.1368000e-01 2.49975000e+02 7.54677100e-03 1.11332100e-01
      -11 -1    0    0    0    0 +0.0000000000e+00 +0.0000000000e+00 +1.2498749544e+02 1.2498749544e+02 0.0000000000e+00 0.0000e+00 -1.0000e+00
       11 -1    0    0    0    0 -0.0000000000e+00 -0.0000000000e+00 -1.2498749544e+02 1.2498749544e+02 0.0000000000e+00 0.0000e+00 1.0000e+00
       23  1    1    2    0    0 -6.1765809763e+01 -6.9720627119e+00 +1.3769165659e+00 1.1036653550e+02 9.1188000000e+01 0.0000e+00 0.0000e+00
       25  1    1    2    0    0 +6.1765809763e+01 +6.9720627119e+00 -1.3769165659e+00 1.3960845538e+02 1.2500000000e+02 0.0000e+00 0.0000e+00
</event>
<event>
 4      1 +2.1368000e-01 2.49954000e+02 7.54677100e-03 1.11333400e-01
      -11 -1    0    0    0    0 +0.0000000000e+00 +0.0000000000e+00 +1.2496653380e+02 1.2496653380e+02 0.0000000000e+00 0.0000e+00 -1.0000e+00
       11 -1    0    0    0    0 -0.0000000000e+00 -0.0000000000e+00 -1.2498742830e+02 1.2498742830e+02 0.0000000000e+00 0.0000e+00 1.0000e+00
       23  1    1    2    0    0 +2.0273300458e+01 -1.2606350503e+00 -5.8748756471e+01 1.1035970117e+02 9.1188000000e+01 0.0000e+00 1.0000e+00
       25  1    1    2    0    0 -2.0273300458e+01 +1.2606350503e+00 +5.8727861969e+01 1.3959426093e+02 1.2500000000e+02 0.0000e+00 0.0000e+00
</event>
<event>
 4      1 +2.1368000e-01 2.49845000e+02 7.54677100e-03 1.11340300e-01
      -11 -1    0    0    0    0 +0.0000000000e+00 +0.0000000000e+00 +1.2485812810e+02 1.2485812810e+02 0.0000000000e+00 0.0000e+00 -1.0000e+00
       11 -1    0    0    0    0 -0.0000000000e+00 -0.0000000000e+00 -1.2498692138e+02 1.2498692138e+02 0.0000000000e+00 0.0000e+00 1.0000e+00
       23  1    1    2    0    0 -4.0685018667e+01 -4.6799597555e+01 -2.0641522424e+00 1.1029499147e+02 9.1188000000e+01 0.0000e+00 0.0000e+00
       25  1    1    2    0    0 +4.0685018667e+01 +4.6799597555e+01 +1.9353589574e+00 1.3955005801e+02 1.2500000000e+02 0.0000e+00 0.0000e+00
</event>
<event>
 4      1 +2.1368000e-01 2.49975000e+02 7.54677100e-03 1.11332100e-01
      -11 -1    0    0    0    0 +0.0000000000e+00 +0.0000000000e+00 +1.2498749971e+02 1.2498749971e+02 0.0000000000e+00 0.0000e+00 -1.0000e+00
       11 -1    0    0    0    0 -0.0000000000e+00 -0.0000000000e+00 -1.2498749971e+02 1.2498749971e+02 0.0000000000e+00 0.0000e+00 1.0000e+00
       23  1    1    2    0    0 -4.2153882005e+01 +2.5057672228e+01 -3.8218911032e+01 1.1036654026e+02 9.1188000000e+01 0.0000e+00 1.0000e+00
       25  1    1    2    0    0 +4.2153882005e+01 -2.5057672228e+01 +3.8218911032e+01 1.3960845915e+02 1.2500000000e+02 0.0000e+00 0.0000e+00
</event>
<event>
 4      1 +2.1368000e-01 2.49962700e+02 7.54677100e-03 1.11332800e-01
      -11 -1    0    0    0    0 +0.0000000000e+00 +0.0000000000e+00 +1.2497525480e+02 1.2497525480e+02 0.0000000000e+00 0.0000e+00 -1.0000e+00
       11 -1    0    0    0    0 -0.0000000000e+00 -0.0000000000e+00 -1.2498744360e+02 1.2498744360e+02 0.0000000000e+00 0.0000e+00 1.0000e+00
       23  1    1    2    0    0 -4.8980151936e+01 +3.6716099434e+01 +1.0805640446e+01 1.1035914303e+02 9.1188000000e+01 0.0000e+00 0.0000e+00
       25  1    1    2    0    0 +4.8980151936e+01 -3.6716099434e+01 -1.0817829247e+01 1.3960355537e+02 1.2500000000e+02 0.0000e+00 0.0000e+00
</event>
<event>
 4      1 +2.1368000e-01 2.42963900e+02 7.54677100e-03 1.11783400e-01
      -11 -1    0    0    0    0 +0.0000000000e+00 +0.0000000000e+00 +1.2229878717e+02 1.2229878717e+02 0.0000000000e+00 0.0000e+00 -1.0000e+00
       11 -1    0    0    0    0 -0.0000000000e+00 -0.0000000000e+00 -1.2067059645e+02 1.2067059645e+02 0.0000000000e+00 0.0000e+00 1.0000e+00
       23  1    1    2    0    0 -9.5581699952e+00 +1.9150113875e+01 -4.9844195662e+01 1.0610268922e+02 9.1188000000e+01 0.0000e+00 1.0000e+00
       25  1    1    2    0    0 +9.5581699952e+00 -1.9150113875e+01 +5.1472386383e+01 1.3686669440e+02 1.2500000000e+02 0.0000e+00 0.0000e+00
</event>
<event>
 4      1 +2.1368000e-01 2.49974500e+02 7.54677100e-03 1.11332100e-01
      -11 -1    0    0    0    0 +0.0000000000e+00 +0.0000000000e+00 +1.2498724753e+02 1.2498724753e+02 0.0000000000e+00 0.0000e+00 -1.0000e+00
       11 -1    0    0    0    0 -0.0000000000e+00 -0.0000000000e+00 -1.2498724753e+02 1.2498724753e+02 0.0000000000e+00 0.0000e+00 1.0000e+00
       23  1    1    2    0    0 -4.3046707499e+01 +1.1576932181e+01 +4.3340688804e+01 1.1036625859e+02 9.1188000000e+01 0.0000e+00 -1.0000e+00
       25  1    1    2    0    0 +4.3046707499e+01 -1.1576932181e+01 -4.3340688804e+01 1.3960823647e+02 1.2500000000e+02 0.0000e+00 0.0000e+00
</event>
<event>
 4      1 +2.1368000e-01 2.49975000e+02 7.54677100e-03 1.11332100e-01
      -11 -1    0    0    0    0 +0.0000000000e+00 +0.0000000000e+00 +1.2498750000e+02 1.2498750000e+02 0.0000000000e+00 0.0000e+00 -1.0000e+00
       11 -1    0    0    0    0 -0.0000000000e+00 -0.0000000000e+00 -1.2498750000e+02 1.2498750000e+02 0.0000000000e+00 0.0000e+00 1.0000e+00
       23  1    1    2    0    0 -5.7152664927e+01 -2.2490836146e+01 +9.6569725834e+00 1.1036654059e+02 9.1188000000e+01 0.0000e+00 -1.0000e+00
       25  1    1    2    0    0 +5.7152664927e+01 +2.2490836146e+01 -9.6569725834e+00 1.3960845941e+02 1.2500000000e+02 0.0000e+00 0.0000e+00
</event>
<event>
 4      1 +2.1368000e-01 2.49975000e+02 7.54677100e-03 1.11332100e-01
      -11 -1    0    0    0    0 +0.0000000000e+00 +0.0000000000e+00 +1.2498836484e+02 1.2498836484e+02 0.0000000000e+00 0.0000e+00 -1.0000e+00
       11 -1    0    0    0    0 -0.0000000000e+00 -0.0000000000e+00 -1.2498662349e+02 1.2498662349e+02 0.0000000000e+00 0.0000e+00 1.0000e+00
       23  1    1    2    0    0 -3.1615494365e+01 -1.0772454112e+01 -5.2439056190e+01 1.1036616877e+02 9.1188000000e+01 0.0000e+00 1.0000e+00
       25  1    1    2    0    0 +3.1615494365e+01 +1.0772454112e+01 +5.2440797533e+01 1.3960881955e+02 1.2500000000e+02 0.0000e+00 0.0000e+00
</event>
<event>
 4      1 +2.1368000e-01 2.49869900e+02 7.54677100e-03 1.11338700e-01
      -11 -1    0    0    0    0 +0.0000000000e+00 +0.0000000000e+00 +1.2488271774e+02 1.2488271774e+02 0.0000000000e+00 0.0000e+00 -1.0000e+00
       11 -1    0    0    0    0 -0.0000000000e+00 -0.0000000000e+00 -1.2498715438e+02 1.2498715438e+02 0.0000000000e+00 0.0000e+00 1.0000e+00
       23  1    1    2    0    0 +4.5746251914e+01 -4.0853926019e+01 -9.5749787206e+00 1.1031180534e+02 9.1188000000e+01 0.0000e+00 0.0000e+00
       25  1    1    2    0    0 -4.5746251914e+01 +4.0853926019e+01 +9.4705420852e+00 1.3955806678e+02 1.2500000000e+02 0.0000e+00 0.0000e+00
</event>
<event>
 4      1 +2.1368000e-01 2.49970700e+02 7.54677100e-03 1.11332300e-01
      -11 -1    0    0    0    0 +0.0000000000e+00 +0.0000000000e+00 +1.2498363170e+02 1.2498363170e+02 0.0000000000e+00 0.0000e+00 1.0000e+00
       11 -1    0    0    0    0 -0.0000000000e+00 -0.0000000000e+00 -1.2498711433e+02 1.2498711433e+02 0.0000000000e+00 0.0000e+00 -1.0000e+00
       23  1    1    2    0    0 -4.3566538779e+00 -4.8303688862e+01 +3.8892815876e+01 1.1036362291e+02 9.1188000000e+01 0.0000e+00 0.0000e+00
       25  1    1    2    0    0 +4.3566538779e+00 +4.8303688862e+01 -3.8896298503e+01 1.3960712313e+02 1.2500000000e+02 0.0000e+00 0.0000e+00
</event>
<event>
 4      1 +2.1368000e-01 2.49718400e+02 7.54677100e-03 1.11348300e-01
      -11 -1    0    0    0    0 +0.0000000000e+00 +0.0000000000e+00 +1.2498798649e+02 1.2498798649e+02 0.0000000000e+00 0.0000e+00 1.0000e+00
       11 -1    0    0    0    0 -0.0000000000e+00 -0.0000000000e+00 -1.2473053216e+02 1.2473053216e+02 0.0000000000e+00 0.0000e+00 -1.0000e+00
       23  1    1    2    0    0 +4.0371889665e+01 +4.5726488834e+01 -1.0521365348e+01 1.1021230298e+02 9.1188000000e+01 0.0000e+00 0.0000e+00
       25  1    1    2    0    0 -4.0371889665e+01 -4.5726488834e+01 +1.0778819674e+01 1.3950621567e+02 1.2500000000e+02 0.0000e+00 0.0000e+00
</event>
<event>
 4      1 +2.1368000e-01 2.38675000e+02 7.54677100e-03 1.12067900e-01
      -11 -1    0    0    0    0 +0.0000000000e+00 +0.0000000000e+00 +1.2498505458e+02 1.2498505458e+02 0.0000000000e+00 0.0000e+00 -1.0000e+00
       11 -1    0    0    0    0 -0.0000000000e+00 -0.0000000000e+00 -1.1394517640e+02 1.1394517640e+02 0.0000000000e+00 0.0000e+00 1.0000e+00
       23  1    1    2    0    0 -3.3384446357e+01 -3.4811063051e+01 +1.8222990564e+01 1.0475523900e+02 9.1188000000e+01 0.0000e+00 -1.0000e+00
       25  1    1    2    0    0 +3.3384446357e+01 +3.4811063051e+01 -7.1831123840e+00 1.3417499198e+02 1.2500000000e+02 0.0000e+00 0.0000e+00
</event>
<event>
 4      1 +2.1368000e-01 2.49975000e+02 7.54677100e-03 1.11332100e-01
      -11 -1    0    0    0    0 +0.0000000000e+00 +0.0000000000e+00 +1.2498750000e+02 1.2498750000e+02 0.0000000000e+00 0.0000e+00 -1.0000e+00
       11 -1    0    0    0    0 -0.0000000000e+00 -0.0000000000e+00 -1.2498750000e+02 1.2498750000e+02 0.0000000000e+00 0.0000e+00 1.0000e+00
       23  1    1    2    0    0 -3.4989182851e+01 +4.9862399286e+01 +1.2450709172e+01 1.1036654059e+02 9.1188000000e+01 0.0000e+00 1.0000e+00
       25  1    1    2    0    0 +3.4989182851e+01 -4.9862399286e+01 -1.2450709172e+01 1.3960845941e+02 1.2500000000e+02 0.0000e+00 0.0000e+00
</event>
<event>
 4      1 +2.1368000e-01 2.49975000e+02 7.54677100e-03 1.11332100e-01
      -11 -1    0    0    0    0 +0.0000000000e+00 +0.0000000000e+00 +1.2498749922e+02 1.2498749922e+02 0.0000000000e+00 0.0000e+00 1.0000e+00
       11 -1    0    0    0    0 -0.0000000000e+00 -0.0000000000e+00 -1.2498749922e+02 1.2498749922e+02 0.0000000000e+00 0.0000e+00 -1.0000e+00
       23  1    1    2    0    0 -9.6172754789e+00 -5.7784782272e+01 -2.0831435293e+01 1.1036653972e+02 9.1188000000e+01 0.0000e+00 0.0000e+00
       25  1    1    2    0    0 +9.6172754789e+00 +5.7784782272e+01 +2.0831435293e+01 1.3960845872e+02 1.2500000000e+02 0.0000e+00 0.0000e+00
</event>
<event>
 4      1 +2.1368000e-01 2.49359500e+02 7.54677100e-03 1.11371000e-01
      -11 -1    0    0    0    0 +0.0000000000e+00 +0.0000000000e+00 +1.2437353387e+02 1.2437353387e+02 0.0000000000e+00 0.0000e+00 1.0000e+00
       11 -1    0    0    0    0 -0.0000000000e+00 -0.0000000000e+00 -1.2498671195e+02 1.2498671195e+02 0.0000000000e+00 0.0000e+00 -1.0000e+00
       23  1    1    2    0    0 +4.8625714372e+01 +1.6136228424e+00 +3.7447978713e+01 1.0993027941e+02 9.1188000000e+01 0.0000e+00 0.0000e+00
       25  1    1    2    0    0 -4.8625714372e+01 -1.6136228424e+00 -3.8061156797e+01 1.3942996641e+02 1.2500000000e+02 0.0000e+00 0.0000e+00
</event>
<event>
 4      1 +2.1368000e-01 2.20960300e+02 7.54677100e-03 1.13316900e-01
      -11 -1    0    0    0    0 +0.0000000000e+00 +0.0000000000e+00 +9.7656755441e+01 9.7656755441e+01 0.0000000000e+00 0.0000e+00 -1.0000e+00
       11 -1    0    0    0    0 -0.0000000000e+00 -0.0000000000e+00 -1.2498740954e+02 1.2498740954e+02 0.0000000000e+00 0.0000e+00 1.0000e+00
       23  1    1    2    0    0 -2.0344262814e+01 +2.1747810921e+00 -2.1216706596e+01 9.5833285893e+01 9.1188000000e+01 0.0000e+00 0.0000e+00
       25  1    1    2    0    0 +2.0344262814e+01 -2.1747810921e+00 -6.1139475075e+00 1.2681087909e+02 1.2500000000e+02 0.0000e+00 0.0000e+00
</event>
<event>
 4      1 +2.1368000e-01 2.38314800e+02 7.54677100e-03 1.12092100e-01
      -11 -1    0    0    0    0 +0.0000000000e+00 +0.0000000000e+00 +1.2498759989e+02 1.2498759989e+02 0.0000000000e+00 0.0000e+00 -1.0000e+00
       11 -1    0    0    0    0 -0.0000000000e+00 -0.0000000000e+00 -1.1359913247e+02 1.1359913247e+02 0.0000000000e+00 0.0000e+00 1.0000e+00
       23  1    1    2    0    0 +3.6254174230e+00 -4.9500201293e+01 +4.5778682900e+00 1.0392122883e+02 9.1188000000e+01 0.0000e+00 0.0000e+00
       25  1    1    2    0    0 -3.6254174230e+00 +4.9500201293e+01 +6.8105991317e+00 1.3466550353e+02 1.2500000000e+02 0.0000e+00 0.0000e+00
</event>
<event>
 4      1 +2.1368000e-01 2.49577500e+02 7.54677100e-03 1.11357200e-01
      -11 -1    0    0    0    0 +0.0000000000e+00 +0.0000000000e+00 +1.2481049334e+02 1.2481049334e+02 0.0000000000e+00 0.0000e+00 1.0000e+00
       11 -1    0    0    0    0 -0.0000000000e+00 -0.0000000000e+00 -1.2476702899e+02 1.2476702899e+02 0.0000000000e+00 0.0000e+00 -1.0000e+00
       23  1    1    2    0    0 -2.9839955629e+01 +5.3939055408e+01 +4.1079506284e+00 1.1014522801e+02 9.1188000000e+01 0.0000e+00 0.0000e+00
       25  1    1    2    0    0 +2.9839955629e+01 -5.3939055408e+01 -4.0644862769e+00 1.3943229432e+02 1.2500000000e+02 0.0000e+00 0.0000e+00
</event>
<event>
 4      1 +2.1368000e-01 2.48988900e+02 7.54677100e-03 1.11394500e-01
      -11 -1    0    0    0    0 +0.0000000000e+00 +0.0000000000e+00 +1.2498802633e+02 1.2498802633e+02 0.0000000000e+00 0.0000e+00 -1.0000e+00
       11 -1    0    0    0    0 -0.0000000000e+00 -0.0000000000e+00 -1.2400284435e+02 1.2400284435e+02 0.0000000000e+00 0.0000e+00 1.0000e+00
       23  1    1    2    0    0 -3.2418322273e+01 +2.6767925983e+01 -4.4026433914e+01 1.0964053861e+02 9.1188000000e+01 0.0000e+00 0.0000e+00
       25  1    1    2    0    0 +3.2418322273e+01 -2.6767925983e+01 +4.5011615898e+01 1.3935033206e+02 1.2500000000e+02 0.0000e+00 0.0000e+00
</event>
<event>
 4      1 +2.1368000e-01 2.49975000e+02 7.54677100e-03 1.11332100e-01
      -11 -1    0    0    0    0 +0.0000000000e+00 +0.0000000000e+00 +1.2498837063e+02 1.2498837063e+02 0.0000000000e+00 0.0000e+00 1.0000e+00
       11 -1    0    0    0    0 -0.0000000000e+00 -0.0000000000e+00 -1.2498662929e+02 1.2498662929e+02 0.0000000000e+00 0.0000e+00 -1.0000e+00
       23  1    1    2    0    0 +3.6756987229e+01 +4.6127181786e+01 -1.9664655630e+01 1.1036640356e+02 9.1188000000e+01 0.0000e+00 -1.0000e+00
       25  1    1    2    0    0 -3.6756987229e+01 -4.6127181786e+01 +1.9666396973e+01 1.3960859637e+02 1.2500000000e+02 0.0000e+00 0.0000e+00
</event>
<event>
 4      1 +2.1368000e-01 2.49791000e+02 7.54677100e-03 1.11343700e-01
      -11 -1    0    0    0    0 +0.0000000000e+00 +0.0000000000e+00 +1.2480417486e+02 1.2480417486e+02 0.0000000000e+00 0.0000e+00 1.0000e+00
       11 -1    0    0    0    0 -0.0000000000e+00 -0.0000000000e+00 -1.2498688260e+02 1.2498688260e+02 0.0000000000e+00 0.0000e+00 -1.0000e+00
       23  1    1    2    0    0 +2.0911377609e+01 -5.1127079735e+01 +2.8054433771e+01 1.1024321564e+02 9.1188000000e+01 0.0000e+00 0.0000e+00
       25  1    1    2    0    0 -2.0911377609e+01 +5.1127079735e+01 -2.8237141508e+01 1.3954784182e+02 1.2500000000e+02 0.0000e+00 0.0000e+00
</event>
<event>
 4      1 +2.1368000e-01 2.49953900e+02 7.54677100e-03 1.11333400e-01
      -11 -1    0    0    0    0 +0.0000000000e+00 +0.0000000000e+00 +1.2498478214e+02 1.2498478214e+02 0.0000000000e+00 0.0000e+00 -1.0000e+00
       11 -1    0    0    0    0 -0.0000000000e+00 -0.0000000000e+00 -1.2496911138e+02 1.2496911138e+02 0.0000000000e+00 0.0000e+00 1.0000e+00
       23  1    1    2    0    0 -3.4271942929e+01 -2.5333235855e+01 -4.5232236346e+01 1.1035191643e+02 9.1188000000e+01 0.0000e+00 1.0000e+00
       25  1    1    2    0    0 +3.4271942929e+01 +2.5333235855e+01 +4.5247907109e+01 1.3960197709e+02 1.2500000000e+02 0.0000e+00 0.0000e+00
</event>
<event>
 4      1 +2.1368000e-01 2.49963000e+02 7.54677100e-03 1.11332800e-01
      -11 -1    0    0    0    0 +0.0000000000e+00 +0.0000000000e+00 +1.2497714905e+02 1.2497714905e+02 0.0000000000e+00 0.0000e+00 1.0000e+00
       11 -1    0    0    0    0 -0.0000000000e+00 -0.0000000000e+00 -1.2498585534e+02 1.2498585534e+02 0.0000000000e+00 0.0000e+00 -1.0000e+00
       23  1    1    2    0    0 +1.6234882025e+01 +5.9790524666e+01 -5.0600220929e+00 1.1036001722e+02 9.1188000000e+01 0.0000e+00 0.0000e+00
       25  1    1    2    0    0 -1.6234882025e+01 -5.9790524666e+01 +5.0513157961e+00 1.3960298717e+02 1.2500000000e+02 0.0000e+00 0.0000e+00
</event>
<event>
 4      1 +2.1368000e-01 2.42872600e+02 7.54677100e-03 1.11789400e-01
      -11 -1    0    0    0    0 +0.0000000000e+00 +0.0000000000e+00 +1.1859663253e+02 1.1859663253e+02 0.0000000000e+00 0.0000e+00 -1.0000e+00
       11 -1    0    0    0    0 -0.0000000000e+00 -0.0000000000e+00 -1.2434395248e+02 1.2434395248e+02 0.0000000000e+00 0.0000e+00 1.0000e+00
       23  1    1    2    0    0 +3.6441985550e+00 -5.3853227626e+01 +6.9537922177e+00 1.0619348793e+02 9.1188000000e+01 0.0000e+00 -1.0000e+00
       25  1    1    2    0    0 -3.6441985550e+00 +5.3853227626e+01 -1.2701112175e+01 1.3674709708e+02 1.2500000000e+02 0.0000e+00 0.0000e+00
</event>
<event>
 4      1 +2.1368000e-01 2.49975000e+02 7.54677100e-03 1.11332100e-01
      -11 -1    0    0    0    0 +0.0000000000e+00 +0.0000000000e+00 +1.2498837047e+02 1.2498837047e+02 0.0000000000e+00 0.0000e+00 1.0000e+00
       11 -1    0    0    0    0 -0.0000000000e+00 -0.0000000000e+00 -1.2498662913e+02 1.2498662913e+02 0.0000000000e+00 0.0000e+00 -1.0000e+00
       23  1    1    2    0    0 +1.3975467963e+01 +4.9001256808e+01 -3.5623450686e+01 1.1036629221e+02 9.1188000000e+01 0.0000e+00 -1.0000e+00
       25  1    1    2    0    0 -1.3975467963e+01 -4.9001256808e+01 +3.5625192029e+01 1.3960870740e+02 1.2500000000e+02 0.0000e+00 0.0000e+00
</event>
<event>
 4      1 +2.1368000e-01 2.49975000e+02 7.54677100e-03 1.11332100e-01
      -11 -1    0    0    0    0 +0.0000000000e+00 +0.0000000000e+00 +1.2498749878e+02 1.2498749878e+02 0.0000000000e+00 0.0000e+00 -1.0000e+00
       11 -1    0    0    0    0 -0.0000000000e+00 -0.0000000000e+00 -1.2498749878e+02 1.2498749878e+02 0.0000000000e+00 0.0000e+00 1.0000e+00
       23  1    1    2    0    0 -3.0990612636e+01 -3.0160413294e+01 +4.4670494010e+01 1.1036653923e+02 9.1188000000e+01 0.0000e+00 0.0000e+00
       25  1    1    2    0    0 +3.0990612636e+01 +3.0160413294e+01 -4.4670494010e+01 1.3960845833e+02 1.2500000000e+02 0.0000e+00 0.0000e+00
</event>
<event>
 4      1 +2.1368000e-01 2.49975000e+02 7.54677100e-03 1.11332100e-01
      -11 -1    0    0    0    0 +0.0000000000e+00 +0.0000000000e+00 +1.2498837067e+02 1.2498837067e+02 0.0000000000e+00 0.0000e+00 -1.0000e+00
       11 -1    0    0    0    0 -0.0000000000e+00 -0.0000000000e+00 -1.2498662933e+02 1.2498662933e+02 0.0000000000e+00 0.0000e+00 1.0000e+00
       23  1    1    2    0    0 -4.9671350364e+01 +3.6449287861e+01 -8.3495788014e+00 1.1036648242e+02 9.1188000000e+01 0.0000e+00 0.0000e+00
       25  1    1    2    0    0 +4.9671350364e+01 -3.6449287861e+01 +8.3513201443e+00 1.3960851758e+02 1.2500000000e+02 0.0000e+00 0.0000e+00
</event>
<event>
 4      1 +2.1368000e-01 2.49909000e+02 7.54677100e-03 1.11336200e-01
      -11 -1    0    0    0    0 +0.0000000000e+00 +0.0000000000e+00 +1.2492145061e+02 1.2492145061e+02 0.0000000000e+00 0.0000e+00 1.0000e+00
       11 -1    0    0    0    0 -0.0000000000e+00 -0.0000000000e+00 -1.2498760465e+02 1.2498760465e+02 0.0000000000e+00 0.0000e+00 -1.0000e+00
       23  1    1    2    0    0 -3.6092922942e+01 +2.0452125577e+01 +4.6192046333e+01 1.1031747375e+02 9.1188000000e+01 0.0000e+00 1.0000e+00
       25  1    1    2    0    0 +3.6092922942e+01 -2.0452125577e+01 -4.6258200368e+01 1.3959158151e+02 1.2500000000e+02 0.0000e+00 0.0000e+00
</event>
<event>
 4      1 +2.1368000e-01 2.49962800e+02 7.54677100e-03 1.11332800e-01
      -11 -1    0    0    0    0 +0.0000000000e+00 +0.0000000000e+00 +1.2497965479e+02 1.2497965479e+02 0.0000000000e+00 0.0000e+00 1.0000e+00
       11 -1    0    0    0    0 -0.0000000000e+00 -0.0000000000e+00 -1.2498313733e+02 1.2498313733e+02 0.0000000000e+00 0.0000e+00 -1.0000e+00
       23  1    1    2    0    0 +5.1676904157e+00 -2.6474388862e+01 -5.6005276103e+01 1.1036050283e+02 9.1188000000e+01 0.0000e+00 -1.0000e+00
       25  1    1    2    0    0 -5.1676904157e+00 +2.6474388862e+01 +5.6001793563e+01 1.3960228928e+02 1.2500000000e+02 0.0000e+00 0.0000e+00
</event>
<event>
 4      1 +2.1368000e-01 2.49975000e+02 7.54677100e-03 1.11332100e-01
      -11 -1    0    0    0    0 +0.0000000000e+00 +0.0000000000e+00 +1.2498837066e+02 1.2498837066e+02 0.0000000000e+00 0.0000e+00 -1.0000e+00
       11 -1    0    0    0    0 -0.0000000000e+00 -0.0000000000e+00 -1.2498662932e+02 1.2498662932e+02 0.0000000000e+00 0.0000e+00 1.0000e+00
       23  1    1    2    0    0 +1.9792192799e+00 -6.0254146178e+01 +1.5200850887e+01 1.1036664647e+02 9.1188000000e+01 0.0000e+00 1.0000e+00
       25  1    1    2    0    0 -1.9792192799e+00 +6.0254146178e+01 -1.5199109544e+01 1.3960835352e+02 1.2500000000e+02 0.0000e+00 0.0000e+00
</event>
<event>
 4      1 +2.1368000e-01 2.49975000e+02 7.54677100e-03 1.11332100e-01
      -11 -1    0    0    0    0 +0.0000000000e+00 +0.0000000000e+00 +1.2498749997e+02 1.2498749997e+02 0.0000000000e+00 0.0000e+00 1.0000e+00
       11 -1    0    0    0    0 -0.0000000000e+00 -0.0000000000e+00 -1.2498749997e+02 1.2498749997e+02 0.0000000000e+00 0.0000e+00 -1.0000e+00
       23  1    1    2    0    0 +4.6004113192e+01 -3.9200099831e+01 +1.4577231354e+01 1.1036654056e+02 9.1188000000e+01 0.0000e+00 0.0000e+00
       25  1    1    2    0    0 -4.6004113192e+01 +3.9200099831e+01 -1.4577231354e+01 1.3960845938e+02 1.2500000000e+02 0.0000e+00 0.0000e+00
</event>
<event>
 4      1 +2.1368000e-01 2.45332800e+02 7.54677100e-03 1.11629000e-01
      -11 -1    0    0    0    0 +0.0000000000e+00 +0.0000000000e+00 +1.2040186363e+02 1.2040186363e+02 0.0000000000e+00 0.0000e+00 1.0000e+00
       11 -1    0    0    0    0 -0.0000000000e+00 -0.0000000000e+00 -1.2497348057e+02 1.2497348057e+02 0.0000000000e+00 0.0000e+00 -1.0000e+00
       23  1    1    2    0    0 +2.7912649456e+01 -1.8411997389e+01 +4.4698254562e+01 1.0691727153e+02 9.1188000000e+01 0.0000e+00 1.0000e+00
       25  1    1    2    0    0 -2.7912649456e+01 +1.8411997389e+01 -4.9269871504e+01 1.3845807266e+02 1.2500000000e+02 0.0000e+00 0.0000e+00
</event>
<event>
 4      1 +2.1368000e-01 2.43753400e+02 7.54677100e-03 1.11731700e-01
      -11 -1    0    0    0    0 +0.0000000000e+00 +0.0000000000e+00 +1.1884286618e+02 1.1884286618e+02 0.0000000000e+00 0.0000e+00 1.0000e+00
       11 -1    0    0    0    0 -0.0000000000e+00 -0.0000000000e+00 -1.2498800802e+02 1.2498800802e+02 0.0000000000e+00 0.0000e+00 -1.0000e+00
       23  1    1    2    0    0 -1.5760242260e+01 -5.1876472605e+01 -1.5701699791e+01 1.0724433955e+02 9.1188000000e+01 0.0000e+00 0.0000e+00
       25  1    1    2    0    0 +1.5760242260e+01 +5.1876472605e+01 +9.5565579446e+00 1.3658653464e+02 1.2500000000e+02 0.0000e+00 0.0000e+00
</event>
<event>
 4      1 +2.1368000e-01 2.49974900e+02 7.54677100e-03 1.11332100e-01
      -11 -1    0    0    0    0 +0.0000000000e+00 +0.0000000000e+00 +1.2498744992e+02 1.2498744992e+02 0.0000000000e+00 0.0000e+00 1.0000e+00
       11 -1    0    0    0    0 -0.0000000000e+00 -0.0000000000e+00 -1.2498744992e+02 1.2498744992e+02 0.0000000000e+00 0.0000e+00 -1.0000e+00
       23  1    1    2    0    0 -5.5297449166e+01 -1.7100515985e+01 +2.2699648871e+01 1.1036648465e+02 9.1188000000e+01 0.0000e+00 0.0000e+00
       25  1    1    2    0    0 +5.5297449166e+01 +1.7100515985e+01 -2.2699648871e+01 1.3960841518e+02 1.2500000000e+02 0.0000e+00 0.0000e+00
</event>
<event>
 4      1 +2.1368000e-01 2.49948400e+02 7.54677100e-03 1.11333700e-01
      -11 -1    0    0    0    0 +0.0000000000e+00 +0.0000000000e+00 +1.2496200261e+02 1.2496200261e+02 0.0000000000e+00 0.0000e+00 -1.0000e+00
       11 -1    0    0    0    0 -0.0000000000e+00 -0.0000000000e+00 -1.2498637881e+02 1.2498637881e+02 0.0000000000e+00 0.0000e+00 1.0000e+00
       23  1    1    2    0    0 +1.1793787772e+01 +4.4480565159e+01 +4.1757963376e+01 1.1034760059e+02 9.1188000000e+01 0.0000e+00 0.0000e+00
       25  1    1    2    0    0 -1.1793787772e+01 -4.4480565159e+01 -4.1782339581e+01 1.3960078083e+02 1.2500000000e+02 0.0000e+00 0.0000e+00
</event>
<event>
 4      1 +2.1368000e-01 2.49970100e+02 7.54677100e-03 1.11332400e-01
      -11 -1    0    0    0    0 +0.0000000000e+00 +0.0000000000e+00 +1.2498242995e+02 1.2498242995e+02 0.0000000000e+00 0.0000e+00 -1.0000e+00
       11 -1    0    0    0    0 -0.0000000000e+00 -0.0000000000e+00 -1.2498765387e+02 1.2498765387e+02 0.0000000000e+00 0.0000e+00 1.0000e+00
       23  1    1    2    0    0 -5.1893581322e+01 +6.0165811434e+00 -3.3703535680e+01 1.1036449924e+02 9.1188000000e+01 0.0000e+00 0.0000e+00
       25  1    1    2    0    0 +5.1893581322e+01 -6.0165811434e+00 +3.3698311754e+01 1.3960558458e+02 1.2500000000e+02 0.0000e+00 0.0000e+00
</event>
<event>
 4      1 +2.1368000e-01 2.48924700e+02 7.54677100e-03 1.11398600e-01
      -11 -1    0    0    0    0 +0.0000000000e+00 +0.0000000000e+00 +1.2394669757e+02 1.2394669757e+02 0.0000000000e+00 0.0000e+00 -1.0000e+00
       11 -1    0    0    0    0 -0.0000000000e+00 -0.0000000000e+00 -1.2498017918e+02 1.2498017918e+02 0.0000000000e+00 0.0000e+00 1.0000e+00
       23  1    1    2    0    0 -5.7397343569e+01 +1.0814659582e+01 -1.8481559139e+01 1.0985550183e+02 9.1188000000e+01 0.0000e+00 0.0000e+00
       25  1    1    2    0    0 +5.7397343569e+01 -1.0814659582e+01 +1.7448077532e+01 1.3907137491e+02 1.2500000000e+02 0.0000e+00 0.0000e+00
</event>
<event>
 4      1 +2.1368000e-01 2.49970500e+02 7.54677100e-03 1.11332300e-01
      -11 -1    0    0    0    0 +0.0000000000e+00 +0.0000000000e+00 +1.2498873982e+02 1.2498873982e+02 0.0000000000e+00 0.0000e+00 1.0000e+00
       11 -1    0    0    0    0 -0.0000000000e+00 -0.0000000000e+00 -1.2498177453e+02 1.2498177453e+02 0.0000000000e+00 0.0000e+00 -1.0000e+00
       23  1    1    2    0    0 -1.7052108888e+01 +5.9117991750e+01 +8.9057482728e+00 1.1036428345e+02 9.1188000000e+01 0.0000e+00 0.0000e+00
       25  1    1    2    0    0 +1.7052108888e+01 -5.9117991750e+01 -8.8987829776e+00 1.3960623089e+02 1.2500000000e+02 0.0000e+00 0.0000e+00
</event>
<event>
 4      1 +2.1368000e-01 2.46151400e+02 7.54677100e-03 1.11576100e-01
      -11 -1    0    0    0    0 +0.0000000000e+00 +0.0000000000e+00 +1.2498767060e+02 1.2498767060e+02 0.0000000000e+00 0.0000e+00 -1.0000e+00
       11 -1    0    0    0    0 -0.0000000000e+00 -0.0000000000e+00 -1.2119299478e+02 1.2119299478e+02 0.0000000000e+00 0.0000e+00 1.0000e+00
       23  1    1    2    0    0 -2.5435658891e+01 +4.5148941066e+00 +5.3929913559e+01 1.0904606335e+02 9.1188000000e+01 0.0000e+00 -1.0000e+00
       25  1    1    2    0    0 +2.5435658891e+01 -4.5148941066e+00 -5.0135237741e+01 1.3713460204e+02 1.2500000000e+02 0.0000e+00 0.0000e+00
</event>
<event>
 4      1 +2.1368000e-01 2.46609900e+02 7.54677100e-03 1.11546600e-01
      -11 -1    0    0    0    0 +0.0000000000e+00 +0.0000000000e+00 +1.2173547731e+02 1.2173547731e+02 0.0000000000e+00 0.0000e+00 -1.0000e+00
       11 -1    0    0    0    0 -0.0000000000e+00 -0.0000000000e+00 -1.2489469358e+02 1.2489469358e+02 0.0000000000e+00 0.0000e+00 1.0000e+00
       23  1    1    2    0    0 -4.7092644527e+01 +1.0935600751e+01 -3.4804033209e+01 1.0892142399e+02 9.1188000000e+01 0.0000e+00 1.0000e+00
       25  1    1    2    0    0 +4.7092644527e+01 -1.0935600751e+01 +3.1644816936e+01 1.3770874689e+02 1.2500000000e+02 0.0000e+00 0.0000e+00
</event>
<event>
 4      1 +2.1368000e-01 2.49975000e+02 7.54677100e-03 1.11332100e-01
      -11 -1    0    0    0    0 +0.0000000000e+00 +0.0000000000e+00 +1.2498750000e+02 1.2498750000e+02 0.0000000000e+00 0.0000e+00 1.0000e+00
       11 -1    0    0    0    0 -0.0000000000e+00 -0.0000000000e+00 -1.2498750000e+02 1.2498750000e+02 0.0000000000e+00 0.0000e+00 -1.0000e+00
       23  1    1    2    0    0 -3.0515982111e+01 -3.0737484433e-01 +5.4168277566e+01 1.1036654059e+02 9.1188000000e+01 0.0000e+00 1.0000e+00
       25  1    1    2    0    0 +3.0515982111e+01 +3.0737484433e-01 -5.4168277566e+01 1.3960845941e+02 1.2500000000e+02 0.0000e+00 0.0000e+00
</event>
<event>
 4      1 +2.1368000e-01 2.37034000e+02 7.54677100e-03 1.12178500e-01
      -11 -1    0    0    0    0 +0.0000000000e+00 +0.0000000000e+00 +1.2498794226e+02 1.2498794226e+02 0.0000000000e+00 0.0000e+00 1.0000e+00
       11 -1    0    0    0    0 -0.0000000000e+00 -0.0000000000e+00 -1.1238107740e+02 1.1238107740e+02 0.0000000000e+00 0.0000e+00 -1.0000e+00
       23  1    1    2    0    0 -4.3164712067e+00 -4.5180201509e+01 -1.0477279653e+01 1.0239583617e+02 9.1188000000e+01 0.0000e+00 -1.0000e+00
       25  1    1    2    0    0 +4.3164712067e+00 +4.5180201509e+01 +2.3084144515e+01 1.3497318348e+02 1.2500000000e+02 0.0000e+00 0.0000e+00
</event>
<event>
 4      1 +2.1368000e-01 2.49951800e+02 7.54677100e-03 1.11333500e-01
      -11 -1    0    0    0    0 +0.0000000000e+00 +0.0000000000e+00 +1.2496459313e+02 1.2496459313e+02 0.0000000000e+00 0.0000e+00 -1.0000e+00
       11 -1    0    0    0    0 -0.0000000000e+00 -0.0000000000e+00 -1.2498722849e+02 1.2498722849e+02 0.0000000000e+00 0.0000e+00 1.0000e+00
       23  1    1    2    0    0 +4.4101507487e+01 -2.1315198779e+01 +3.8244208069e+01 1.1035013120e+02 9.1188000000e+01 0.0000e+00 -1.0000e+00
       25  1    1    2    0    0 -4.4101507487e+01 +2.1315198779e+01 -3.8266843428e+01 1.3960169042e+02 1.2500000000e+02 0.0000e+00 0.0000e+00
</event>
<event>
 4      1 +2.1368000e-01 2.49779400e+02 7.54677100e-03 1.11344400e-01
      -11 -1    0    0    0    0 +0.0000000000e+00 +0.0000000000e+00 +1.2479227760e+02 1.2479227760e+02 0.0000000000e+00 0.0000e+00 -1.0000e+00
       11 -1    0    0    0    0 -0.0000000000e+00 -0.0000000000e+00 -1.2498715543e+02 1.2498715543e+02 0.0000000000e+00 0.0000e+00 1.0000e+00
       23  1    1    2    0    0 +3.8729182658e+01 -3.2527058543e+01 -3.5911366313e+01 1.1028525151e+02 9.1188000000e+01 0.0000e+00 0.0000e+00
       25  1    1    2    0    0 -3.8729182658e+01 +3.2527058543e+01 +3.5716488487e+01 1.3949418152e+02 1.2500000000e+02 0.0000e+00 0.0000e+00
</event>
<event>
 4      1 +2.1368000e-01 2.49975000e+02 7.54677100e-03 1.11332100e-01
      -11 -1    0    0    0    0 +0.0000000000e+00 +0.0000000000e+00 +1.2498837057e+02 1.2498837057e+02 0.0000000000e+00 0.0000e+00 -1.0000e+00
       11 -1    0    0    0    0 -0.0000000000e+00 -0.0000000000e+00 -1.2498662923e+02 1.2498662923e+02 0.0000000000e+00 0.0000e+00 1.0000e+00
       23  1    1    2    0    0 +2.4748484794e+01 -5.5670827720e+01 +1.2402113684e+01 1.1036662687e+02 9.1188000000e+01 0.0000e+00 -1.0000e+00
       25  1    1    2    0    0 -2.4748484794e+01 +5.5670827720e+01 -1.2400372341e+01 1.3960837293e+02 1.2500000000e+02 0.0000e+00 0.0000e+00
</event>
<event>
 4      1 +2.1368000e-01 2.48471600e+02 7.54677100e-03 1.11427500e-01
      -11 -1    0    0    0    0 +0.0000000000e+00 +0.0000000000e+00 +1.2498751395e+02 1.2498751395e+02 0.0000000000e+00 0.0000e+00 -1.0000e+00
       11 -1    0    0    0    0 -0.0000000000e+00 -0.0000000000e+00 -1.2348857422e+02 1.2348857422e+02 0.0000000000e+00 0.0000e+00 1.0000e+00
       23  1    1    2    0    0 +2.7284450463e+01 -5.0812348410e+01 +1.9487532408e+01 1.0964192287e+02 9.1188000000e+01 0.0000e+00 0.0000e+00
       25  1    1    2    0    0 -2.7284450463e+01 +5.0812348410e+01 -1.7988592682e+01 1.3883416530e+02 1.2500000000e+02 0.0000e+00 0.0000e+00
</event>
<event>
 4      1 +2.1368000e-01 2.49966100e+02 7.54677100e-03 1.11332600e-01
      -11 -1    0    0    0    0 +0.0000000000e+00 +0.0000000000e+00 +1.2497868524e+02 1.2497868524e+02 0.0000000000e+00 0.0000e+00 1.0000e+00
       11 -1    0    0    0    0 -0.0000000000e+00 -0.0000000000e+00 -1.2498739164e+02 1.2498739164e+02 0.0000000000e+00 0.0000e+00 -1.0000e+00
       23  1    1    2    0    0 +4.2592019384e+01 +4.5279660048e+01 +3.0306808816e-01 1.1036154640e+02 9.1188000000e+01 0.0000e+00 0.0000e+00
       25  1    1    2    0    0 -4.2592019384e+01 -4.5279660048e+01 -3.1177449195e-01 1.3960453049e+02 1.2500000000e+02 0.0000e+00 0.0000e+00
</event>
<event>
 4      1 +2.1368000e-01 2.45495300e+02 7.54677100e-03 1.11618500e-01
      -11 -1    0    0    0    0 +0.0000000000e+00 +0.0000000000e+00 +1.2054794016e+02 1.2054794016e+02 0.0000000000e+00 0.0000e+00 -1.0000e+00
       11 -1    0    0    0    0 -0.0000000000e+00 -0.0000000000e+00 -1.2498746992e+02 1.2498746992e+02 0.0000000000e+00 0.0000e+00 1.0000e+00
       23  1    1    2    0    0 -2.2606402024e+01 -5.1722586431e+01 +9.5503175302e+00 1.0766956519e+02 9.1188000000e+01 0.0000e+00 0.0000e+00
       25  1    1    2    0    0 +2.2606402024e+01 +5.1722586431e+01 -1.3989847288e+01 1.3786584489e+02 1.2500000000e+02 0.0000e+00 0.0000e+00
</event>
<event>
 4      1 +2.1368000e-01 2.49636800e+02 7.54677100e-03 1.11353500e-01
      -11 -1    0    0    0    0 +0.0000000000e+00 +0.0000000000e+00 +1.2464985526e+02 1.2464985526e+02 0.0000000000e+00 0.0000e+00 1.0000e+00
       11 -1    0    0    0    0 -0.0000000000e+00 -0.0000000000e+00 -1.2498721910e+02 1.2498721910e+02 0.0000000000e+00 0.0000e+00 -1.0000e+00
       23  1    1    2    0    0 -5.9642579641e+01 -1.5483826275e+01 -5.3333879983e+00 1.1018476553e+02 9.1188000000e+01 0.0000e+00 -1.0000e+00
       25  1    1    2    0    0 +5.9642579641e+01 +1.5483826275e+01 +4.9960241506e+00 1.3945230884e+02 1.2500000000e+02 0.0000e+00 0.0000e+00
</event>
<event>
 4      1 +2.1368000e-01 2.49974800e+02 7.54677100e-03 1.11332100e-01
      -11 -1    0    0    0    0 +0.0000000000e+00 +0.0000000000e+00 +1.2498738142e+02 1.2498738142e+02 0.0000000000e+00 0.0000e+00 1.0000e+00
       11 -1    0    0    0    0 -0.0000000000e+00 -0.0000000000e+00 -1.2498738142e+02 1.2498738142e+02 0.0000000000e+00 0.0000e+00 -1.0000e+00
       23  1    1    2    0    0 -5.3693816158e+01 +2.6565275689e+01 +1.6635893009e+01 1.1036640814e+02 9.1188000000e+01 0.0000e+00 1.0000e+00
       25  1    1    2    0    0 +5.3693816158e+01 -2.6565275689e+01 -1.6635893009e+01 1.3960835470e+02 1.2500000000e+02 0.0000e+00 0.0000e+00
</event>
<event>
 4      1 +2.1368000e-01 2.49243000e+02 7.54677100e-03 1.11378400e-01
      -11 -1    0    0    0    0 +0.0000000000e+00 +0.0000000000e+00 +1.2498840919e+02 1.2498840919e+02 0.0000000000e+00 0.0000e+00 1.0000e+00
       11 -1    0    0    0    0 -0.0000000000e+00 -0.0000000000e+00 -1.2425571612e+02 1.2425571612e+02 0.0000000000e+00 0.0000e+00 -1.0000e+00
       23  1    1    2    0    0 -5.2768439952e+01 -2.5934986661e+01 +1.8164188159e+01 1.1001054887e+02 9.1188000000e+01 0.0000e+00 0.0000e+00
       25  1    1    2    0    0 +5.2768439952e+01 +2.5934986661e+01 -1.7431495089e+01 1.3923357644e+02 1.2500000000e+02 0.0000e+00 0.0000e+00
</event>
<event>
 4      1 +2.1368000e-01 2.49966500e+02 7.54677100e-03 1.11332600e-01
      -11 -1    0    0    0    0 +0.0000000000e+00 +0.0000000000e+00 +1.2497977075e+02 1.2497977075e+02 0.0000000000e+00 0.0000e+00 1.0000e+00
       11 -1    0    0    0    0 -0.0000000000e+00 -0.0000000000e+00 -1.2498673594e+02 1.2498673594e+02 0.0000000000e+00 0.0000e+00 -1.0000e+00
       23  1    1    2    0    0 -5.9534776961e+01 +8.2593697699e+00 -1.5873426709e+01 1.1036223936e+02 9.1188000000e+01 0.0000e+00 -1.0000e+00
       25  1    1    2    0    0 +5.9534776961e+01 -8.2593697699e+00 +1.5866461526e+01 1.3960426733e+02 1.2500000000e+02 0.0000e+00 0.0000e+00
</event>
<event>
 4      1 +2.1368000e-01 2.49756300e+02 7.54677100e-03 1.11345900e-01
      -11 -1    0    0    0    0 +0.0000000000e+00 +0.0000000000e+00 +1.2476944014e+02 1.2476944014e+02 0.0000000000e+00 0.0000e+00 -1.0000e+00
       11 -1    0    0    0    0 -0.0000000000e+00 -0.0000000000e+00 -1.2498691762e+02 1.2498691762e+02 0.0000000000e+00 0.0000e+00 1.0000e+00
       23  1    1    2    0    0 -4.3251439699e+01 -4.1237213021e+01 +1.6255595578e+01 1.1023017058e+02 9.1188000000e+01 0.0000e+00 0.0000e+00
       25  1    1    2    0    0 +4.3251439699e+01 +4.1237213021e+01 -1.6473073058e+01 1.3952618718e+02 1.2500000000e+02 0.0000e+00 0.0000e+00
</event>
<event>
 4      1 +2.1368000e-01 2.49825700e+02 7.54677100e-03 1.11341500e-01
      -11 -1    0    0    0    0 +0.0000000000e+00 +0.0000000000e+00 +1.2498683984e+02 1.2498683984e+02 0.0000000000e+00 0.0000e+00 1.0000e+00
       11 -1    0    0    0    0 -0.0000000000e+00 -0.0000000000e+00 -1.2483891407e+02 1.2483891407e+02 0.0000000000e+00 0.0000e+00 -1.0000e+00
       23  1    1    2    0    0 -4.1044623621e+01 -4.3152602759e+01 -1.7264314703e+01 1.1027291671e+02 9.1188000000e+01 0.0000e+00 0.0000e+00
       25  1    1    2    0    0 +4.1044623621e+01 +4.3152602759e+01 +1.7412240480e+01 1.3955283720e+02 1.2500000000e+02 0.0000e+00 0.0000e+00
</event>
<event>
 4      1 +2.1368000e-01 2.49444300e+02 7.54677100e-03 1.11365700e-01
      -11 -1    0    0    0    0 +0.0000000000e+00 +0.0000000000e+00 +1.2498133814e+02 1.2498133814e+02 0.0000000000e+00 0.0000e+00 1.0000e+00
       11 -1    0    0    0    0 -0.0000000000e+00 -0.0000000000e+00 -1.2446351847e+02 1.2446351847e+02 0.0000000000e+00 0.0000e+00 -1.0000e+00
       23  1    1    2    0    0 +5.4094052992e+01 +7.7628352423e-01 -2.9325000123e+01 1.1000898219e+02 9.1188000000e+01 0.0000e+00 0.0000e+00
       25  1    1    2    0    0 -5.4094052992e+01 -7.7628352423e-01 +2.9842819795e+01 1.3943587443e+02 1.2500000000e+02 0.0000e+00 0.0000e+00
</event>
<event>
 4      1 +2.1368000e-01 2.49974700e+02 7.54677100e-03 1.11332100e-01
      -11 -1    0    0    0    0 +0.0000000000e+00 +0.0000000000e+00 +1.2498822106e+02 1.2498822106e+02 0.0000000000e+00 0.0000e+00 -1.0000e+00
       11 -1    0    0    0    0 -0.0000000000e+00 -0.0000000000e+00 -1.2498647971e+02 1.2498647971e+02 0.0000000000e+00 0.0000e+00 1.0000e+00
       23  1    1    2    0    0 +2.2923543891e+01 +2.4848426462e+01 -5.2177309789e+01 1.1036601000e+02 9.1188000000e+01 0.0000e+00 1.0000e+00
       25  1    1    2    0    0 -2.2923543891e+01 -2.4848426462e+01 +5.2179051130e+01 1.3960869077e+02 1.2500000000e+02 0.0000e+00 0.0000e+00
</event>
<event>
 4      1 +2.1368000e-01 2.49974800e+02 7.54677100e-03 1.11332100e-01
      -11 -1    0    0    0    0 +0.0000000000e+00 +0.0000000000e+00 +1.2498739720e+02 1.2498739720e+02 0.0000000000e+00 0.0000e+00 1.0000e+00
       11 -1    0    0    0    0 -0.0000000000e+00 -0.0000000000e+00 -1.2498739720e+02 1.2498739720e+02 0.0000000000e+00 0.0000e+00 -1.0000e+00
       23  1    1    2    0    0 +5.1241612778e+01 +2.5938883808e+01 +2.3811090263e+01 1.1036642577e+02 9.1188000000e+01 0.0000e+00 1.0000e+00
       25  1    1    2    0    0 -5.1241612778e+01 -2.5938883808e+01 -2.3811090263e+01 1.3960836863e+02 1.2500000000e+02 0.0000e+00 0.0000e+00
</event>
<event>
 4      1 +2.1368000e-01 2.45031000e+02 7.54677100e-03 1.11648600e-01
      -11 -1    0    0    0    0 +0.0000000000e+00 +0.0000000000e+00 +1.2088696488e+02 1.2088696488e+02 0.0000000000e+00 0.0000e+00 1.0000e+00
       11 -1    0    0    0    0 -0.0000000000e+00 -0.0000000000e+00 -1.2416594400e+02 1.2416594400e+02 0.0000000000e+00 0.0000e+00 -1.0000e+00
       23  1    1    2    0    0 +4.5072819668e+01 +2.8790894166e+01 +1.8610098997e+01 1.0734086728e+02 9.1188000000e+01 0.0000e+00 0.0000e+00
       25  1    1    2    0    0 -4.5072819668e+01 -2.8790894166e+01 -2.1889078121e+01 1.3771204160e+02 1.2500000000e+02 0.0000e+00 0.0000e+00
</event>
<event>
 4      1 +2.1368000e-01 2.49974700e+02 7.54677100e-03 1.11332100e-01
      -11 -1    0    0    0    0 +0.0000000000e+00 +0.0000000000e+00 +1.2498735368e+02 1.2498735368e+02 0.0000000000e+00 0.0000e+00 1.0000e+00
       11 -1    0    0    0    0 -0.0000000000e+00 -0.0000000000e+00 -1.2498735368e+02 1.2498735368e+02 0.0000000000e+00 0.0000e+00 -1.0000e+00
       23  1    1    2    0    0 -5.5884104211e+01 -2.0828186958e+01 -1.7568135553e+01 1.1036637715e+02 9.1188000000e+01 0.0000e+00 1.0000e+00
       25  1    1    2    0    0 +5.5884104211e+01 +2.0828186958e+01 +1.7568135553e+01 1.3960833020e+02 1.2500000000e+02 0.0000e+00 0.0000e+00
</event>
<event>
 4      1 +2.1368000e-01 2.48874200e+02 7.54677100e-03 1.11401800e-01
      -11 -1    0    0    0    0 +0.0000000000e+00 +0.0000000000e+00 +1.2409601504e+02 1.2409601504e+02 0.0000000000e+00 0.0000e+00 -1.0000e+00
       11 -1    0    0    0    0 -0.0000000000e+00 -0.0000000000e+00 -1.2477908533e+02 1.2477908533e+02 0.0000000000e+00 0.0000e+00 1.0000e+00
       23  1    1    2    0    0 +1.3361308727e+01 -4.7700493612e+01 +3.5423795269e+01 1.0965381105e+02 9.1188000000e+01 0.0000e+00 0.0000e+00
       25  1    1    2    0    0 -1.3361308727e+01 +4.7700493612e+01 -3.6106865561e+01 1.3922128933e+02 1.2500000000e+02 0.0000e+00 0.0000e+00
</event>
<event>
 4      1 +2.1368000e-01 2.49974600e+02 7.54677100e-03 1.11332100e-01
      -11 -1    0    0    0    0 +0.0000000000e+00 +0.0000000000e+00 +1.2498643400e+02 1.2498643400e+02 0.0000000000e+00 0.0000e+00 1.0000e+00
       11 -1    0    0    0    0 -0.0000000000e+00 -0.0000000000e+00 -1.2498817534e+02 1.2498817534e+02 0.0000000000e+00 0.0000e+00 -1.0000e+00
       23  1    1    2    0    0 +6.5046231168e+00 -2.9846188653e+01 +5.4150580921e+01 1.1036594519e+02 9.1188000000e+01 0.0000e+00 1.0000e+00
       25  1    1    2    0    0 -6.5046231168e+00 +2.9846188653e+01 -5.4152322261e+01 1.3960866415e+02 1.2500000000e+02 0.0000e+00 0.0000e+00
</event>
<event>
 4      1 +2.1368000e-01 2.49973800e+02 7.54677100e-03 1.11332100e-01
      -11 -1    0    0    0    0 +0.0000000000e+00 +0.0000000000e+00 +1.2498605359e+02 1.2498605359e+02 0.0000000000e+00 0.0000e+00 1.0000e+00
       11 -1    0    0    0    0 -0.0000000000e+00 -0.0000000000e+00 -1.2498779493e+02 1.2498779493e+02 0.0000000000e+00 0.0000e+00 -1.0000e+00
       23  1    1    2    0    0 +4.4441765943e+01 +3.1633886526e+01 +2.9825505668e+01 1.1036568973e+02 9.1188000000e+01 0.0000e+00 0.0000e+00
       25  1    1    2    0    0 -4.4441765943e+01 -3.1633886526e+01 -2.9827247003e+01 1.3960815879e+02 1.2500000000e+02 0.0000e+00 0.0000e+00
</event>
<event>
 4      1 +2.1368000e-01 2.49245000e+02 7.54677100e-03 1.11378300e-01
      -11 -1    0    0    0    0 +0.0000000000e+00 +0.0000000000e+00 +1.2498852456e+02 1.2498852456e+02 0.0000000000e+00 0.0000e+00 1.0000e+00
       11 -1    0    0    0    0 -0.0000000000e+00 -0.0000000000e+00 -1.2425755690e+02 1.2425755690e+02 0.0000000000e+00 0.0000e+00 -1.0000e+00
       23  1    1    2    0    0 -5.7602945069e+01 +1.8947489370e+01 -9.6054477679e+00 1.0993008053e+02 9.1188000000e+01 0.0000e+00 -1.0000e+00
       25  1    1    2    0    0 +5.7602945069e+01 -1.8947489370e+01 +1.0336415426e+01 1.3931600094e+02 1.2500000000e+02 0.0000e+00 0.0000e+00
</event>
<event>
 4      1 +2.1368000e-01 2.49975000e+02 7.54677100e-03 1.11332100e-01
      -11 -1    0    0    0    0 +0.0000000000e+00 +0.0000000000e+00 +1.2498835250e+02 1.2498835250e+02 0.0000000000e+00 0.0000e+00 1.0000e+00
       11 -1    0    0    0    0 -0.0000000000e+00 -0.0000000000e+00 -1.2498661116e+02 1.2498661116e+02 0.0000000000e+00 0.0000e+00 -1.0000e+00
       23  1    1    2    0    0 +5.4363442348e+00 +1.2136928037e+01 +6.0735096811e+01 1.1036694337e+02 9.1188000000e+01 0.0000e+00 1.0000e+00
       25  1    1    2    0    0 -5.4363442348e+00 -1.2136928037e+01 -6.0733355468e+01 1.3960802028e+02 1.2500000000e+02 0.0000e+00 0.0000e+00
</event>
<event>
 4      1 +2.1368000e-01 2.49975000e+02 7.54677100e-03 1.11332100e-01
      -11 -1    0    0    0    0 +0.0000000000e+00 +0.0000000000e+00 +1.2498749759e+02 1.2498749759e+02 0.0000000000e+00 0.0000e+00 1.0000e+00
       11 -1    0    0    0    0 -0.0000000000e+00 -0.0000000000e+00 -1.2498749759e+02 1.2498749759e+02 0.0000000000e+00 0.0000e+00 -1.0000e+00
       23  1    1    2    0    0 +4.6430192043e+01 +4.1154949834e+01 -4.0035877740e+00 1.1036653790e+02 9.1188000000e+01 0.0000e+00 0.0000e+00
       25  1    1    2    0    0 -4.6430192043e+01 -4.1154949834e+01 +4.0035877740e+00 1.3960845728e+02 1.2500000000e+02 0.0000e+00 0.0000e+00
</event>
<event>
 4      1 +2.1368000e-01 2.49642500e+02 7.54677100e-03 1.11353100e-01
      -11 -1    0    0    0    0 +0.0000000000e+00 +0.0000000000e+00 +1.2465616783e+02 1.2465616783e+02 0.0000000000e+00 0.0000e+00 1.0000e+00
       11 -1    0    0    0    0 -0.0000000000e+00 -0.0000000000e+00 -1.2498658323e+02 1.2498658323e+02 0.0000000000e+00 0.0000e+00 -1.0000e+00
       23  1    1    2    0    0 -1.4951640135e+00 -6.0714234291e+01 +1.1520854226e+01 1.1016549000e+02 9.1188000000e+01 0.0000e+00 0.0000e+00
       25  1    1    2    0    0 +1.4951640135e+00 +6.0714234291e+01 -1.1851269631e+01 1.3947726106e+02 1.2500000000e+02 0.0000e+00 0.0000e+00
</event>
<event>
 4      1 +2.1368000e-01 2.38197500e+02 7.54677100e-03 1.12099900e-01
      -11 -1    0    0    0    0 +0.0000000000e+00 +0.0000000000e+00 +1.1497386637e+02 1.1497386637e+02 0.0000000000e+00 0.0000e+00 -1.0000e+00
       11 -1    0    0    0    0 -0.0000000000e+00 -0.0000000000e+00 -1.2337165448e+02 1.2337165448e+02 0.0000000000e+00 0.0000e+00 1.0000e+00
       23  1    1    2    0    0 -2.1375291263e+01 -3.2881853456e+01 -3.3871161520e+01 1.0488387049e+02 9.1188000000e+01 0.0000e+00 1.0000e+00
       25  1    1    2    0    0 +2.1375291263e+01 +3.2881853456e+01 +2.5473373416e+01 1.3346165036e+02 1.2500000000e+02 0.0000e+00 0.0000e+00
</event>
<event>
 4      1 +2.1368000e-01 2.49679700e+02 7.54677100e-03 1.11350700e-01
      -11 -1    0    0    0    0 +0.0000000000e+00 +0.0000000000e+00 +1.2498689384e+02 1.2498689384e+02 0.0000000000e+00 0.0000e+00 -1.0000e+00
       11 -1    0    0    0    0 -0.0000000000e+00 -0.0000000000e+00 -1.2469295436e+02 1.2469295436e+02 0.0000000000e+00 0.0000e+00 1.0000e+00
       23  1    1    2    0    0 +4.5751121912e+01 +2.3337688898e+01 +3.4645336130e+01 1.1024229469e+02 9.1188000000e+01 0.0000e+00 1.0000e+00
       25  1    1    2    0    0 -4.5751121912e+01 -2.3337688898e+01 -3.4351396649e+01 1.3943755352e+02 1.2500000000e+02 0.0000e+00 0.0000e+00
</event>
<event>
 4      1 +2.1368000e-01 2.49552500e+02 7.54677100e-03 1.11358800e-01
      -11 -1    0    0    0    0 +0.0000000000e+00 +0.0000000000e+00 +1.2498853545e+02 1.2498853545e+02 0.0000000000e+00 0.0000e+00 1.0000e+00
       11 -1    0    0    0    0 -0.0000000000e+00 -0.0000000000e+00 -1.2456436228e+02 1.2456436228e+02 0.0000000000e+00 0.0000e+00 -1.0000e+00
       23  1    1    2    0    0 +4.5807206057e+01 +4.7971974837e+00 +4.1323308844e+01 1.1020063715e+02 9.1188000000e+01 0.0000e+00 0.0000e+00
       25  1    1    2    0    0 -4.5807206057e+01 -4.7971974837e+00 -4.0899135673e+01 1.3935226058e+02 1.2500000000e+02 0.0000e+00 0.0000e+00
</event>
<event>
 4      1 +2.1368000e-01 2.48855300e+02 7.54677100e-03 1.11403000e-01
      -11 -1    0    0    0    0 +0.0000000000e+00 +0.0000000000e+00 +1.2387072122e+02 1.2387072122e+02 0.0000000000e+00 0.0000e+00 1.0000e+00
       11 -1    0    0    0    0 -0.0000000000e+00 -0.0000000000e+00 -1.2498712657e+02 1.2498712657e+02 0.0000000000e+00 0.0000e+00 -1.0000e+00
       23  1    1    2    0    0 +4.9556201683e+01 -2.9806413332e+01 -2.0077732608e+01 1.0982989617e+02 9.1188000000e+01 0.0000e+00 0.0000e+00
       25  1    1    2    0    0 -4.9556201683e+01 +2.9806413332e+01 +1.8961327256e+01 1.3902795162e+02 1.2500000000e+02 0.0000e+00 0.0000e+00
</event>
<event>
 4      1 +2.1368000e-01 2.33721300e+02 7.54677100e-03 1.12404800e-01
      -11 -1    0    0    0    0 +0.0000000000e+00 +0.0000000000e+00 +1.2498792730e+02 1.2498792730e+02 0.0000000000e+00 0.0000e+00 1.0000e+00
       11 -1    0    0    0    0 -0.0000000000e+00 -0.0000000000e+00 -1.0926186449e+02 1.0926186449e+02 0.0000000000e+00 0.0000e+00 -1.0000e+00
       23  1    1    2    0    0 +1.1226479527e+01 -4.1727423254e+01 -1.1831400207e+00 1.0091512700e+02 9.1188000000e+01 0.0000e+00 -1.0000e+00
       25  1    1    2    0    0 -1.1226479527e+01 +4.1727423254e+01 +1.6909202831e+01 1.3333466479e+02 1.2500000000e+02 0.0000e+00 0.0000e+00
</event>
<event>
 4      1 +2.1368000e-01 2.49974900e+02 7.54677100e-03 1.11332100e-01
      -11 -1    0    0    0    0 +0.0000000000e+00 +0.0000000000e+00 +1.2498744505e+02 1.2498744505e+02 0.0000000000e+00 0.0000e+00 -1.0000e+00
       11 -1    0    0    0    0 -0.0000000000e+00 -0.0000000000e+00 -1.2498744505e+02 1.2498744505e+02 0.0000000000e+00 0.0000e+00 1.0000e+00
       23  1    1    2    0    0 -5.1990681165e+01 -1.5533506538e+01 -3.0351073075e+01 1.1036647921e+02 9.1188000000e+01 0.0000e+00 1.0000e+00
       25  1    1    2    0    0 +5.1990681165e+01 +1.5533506538e+01 +3.0351073075e+01 1.3960841089e+02 1.2500000000e+02 0.0000e+00 0.0000e+00
</event>
<event>
 4      1 +2.1368000e-01 2.49975000e+02 7.54677100e-03 1.11332100e-01
      -11 -1    0    0    0    0 +0.0000000000e+00 +0.0000000000e+00 +1.2498750000e+02 1.2498750000e+02 0.0000000000e+00 0.0000e+00 1.0000e+00
       11 -1    0    0    0    0 -0.0000000000e+00 -0.0000000000e+00 -1.2498750000e+02 1.2498750000e+02 0.0000000000e+00 0.0000e+00 -1.0000e+00
       23  1    1    2    0    0 -4.7379776435e+00 +5.0485834688e+01 -3.5975741851e+01 1.1036654059e+02 9.1188000000e+01 0.0000e+00 -1.0000e+00
       25  1    1    2    0    0 +4.7379776435e+00 -5.0485834688e+01 +3.5975741851e+01 1.3960845941e+02 1.2500000000e+02 0.0000e+00 0.0000e+00
</event>
<event>
 4      1 +2.1368000e-01 2.49434300e+02 7.54677100e-03 1.11366300e-01
      -11 -1    0    0    0    0 +0.0000000000e+00 +0.0000000000e+00 +1.2485189738e+02 1.2485189738e+02 0.0000000000e+00 0.0000e+00 1.0000e+00
       11 -1    0    0    0    0 -0.0000000000e+00 -0.0000000000e+00 -1.2458257286e+02 1.2458257286e+02 0.0000000000e+00 0.0000e+00 -1.0000e+00
       23  1    1    2    0    0 +6.1434030677e+01 +4.8123452311e+00 +1.4019415637e+00 1.1006596012e+02 9.1188000000e+01 0.0000e+00 -1.0000e+00
       25  1    1    2    0    0 -6.1434030677e+01 -4.8123452311e+00 -1.1326170433e+00 1.3936851012e+02 1.2500000000e+02 0.0000e+00 0.0000e+00
</event>
<event>
 4      1 +2.1368000e-01 2.49956200e+02 7.54677100e-03 1.11333300e-01
      -11 -1    0    0    0    0 +0.0000000000e+00 +0.0000000000e+00 +1.2496937289e+02 1.2496937289e+02 0.0000000000e+00 0.0000e+00 1.0000e+00
       11 -1    0    0    0    0 -0.0000000000e+00 -0.0000000000e+00 -1.2498678501e+02 1.2498678501e+02 0.0000000000e+00 0.0000e+00 -1.0000e+00
       23  1    1    2    0    0 -6.0911141988e+01 +3.7764082916e-01 -1.2372529802e+01 1.1035687866e+02 9.1188000000e+01 0.0000e+00 -1.0000e+00
       25  1    1    2    0    0 +6.0911141988e+01 -3.7764082916e-01 +1.2355117686e+01 1.3959927924e+02 1.2500000000e+02 0.0000e+00 0.0000e+00
</event>
<event>
 4      1 +2.1368000e-01 2.45386600e+02 7.54677100e-03 1.11625600e-01
      -11 -1    0    0    0    0 +0.0000000000e+00 +0.0000000000e+00 +1.2073903521e+02 1.2073903521e+02 0.0000000000e+00 0.0000e+00 -1.0000e+00
       11 -1    0    0    0    0 -0.0000000000e+00 -0.0000000000e+00 -1.2467916909e+02 1.2467916909e+02 0.0000000000e+00 0.0000e+00 1.0000e+00
       23  1    1    2    0    0 -5.0356424814e+01 +2.7010422902e+01 +4.5965320297e+00 1.0771124322e+02 9.1188000000e+01 0.0000e+00 0.0000e+00
       25  1    1    2    0    0 +5.0356424814e+01 -2.7010422902e+01 -8.5366659071e+00 1.3770696108e+02 1.2500000000e+02 0.0000e+00 0.0000e+00
</event>
<event>
 4      1 +2.1368000e-01 2.49974800e+02 7.54677100e-03 1.11332100e-01
      -11 -1    0    0    0    0 +0.0000000000e+00 +0.0000000000e+00 +1.2498742128e+02 1.2498742128e+02 0.0000000000e+00 0.0000e+00 -1.0000e+00
       11 -1    0    0    0    0 -0.0000000000e+00 -0.0000000000e+00 -1.2498742128e+02 1.2498742128e+02 0.0000000000e+00 0.0000e+00 1.0000e+00
       23  1    1    2    0    0 +1.5111414478e+01 -2.8654336608e+01 +5.3066719091e+01 1.1036645266e+02 9.1188000000e+01 0.0000e+00 -1.0000e+00
       25  1    1    2    0    0 -1.5111414478e+01 +2.8654336608e+01 -5.3066719091e+01 1.3960838989e+02 1.2500000000e+02 0.0000e+00 0.0000e+00
</event>
<event>
 4      1 +2.1368000e-01 2.49844100e+02 7.54677100e-03 1.11340300e-01
      -11 -1    0    0    0    0 +0.0000000000e+00 +0.0000000000e+00 +1.2486204278e+02 1.2486204278e+02 0.0000000000e+00 0.0000e+00 1.0000e+00
       11 -1    0    0    0    0 -0.0000000000e+00 -0.0000000000e+00 -1.2498213340e+02 1.2498213340e+02 0.0000000000e+00 0.0000e+00 -1.0000e+00
       23  1    1    2    0    0 +1.5876200325e+01 +1.2605720607e+01 -5.8691210605e+01 1.1032165461e+02 9.1188000000e+01 0.0000e+00 -1.0000e+00
       25  1    1    2    0    0 -1.5876200325e+01 -1.2605720607e+01 +5.8571119989e+01 1.3952252157e+02 1.2500000000e+02 0.0000e+00 0.0000e+00
</event>
<event>
 4      1 +2.1368000e-01 2.49147800e+02 7.54677100e-03 1.11384500e-01
      -11 -1    0    0    0    0 +0.0000000000e+00 +0.0000000000e+00 +1.2494325971e+02 1.2494325971e+02 0.0000000000e+00 0.0000e+00 -1.0000e+00
       11 -1    0    0    0    0 -0.0000000000e+00 -0.0000000000e+00 -1.2420563472e+02 1.2420563472e+02 0.0000000000e+00 0.0000e+00 1.0000e+00
       23  1    1    2    0    0 +5.9851660015e+00 +3.7906183786e+01 +4.8190239843e+01 1.1004658805e+02 9.1188000000e+01 0.0000e+00 -1.0000e+00
       25  1    1    2    0    0 -5.9851660015e+00 -3.7906183786e+01 -4.7452614854e+01 1.3910230637e+02 1.2500000000e+02 0.0000e+00 0.0000e+00
</event>
<event>
 4      1 +2.1368000e-01 2.49975000e+02 7.54677100e-03 1.11332100e-01
      -11 -1    0    0    0    0 +0.0000000000e+00 +0.0000000000e+00 +1.2498748757e+02 1.2498748757e+02 0.0000000000e+00 0.0000e+00 1.0000e+00
       11 -1    0    0    0    0 -0.0000000000e+00 -0.0000000000e+00 -1.2498748757e+02 1.2498748757e+02 0.0000000000e+00 0.0000e+00 -1.0000e+00
       23  1    1    2    0    0 +3.5443160441e+01 -2.0742680769e+01 -4.6680214714e+01 1.1036652671e+02 9.1188000000e+01 0.0000e+00 0.0000e+00
       25  1    1    2    0    0 -3.5443160441e+01 +2.0742680769e+01 +4.6680214714e+01 1.3960844843e+02 1.2500000000e+02 0.0000e+00 0.0000e+00
</event>
<event>
 4      1 +2.1368000e-01 2.29105100e+02 7.54677100e-03 1.12727100e-01
      -11 -1    0    0    0    0 +0.0000000000e+00 +0.0000000000e+00 +1.0566340994e+02 1.0566340994e+02 0.0000000000e+00 0.0000e+00 -1.0000e+00
       11 -1    0    0    0    0 -0.0000000000e+00 -0.0000000000e+00 -1.2418953843e+02 1.2418953843e+02 0.0000000000e+00 0.0000e+00 1.0000e+00
       23  1    1    2    0    0 -2.6299266819e+01 +2.0028483059e+00 -3.4724581696e+01 1.0107774609e+02 9.1188000000e+01 0.0000e+00 1.0000e+00
       25  1    1    2    0    0 +2.6299266819e+01 -2.0028483059e+00 +1.6198453209e+01 1.2877520228e+02 1.2500000000e+02 0.0000e+00 0.0000e+00
</event>
<event>
 4      1 +2.1368000e-01 2.49975000e+02 7.54677100e-03 1.11332100e-01
      -11 -1    0    0    0    0 +0.0000000000e+00 +0.0000000000e+00 +1.2498837067e+02 1.2498837067e+02 0.0000000000e+00 0.0000e+00 1.0000e+00
       11 -1    0    0    0    0 -0.0000000000e+00 -0.0000000000e+00 -1.2498662933e+02 1.2498662933e+02 0.0000000000e+00 0.0000e+00 -1.0000e+00
       23  1    1    2    0    0 +4.0926171544e+01 -2.6966555597e+01 -3.8253319838e+01 1.1036627411e+02 9.1188000000e+01 0.0000e+00 -1.0000e+00
       25  1    1    2    0    0 -4.0926171544e+01 +2.6966555597e+01 +3.8255061180e+01 1.3960872589e+02 1.2500000000e+02 0.0000e+00 0.0000e+00
</event>
<event>
 4      1 +2.1368000e-01 2.49974800e+02 7.54677100e-03 1.11332100e-01
      -11 -1    0    0    0    0 +0.0000000000e+00 +0.0000000000e+00 +1.2498652509e+02 1.2498652509e+02 0.0000000000e+00 0.0000e+00 -1.0000e+00
       11 -1    0    0    0    0 -0.0000000000e+00 -0.0000000000e+00 -1.2498826643e+02 1.2498826643e+02 0.0000000000e+00 0.0000e+00 1.0000e+00
       23  1    1    2    0    0 -6.2356252729e+00 +5.5948477726e+01 +2.6388264008e+01 1.1036624033e+02 9.1188000000e+01 0.0000e+00 0.0000e+00
       25  1    1    2    0    0 +6.2356252729e+00 -5.5948477726e+01 -2.6390005350e+01 1.3960855119e+02 1.2500000000e+02 0.0000e+00 0.0000e+00
</event>
<event>
 4      1 +2.1368000e-01 2.49967100e+02 7.54677100e-03 1.11332600e-01
      -11 -1    0    0    0    0 +0.0000000000e+00 +0.0000000000e+00 +1.2498614905e+02 1.2498614905e+02 0.0000000000e+00 0.0000e+00 1.0000e+00
       11 -1    0    0    0    0 -0.0000000000e+00 -0.0000000000e+00 -1.2498092518e+02 1.2498092518e+02 0.0000000000e+00 0.0000e+00 -1.0000e+00
       23  1    1    2    0    0 -1.8373866722e+01 +5.8263915347e+01 +1.1502831203e+01 1.1036235445e+02 9.1188000000e+01 0.0000e+00 0.0000e+00
       25  1    1    2    0    0 +1.8373866722e+01 -5.8263915347e+01 -1.1497607340e+01 1.3960471978e+02 1.2500000000e+02 0.0000e+00 0.0000e+00
</event>
<event>
 4      1 +2.1368000e-01 2.49055400e+02 7.54677100e-03 1.11390300e-01
      -11 -1    0    0    0    0 +0.0000000000e+00 +0.0000000000e+00 +1.2498742031e+02 1.2498742031e+02 0.0000000000e+00 0.0000e+00 1.0000e+00
       11 -1    0    0    0    0 -0.0000000000e+00 -0.0000000000e+00 -1.2406963258e+02 1.2406963258e+02 0.0000000000e+00 0.0000e+00 -1.0000e+00
       23  1    1    2    0    0 +6.1120613881e+01 -4.0501651490e+00 -8.3495308465e-02 1.0985167998e+02 9.1188000000e+01 0.0000e+00 1.0000e+00
       25  1    1    2    0    0 -6.1120613881e+01 +4.0501651490e+00 +1.0012830313e+00 1.3920537291e+02 1.2500000000e+02 0.0000e+00 0.0000e+00
</event>
<event>
 4      1 +2.1368000e-01 2.46782500e+02 7.54677100e-03 1.11535500e-01
      -11 -1    0    0    0    0 +0.0000000000e+00 +0.0000000000e+00 +1.2498734105e+02 1.2498734105e+02 0.0000000000e+00 0.0000e+00 1.0000e+00
       11 -1    0    0    0    0 -0.0000000000e+00 -0.0000000000e+00 -1.2181557529e+02 1.2181557529e+02 0.0000000000e+00 0.0000e+00 -1.0000e+00
       23  1    1    2    0    0 -1.3012896281e+01 -4.7877009144e+00 -5.5901085882e+01 1.0785379129e+02 9.1188000000e+01 0.0000e+00 -1.0000e+00
       25  1    1    2    0    0 +1.3012896281e+01 +4.7877009144e+00 +5.9072851650e+01 1.3894912505e+02 1.2500000000e+02 0.0000e+00 0.0000e+00
</event>
<event>
 4      1 +2.1368000e-01 2.49944600e+02 7.54677100e-03 1.11334000e-01
      -11 -1    0    0    0    0 +0.0000000000e+00 +0.0000000000e+00 +1.2498797210e+02 1.2498797210e+02 0.0000000000e+00 0.0000e+00 1.0000e+00
       11 -1    0    0    0    0 -0.0000000000e+00 -0.0000000000e+00 -1.2495663195e+02 1.2495663195e+02 0.0000000000e+00 0.0000e+00 -1.0000e+00
       23  1    1    2    0    0 +3.5822299418e+01 +1.9619726971e+01 -4.6822090077e+01 1.1034369164e+02 9.1188000000e+01 0.0000e+00 0.0000e+00
       25  1    1    2    0    0 -3.5822299418e+01 -1.9619726971e+01 +4.6853430220e+01 1.3960091241e+02 1.2500000000e+02 0.0000e+00 0.0000e+00
</event>
<event>
 4      1 +2.1368000e-01 2.40154600e+02 7.54677100e-03 1.11969000e-01
      -11 -1    0    0    0    0 +0.0000000000e+00 +0.0000000000e+00 +1.1535984117e+02 1.1535984117e+02 0.0000000000e+00 0.0000e+00 -1.0000e+00
       11 -1    0    0    0    0 -0.0000000000e+00 -0.0000000000e+00 -1.2498766015e+02 1.2498766015e+02 0.0000000000e+00 0.0000e+00 1.0000e+00
       23  1    1    2    0    0 +4.0866692530e+01 -6.2035045576e+00 -3.5397300035e+01 1.0619223239e+02 9.1188000000e+01 0.0000e+00 1.0000e+00
       25  1    1    2    0    0 -4.0866692530e+01 +6.2035045576e+00 +2.5769481050e+01 1.3415526893e+02 1.2500000000e+02 0.0000e+00 0.0000e+00
</event>
<event>
 4      1 +2.1368000e-01 2.39642300e+02 7.54677100e-03 1.12003100e-01
      -11 -1    0    0    0    0 +0.0000000000e+00 +0.0000000000e+00 +1.1486887649e+02 1.1486887649e+02 0.0000000000e+00 0.0000e+00 1.0000e+00
       11 -1    0    0    0    0 -0.0000000000e+00 -0.0000000000e+00 -1.2498695990e+02 1.2498695990e+02 0.0000000000e+00 0.0000e+00 -1.0000e+00
       23  1    1    2    0    0 -3.0487246816e+01 -3.6925434523e+01 -2.2504125141e+01 1.0542602584e+02 9.1188000000e+01 0.0000e+00 0.0000e+00
       25  1    1    2    0    0 +3.0487246816e+01 +3.6925434523e+01 +1.2386041731e+01 1.3442981054e+02 1.2500000000e+02 0.0000e+00 0.0000e+00
</event>
<event>
 4      1 +2.1368000e-01 2.42326600e+02 7.54677100e-03 1.11825300e-01
      -11 -1    0    0    0    0 +0.0000000000e+00 +0.0000000000e+00 +1.1745735747e+02 1.1745735747e+02 0.0000000000e+00 0.0000e+00 1.0000e+00
       11 -1    0    0    0    0 -0.0000000000e+00 -0.0000000000e+00 -1.2498613421e+02 1.2498613421e+02 0.0000000000e+00 0.0000e+00 -1.0000e+00
       23  1    1    2    0    0 -1.1899082817e+01 -1.6235496926e+01 -5.3646172669e+01 1.0769560213e+02 9.1188000000e+01 0.0000e+00 -1.0000e+00
       25  1    1    2    0    0 +1.1899082817e+01 +1.6235496926e+01 +4.6117395929e+01 1.3474788956e+02 1.2500000000e+02 0.0000e+00 0.0000e+00
</event>
<event>
 4      1 +2.1368000e-01 2.49971200e+02 7.54677100e-03 1.11332300e-01
      -11 -1    0    0    0    0 +0.0000000000e+00 +0.0000000000e+00 +1.2498298493e+02 1.2498298493e+02 0.0000000000e+00 0.0000e+00 1.0000e+00
       11 -1    0    0    0    0 -0.0000000000e+00 -0.0000000000e+00 -1.2498820888e+02 1.2498820888e+02 0.0000000000e+00 0.0000e+00 -1.0000e+00
       23  1    1    2    0    0 +5.6857295118e+01 -3.8651295017e+00 +2.4844453614e+01 1.1036389561e+02 9.1188000000e+01 0.0000e+00 0.0000e+00
       25  1    1    2    0    0 -5.6857295118e+01 +3.8651295017e+00 -2.4849677563e+01 1.3960729819e+02 1.2500000000e+02 0.0000e+00 0.0000e+00
</event>
<event>
 4      1 +2.1368000e-01 2.49755000e+02 7.54677100e-03 1.11346000e-01
      -11 -1    0    0    0    0 +0.0000000000e+00 +0.0000000000e+00 +1.2476793089e+02 1.2476793089e+02 0.0000000000e+00 0.0000e+00 1.0000e+00
       11 -1    0    0    0    0 -0.0000000000e+00 -0.0000000000e+00 -1.2498714707e+02 1.2498714707e+02 0.0000000000e+00 0.0000e+00 -1.0000e+00
       23  1    1    2    0    0 -2.6000111112e+01 -5.1105547981e+01 +2.3368720143e+01 1.1022309757e+02 9.1188000000e+01 0.0000e+00 0.0000e+00
       25  1    1    2    0    0 +2.6000111112e+01 +5.1105547981e+01 -2.3587936320e+01 1.3953198039e+02 1.2500000000e+02 0.0000e+00 0.0000e+00
</event>
<event>
 4      1 +2.1368000e-01 2.49683700e+02 7.54677100e-03 1.11350500e-01
      -11 -1    0    0    0    0 +0.0000000000e+00 +0.0000000000e+00 +1.2498715993e+02 1.2498715993e+02 0.0000000000e+00 0.0000e+00 1.0000e+00
       11 -1    0    0    0    0 -0.0000000000e+00 -0.0000000000e+00 -1.2469669436e+02 1.2469669436e+02 0.0000000000e+00 0.0000e+00 -1.0000e+00
       23  1    1    2    0    0 +2.4626804195e+01 +1.6373935449e+00 -5.6621028727e+01 1.1013788077e+02 9.1188000000e+01 0.0000e+00 -1.0000e+00
       25  1    1    2    0    0 -2.4626804195e+01 -1.6373935449e+00 +5.6911494295e+01 1.3954597352e+02 1.2500000000e+02 0.0000e+00 0.0000e+00
</event>
<event>
 4      1 +2.1368000e-01 2.49807300e+02 7.54677100e-03 1.11342700e-01
      -11 -1    0    0    0    0 +0.0000000000e+00 +0.0000000000e+00 +1.2482100125e+02 1.2482100125e+02 0.0000000000e+00 0.0000e+00 -1.0000e+00
       11 -1    0    0    0    0 -0.0000000000e+00 -0.0000000000e+00 -1.2498631786e+02 1.2498631786e+02 0.0000000000e+00 0.0000e+00 1.0000e+00
       23  1    1    2    0    0 -1.6994368494e+01 +5.5223995034e+01 +2.2429320106e+01 1.1025798807e+02 9.1188000000e+01 0.0000e+00 -1.0000e+00
       25  1    1    2    0    0 +1.6994368494e+01 -5.5223995034e+01 -2.2594636716e+01 1.3954933105e+02 1.2500000000e+02 0.0000e+00 0.0000e+00
</event>
<event>
 4      1 +2.1368000e-01 2.49963300e+02 7.54677100e-03 1.11332800e-01
      -11 -1    0    0    0    0 +0.0000000000e+00 +0.0000000000e+00 +1.2498773715e+02 1.2498773715e+02 0.0000000000e+00 0.0000e+00 1.0000e+00
       11 -1    0    0    0    0 -0.0000000000e+00 -0.0000000000e+00 -1.2497554832e+02 1.2497554832e+02 0.0000000000e+00 0.0000e+00 -1.0000e+00
       23  1    1    2    0    0 +1.9523141272e+01 +5.8502696811e+01 -7.7637384207e+00 1.1035961923e+02 9.1188000000e+01 0.0000e+00 0.0000e+00
       25  1    1    2    0    0 -1.9523141272e+01 -5.8502696811e+01 +7.7759272499e+00 1.3960366623e+02 1.2500000000e+02 0.0000e+00 0.0000e+00
</event>
</LesHouchesEvents>
